/*--------------------------------*- C++ -*----------------------------------*\
| =========                 |                                                 |
| \\      /  F ield         | OpenFOAM: The Open Source CFD Toolbox           |
|  \\    /   O peration     | Version:  v2012                                 |
|   \\  /    A nd           | Website:  www.openfoam.com                      |
|    \\/     M anipulation  |                                                 |
\*---------------------------------------------------------------------------*/
FoamFile
{
    version     2.0;
    format      ascii;
    class       volVectorField;
    location    "12000";
    object      wallShearStress;
}
// * * * * * * * * * * * * * * * * * * * * * * * * * * * * * * * * * * * * * //

dimensions      [1 -1 -2 0 0 0 0];


internalField   uniform (0 0 0);

boundaryField
{
    top
    {
        type            calculated;
        value           uniform (0 0 0);
    }
    base
    {
        type            calculated;
        value           nonuniform List<vector> 
276
(
(-93.9623 -0.222795 2.65785e-17)
(-99.128 0.000459388 -6.40656e-18)
(-148.956 0.000598106 4.43645e-20)
(-156.751 0.000946126 1.3145e-20)
(-156.191 -0.00057845 -3.28626e-21)
(-154.251 -0.000135039 8.8729e-20)
(-152.105 -5.58136e-05 -1.6267e-19)
(-150.098 -8.85235e-05 -8.21565e-22)
(-148.3 -0.000536147 -2.23466e-19)
(-146.725 0.000276877 -1.51168e-19)
(-145.345 9.5713e-05 -8.21565e-22)
(-144.126 0.000454147 -9.85878e-21)
(-143.038 0.000106229 -3.28626e-21)
(-142.068 0.000440485 -1.3145e-20)
(-141.196 0.000434779 0)
(-140.411 0.000429564 -6.57252e-21)
(-139.705 0.000425056 -3.28626e-21)
(-139.066 0.000594111 -2.62901e-20)
(-138.484 0.000417265 1.70886e-19)
(-137.95 0.000412427 -6.57252e-21)
(-137.461 0.000410989 -5.91527e-20)
(-137.016 0.000407904 0)
(-136.606 0.000405718 1.97176e-20)
(-136.231 0.000403216 3.87779e-19)
(-135.887 -0.00040942 -1.18305e-19)
(-135.571 0.000398095 -8.8729e-19)
(-135.28 0.000396529 -9.20153e-20)
(-135.014 0.000488483 5.19229e-19)
(-134.77 -0.00017513 6.24389e-20)
(-134.549 0.000463162 4.73221e-19)
(-134.347 -0.000450773 -6.57252e-20)
(-134.163 -0.000480971 -8.01847e-19)
(-133.996 0.000300044 0)
(-133.845 -0.00024518 -6.70397e-19)
(-133.707 -2.81849e-05 -0)
(-133.581 1.7861e-05 6.26033e-19)
(-133.468 0.000391769 0)
(-133.364 4.8156e-06 -7.22772e-19)
(-133.269 5.89471e-06 8.21565e-22)
(-133.183 7.50493e-06 -4.10783e-22)
(-133.104 -0.000311458 1.15676e-18)
(-133.031 0.000270746 1.70886e-18)
(-132.963 -0.000185848 -1.62999e-18)
(-132.902 -0.000264543 2.62901e-20)
(-132.844 0.000506015 2.36611e-19)
(-132.79 -1.83471e-05 -0)
(-132.738 -1.58392e-05 1.42952e-18)
(-132.689 0.000502527 1.09104e-18)
(-132.642 0.000217027 -1.76801e-18)
(-132.596 -0.000436392 -1.68257e-18)
(-132.554 -0.00028355 -0)
(-132.513 -0.000436191 1.3145e-20)
(-132.475 -0.000276568 1.3145e-20)
(-132.438 0.000210868 2.62901e-20)
(-132.403 0.000491844 1.94547e-18)
(-132.37 -0.000367992 -7.09832e-19)
(-132.337 0.000376584 6.83542e-19)
(-132.306 -2.94306e-05 1.37366e-18)
(-132.275 1.60781e-05 4.10783e-21)
(-132.245 -1.87926e-06 1.14909e-18)
(-132.216 0.000186067 1.3145e-20)
(-132.188 -1.25495e-05 -1.87317e-18)
(-132.161 0.000312444 6.94058e-18)
(-132.134 -1.21213e-05 8.587e-18)
(-132.107 -0.00056974 -1.0516e-19)
(-132.08 0.00032531 -4.99512e-18)
(-132.054 0.000327406 5.25802e-20)
(-132.029 -3.55589e-05 1.01874e-18)
(-132.004 0.000234367 6.94058e-18)
(-131.979 -1.40179e-05 -5.57021e-19)
(-131.954 -1.49093e-05 -2.88287e-18)
(-131.93 0.000333662 -5.25802e-20)
(-131.906 -1.35173e-05 8.21565e-22)
(-131.882 -1.16297e-05 3.60667e-19)
(-131.859 0.000346991 -1.78773e-18)
(-131.836 0.000386279 -1.99805e-18)
(-131.812 -0.000253918 1.0516e-19)
(-131.792 0.000355596 4.25899e-18)
(-131.755 0.000503818 0)
(-131.729 0.000351771 -2.62901e-20)
(-131.705 0.000352522 6.07301e-18)
(-131.681 -0.000401505 0)
(-131.656 0.000503052 3.68061e-18)
(-131.632 0.000353022 3.15481e-19)
(-131.607 0.000351853 -5.25802e-20)
(-131.58 0.000353017 0)
(-131.554 0.00035246 3.62803e-18)
(-131.528 0.000355104 1.30662e-17)
(-131.502 -0.000380969 -6.46736e-18)
(-131.475 -0.00039531 8.41283e-19)
(-131.449 0.000350159 -4.99512e-19)
(-131.423 0.000349281 -2.94449e-18)
(-131.396 0.00034842 -7.88702e-20)
(-131.369 0.000350334 -2.62901e-20)
(-131.342 0.000350023 -3.60174e-18)
(-131.315 -0.000381014 -2.62901e-19)
(-131.29 0.000106194 -2.34245e-17)
(-131.261 0.000490979 -2.62901e-19)
(-131.23 0.000345482 7.62412e-18)
(-131.201 -0.000397739 -5.25802e-20)
(-131.172 0.000345672 -1.39337e-17)
(-131.143 0.000487173 -1.0516e-19)
(-131.114 0.000343653 -5.25802e-20)
(-131.085 0.000342774 -7.88702e-20)
(-131.057 0.000484505 0)
(-131.027 0.000341722 5.25802e-20)
(-130.995 0.000341492 5.25802e-20)
(-130.965 0.000341011 -2.62901e-20)
(-130.934 0.0003403 -1.0516e-19)
(-130.904 0.000339765 -7.88702e-20)
(-130.873 0.000341873 4.36415e-18)
(-130.842 -0.000376043 -1.0516e-19)
(-130.812 0.000341133 -4.81108e-18)
(-130.78 0.000337754 2.62901e-20)
(-130.747 0.000338527 0)
(-130.719 0.000332958 -6.83542e-19)
(-130.687 9.69816e-05 -1.3145e-20)
(-130.65 0.000471559 5.25802e-20)
(-130.611 0.000339024 -4.73221e-19)
(-130.582 0.000336886 3.94351e-19)
(-130.556 0.000337577 1.20934e-18)
(-130.519 0.000186331 -2.36611e-19)
(-130.485 0.000335315 -1.81402e-18)
(-130.451 0.000472561 -2.10321e-19)
(-130.418 -0.000385795 4.39044e-18)
(-130.38 -0.000366578 9.99023e-19)
(-130.33 0.000331687 4.67963e-18)
(-130.314 0.000518889 -2.62901e-19)
(-130.285 0.000332315 2.36611e-19)
(-130.254 0.000470783 5.25802e-20)
(-130.219 0.000332838 2.89191e-19)
(-130.179 0.000184797 -7.88702e-20)
(-130.143 0.000331486 8.93863e-19)
(-130.111 0.000329793 -7.88702e-20)
(-130.075 0.000377164 2.10321e-19)
(-130.037 0.000183774 1.18305e-19)
(-130.005 0.000328742 7.88702e-19)
(-129.969 0.000326199 5.25802e-20)
(-129.933 0.000459204 -5.20544e-18)
(-129.891 -0.00038081 -1.5774e-18)
(-129.859 0.000186417 1.95861e-18)
(-129.827 0.00032077 7.88702e-20)
(-129.778 0.000327236 1.18305e-18)
(-129.744 0.000384449 -4.20641e-19)
(-129.712 0.000388382 6.83542e-19)
(-129.679 0.000177764 4.02238e-18)
(-129.655 -0.000378103 3.41771e-19)
(-129.604 1.13595e-05 2.82618e-19)
(-129.563 -7.23846e-05 8.54428e-20)
(-129.525 0.000183273 -1.8666e-18)
(-129.486 0.00032603 5.25802e-20)
(-129.449 -0.000264189 -8.67573e-19)
(-129.397 -0.000362167 -2.73417e-18)
(-129.36 1.98865e-05 1.54454e-19)
(-129.329 0.000183488 1.59055e-18)
(-129.285 -0.000366755 -1.47224e-18)
(-129.246 -6.65292e-05 -5.25802e-19)
(-129.205 1.39935e-05 -1.94218e-18)
(-129.167 0.000181413 9.20153e-20)
(-129.116 -1.65594e-05 -1.11733e-19)
(-129.072 1.60905e-05 -2.30038e-20)
(-129.04 1.59131e-05 9.20153e-20)
(-129.003 0.000177366 3.94351e-20)
(-128.968 1.12408e-05 -1.82387e-19)
(-128.912 -1.65164e-05 6.57252e-21)
(-128.86 1.00796e-05 -7.22977e-20)
(-128.829 1.47136e-05 1.85674e-19)
(-128.792 0.000230267 1.84031e-19)
(-128.745 0.000221957 -2.62901e-20)
(-128.703 -0.000254804 -1.0516e-19)
(-128.658 4.89226e-06 1.64313e-21)
(-128.614 -0.000240716 0)
(-128.576 0.000157541 1.0516e-19)
(-128.527 0.000418068 -1.3145e-18)
(-128.374 -0.00085816 -1.58266e-17)
(-118.192 -0.0243998 1.00954e-17)
(-37.4989 -0.0191195 -1.43018e-17)
(11.7966 0.00409705 -3.40719e-17)
(22.021 0.0110961 -4.20641e-18)
(24.5489 0.0137903 -8.41283e-19)
(24.4267 0.0117107 -8.41283e-19)
(24.6553 0.00998389 -2.52385e-18)
(25.3826 0.00863909 3.36513e-18)
(26.047 0.00722455 -2.10321e-18)
(26.5697 0.00606385 -3.36513e-18)
(27.0637 0.00494541 -1.68257e-18)
(27.3553 0.00372451 -1.26192e-18)
(27.5077 0.00241651 1.47224e-18)
(28.5748 0.00121052 4.20641e-19)
(32.7136 -0.000995855 6.59881e-18)
(41.2289 -0.00579795 -0)
(48.3341 0.00396971 8.41283e-19)
(47.9569 0.000298014 8.14993e-19)
(45.1632 0.00162841 3.15481e-19)
(38.8038 0.00192551 3.15481e-19)
(29.9987 0.00207095 -1.0516e-19)
(19.9067 0.0010006 -1.0516e-19)
(10.0801 0.00045088 -5.25802e-20)
(1.40164 -0.000458843 -4.20641e-19)
(-7.70987 -0.000520792 4.20641e-19)
(-18.0454 -0.000515972 1.26192e-18)
(-28.83 -0.000799494 0)
(-39.5583 -0.00131305 2.10321e-19)
(-49.5569 -0.00208173 2.10321e-18)
(-58.3656 -0.0029886 4.20641e-19)
(-65.843 -0.00328974 1.26192e-18)
(-72.2714 -0.0037976 0)
(-78.7112 -0.00309972 -1.26192e-18)
(-85.6266 -0.00273665 -4.20641e-19)
(-93.158 -0.00177 4.62705e-18)
(-100.922 -0.000949368 2.10321e-19)
(-108.648 2.86689e-05 -1.0516e-19)
(-116.201 0.00122519 -2.62901e-18)
(-123.514 0.00211347 1.99805e-18)
(-130.56 0.00382597 -5.88898e-18)
(-137.316 0.00614035 -6.30962e-18)
(-143.81 0.00906254 7.57154e-18)
(-150.041 0.0123107 3.02862e-17)
(-156.031 0.015586 -1.68257e-17)
(-161.811 0.0183665 -1.68257e-17)
(-167.423 0.0200481 -3.36513e-18)
(-172.892 0.0201111 5.0477e-18)
(-178.217 0.018188 1.68257e-17)
(-183.358 0.0141801 -1.68257e-18)
(-188.274 0.00852979 2.60798e-17)
(-192.922 0.00221354 -2.46075e-17)
(-197.26 -0.00137437 3.55442e-17)
(-201.268 -0.0105983 -1.68257e-18)
(-204.955 -0.0176346 -5.21595e-17)
(-208.305 -0.0219497 2.18733e-17)
(-211.433 -0.0219374 -8.41283e-18)
(-214.453 -0.017655 -3.36513e-17)
(-217.447 -0.0106737 8.41283e-19)
(-220.428 -0.00274377 1.26192e-18)
(-223.343 -4.63581e-05 3.18373e-17)
(-226.234 0.00815912 -6.81439e-17)
(-229.053 0.0143995 0)
(-231.708 0.0179308 -1.85082e-17)
(-234.128 0.0190336 -1.68257e-18)
(-236.269 0.017462 -5.0477e-18)
(-238.126 0.0138034 3.8699e-17)
(-239.729 0.00925487 0)
(-241.121 0.0043943 0)
(-242.355 0.000221483 -2.62901e-20)
(-243.521 -0.000663913 3.15481e-19)
(-244.791 -0.00555596 4.9215e-17)
(-247.417 -0.00960473 -6.14136e-17)
(-250.68 -0.0203254 3.36513e-18)
(-252.245 -0.0202767 7.7398e-17)
(-252.599 -0.0050189 8.41283e-19)
(-257.345 -0.0139594 0)
(-259.431 -0.00416129 -5.80485e-17)
(-263.145 0.000475321 2.62901e-20)
(-266.579 -0.00182362 -1.91392e-17)
(-269.885 0.0019084 4.20641e-19)
(-273.118 0.00502141 -8.41283e-19)
(-276.138 0.00497336 2.6921e-17)
(-278.876 0.00327488 -2.08217e-17)
(-281.288 0.00114944 -9.25411e-18)
(-283.346 0.00400074 8.41283e-19)
(-285.043 -0.00173173 2.98655e-17)
(-286.392 -1.57603e-07 2.62901e-20)
(-287.399 0.00078351 5.06873e-17)
(-288.085 -0.00625339 1.76669e-17)
(-288.484 -0.00303351 -2.06114e-17)
(-288.626 -0.00518898 -2.52385e-18)
(-288.536 -0.00452356 8.41283e-19)
(-288.225 0.000534846 1.14625e-17)
(-287.718 0.0011533 -1.0516e-19)
(-287.026 9.54924e-06 -1.3145e-20)
(-286.163 -0.00778838 8.41283e-19)
(-285.134 -0.00387962 8.41283e-19)
(-283.981 0.00121699 2.96552e-17)
(-282.579 -0.00631894 1.68257e-18)
(-281.988 0.00934627 4.20641e-17)
(-278.419 4.41811e-05 4.42702e-17)
)
;
    }
    frontAndBack
    {
        type            empty;
    }
    inlet
    {
        type            calculated;
        value           uniform (0 0 0);
    }
    outlet
    {
        type            calculated;
        value           uniform (0 0 0);
    }
}


// ************************************************************************* //
