/*--------------------------------*- C++ -*----------------------------------*\
| =========                 |                                                 |
| \\      /  F ield         | OpenFOAM: The Open Source CFD Toolbox           |
|  \\    /   O peration     | Version:  v2012                                 |
|   \\  /    A nd           | Website:  www.openfoam.com                      |
|    \\/     M anipulation  |                                                 |
\*---------------------------------------------------------------------------*/
FoamFile
{
    version     2.0;
    format      ascii;
    class       volScalarField;
    location    "12000";
    object      xx;
}
// * * * * * * * * * * * * * * * * * * * * * * * * * * * * * * * * * * * * * //

dimensions      [0 0 0 0 0 0 0];


internalField   nonuniform List<scalar> 
27324
(
0.146577
0.146714
0.422507
0.14464
0.412209
0.395091
0.142094
0.39283
0.380571
0.25984
0.138756
0.370684
0.358236
0.246371
0.140416
0.133892
0.344996
0.333669
0.228314
0.130205
0.0693933
0.127955
0.313731
0.305983
0.209512
0.117897
0.0631601
0.0328945
0.121638
0.278987
0.274108
0.189577
0.105984
0.0562106
0.0296846
0.0157746
0.115087
0.243232
0.240013
0.169795
0.0944475
0.0499247
0.0262875
0.0143452
0.00817762
0.104762
0.207049
0.206
0.151272
0.0852519
0.0442275
0.0233597
0.0128704
0.00763939
0.00472647
0.0828501
0.164983
0.173201
0.134127
0.0783355
0.0402931
0.0208009
0.0116507
0.00707884
0.00454096
0.00292859
0.0508473
0.114489
0.138265
0.117993
0.0724408
0.0377813
0.0191423
0.0106211
0.0066343
0.004326
0.00285333
0.00186179
0.02265
0.0693268
0.100016
0.100544
0.066493
0.0357835
0.0181719
0.00998307
0.00627069
0.00415227
0.00274921
0.00182114
0.00118455
0.0133813
0.0387389
0.0638244
0.078279
0.0597615
0.0336053
0.0174453
0.0096324
0.00605703
0.00400531
0.00265921
0.00175959
0.00115699
0.000752262
0.011645
0.0290013
0.0383988
0.0543113
0.0488819
0.0310889
0.0166445
0.00937055
0.00594704
0.00391782
0.00257897
0.00170521
0.0011157
0.000732874
0.000474462
0.0112038
0.0270209
0.0289098
0.037515
0.0373561
0.0263249
0.0155262
0.00907883
0.00585784
0.00387249
0.00252858
0.00165661
0.00107974
0.000705498
0.000460602
0.000301608
0.0109708
0.0263716
0.0266512
0.0310299
0.0289938
0.0217742
0.01346
0.00843487
0.00572552
0.00383073
0.00249981
0.00162416
0.0010479
0.000683094
0.000441876
0.000292354
0.000194806
0.0108024
0.0259407
0.025778
0.0292721
0.0252797
0.0185123
0.0117242
0.00740351
0.00524483
0.00372854
0.00247057
0.00160393
0.00102398
0.00066382
0.000427091
0.000280576
0.000189388
0.000130413
0.0106133
0.0255702
0.0251061
0.0283241
0.0241913
0.016586
0.0105735
0.00663921
0.00465637
0.00335555
0.00236319
0.00157898
0.00100735
0.000647086
0.000414263
0.000271183
0.000182323
0.000127384
9.24479e-05
0.010406
0.0251129
0.0244673
0.0275045
0.0234676
0.016041
0.00955178
0.00614912
0.00436447
0.00303183
0.00210048
0.00145594
0.000975799
0.000631633
0.000400447
0.000262769
0.000175084
0.000122729
9.0396e-05
6.84374e-05
0.0101727
0.0245767
0.0237881
0.0268151
0.0228271
0.0156727
0.00923828
0.00561954
0.00422384
0.003006
0.00195894
0.00128653
0.000869451
0.000581375
0.000378745
0.000249693
0.000166847
0.000114357
8.75239e-05
6.34049e-05
5.53826e-05
0.00991416
0.0239507
0.0231026
0.0261516
0.0223064
0.0153342
0.00907087
0.00531734
0.00391989
0.00308424
0.00205833
0.0012588
0.000783797
0.00050484
0.000332794
0.000218762
0.000147097
0.000102456
7.49689e-05
5.57726e-05
4.49254e-05
3.89194e-05
0.00964299
0.0232518
0.0224258
0.0255371
0.0218248
0.0150262
0.00892292
0.00523158
0.00360486
0.00295161
0.00223187
0.00138811
0.000814385
0.00048221
0.00029697
0.000188923
0.000124074
8.50622e-05
6.10301e-05
4.61144e-05
3.71141e-05
3.21574e-05
3.40835e-05
0.00937067
0.0225252
0.021777
0.024968
0.021379
0.0147078
0.00876008
0.00517642
0.00353469
0.00271985
0.00222124
0.00156529
0.000928667
0.000528314
0.000306709
0.000183995
0.000115526
7.69078e-05
5.446e-05
4.12632e-05
3.36403e-05
2.95384e-05
2.90261e-05
3.6338e-05
0.00910876
0.0218131
0.0211795
0.0244349
0.0209499
0.0143901
0.00857165
0.00511109
0.00351157
0.00262877
0.00206636
0.00160837
0.00108462
0.000615119
0.000345357
0.000200203
0.00012105
7.79219e-05
5.38713e-05
4.03224e-05
3.27884e-05
2.89184e-05
2.75014e-05
3.13195e-05
4.2422e-05
0.00886601
0.0211575
0.020644
0.0239426
0.0205208
0.0140694
0.00837877
0.00503202
0.00349025
0.00260932
0.00195357
0.00151277
0.00115281
0.000727355
0.000401974
0.000227821
0.00013407
8.40285e-05
5.66424e-05
4.1605e-05
3.33688e-05
2.90876e-05
2.72607e-05
2.85523e-05
3.73013e-05
4.98275e-05
0.00864712
0.0205897
0.0201711
0.0234781
0.0200836
0.0137483
0.00818644
0.00495201
0.00346234
0.00259733
0.00193445
0.00142177
0.00111099
0.000793481
0.000471369
0.000261719
0.000150293
9.2051e-05
6.07084e-05
4.37121e-05
3.44511e-05
2.96e-05
2.73138e-05
2.70586e-05
3.30927e-05
4.51741e-05
6.34891e-05
0.00845081
0.0201158
0.0197472
0.0230199
0.0196261
0.0134253
0.00800994
0.00487502
0.00343336
0.00258227
0.00192624
0.00139266
0.00103844
0.000791283
0.000525246
0.000300952
0.00016896
0.000101057
6.52324e-05
4.6049e-05
3.56618e-05
3.01504e-05
2.75015e-05
2.65728e-05
2.9683e-05
4.05707e-05
5.56704e-05
0.000103308
0.00827028
0.0197145
0.0193428
0.0225443
0.019141
0.0131008
0.00784521
0.00480981
0.00340495
0.00256679
0.00191836
0.00138619
0.000996124
0.000743527
0.000543866
0.000336898
0.000189875
0.000111128
7.02051e-05
4.86144e-05
3.69913e-05
3.08132e-05
2.77169e-05
2.64821e-05
2.74257e-05
3.59334e-05
4.98798e-05
8.23849e-05
0.000233882
0.00809495
0.0193468
0.0189276
0.0220258
0.0186354
0.0127793
0.00768868
0.0047522
0.00338082
0.00255146
0.00191059
0.0013822
0.000987755
0.000704882
0.000520322
0.0003616
0.000212013
0.000122473
7.57161e-05
5.14428e-05
3.84802e-05
3.15988e-05
2.804e-05
2.6512e-05
2.63797e-05
3.18446e-05
4.47971e-05
6.83523e-05
0.000169848
0.000674644
0.0079029
0.0189652
0.0184822
0.021456
0.0181261
0.0124614
0.0075397
0.00469872
0.0033599
0.00253808
0.0019036
0.00137849
0.000984506
0.00069034
0.000486962
0.000356827
0.00023487
0.000135346
8.18746e-05
5.45201e-05
4.01292e-05
3.25037e-05
2.84816e-05
2.66142e-05
2.60517e-05
2.87575e-05
3.98192e-05
5.85061e-05
0.000126646
0.000470113
0.00217763
0.00768865
0.0185306
0.0180012
0.0208537
0.0176218
0.0121558
0.00739663
0.00464815
0.00334113
0.00252598
0.00189857
0.0013753
0.000982126
0.000687019
0.000467951
0.000333688
0.000239475
0.000149526
8.87606e-05
5.78241e-05
4.18978e-05
3.35166e-05
2.90287e-05
2.6788e-05
2.59843e-05
2.68189e-05
3.51271e-05
5.12337e-05
9.73227e-05
0.00032963
0.00151432
0.00727649
0.00745229
0.0180311
0.0174703
0.020252
0.0171312
0.0118643
0.00725709
0.00459976
0.00332378
0.0025145
0.00189453
0.00137379
0.000980211
0.000685205
0.000462245
0.000314407
0.000228775
0.000156592
9.61417e-05
6.1342e-05
4.37324e-05
3.46122e-05
2.96692e-05
2.7075e-05
2.59892e-05
2.59762e-05
3.11517e-05
4.52991e-05
7.75041e-05
0.000233131
0.00104919
0.00513654
0.0241885
0.00719926
0.0174561
0.016922
0.0196634
0.016664
0.0115859
0.00712421
0.00455277
0.00330682
0.00250325
0.0018909
0.00137334
0.000979622
0.000683819
0.000460441
0.000304744
0.000212212
0.00015596
0.000102634
6.5181e-05
4.56114e-05
3.57554e-05
3.03894e-05
2.7455e-05
2.60738e-05
2.57057e-05
2.82139e-05
3.99336e-05
6.39274e-05
0.00016753
0.000723468
0.00359881
0.0174561
0.0787596
0.00694325
0.0168369
0.0163946
0.0191415
0.0162242
0.0113178
0.00700108
0.00450914
0.00328928
0.00249173
0.00188738
0.00137339
0.000979924
0.000683319
0.000459416
0.000302445
0.000201411
0.000145821
0.000105767
6.925e-05
4.75548e-05
3.68962e-05
3.11663e-05
2.7929e-05
2.62266e-05
2.5638e-05
2.64447e-05
3.50871e-05
5.43197e-05
0.000123262
0.000497981
0.00249666
0.0124847
0.0582659
0.24978
0.00670033
0.0162188
0.0159133
0.0186972
0.0158128
0.0110476
0.00688956
0.00447013
0.00327144
0.00247981
0.00188391
0.00137357
0.000980594
0.000683483
0.000458834
0.000301565
0.000196187
0.000134813
0.000102404
7.27098e-05
4.96475e-05
3.79935e-05
3.19607e-05
2.84749e-05
2.64893e-05
2.56387e-05
2.56804e-05
3.10688e-05
4.70372e-05
9.35959e-05
0.000343466
0.00171729
0.00882602
0.0426924
0.189584
0.774761
0.00648497
0.0156486
0.0154946
0.0183156
0.0154047
0.0107759
0.00678147
0.00443678
0.00325405
0.00246819
0.00188035
0.00137367
0.000981281
0.000683954
0.000458769
0.00030103
0.000195236
0.000128522
9.44108e-05
7.3e-05
5.17205e-05
3.90273e-05
3.27139e-05
2.90755e-05
2.68508e-05
2.57434e-05
2.54472e-05
2.80772e-05
4.10046e-05
7.36679e-05
0.000238729
0.00117216
0.00617139
0.0309278
0.14243
0.603914
2.35858
0.00630061
0.0151436
0.0151477
0.0179639
0.0149964
0.0104953
0.0066777
0.00440533
0.00323837
0.00245738
0.00187722
0.00137366
0.000981808
0.000684401
0.000458963
0.000300705
0.000194698
0.000125672
8.69243e-05
6.97212e-05
5.32612e-05
4.00884e-05
3.3372e-05
2.96982e-05
2.72967e-05
2.59168e-05
2.54018e-05
2.62265e-05
3.57517e-05
6.01012e-05
0.00016838
0.000795441
0.00426763
0.022159
0.105842
0.465701
1.88837
7.04121
0.00613842
0.0147404
0.0148438
0.0176171
0.014581
0.0102122
0.00658038
0.00437595
0.00322185
0.00244787
0.00187467
0.00137388
0.000982162
0.000684664
0.000459232
0.000300659
0.000194279
0.000125144
8.28018e-05
6.35873e-05
5.28643e-05
4.10586e-05
3.39181e-05
3.02951e-05
2.7812e-05
2.62043e-05
2.54289e-05
2.53729e-05
3.14661e-05
5.04906e-05
0.000121648
0.000537565
0.0029213
0.0156922
0.0778368
0.355466
1.49559
5.78432
20.5248
0.0059914
0.0144078
0.0145901
0.017258
0.0141595
0.0099368
0.00649032
0.0043478
0.00320558
0.00243954
0.00187327
0.00137458
0.000982616
0.000684764
0.000459364
0.000300701
0.000194062
0.000124814
8.08659e-05
5.8092e-05
4.9927e-05
4.17524e-05
3.44346e-05
3.08081e-05
2.83747e-05
2.65852e-05
2.55281e-05
2.50903e-05
2.82212e-05
4.32165e-05
9.07596e-05
0.000363388
0.00198093
0.0109825
0.056625
0.268661
1.17361
4.70185
17.2697
58.1402
0.00584985
0.0141055
0.0143264
0.0168791
0.0137355
0.0096776
0.00640912
0.00432159
0.00319019
0.00243235
0.00187229
0.0013762
0.000983446
0.000684941
0.000459394
0.000300731
0.000193937
0.000124525
8.04689e-05
5.50144e-05
4.50965e-05
4.12033e-05
3.49135e-05
3.11897e-05
2.89446e-05
2.70474e-05
2.57144e-05
2.50309e-05
2.60715e-05
3.73154e-05
7.03459e-05
0.000247062
0.0013309
0.0075926
0.0407509
0.200995
0.912744
3.7922
14.3844
50.0093
159.122
0.00570545
0.0137984
0.0140354
0.0164579
0.0133241
0.00943484
0.00633606
0.00429836
0.00317584
0.0024264
0.00187231
0.00137828
0.000985012
0.000685425
0.000459518
0.000300754
0.00019391
0.000124384
8.02301e-05
5.34274e-05
4.06211e-05
3.88651e-05
3.52531e-05
3.14605e-05
2.94581e-05
2.75677e-05
2.60053e-05
2.50462e-05
2.49696e-05
3.25286e-05
5.66605e-05
0.000170314
0.000886843
0.00519019
0.0289973
0.148864
0.70325
3.03529
11.9059
42.5944
139.798
414.534
0.0055472
0.0134648
0.0137123
0.0160185
0.0129195
0.00921401
0.00626823
0.00427776
0.00316305
0.00242188
0.00187298
0.00138093
0.000987017
0.000686459
0.000459847
0.000300867
0.000193943
0.000124368
8.00743e-05
5.311e-05
3.79473e-05
3.50042e-05
3.4847e-05
3.17114e-05
2.9847e-05
2.81223e-05
2.639e-05
2.51417e-05
2.4537e-05
2.88424e-05
4.71244e-05
0.00012024
0.000587328
0.00350705
0.0203953
0.109106
0.536822
2.41001
9.7942
36.0961
121.603
372.56
990.996
0.00537571
0.0131081
0.0133718
0.0155659
0.0125315
0.0090088
0.00620488
0.00425843
0.00315151
0.00241906
0.00187459
0.00138402
0.000989556
0.000688042
0.000460578
0.000301104
0.000194039
0.000124467
7.99849e-05
5.29833e-05
3.66746e-05
3.10623e-05
3.30884e-05
3.18565e-05
3.00809e-05
2.86654e-05
2.68555e-05
2.53203e-05
2.44242e-05
2.62078e-05
4.00666e-05
8.78419e-05
0.00038816
0.00234321
0.0141705
0.0791343
0.405854
1.89818
8.0052
30.4426
105.317
331.338
914.768
2055.76
0.00519482
0.0127328
0.0130235
0.0151054
0.012153
0.0088139
0.00613876
0.00423851
0.00314074
0.00241761
0.00187733
0.00138764
0.0009926
0.000690102
0.000461732
0.000301613
0.000194245
0.00012463
8.00418e-05
5.29241e-05
3.63607e-05
2.83875e-05
3.0047e-05
3.16895e-05
3.02133e-05
2.91329e-05
2.73803e-05
2.56041e-05
2.44226e-05
2.46594e-05
3.45328e-05
6.69621e-05
0.000257344
0.00154906
0.00972178
0.0567663
0.303936
1.48258
6.5005
25.548
90.8449
293.409
835.318
1954.85
3584.85
0.00501733
0.012371
0.0126881
0.0146335
0.0117803
0.00862986
0.0060724
0.0042128
0.0031302
0.00241696
0.00188061
0.00139171
0.000996021
0.000692496
0.000463229
0.000302461
0.000194602
0.000124849
8.01876e-05
5.29811e-05
3.63062e-05
2.70991e-05
2.64329e-05
3.06242e-05
3.03176e-05
2.94601e-05
2.79443e-05
2.5996e-05
2.44844e-05
2.39232e-05
3.02476e-05
5.33524e-05
0.000172694
0.00101423
0.00658266
0.0402618
0.225388
1.1484
5.24277
21.3351
78.0557
258.791
759.244
1839.24
3493.83
5479.57
0.00486521
0.0120441
0.0123748
0.0141722
0.0114064
0.00845907
0.00601042
0.00418346
0.00311713
0.002417
0.00188395
0.00139546
0.000999597
0.000695131
0.000464985
0.000303513
0.000195155
0.000125158
8.03926e-05
5.31015e-05
3.6304e-05
2.66458e-05
2.34784e-05
2.83929e-05
3.02227e-05
2.96245e-05
2.85087e-05
2.64614e-05
2.46387e-05
2.36614e-05
2.70562e-05
4.41628e-05
0.000118765
0.000658843
0.00439689
0.0282214
0.165491
0.881979
4.19997
17.726
66.8185
227.418
687.107
1723.28
3371.51
5432.68
7680.68
0.00473441
0.0117582
0.0120651
0.0137018
0.0110355
0.00829628
0.00595619
0.0041535
0.00310337
0.00241592
0.00188713
0.00139859
0.00100266
0.000697823
0.000466854
0.000304706
0.000195828
0.000125546
8.06273e-05
5.32681e-05
3.63574e-05
2.65968e-05
2.1775e-05
2.52423e-05
2.97477e-05
2.96984e-05
2.90078e-05
2.69994e-05
2.48931e-05
2.35918e-05
2.48852e-05
3.75969e-05
8.50274e-05
0.000425374
0.0028965
0.0195318
0.120293
0.671592
3.34135
14.6532
56.9864
199.181
619.295
1607.86
3245.6
5332.41
7711.91
9907.71
0.0046189
0.0115113
0.0117483
0.0132224
0.0106717
0.00814434
0.00590417
0.00412635
0.0030907
0.00241478
0.00188939
0.00140088
0.00100499
0.000700047
0.000468616
0.000305925
0.000196572
0.000125974
8.08648e-05
5.34411e-05
3.64428e-05
2.66007e-05
2.09892e-05
2.20124e-05
2.83185e-05
2.97278e-05
2.93705e-05
2.75837e-05
2.5255e-05
2.35981e-05
2.36403e-05
3.26601e-05
6.38901e-05
0.000274505
0.00188191
0.0133391
0.0865021
0.507025
2.64019
12.0508
48.4304
173.903
556.078
1494.16
3116.16
5225.91
7665.58
10061.4
11558.1
0.00450112
0.0112631
0.0114176
0.0127411
0.0103332
0.00800853
0.00585523
0.00410035
0.00308107
0.00241428
0.00189111
0.00140176
0.00100625
0.000701561
0.000470038
0.000307018
0.000197293
0.000126417
8.10891e-05
5.35856e-05
3.65379e-05
2.66061e-05
2.07902e-05
1.96178e-05
2.5914e-05
2.95708e-05
2.95699e-05
2.81882e-05
2.5697e-05
2.36959e-05
2.30477e-05
2.89164e-05
5.06009e-05
0.00017915
0.00120766
0.00897814
0.061511
0.379359
2.07224
9.86151
41.0147
151.422
497.565
1382.99
2983.58
5111.35
7612.69
10118.4
11833.1
12446.6
0.00437372
0.0109779
0.0110413
0.0122656
0.0100263
0.00788893
0.00580619
0.00407313
0.00307347
0.00241546
0.0018928
0.00140187
0.0010066
0.000702176
0.00047094
0.000307889
0.0001979
0.000126825
8.12916e-05
5.36959e-05
3.66161e-05
2.66275e-05
2.07575e-05
1.83084e-05
2.28218e-05
2.90096e-05
2.96622e-05
2.87571e-05
2.62105e-05
2.38893e-05
2.2829e-05
2.61566e-05
4.20237e-05
0.000119969
0.00076644
0.00595034
0.0432034
0.281272
1.61534
8.03201
34.6208
131.517
443.867
1275.1
2848.19
4990.5
7548.91
10171.9
12007.8
12797.2
12745.1
0.00423534
0.0106495
0.010639
0.0118117
0.00976283
0.0077793
0.00575709
0.004046
0.00306748
0.00241729
0.00189527
0.00140203
0.00100658
0.000702097
0.00047118
0.000308417
0.000198383
0.000127149
8.14685e-05
5.37735e-05
3.66693e-05
2.66684e-05
2.07471e-05
1.77031e-05
1.98376e-05
2.75744e-05
2.97182e-05
2.92189e-05
2.67757e-05
2.41902e-05
2.27615e-05
2.43185e-05
3.6206e-05
8.38683e-05
0.000482771
0.0038771
0.0299458
0.206528
1.25072
6.51182
29.1375
113.986
394.927
1171.34
2710.66
4863.74
7476.42
10212.9
12188
13051.5
13134.2
12626.7
0.00408424
0.0102957
0.0102317
0.0113938
0.009532
0.00768428
0.00570606
0.00401963
0.00306325
0.00242037
0.00189839
0.00140324
0.00100678
0.000701732
0.000470944
0.000308604
0.000198665
0.000127408
8.16233e-05
5.38355e-05
3.67038e-05
2.67177e-05
2.0757e-05
1.75737e-05
1.76782e-05
2.52084e-05
2.95946e-05
2.95253e-05
2.73828e-05
2.45842e-05
2.27653e-05
2.32643e-05
3.20065e-05
6.21999e-05
0.000303857
0.00248198
0.0204499
0.150124
0.961567
5.25712
24.4572
98.625
350.658
1072.39
2571.98
4731.24
7395.2
10244.1
12361.3
13317.1
13433.6
13031.8
12206.8
0.00393132
0.00991808
0.00983228
0.0110104
0.00932397
0.00758804
0.00565024
0.00399341
0.00306142
0.00242456
0.00190219
0.00140557
0.0010078
0.00070159
0.000470599
0.000308469
0.00019882
0.000127566
8.17559e-05
5.39096e-05
3.67343e-05
2.67642e-05
2.07912e-05
1.75584e-05
1.64938e-05
2.22199e-05
2.91262e-05
2.96915e-05
2.79991e-05
2.50316e-05
2.29509e-05
2.27683e-05
2.88769e-05
4.9353e-05
0.00019356
0.00156022
0.0137411
0.107914
0.73399
4.22642
20.4867
85.2165
310.893
978.93
2432.96
4593.7
7304.84
10264.3
12531.3
13581.1
13747
13354.4
12613.4
11566
0.00377804
0.00955225
0.00946266
0.010659
0.00913443
0.00748818
0.00558275
0.00396768
0.00306051
0.00242996
0.00190652
0.00140845
0.00100995
0.000702143
0.000470422
0.000308257
0.000198889
0.000127703
8.18719e-05
5.40037e-05
3.67754e-05
2.68067e-05
2.08448e-05
1.75642e-05
1.59393e-05
1.92966e-05
2.79037e-05
2.98044e-05
2.85671e-05
2.55336e-05
2.32126e-05
2.25559e-05
2.65956e-05
4.14996e-05
0.000125569
0.000964487
0.00906581
0.0766411
0.555953
3.38441
17.1332
73.581
275.363
891.52
2294.74
4451.56
7205.68
10275.4
12696.5
13847.6
14061.8
13692.4
12945.3
11964.5
10767.4
0.00362482
0.00919514
0.00912493
0.0103454
0.00895797
0.00738582
0.00550581
0.00393668
0.00306081
0.00243502
0.00191104
0.00141174
0.00101261
0.000703721
0.00047072
0.0003082
0.000198926
0.000127824
8.20021e-05
5.4109e-05
3.68427e-05
2.68481e-05
2.09038e-05
1.75912e-05
1.58195e-05
1.70975e-05
2.56817e-05
2.98362e-05
2.90128e-05
2.60828e-05
2.35771e-05
2.24801e-05
2.50779e-05
3.64317e-05
8.58461e-05
0.00058865
0.00586216
0.0536776
0.417724
2.69914
14.3156
63.5306
243.825
810.449
2158.59
4305.54
7097.88
10277.5
12856.7
14115.2
14382.1
14033.3
13292.6
12295.5
11150.5
9864.43
0.0034708
0.00883649
0.0088128
0.0100639
0.00879617
0.00728008
0.00542462
0.00390398
0.0030594
0.0024401
0.00191459
0.0014151
0.00101555
0.000705607
0.000471752
0.000308413
0.000199017
0.000127933
8.21366e-05
5.42212e-05
3.69268e-05
2.6891e-05
2.09559e-05
1.76333e-05
1.5804e-05
1.58015e-05
2.28427e-05
2.95736e-05
2.93076e-05
2.66823e-05
2.39943e-05
2.26209e-05
2.42032e-05
3.29221e-05
6.30298e-05
0.000357109
0.00370821
0.0370019
0.311048
2.14409
11.9547
54.9019
215.975
735.952
2025.62
4156.64
6982.09
10270.1
13010.9
14383.7
14706.7
14381.5
13644.1
12641.5
11472.8
10226.5
8903.56
0.00331753
0.00846686
0.00852519
0.00981536
0.00864519
0.00717157
0.00534081
0.00387393
0.00305776
0.00244278
0.0019165
0.00141739
0.00101845
0.000707597
0.000472967
0.00030903
0.000199176
0.000128035
8.22728e-05
5.43348e-05
3.70179e-05
2.69349e-05
2.09966e-05
1.76846e-05
1.58076e-05
1.51599e-05
1.98802e-05
2.87133e-05
2.9508e-05
2.73097e-05
2.44591e-05
2.29099e-05
2.37716e-05
3.03464e-05
5.01129e-05
0.000218417
0.00228922
0.0250433
0.229325
1.69609
9.98327
47.5237
191.562
668.005
1897.09
4005.81
6859.13
10252.8
13158.4
14652.5
15035.5
14735.6
14003.6
12992.5
11809.7
10534.3
9240.73
7925.37
0.00316174
0.00808137
0.008259
0.0095986
0.00849969
0.00705838
0.00525707
0.00384573
0.00305679
0.00244383
0.00191624
0.00141846
0.00102038
0.000709416
0.000474186
0.000309764
0.000199513
0.000128125
8.23804e-05
5.44416e-05
3.70993e-05
2.69812e-05
2.10275e-05
1.77284e-05
1.58204e-05
1.49605e-05
1.74697e-05
2.68709e-05
2.96654e-05
2.79019e-05
2.49697e-05
2.33275e-05
2.3567e-05
2.84757e-05
4.28201e-05
0.000137698
0.0013785
0.0165873
0.167166
1.33605
8.3397
41.2436
170.296
606.584
1773.97
3854.47
6729.64
10225.9
13298.3
14921.2
15367.8
15095.7
14370.2
13352.1
12151.9
10855.8
9529.48
8234.63
6963.18
0.00300631
0.00769538
0.00802015
0.00940768
0.00835627
0.00693694
0.0051744
0.00382188
0.00305689
0.00244399
0.00191497
0.00141792
0.00102121
0.000710529
0.000475166
0.00031049
0.000199833
0.000128211
8.24366e-05
5.45161e-05
3.7159e-05
2.70305e-05
2.10509e-05
1.77595e-05
1.58536e-05
1.49258e-05
1.58911e-05
2.43306e-05
2.96405e-05
2.83952e-05
2.55294e-05
2.3805e-05
2.34836e-05
2.7244e-05
3.83672e-05
9.13597e-05
0.000810805
0.0107199
0.120204
1.0478
6.97323
35.9075
151.921
551.543
1657.19
3704.21
6594.76
10189.2
13429.6
15188.8
15703.4
15461.1
14743.5
13719.2
12503
11183.1
9831
8501.39
7243.19
6043.3
0.00285756
0.00731903
0.00780932
0.00923779
0.0082071
0.00680327
0.00509127
0.00380109
0.00305884
0.00244394
0.00191318
0.00141651
0.0010211
0.000710889
0.000475739
0.000311018
0.000200099
0.000128238
8.24302e-05
5.45266e-05
3.72015e-05
2.7076e-05
2.10696e-05
1.77778e-05
1.58974e-05
1.49229e-05
1.50371e-05
2.14548e-05
2.9226e-05
2.87554e-05
2.61396e-05
2.43224e-05
2.37692e-05
2.65284e-05
3.53455e-05
6.63076e-05
0.000469066
0.00673335
0.085043
0.817493
5.8406
31.3831
136.13
502.791
1547.46
3556.83
6455.56
10143.4
13551
15454.6
16041.4
15831.4
15123.3
14093.6
12861.9
11519
10138.5
8779.82
7485.96
6293.57
5184.72
0.00271245
0.00696633
0.00762845
0.00908193
0.00805493
0.00665635
0.00500738
0.00378153
0.00306113
0.00244418
0.00191167
0.00141512
0.0010206
0.000710689
0.00047579
0.000311312
0.000200262
0.000128228
8.24015e-05
5.45017e-05
3.72137e-05
2.71131e-05
2.10893e-05
1.77891e-05
1.59387e-05
1.4935e-05
1.46671e-05
1.88291e-05
2.80246e-05
2.89991e-05
2.68014e-05
2.48891e-05
2.41685e-05
2.61532e-05
3.31164e-05
5.31667e-05
0.000270981
0.00409571
0.0589731
0.633944
4.9039
27.5562
122.632
460.118
1445.67
3413.43
6313.67
10088.9
13661.7
15717.5
16380.9
16205.9
15508.8
14475
13228.4
11863
10454.5
9064.21
7739.52
6511.83
5405.86
4399.93
0.00257322
0.00664241
0.00746716
0.0089328
0.00789913
0.0065003
0.00492455
0.00376169
0.00306256
0.00244393
0.00191095
0.00141441
0.00102028
0.000710329
0.000475688
0.00031135
0.000200369
0.000128259
8.23704e-05
5.4445e-05
3.72193e-05
2.71399e-05
2.11146e-05
1.77982e-05
1.59712e-05
1.49772e-05
1.45796e-05
1.68386e-05
2.59617e-05
2.91925e-05
2.75003e-05
2.55008e-05
2.47114e-05
2.59621e-05
3.14919e-05
4.62771e-05
0.00016099
0.00240155
0.039917
0.487752
4.13187
24.3285
111.135
423.255
1352.5
3274.88
6170.75
10026.8
13760.3
15976.2
16721
16583.6
15899.4
14862.5
13601.9
12214.5
10778.3
9356.78
7998.74
6739.65
5599.7
4593.24
3695.61
0.00244701
0.0063489
0.00731983
0.00877863
0.00773735
0.00633911
0.00484255
0.0037418
0.00306235
0.0024429
0.00191028
0.00141439
0.00102038
0.000710309
0.00047566
0.000311397
0.000200415
0.000128303
8.2366e-05
5.43942e-05
3.72147e-05
2.71622e-05
2.11394e-05
1.7812e-05
1.5995e-05
1.50314e-05
1.45665e-05
1.55669e-05
2.3476e-05
2.9003e-05
2.81776e-05
2.61545e-05
2.53321e-05
2.61028e-05
3.04301e-05
4.23762e-05
0.000102497
0.00135423
0.0262265
0.371569
3.49629
21.6233
101.365
391.806
1268.79
3142.2
6028.95
9958.46
13845.8
16229.7
17060.2
16963.6
16294
15255.6
13982
12573.2
11109.6
9656.78
8265.74
6972.96
5802.1
4763.58
3863.01
3073.87
0.00233239
0.00609004
0.00718635
0.00861344
0.00756673
0.00617791
0.00476259
0.00372151
0.00305947
0.00244032
0.00190984
0.00141448
0.00102076
0.000710493
0.00047582
0.000311488
0.00020052
0.000128345
8.24031e-05
5.43592e-05
3.72118e-05
2.71741e-05
2.1161e-05
1.78356e-05
1.60135e-05
1.50862e-05
1.45772e-05
1.48457e-05
2.08983e-05
2.84426e-05
2.87716e-05
2.68431e-05
2.60199e-05
2.6443e-05
2.98022e-05
3.9682e-05
7.25834e-05
0.000735836
0.0166252
0.279376
2.97412
19.3705
93.1183
365.203
1195.34
3016.87
5889.68
9885.31
13917.9
16476.5
17397.5
17344.4
16691.8
15653.4
14367.8
12938.4
11447.9
9964.14
8539.74
7213.46
6009.62
4941.44
4011.15
3217.43
2533.27
0.00222884
0.00587179
0.00707298
0.0084308
0.00738394
0.00601704
0.00468694
0.00370135
0.0030531
0.00243633
0.00190885
0.00141497
0.00102105
0.000710638
0.000476017
0.000311594
0.000200628
0.000128396
8.24728e-05
5.43558e-05
3.72121e-05
2.71739e-05
2.11756e-05
1.78636e-05
1.60282e-05
1.51221e-05
1.46013e-05
1.45434e-05
1.86653e-05
2.72019e-05
2.91617e-05
2.759e-05
2.67632e-05
2.69902e-05
2.94473e-05
3.75827e-05
5.86927e-05
0.000390928
0.0100833
0.206522
2.5456
17.5112
86.2287
342.903
1132.42
2901.11
5754.02
9808.64
13979.7
16715.4
17731.3
17725.1
17091.6
16054.7
14758.6
13309.5
11792.8
10278.2
8820.69
7460.46
6223.67
5124.04
4165.96
3345.1
2655.3
2069.76
0.002132
0.0056887
0.00698159
0.00823591
0.00718612
0.00585725
0.00461559
0.00368082
0.00304448
0.00243041
0.00190712
0.00141536
0.00102148
0.00071063
0.000476046
0.000311689
0.000200742
0.000128437
8.25285e-05
5.43868e-05
3.72189e-05
2.71623e-05
2.11806e-05
1.78939e-05
1.60398e-05
1.51425e-05
1.46649e-05
1.44586e-05
1.70023e-05
2.52837e-05
2.9364e-05
2.84496e-05
2.75624e-05
2.76811e-05
2.93448e-05
3.59589e-05
5.22992e-05
0.000211416
0.00579027
0.14921
2.19561
15.9898
80.5791
324.407
1079.81
2797.61
5623.28
9730.22
14033.8
16945.3
18060
18103.6
17491.9
16458.6
15153.4
13685.8
12143.6
10598.8
9108.27
7714.01
6443.79
5312.62
4325.11
3478.66
2764.35
2172.55
1677.64
0.00203777
0.00552381
0.00689985
0.00803176
0.00697656
0.00570079
0.00454508
0.00366071
0.00303439
0.00242385
0.00190408
0.00141529
0.00102199
0.000710444
0.000475884
0.000311684
0.000200825
0.00012846
8.25699e-05
5.44069e-05
3.72352e-05
2.71449e-05
2.1182e-05
1.79177e-05
1.60536e-05
1.51528e-05
1.47348e-05
1.44417e-05
1.59072e-05
2.31496e-05
2.91101e-05
2.93874e-05
2.84107e-05
2.84672e-05
2.94847e-05
3.48656e-05
4.90467e-05
0.000125053
0.00310641
0.104502
1.9119
14.7617
76.0561
309.416
1036.67
2709.17
5499.86
9650.32
14081.4
17165.2
18381.6
18478.1
17890.9
16863.5
15551
14066.2
12499.5
10925.1
9401.85
7973.77
6669.91
5506.65
4489.56
3616.07
2878.48
2264.81
1763.4
1350.15
0.00194435
0.00536205
0.00681342
0.00782107
0.0067594
0.00555174
0.00447489
0.00363862
0.00302391
0.00241757
0.00189998
0.00141415
0.00102224
0.000710393
0.000475635
0.000311503
0.000200852
0.000128481
8.25982e-05
5.44126e-05
3.72482e-05
2.71307e-05
2.11785e-05
1.79315e-05
1.60705e-05
1.516e-05
1.47926e-05
1.4461e-05
1.52582e-05
2.10337e-05
2.84447e-05
3.02925e-05
2.92986e-05
2.93354e-05
2.98868e-05
3.423e-05
4.6567e-05
8.69457e-05
0.00153823
0.0700862
1.68537
13.7898
72.5577
297.739
1002.16
2637.09
5388.42
9567.97
14123.3
17373.8
18694.1
18846.3
18286.3
17267.5
15950
14449.7
12859.8
11256.5
9701.12
8239.21
6901.74
5706.2
4658.99
3758.24
2996.17
2361.57
1840.75
1420.99
1080.05
0.00185024
0.00518702
0.00671134
0.0076034
0.00653849
0.00541125
0.00440632
0.00361322
0.00301207
0.00241129
0.00189582
0.00141209
0.00102214
0.000710477
0.000475373
0.000311225
0.000200779
0.000128496
8.26397e-05
5.44028e-05
3.72596e-05
2.71234e-05
2.11722e-05
1.7939e-05
1.60919e-05
1.51688e-05
1.48295e-05
1.45601e-05
1.50156e-05
1.92277e-05
2.72987e-05
3.10201e-05
3.02383e-05
3.02782e-05
3.0481e-05
3.38553e-05
4.43726e-05
7.26747e-05
0.000711589
0.0441171
1.50906
13.0487
69.9845
289.25
975.707
2580.97
5294.82
9482.88
14157.5
17569.8
18994.7
19205.1
18675.7
17668.5
16348.5
14835
13223.3
11592.3
10005.2
8510.02
7138.99
5910.96
4833.41
3904.87
3118.06
2461.5
1922
1485.16
1137.94
859.991
0.00174727
0.00499259
0.00658684
0.00737744
0.00631732
0.00527683
0.00434023
0.00358492
0.00299856
0.00240527
0.00189138
0.0014094
0.00102119
0.000710394
0.000475415
0.000310948
0.000200588
0.000128496
8.27071e-05
5.4396e-05
3.72612e-05
2.71267e-05
2.11726e-05
1.79389e-05
1.61063e-05
1.51785e-05
1.48505e-05
1.47017e-05
1.49498e-05
1.78999e-05
2.58224e-05
3.14014e-05
3.1262e-05
3.12923e-05
3.12611e-05
3.38523e-05
4.25349e-05
6.75108e-05
0.000338743
0.0251562
1.37768
12.5207
68.2608
283.759
957.197
2539.13
5223.08
9398.85
14178.1
17751.5
19279.5
19550.3
19056
18065.2
16746.4
15221.3
13589
11931.5
10313.7
8785.5
7381.14
6120.68
5012.54
4055.98
3243.89
2565.12
2006.1
1552.76
1190.56
906.711
682.79
0.00163501
0.00476807
0.00644302
0.00715246
0.00610067
0.00514608
0.0042759
0.00355585
0.00298395
0.00239836
0.00188774
0.00140654
0.00101922
0.00070999
0.000475626
0.000310761
0.00020036
0.00012844
8.27844e-05
5.44031e-05
3.72602e-05
2.71359e-05
2.11788e-05
1.79267e-05
1.61133e-05
1.52138e-05
1.48649e-05
1.48747e-05
1.49749e-05
1.70525e-05
2.4083e-05
3.14232e-05
3.23798e-05
3.23741e-05
3.21746e-05
3.39481e-05
4.12276e-05
6.50371e-05
0.000206917
0.0120588
1.2881
12.1947
67.3354
281.042
946.529
2510.22
5172.14
9324.06
14178.7
17907.9
19542.1
19877.6
19423.7
18453.9
17140.4
15607.6
13957
12273.4
10625.5
9065.18
7627.83
6334.99
5196.18
4211.32
3373.73
2672.27
2093.47
1622.9
1246.21
949.339
720.017
541.654
0.00151808
0.00451621
0.00627983
0.00693745
0.00589863
0.00501763
0.00421406
0.00352603
0.00296927
0.00239048
0.00188348
0.00140462
0.0010172
0.000708678
0.000475595
0.000310902
0.000200183
0.000128304
8.28476e-05
5.44444e-05
3.72602e-05
2.71342e-05
2.11941e-05
1.79205e-05
1.61142e-05
1.5251e-05
1.48892e-05
1.50347e-05
1.50467e-05
1.65974e-05
2.24173e-05
3.08304e-05
3.35757e-05
3.35222e-05
3.31915e-05
3.43192e-05
4.03858e-05
6.27028e-05
0.000176221
0.00413399
1.23921
12.066
67.1737
280.85
943.296
2493.92
5137.14
9265.95
14149.1
18022.9
19782.2
20184.8
19775.7
18831.9
17527.8
15990.5
14324.8
12617.7
10940.8
9348.14
7878.42
6553.45
5384.03
4370.76
3507.37
2782.95
2183.95
1695.9
1304.1
994.597
754.067
570.901
430.294
0.00140468
0.00424425
0.00610182
0.00672867
0.00571314
0.00489384
0.00415445
0.0034964
0.00295443
0.00238123
0.00187861
0.00140276
0.00101534
0.000707056
0.000475067
0.000311012
0.000200146
0.000128136
8.28667e-05
5.44959e-05
3.72701e-05
2.71207e-05
2.12051e-05
1.7925e-05
1.61035e-05
1.52964e-05
1.49327e-05
1.51824e-05
1.52812e-05
1.64261e-05
2.10342e-05
2.97939e-05
3.46492e-05
3.47278e-05
3.43076e-05
3.49008e-05
3.9978e-05
6.04784e-05
0.000172327
0.00123755
1.23181
12.1324
67.6916
282.417
945.056
2489.39
5112.78
9204.64
14091.2
18088.9
19994.4
20471.5
20110.2
19194.8
17902.3
16362.9
14685.8
12959.2
11256.5
9633.99
8132.39
6775.65
5575.72
4533.98
3644.67
2897.01
2277.58
1771.69
1364.54
1041.87
790.395
597.689
452.948
343.05
0.00129545
0.00397552
0.005924
0.00652196
0.00554112
0.0047728
0.00409825
0.00346722
0.00294051
0.00237131
0.00187228
0.00140029
0.00101457
0.000705609
0.000473992
0.000310936
0.00020032
0.000128017