/*--------------------------------*- C++ -*----------------------------------*\
| =========                 |                                                 |
| \\      /  F ield         | OpenFOAM: The Open Source CFD Toolbox           |
|  \\    /   O peration     | Version:  v2012                                 |
|   \\  /    A nd           | Website:  www.openfoam.com                      |
|    \\/     M anipulation  |                                                 |
\*---------------------------------------------------------------------------*/
FoamFile
{
    version     2.0;
    format      ascii;
    class       volScalarField;
    location    "12000";
    object      yPlus;
}
// * * * * * * * * * * * * * * * * * * * * * * * * * * * * * * * * * * * * * //

dimensions      [0 0 0 0 0 0 0];


internalField   uniform 0;

boundaryField
{
    top
    {
        type            calculated;
        value           uniform 0;
    }
    base
    {
        type            calculated;
        value           nonuniform List<scalar> 
276
(
0.338991
0.345285
0.423682
0.434921
0.434148
0.431418
0.428385
0.425514
0.422914
0.420632
0.418632
0.416859
0.415263
0.413831
0.412537
0.411377
0.410336
0.40939
0.408523
0.407727
0.406997
0.406337
0.405736
0.405189
0.404693
0.404245
0.403845
0.403492
0.403184
0.402921
0.4027
0.402517
0.402367
0.40225
0.40216
0.402095
0.402055
0.402035
0.402036
0.402051
0.402081
0.402123
0.402176
0.402239
0.402307
0.402383
0.402463
0.402544
0.402629
0.402712
0.402794
0.402868
0.402935
0.402994
0.403046
0.403093
0.403131
0.403166
0.403194
0.403219
0.403238
0.403253
0.403262
0.403269
0.40327
0.40327
0.403266
0.403262
0.403255
0.403246
0.403236
0.403224
0.403213
0.403201
0.403189
0.403178
0.403157
0.403146
0.403126
0.403133
0.40314
0.403147
0.403151
0.403153
0.403157
0.403156
0.403156
0.403159
0.403163
0.403167
0.403169
0.403171
0.40317
0.403169
0.403166
0.403164
0.403164
0.403158
0.403148
0.403142
0.403135
0.403127
0.403119
0.403111
0.403104
0.403094
0.40308
0.403068
0.403054
0.403039
0.403026
0.403013
0.402998
0.402979
0.40296
0.402946
0.402924
0.402896
0.402864
0.402849
0.402837
0.402806
0.402778
0.402755
0.402729
0.402696
0.402645
0.402645
0.402624
0.402597
0.402566
0.402524
0.402488
0.402457
0.402424
0.402381
0.402347
0.402307
0.402266
0.402215
0.402177
0.402138
0.402073
0.402029
0.401988
0.401944
0.401912
0.401839
0.401776
0.401718
0.401659
0.4016
0.401516
0.401457
0.401408
0.401335
0.401269
0.401198
0.401128
0.401035
0.400952
0.400887
0.400812
0.40074
0.400632
0.400526
0.400455
0.40037
0.400266
0.400169
0.400066
0.39997
0.399857
0.399785
0.39939
0.384558
0.236121
0.166796
0.233428
0.253376
0.257598
0.262371
0.269486
0.27603
0.281574
0.286851
0.290938
0.293918
0.301292
0.323651
0.365102
0.402845
0.406049
0.399966
0.376456
0.336284
0.278808
0.202509
0.0824674
0.175572
0.274779
0.352439
0.418069
0.473318
0.519131
0.556863
0.588833
0.619878
0.651861
0.685231
0.718496
0.750702
0.78145
0.81061
0.83818
0.86419
0.888828
0.912156
0.934292
0.955384
0.975573
0.994953
1.01353
1.03122
1.04792
1.06353
1.07796
1.0912
1.10329
1.11423
1.12442
1.13422
1.14389
1.15349
1.16289
1.17221
1.18137
1.19009
1.19819
1.20557
1.21227
1.21835
1.22395
1.22914
1.23416
1.2392
1.24747
1.25103
1.25467
1.26456
1.26703
1.26939
1.27339
1.27561
1.27651
1.27602
1.27394
1.27028
1.26509
1.25851
1.25069
1.24178
1.23189
1.22118
1.20976
1.19777
1.18529
1.17239
1.15915
1.14563
1.13188
1.11793
1.10395
1.0894
1.07779
1.05349
)
;
    }
    frontAndBack
    {
        type            empty;
    }
    inlet
    {
        type            calculated;
        value           uniform 0;
    }
    outlet
    {
        type            calculated;
        value           uniform 0;
    }
}


// ************************************************************************* //
