# Wall heat-flux
# Time        	patch         	min           	max           	integral      
900           	base	-1.125133e+04	3.034827e+04	3.413487e+02
