# p  FACE_DATA 80
# x  y  z  p
-0.275972 0 0.05 671.719
-0.22368 0 0.05 671.719
-0.181118 0 0.05 671.719
-0.146477 0 0.05 671.719
-0.118282 0 0.05 671.719
-0.095333 0 0.05 671.719
-0.0766546 0 0.05 671.719
-0.061452 0 0.05 671.72
-0.0490783 0 0.05 671.72
-0.0390072 0 0.05 671.72
-0.0308101 0 0.05 671.72
-0.0241383 0 0.05 671.72
-0.0187081 0 0.05 671.72
-0.0142883 0 0.05 671.719
-0.0106909 0 0.05 671.719
-0.00776298 0 0.05 671.719
-0.00537988 0 0.05 671.718
-0.00344023 0 0.05 671.718
-0.00186151 0 0.05 671.718
-0.000576564 0 0.05 669.992
0.000597823 0 0.05 1192.18
0.00183445 0 0.05 1019.88
0.00315586 0 0.05 889.305
0.00456785 0 0.05 847.478
0.00607663 0 0.05 808.291
0.00768885 0 0.05 785.712
0.00941159 0 0.05 770.842
0.0112524 0 0.05 759.542
0.0132195 0 0.05 750.794
0.0153213 0 0.05 741.605
0.0175673 0 0.05 732.321
0.0199673 0 0.05 719.315
0.0225317 0 0.05 707.676
0.025272 0 0.05 702.609
0.0282001 0 0.05 699.213
0.031329 0 0.05 699.58
0.0346723 0 0.05 704.97
0.0382448 0 0.05 710.021
0.0420623 0 0.05 714.236
0.0461414 0 0.05 716.948
0.0505002 0 0.05 718.728
0.0551578 0 0.05 719.407
0.0601347 0 0.05 719.447
0.0654528 0 0.05 718.771
0.0711354 0 0.05 718.126
0.0772076 0 0.05 717.388
0.0836961 0 0.05 716.261
0.0906293 0 0.05 715.014
0.0980379 0 0.05 714.022
0.105954 0 0.05 713.159
0.114413 0 0.05 712.22
0.123453 0 0.05 711.305
0.133111 0 0.05 710.531
0.143432 0 0.05 709.795
0.15446 0 0.05 709.019
0.166245 0 0.05 708.278
0.178837 0 0.05 707.59
0.192293 0 0.05 706.891
0.20667 0 0.05 706.211
0.222034 0 0.05 705.568
0.238451 0 0.05 704.93
0.255993 0 0.05 704.304
0.274738 0 0.05 703.715
0.294767 0 0.05 703.133
0.31617 0 0.05 702.531
0.33904 0 0.05 701.95
0.363478 0 0.05 701.423
0.389591 0 0.05 700.9
0.417495 0 0.05 700.349
0.447311 0 0.05 699.825
0.479171 0 0.05 699.336
0.513216 0 0.05 698.824
0.549594 0 0.05 698.313
0.588466 0 0.05 697.846
0.630002 0 0.05 697.4
0.674387 0 0.05 696.956
0.721814 0 0.05 696.534
0.772492 0 0.05 696.064
0.826644 0 0.05 695.849
0.884509 0 0.05 694.858
