# wallShearStress  FACE_DATA 80
# x  y  z  wallShearStress_x  wallShearStress_y  wallShearStress_z
-0.275972 0 0.05 -4.58675e-11 -2.86891e-08 0
-0.22368 0 0.05 -2.1312e-10 -3.35147e-07 0
-0.181118 0 0.05 -5.41767e-10 -1.44149e-06 0
-0.146477 0 0.05 -8.80488e-10 -3.34616e-06 0
-0.118282 0 0.05 -9.6761e-10 -5.50653e-06 0
-0.095333 0 0.05 -6.13041e-10 -7.06713e-06 0
-0.0766546 0 0.05 9.29567e-11 -7.50841e-06 0
-0.061452 0 0.05 2.65995e-09 -6.93802e-06 0
-0.0490783 0 0.05 7.93974e-09 -2.48281e-06 0
-0.0390072 0 0.05 1.41211e-08 5.84276e-06 0
-0.0308101 0 0.05 2.28813e-08 1.63675e-05 0
-0.0241383 0 0.05 3.52222e-08 3.06186e-05 0
-0.0187081 0 0.05 4.59723e-08 4.76073e-05 0
-0.0142883 0 0.05 4.9367e-08 6.41498e-05 0
-0.0106909 0 0.05 4.54635e-08 7.72294e-05 0
-0.00776298 0 0.05 3.90859e-08 8.64799e-05 0
-0.00537988 0 0.05 6.74597e-09 9.2873e-05 0
-0.00344023 0 0.05 -1.0909e-07 8.70822e-05 0
-0.00186151 0 0.05 -0.000427852 -5.3708e-05 0
-0.000576564 0 0.05 -0.0367171 -0.521074 0
0.000597823 0 0.05 -261.68 -26.0389 0
0.00183445 0 0.05 -90.9526 -2.84714 0
0.00315586 0 0.05 -55.2386 -0.565325 0
0.00456785 0 0.05 -41.4412 -0.210929 0
0.00607663 0 0.05 -34.2758 -0.143612 0
0.00768885 0 0.05 -29.2488 -0.0883667 0
0.00941159 0 0.05 -25.7672 -0.0596402 0
0.0112524 0 0.05 -23.1897 -0.0456295 0
0.0132195 0 0.05 -21.2456 -0.0361569 0
0.0153213 0 0.05 -19.7931 -0.0367297 0
0.0175673 0 0.05 -18.8113 -0.0415785 0
0.0199673 0 0.05 -18.2876 -0.0428146 0
0.0225317 0 0.05 -17.9886 -0.038627 0
0.025272 0 0.05 -18.1081 -0.0622401 0
0.0282001 0 0.05 -18.7667 -0.0581665 0
0.031329 0 0.05 -19.7642 -0.0489838 0
0.0346723 0 0.05 -20.6229 -0.0350627 0
0.0382448 0 0.05 -21.3118 -0.0455268 0
0.0420623 0 0.05 -21.5602 -0.0519686 0
0.0461414 0 0.05 -21.5674 -0.0572446 0
0.0505002 0 0.05 -21.4324 -0.0631971 0
0.0551578 0 0.05 -21.1202 -0.0701001 0
0.0601347 0 0.05 -20.7042 -0.0749572 0
0.0654528 0 0.05 -20.2652 -0.0806065 0
0.0711354 0 0.05 -19.8116 -0.0840557 0
0.0772076 0 0.05 -19.3806 -0.0855821 0
0.0836961 0 0.05 -18.9627 -0.0863475 0
0.0906293 0 0.05 -18.5361 -0.0895303 0
0.0980379 0 0.05 -18.122 -0.093306 0
0.105954 0 0.05 -17.741 -0.093418 0
0.114413 0 0.05 -17.3755 -0.0927105 0
0.123453 0 0.05 -17.0107 -0.0945176 0
0.133111 0 0.05 -16.6598 -0.0966477 0
0.143432 0 0.05 -16.3285 -0.0970884 0
0.15446 0 0.05 -16.0062 -0.0977388 0
0.166245 0 0.05 -15.689 -0.0995142 0
0.178837 0 0.05 -15.3812 -0.101368 0
0.192293 0 0.05 -15.0835 -0.102755 0
0.20667 0 0.05 -14.796 -0.103577 0
0.222034 0 0.05 -14.5189 -0.103919 0
0.238451 0 0.05 -14.2484 -0.104343 0
0.255993 0 0.05 -13.9814 -0.105037 0
0.274738 0 0.05 -13.7193 -0.105497 0
0.294767 0 0.05 -13.4611 -0.105908 0
0.31617 0 0.05 -13.205 -0.10674 0
0.33904 0 0.05 -12.9524 -0.107975 0
0.363478 0 0.05 -12.7059 -0.109431 0
0.389591 0 0.05 -12.4672 -0.110207 0
0.417495 0 0.05 -12.235 -0.110026 0
0.447311 0 0.05 -12.0082 -0.109553 0
0.479171 0 0.05 -11.7873 -0.109219 0
0.513216 0 0.05 -11.5692 -0.109502 0
0.549594 0 0.05 -11.3545 -0.109879 0
0.588466 0 0.05 -11.1452 -0.109811 0
0.630002 0 0.05 -10.9422 -0.109316 0
0.674387 0 0.05 -10.7433 -0.108857 0
0.721814 0 0.05 -10.5487 -0.108475 0
0.772492 0 0.05 -10.3521 -0.108204 0
0.826644 0 0.05 -10.1668 -0.107893 0
0.884509 0 0.05 -9.89428 -0.105898 0
