# p  FACE_DATA 398
# x  y  z  p
-0.7975 0 0.025 4472.54
-0.79239 0 0.025 3630.92
-0.787056 0 0.025 3015.08
-0.781492 0 0.025 2845.69
-0.775691 0 0.025 2760.87
-0.769649 0 0.025 2757.92
-0.763362 0 0.025 2787.47
-0.756822 0 0.025 2813.63
-0.750025 0 0.025 2833.96
-0.742968 0 0.025 2839.81
-0.735648 0 0.025 2844
-0.72806 0 0.025 2844.4
-0.720203 0 0.025 2842.48
-0.712076 0 0.025 2840.77
-0.703677 0 0.025 2837.39
-0.695006 0 0.025 2830.44
-0.686065 0 0.025 2826.05
-0.676855 0 0.025 2826.36
-0.667379 0 0.025 2822.53
-0.65764 0 0.025 2817.4
-0.647644 0 0.025 2815.02
-0.637397 0 0.025 2809.63
-0.626906 0 0.025 2808.36
-0.616179 0 0.025 2805.11
-0.605224 0 0.025 2802.33
-0.594054 0 0.025 2798.54
-0.582678 0 0.025 2797.09
-0.57111 0 0.025 2794.03
-0.559364 0 0.025 2792.12
-0.547454 0 0.025 2789.08
-0.535396 0 0.025 2785.81
-0.523205 0 0.025 2783.64
-0.510901 0 0.025 2780.88
-0.4985 0 0.025 2779.86
-0.486021 0 0.025 2779.4
-0.473483 0 0.025 2777.45
-0.460905 0 0.025 2774.38
-0.448308 0 0.025 2772.41
-0.435709 0 0.025 2771.76
-0.42313 0 0.025 2771.89
-0.41059 0 0.025 2771.58
-0.39811 0 0.025 2769.52
-0.385706 0 0.025 2766.28
-0.373398 0 0.025 2763.99
-0.361205 0 0.025 2763.56
-0.349141 0 0.025 2765.91
-0.337226 0 0.025 2766.81
-0.325475 0 0.025 2764.61
-0.313901 0 0.025 2760.97
-0.30252 0 0.025 2757.09
-0.291343 0 0.025 2754.36
-0.280382 0 0.025 2753.18
-0.269646 0 0.025 2755.51
-0.259148 0 0.025 2758.91
-0.248893 0 0.025 2761.75
-0.23889 0 0.025 2762.72
-0.229143 0 0.025 2762.86
-0.219659 0 0.025 2760.26
-0.210441 0 0.025 2756.15
-0.201491 0 0.025 2751.65
-0.192812 0 0.025 2747.74
-0.184405 0 0.025 2744.48
-0.176269 0 0.025 2742.58
-0.168404 0 0.025 2741.91
-0.160808 0 0.025 2742.48
-0.15348 0 0.025 2744.21
-0.146415 0 0.025 2746.96
-0.13961 0 0.025 2750.19
-0.133063 0 0.025 2753.51
-0.126767 0 0.025 2756.18
-0.120718 0 0.025 2758.15
-0.11491 0 0.025 2759.32
-0.109339 0 0.025 2759.82
-0.103997 0 0.025 2759.88
-0.0988805 0 0.025 2759.31
-0.0939808 0 0.025 2758.3
-0.0892928 0 0.025 2756.99
-0.0848096 0 0.025 2755.36
-0.0805248 0 0.025 2753.49
-0.0764316 0 0.025 2751.47
-0.0725237 0 0.025 2749.38
-0.0687943 0 0.025 2747.28
-0.065237 0 0.025 2745.32
-0.0618454 0 0.025 2743.53
-0.058613 0 0.025 2741.91
-0.0555337 0 0.025 2740.5
-0.0526013 0 0.025 2739.23
-0.0498099 0 0.025 2738.11
-0.0471536 0 0.025 2737.09
-0.0446266 0 0.025 2736.17
-0.0422235 0 0.025 2735.29
-0.039939 0 0.025 2734.55
-0.0377676 0 0.025 2733.78
-0.0357044 0 0.025 2737.75
-0.0337445 0 0.025 2763.43
-0.0318832 0 0.025 2884.48
-0.0301159 0 0.025 3260.98
-0.0284383 0 0.025 3941.28
-0.0268461 0 0.025 4725.12
-0.0253353 0 0.025 5433.62
-0.023902 0 0.025 6036.19
-0.0225426 0 0.025 6540.41
-0.0212532 0 0.025 6977.05
-0.0200306 0 0.025 7361.78
-0.0188715 0 0.025 7712.19
-0.0177728 0 0.025 8027.47
-0.0167313 0 0.025 8312.16
-0.0157444 0 0.025 8569.63
-0.0148092 0 0.025 8803.75
-0.0139232 0 0.025 9018.32
-0.0130838 0 0.025 9217.41
-0.0122887 0 0.025 9403.47
-0.0115356 0 0.025 9576.94
-0.0108223 0 0.025 9739.11
-0.0101469 0 0.025 9890.63
-0.00950727 0 0.025 10032.1
-0.00890168 0 0.025 10163.7
-0.00832835 0 0.025 10285.1
-0.00778557 0 0.025 10396.7
-0.00727176 0 0.025 10498.9
-0.0067854 0 0.025 10592.2
-0.00632507 0 0.025 10677.4
-0.00588937 0 0.025 10755.4
-0.00547703 0 0.025 10827.6
-0.0050868 0 0.025 10895.2
-0.00471753 0 0.025 10959.8
-0.0043681 0 0.025 11022.7
-0.00403746 0 0.025 11085.3
-0.00372461 0 0.025 11148.9
-0.0034286 0 0.025 11216
-0.00314855 0 0.025 11286.2
-0.0028836 0 0.025 11360.6
-0.00263294 0 0.025 11440.3
-0.00239581 0 0.025 11529.2
-0.0021715 0 0.025 11622.2
-0.00195929 0 0.025 11718.7
-0.00175856 0 0.025 11820.8
-0.00156869 0 0.025 11927.8
-0.00138908 0 0.025 12038.6
-0.0012192 0 0.025 12152.2
-0.00105853 0 0.025 12267.5
-0.000906546 0 0.025 12382.8
-0.000762803 0 0.025 12495.3
-0.000626848 0 0.025 12601.2
-0.000498265 0 0.025 12694.2
-0.000376656 0 0.025 12765.5
-0.000261642 0 0.025 12807.5
-0.00015287 0 0.025 12819.4
-5e-05 0 0.025 12926.8
4.14519e-05 2.79596e-05 0.025 12476
0.000125371 8.45641e-05 0.025 12585.3
0.000211347 0.000142556 0.025 12550.6
0.000299429 0.000201968 0.025 12481
0.000389669 0.000262835 0.025 12402.4
0.000482118 0.000325193 0.025 12325.8
0.000576831 0.000389077 0.025 12257.1
0.000673861 0.000454524 0.025 12199.9
0.000773265 0.000521574 0.025 12156.8
0.0008751 0.000590262 0.025 12128.8
0.000979426 0.000660632 0.025 12114.4
0.0010863 0.000732721 0.025 12117.4
0.00119579 0.000806572 0.025 12134.9
0.00130795 0.000882227 0.025 12165.3
0.00142285 0.00095973 0.025 12209
0.00154056 0.00103912 0.025 12264.5
0.00166115 0.00112046 0.025 12331.5
0.00178467 0.00120378 0.025 12409.6
0.00191121 0.00128913 0.025 12497.6
0.00204083 0.00137656 0.025 12597
0.00217362 0.00146612 0.025 12704.9
0.00230964 0.00155787 0.025 12822.5
0.00244897 0.00165185 0.025 12949.8
0.00259169 0.00174812 0.025 13086.8
0.00273789 0.00184673 0.025 13233.2
0.00288765 0.00194774 0.025 13389.2
0.00304105 0.00205122 0.025 13555.3
0.00319818 0.00215719 0.025 13731.5
0.00335912 0.00226575 0.025 13918
0.00352397 0.00237695 0.025 14115.6
0.00369283 0.00249085 0.025 14324.8
0.00386579 0.00260751 0.025 14546.1
0.00404294 0.00272699 0.025 14780.5
0.00422438 0.00284938 0.025 15028.4
0.00441022 0.00297474 0.025 15291.2
0.00460056 0.00310312 0.025 15569.8
0.00479552 0.00323462 0.025 15865.6
0.00499519 0.0033693 0.025 16179.1
0.00519968 0.00350723 0.025 16512.9
0.00540911 0.00364849 0.025 16867.5
0.00562361 0.00379318 0.025 17245
0.00584329 0.00394134 0.025 17647.4
0.00606826 0.00409309 0.025 18076.4
0.00629865 0.00424849 0.025 18534.3
0.0065346 0.00440764 0.025 19024.1
0.00677623 0.00457063 0.025 19547.6
0.00702368 0.00473753 0.025 20108.7
0.00727707 0.00490844 0.025 20710.1
0.00753655 0.00508347 0.025 21355.5
0.00780227 0.00526269 0.025 22048.9
0.00807436 0.00544622 0.025 22793.9
0.00835298 0.00563415 0.025 23595.8
0.00863826 0.00582659 0.025 24458.6
0.00893038 0.00602362 0.025 25388.1
0.00922949 0.00622537 0.025 26390.2
0.00953574 0.00643195 0.025 27472.4
0.00984929 0.00664345 0.025 28640.8
0.0101703 0.00686 0.025 29908.6
0.0104991 0.00708171 0.025 31284.7
0.0108356 0.00730871 0.025 32774.6
0.0111801 0.0075411 0.025 34402.9
0.0115329 0.00777902 0.025 36181.5
0.011894 0.00802259 0.025 38124.4
0.0122637 0.00827194 0.025 40253.7
0.0126421 0.00852719 0.025 42586.7
0.0130295 0.0087885 0.025 45140.2
0.013426 0.00905597 0.025 47936.1
0.013832 0.00932978 0.025 50989.7
0.0142475 0.00961003 0.025 54333.8
0.0146727 0.0098969 0.025 57985
0.0151081 0.0101905 0.025 61988.9
0.0155536 0.010491 0.025 66391.7
0.0160097 0.0107986 0.025 71241.7
0.0164764 0.0111134 0.025 76565.5
0.016954 0.0114356 0.025 82478.1
0.0174427 0.0117653 0.025 88984.9
0.0179429 0.0121026 0.025 96161.1
0.0184548 0.0124479 0.025 103965
0.0189786 0.0128013 0.025 112297
0.0195146 0.0131628 0.025 121225
0.020063 0.0135327 0.025 130705
0.0206242 0.0139112 0.025 140751
0.0211983 0.0142984 0.025 151566
0.0217857 0.0146947 0.025 163007
0.0223867 0.0151 0.025 174208
0.0230015 0.0155147 0.025 182903
0.0236304 0.0159389 0.025 186373
0.0242738 0.0163729 0.025 186764
0.0249318 0.0168167 0.025 180453
0.025605 0.0172708 0.025 174298
0.0262935 0.0177352 0.025 167624
0.0269977 0.0182102 0.025 160788
0.0277178 0.0186959 0.025 154266
0.0284544 0.0191927 0.025 148510
0.0292075 0.0197008 0.025 143350
0.0299777 0.0202203 0.025 138900
0.0307653 0.0207514 0.025 135117
0.0315704 0.0212945 0.025 132135
0.0323937 0.0218499 0.025 129913
0.0332354 0.0224176 0.025 128075
0.0340959 0.022998 0.025 126383
0.0349755 0.0235913 0.025 124955
0.0358747 0.0241978 0.025 124103
0.0367938 0.0248178 0.025 123818
0.0377331 0.0254513 0.025 123851
0.0386932 0.0260989 0.025 123853
0.0396743 0.0267606 0.025 123857
0.0406769 0.0274369 0.025 123964
0.0417013 0.0281279 0.025 124038
0.042748 0.0288339 0.025 124261
0.0438175 0.0295552 0.025 124624
0.04491 0.0302922 0.025 125330
0.0460262 0.031045 0.025 126082
0.0471662 0.031814 0.025 126284
0.0483306 0.0325995 0.025 126164
0.0495199 0.0334016 0.025 125946
0.0507344 0.0342208 0.025 125843
0.0519746 0.0350573 0.025 126343
0.0532409 0.0359114 0.025 127019
0.0545339 0.0367835 0.025 127247
0.0558538 0.0376739 0.025 127246
0.0572012 0.0385827 0.025 127033
0.0585766 0.0395104 0.025 127109
0.0599804 0.0404573 0.025 127306
0.061413 0.0414236 0.025 127537
0.0628748 0.0424096 0.025 127708
0.0643665 0.0434157 0.025 127831
0.0658883 0.0444422 0.025 127925
0.0674408 0.0454894 0.025 127957
0.0690245 0.0465576 0.025 128040
0.0706398 0.0476471 0.025 128114
0.0722871 0.0487582 0.025 128139
0.0739669 0.0498912 0.025 128055
0.0756797 0.0510466 0.025 127903
0.0774258 0.0522244 0.025 127699
0.0792059 0.053425 0.025 127579
0.0810203 0.0546489 0.025 127688
0.0828694 0.0558961 0.025 127886
0.0847537 0.0571671 0.025 128120
0.0866737 0.0584622 0.025 128202
0.0886298 0.0597816 0.025 127967
0.0906224 0.0611256 0.025 127450
0.0926518 0.0624944 0.025 126848
0.0947185 0.0638884 0.025 126404
0.096823 0.065308 0.025 126228
0.0989659 0.0667532 0.025 126649
0.101147 0.0682245 0.025 127242
0.103367 0.0697219 0.025 128100
0.105626 0.0712458 0.025 128768
0.107926 0.0727965 0.025 129067
0.110265 0.074374 0.025 128982
0.112644 0.0759789 0.025 128240
0.115063 0.0776111 0.025 127913
0.117524 0.0792709 0.025 126873
0.120026 0.0809585 0.025 126182
0.122569 0.0826741 0.025 126171
0.125155 0.0844179 0.025 126897
0.127782 0.0861901 0.025 127894
0.130451 0.0879908 0.025 128428
0.133163 0.08982 0.025 128578
0.135918 0.0916781 0.025 128175
0.138716 0.0935651 0.025 127762
0.141556 0.095481 0.025 127463
0.14444 0.097426 0.025 127449
0.147367 0.0994004 0.025 127459
0.150337 0.101404 0.025 128625
0.153351 0.103437 0.025 128491
0.156408 0.105498 0.025 127378
0.159508 0.107589 0.025 127704
0.162651 0.10971 0.025 126371
0.165838 0.111859 0.025 123791
0.169069 0.114039 0.025 124983
0.172343 0.116247 0.025 123746
0.175659 0.118483 0.025 123546
0.179018 0.120749 0.025 123160
0.182421 0.123045 0.025 122906
0.185866 0.125368 0.025 123108
0.189353 0.12772 0.025 123255
0.192882 0.1301 0.025 123024
0.196453 0.132509 0.025 122896
0.200065 0.134946 0.025 121710
0.203718 0.13741 0.025 121340
0.207412 0.139901 0.025 121376
0.211146 0.14242 0.025 120695
0.214919 0.144965 0.025 120196
0.218732 0.147537 0.025 120623
0.222583 0.150134 0.025 119790
0.226472 0.152757 0.025 120423
0.230399 0.155406 0.025 119848
0.234362 0.15808 0.025 119839
0.238362 0.160777 0.025 119473
0.242396 0.163498 0.025 120153
0.246466 0.166244 0.025 120382
0.250569 0.169012 0.025 121715
0.254706 0.171801 0.025 120971
0.258874 0.174613 0.025 120830
0.263074 0.177446 0.025 120200
0.267304 0.180299 0.025 120687
0.271564 0.183172 0.025 121233
0.275852 0.186064 0.025 121064
0.280168 0.188975 0.025 121882
0.28451 0.191904 0.025 121697
0.288876 0.19485 0.025 121197
0.293268 0.197812 0.025 121924
0.297683 0.20079 0.025 120856
0.302119 0.203782 0.025 120490
0.306577 0.206788 0.025 121147
0.311054 0.209808 0.025 120521
0.315549 0.212841 0.025 121084
0.320063 0.215885 0.025 120282
0.324591 0.218939 0.025 121005
0.329134 0.222003 0.025 121050
0.333691 0.225077 0.025 120436
0.33826 0.228159 0.025 121023
0.342839 0.231248 0.025 120844
0.347428 0.234343 0.025 121796
0.352025 0.237444 0.025 120668
0.356628 0.240548 0.025 121082
0.361237 0.243658 0.025 121267
0.36585 0.246769 0.025 120058
0.370465 0.249882 0.025 121638
0.375082 0.252996 0.025 120658
0.379698 0.25611 0.025 120140
0.384313 0.259223 0.025 121101
0.388926 0.262333 0.025 120396
0.393534 0.265442 0.025 120796
0.398136 0.268546 0.025 121098
0.40273 0.271645 0.025 120452
0.407317 0.274739 0.025 120314
0.411894 0.277826 0.025 119901
0.41646 0.280906 0.025 121206
0.421014 0.283977 0.025 120436
0.425554 0.28704 0.025 120208
0.430079 0.290092 0.025 120701
0.434588 0.293133 0.025 120543
0.439079 0.296162 0.025 121234
0.443551 0.299179 0.025 120961
0.448004 0.302183 0.025 120856
0.452437 0.305172 0.025 120949
0.456846 0.308146 0.025 121220
0.461232 0.311105 0.025 121111
0.465593 0.314047 0.025 121262
0.469929 0.316971 0.025 120929
0.474238 0.319878 0.025 121980
0.47852 0.322766 0.025 121663
0.482773 0.325635 0.025 121764
0.486996 0.328483 0.025 121269
0.491189 0.331311 0.025 120632
0.49535 0.334118 0.025 121888
