# wallHeatFlux  FACE_DATA 398
# x  y  z  wallHeatFlux
-0.7975 0 0.025 -653682
-0.79239 0 0.025 -120557
-0.787056 0 0.025 -69608.2
-0.781492 0 0.025 -55676.9
-0.775691 0 0.025 -50642.5
-0.769649 0 0.025 -52444.6
-0.763362 0 0.025 -54510.6
-0.756822 0 0.025 -55424.4
-0.750025 0 0.025 -55189.7
-0.742968 0 0.025 -54566.6
-0.735648 0 0.025 -53761.2
-0.72806 0 0.025 -52790.1
-0.720203 0 0.025 -51686.2
-0.712076 0 0.025 -50630.5
-0.703677 0 0.025 -49722.8
-0.695006 0 0.025 -48803.4
-0.686065 0 0.025 -47931.2
-0.676855 0 0.025 -47106.1
-0.667379 0 0.025 -46370.5
-0.65764 0 0.025 -45730.8
-0.647644 0 0.025 -45040
-0.637397 0 0.025 -44374.6
-0.626906 0 0.025 -43891.9
-0.616179 0 0.025 -43335.3
-0.605224 0 0.025 -42816.4
-0.594054 0 0.025 -42285
-0.582678 0 0.025 -41831
-0.57111 0 0.025 -41375.4
-0.559364 0 0.025 -40983.3
-0.547454 0 0.025 -40556.4
-0.535396 0 0.025 -40144.4
-0.523205 0 0.025 -39771.8
-0.510901 0 0.025 -39410.1
-0.4985 0 0.025 -39136.2
-0.486021 0 0.025 -38855.7
-0.473483 0 0.025 -38530.5
-0.460905 0 0.025 -38213.7
-0.448308 0 0.025 -37917.7
-0.435709 0 0.025 -37631
-0.42313 0 0.025 -37438.7
-0.41059 0 0.025 -37229.5
-0.39811 0 0.025 -36975.8
-0.385706 0 0.025 -36715.3
-0.373398 0 0.025 -36497.8
-0.361205 0 0.025 -36349.5
-0.349141 0 0.025 -36210.1
-0.337226 0 0.025 -36043.9
-0.325475 0 0.025 -35850.3
-0.313901 0 0.025 -35629.7
-0.30252 0 0.025 -35414
-0.291343 0 0.025 -35231.4
-0.280382 0 0.025 -35091.7
-0.269646 0 0.025 -35026.5
-0.259148 0 0.025 -34988.4
-0.248893 0 0.025 -34957
-0.23889 0 0.025 -34888.4
-0.229143 0 0.025 -34782
-0.219659 0 0.025 -34623.3
-0.210441 0 0.025 -34432.4
-0.201491 0 0.025 -34217.3
-0.192812 0 0.025 -34027.2
-0.184405 0 0.025 -33872.8
-0.176269 0 0.025 -33754.5
-0.168404 0 0.025 -33675
-0.160808 0 0.025 -33638.4
-0.15348 0 0.025 -33641.5
-0.146415 0 0.025 -33677.3
-0.13961 0 0.025 -33722.8
-0.133063 0 0.025 -33764.4
-0.126767 0 0.025 -33790.7
-0.120718 0 0.025 -33806.7
-0.11491 0 0.025 -33801.8
-0.109339 0 0.025 -33776.1
-0.103997 0 0.025 -33728.4
-0.0988805 0 0.025 -33673.2
-0.0939808 0 0.025 -33605.3
-0.0892928 0 0.025 -33527.7
-0.0848096 0 0.025 -33439.5
-0.0805248 0 0.025 -33346.3
-0.0764316 0 0.025 -33248
-0.0725237 0 0.025 -33149.7
-0.0687943 0 0.025 -33051.9
-0.065237 0 0.025 -32959
-0.0618454 0 0.025 -32866.9
-0.058613 0 0.025 -32784.9
-0.0555337 0 0.025 -32708.9
-0.0526013 0 0.025 -32637.8
-0.0498099 0 0.025 -32577.7
-0.0471536 0 0.025 -32528.2
-0.0446266 0 0.025 -32478.8
-0.0422235 0 0.025 -32440.1
-0.039939 0 0.025 -32321
-0.0377676 0 0.025 -30481.7
-0.0357044 0 0.025 -23487.5
-0.0337445 0 0.025 -22289.8
-0.0318832 0 0.025 -33323.7
-0.0301159 0 0.025 -41422.6
-0.0284383 0 0.025 -47727.6
-0.0268461 0 0.025 -53101.1
-0.0253353 0 0.025 -57939.7
-0.023902 0 0.025 -62522.1
-0.0225426 0 0.025 -66359.3
-0.0212532 0 0.025 -69647.5
-0.0200306 0 0.025 -72606.6
-0.0188715 0 0.025 -75320.7
-0.0177728 0 0.025 -77826.3
-0.0167313 0 0.025 -80096.7
-0.0157444 0 0.025 -82115.5
-0.0148092 0 0.025 -83881.4
-0.0139232 0 0.025 -85389.6
-0.0130838 0 0.025 -86688
-0.0122887 0 0.025 -87801
-0.0115356 0 0.025 -88796.5
-0.0108223 0 0.025 -89725.1
-0.0101469 0 0.025 -90611.4
-0.00950727 0 0.025 -91494
-0.00890168 0 0.025 -92393.9
-0.00832835 0 0.025 -93332.9
-0.00778557 0 0.025 -94332.8
-0.00727176 0 0.025 -95405
-0.0067854 0 0.025 -96564.7
-0.00632507 0 0.025 -97830.7
-0.00588937 0 0.025 -99206.6
-0.00547703 0 0.025 -100716
-0.0050868 0 0.025 -102359
-0.00471753 0 0.025 -104148
-0.0043681 0 0.025 -106105
-0.00403746 0 0.025 -108248
-0.00372461 0 0.025 -110552
-0.0034286 0 0.025 -113036
-0.00314855 0 0.025 -115717
-0.0028836 0 0.025 -118593
-0.00263294 0 0.025 -121587
-0.00239581 0 0.025 -124656
-0.0021715 0 0.025 -127930
-0.00195929 0 0.025 -131373
-0.00175856 0 0.025 -134977
-0.00156869 0 0.025 -138762
-0.00138908 0 0.025 -142716
-0.0012192 0 0.025 -146869
-0.00105853 0 0.025 -151102
-0.000906546 0 0.025 -155326
-0.000762803 0 0.025 -159322
-0.000626848 0 0.025 -162632
-0.000498265 0 0.025 -163941
-0.000376656 0 0.025 -161037
-0.000261642 0 0.025 -150346
-0.00015287 0 0.025 -126509
-5e-05 0 0.025 -75901.4
4.14519e-05 2.79596e-05 0.025 -47537.8
0.000125371 8.45641e-05 0.025 -57934.7
0.000211347 0.000142556 0.025 -71858.5
0.000299429 0.000201968 0.025 -82181.2
0.000389669 0.000262835 0.025 -90966.8
0.000482118 0.000325193 0.025 -100158
0.000576831 0.000389077 0.025 -109462
0.000673861 0.000454524 0.025 -118226
0.000773265 0.000521574 0.025 -126112
0.0008751 0.000590262 0.025 -133074
0.000979426 0.000660632 0.025 -139185
0.0010863 0.000732721 0.025 -144560
0.00119579 0.000806572 0.025 -149456
0.00130795 0.000882227 0.025 -153887
0.00142285 0.00095973 0.025 -157980
0.00154056 0.00103912 0.025 -161861
0.00166115 0.00112046 0.025 -165598
0.00178467 0.00120378 0.025 -169246
0.00191121 0.00128913 0.025 -172898
0.00204083 0.00137656 0.025 -176523
0.00217362 0.00146612 0.025 -180163
0.00230964 0.00155787 0.025 -183890
0.00244897 0.00165185 0.025 -187704
0.00259169 0.00174812 0.025 -191611
0.00273789 0.00184673 0.025 -195658
0.00288765 0.00194774 0.025 -199879
0.00304105 0.00205122 0.025 -204233
0.00319818 0.00215719 0.025 -208762
0.00335912 0.00226575 0.025 -213551
0.00352397 0.00237695 0.025 -218522
0.00369283 0.00249085 0.025 -223751
0.00386579 0.00260751 0.025 -229221
0.00404294 0.00272699 0.025 -235006
0.00422438 0.00284938 0.025 -241148
0.00441022 0.00297474 0.025 -247627
0.00460056 0.00310312 0.025 -254485
0.00479552 0.00323462 0.025 -261734
0.00499519 0.0033693 0.025 -269515
0.00519968 0.00350723 0.025 -277698
0.00540911 0.00364849 0.025 -286456
0.00562361 0.00379318 0.025 -295787
0.00584329 0.00394134 0.025 -305724
0.00606826 0.00409309 0.025 -316413
0.00629865 0.00424849 0.025 -327847
0.0065346 0.00440764 0.025 -340194
0.00677623 0.00457063 0.025 -353407
0.00702368 0.00473753 0.025 -367563
0.00727707 0.00490844 0.025 -383013
0.00753655 0.00508347 0.025 -399653
0.00780227 0.00526269 0.025 -417475
0.00807436 0.00544622 0.025 -436913
0.00835298 0.00563415 0.025 -458169
0.00863826 0.00582659 0.025 -481612
0.00893038 0.00602362 0.025 -507032
0.00922949 0.00622537 0.025 -535825
0.00953574 0.00643195 0.025 -566013
0.00984929 0.00664345 0.025 -602207
0.0101703 0.00686 0.025 -644354
0.0104991 0.00708171 0.025 -688381
0.0108356 0.00730871 0.025 -734897
0.0111801 0.0075411 0.025 -787330
0.0115329 0.00777902 0.025 -838421
0.011894 0.00802259 0.025 -890475
0.0122637 0.00827194 0.025 -944584
0.0126421 0.00852719 0.025 -1.00001e+06
0.0130295 0.0087885 0.025 -1.05339e+06
0.013426 0.00905597 0.025 -1.11058e+06
0.013832 0.00932978 0.025 -1.17182e+06
0.0142475 0.00961003 0.025 -1.23613e+06
0.0146727 0.0098969 0.025 -1.3019e+06
0.0151081 0.0101905 0.025 -1.36575e+06
0.0155536 0.010491 0.025 -1.43275e+06
0.0160097 0.0107986 0.025 -1.49518e+06
0.0164764 0.0111134 0.025 -1.55931e+06
0.016954 0.0114356 0.025 -1.62344e+06
0.0174427 0.0117653 0.025 -1.67367e+06
0.0179429 0.0121026 0.025 -1.72053e+06
0.0184548 0.0124479 0.025 -1.78074e+06
0.0189786 0.0128013 0.025 -1.79935e+06
0.0195146 0.0131628 0.025 -1.82184e+06
0.020063 0.0135327 0.025 -1.85785e+06
0.0206242 0.0139112 0.025 -1.86062e+06
0.0211983 0.0142984 0.025 -1.85188e+06
0.0217857 0.0146947 0.025 -1.85406e+06
0.0223867 0.0151 0.025 -1.85311e+06
0.0230015 0.0155147 0.025 -1.84944e+06
0.0236304 0.0159389 0.025 -1.85387e+06
0.0242738 0.0163729 0.025 -1.82417e+06
0.0249318 0.0168167 0.025 -1.80244e+06
0.025605 0.0172708 0.025 -1.77936e+06
0.0262935 0.0177352 0.025 -1.70287e+06
0.0269977 0.0182102 0.025 -1.64483e+06
0.0277178 0.0186959 0.025 -1.58405e+06
0.0284544 0.0191927 0.025 -1.57633e+06
0.0292075 0.0197008 0.025 -1.50837e+06
0.0299777 0.0202203 0.025 -1.45332e+06
0.0307653 0.0207514 0.025 -1.41052e+06
0.0315704 0.0212945 0.025 -1.372e+06
0.0323937 0.0218499 0.025 -1.34021e+06
0.0332354 0.0224176 0.025 -1.31236e+06
0.0340959 0.022998 0.025 -1.28771e+06
0.0349755 0.0235913 0.025 -1.25841e+06
0.0358747 0.0241978 0.025 -1.2551e+06
0.0367938 0.0248178 0.025 -1.23443e+06
0.0377331 0.0254513 0.025 -1.22316e+06
0.0386932 0.0260989 0.025 -1.21308e+06
0.0396743 0.0267606 0.025 -1.19843e+06
0.0406769 0.0274369 0.025 -1.18548e+06
0.0417013 0.0281279 0.025 -1.17633e+06
0.042748 0.0288339 0.025 -1.17819e+06
0.0438175 0.0295552 0.025 -1.17257e+06
0.04491 0.0302922 0.025 -1.16377e+06
0.0460262 0.031045 0.025 -1.1635e+06
0.0471662 0.031814 0.025 -1.16589e+06
0.0483306 0.0325995 0.025 -1.14983e+06
0.0495199 0.0334016 0.025 -1.14389e+06
0.0507344 0.0342208 0.025 -1.13984e+06
0.0519746 0.0350573 0.025 -1.14306e+06
0.0532409 0.0359114 0.025 -1.15127e+06
0.0545339 0.0367835 0.025 -1.13931e+06
0.0558538 0.0376739 0.025 -1.12843e+06
0.0572012 0.0385827 0.025 -1.12016e+06
0.0585766 0.0395104 0.025 -1.11362e+06
0.0599804 0.0404573 0.025 -1.11976e+06
0.061413 0.0414236 0.025 -1.10915e+06
0.0628748 0.0424096 0.025 -1.12793e+06
0.0643665 0.0434157 0.025 -1.12804e+06
0.0658883 0.0444422 0.025 -1.10766e+06
0.0674408 0.0454894 0.025 -1.10107e+06
0.0690245 0.0465576 0.025 -1.10002e+06
0.0706398 0.0476471 0.025 -1.09344e+06
0.0722871 0.0487582 0.025 -1.0881e+06
0.0739669 0.0498912 0.025 -1.08455e+06
0.0756797 0.0510466 0.025 -1.09089e+06
0.0774258 0.0522244 0.025 -1.09994e+06
0.0792059 0.053425 0.025 -1.09209e+06
0.0810203 0.0546489 0.025 -1.10882e+06
0.0828694 0.0558961 0.025 -1.08568e+06
0.0847537 0.0571671 0.025 -1.11684e+06
0.0866737 0.0584622 0.025 -1.08871e+06
0.0886298 0.0597816 0.025 -1.0859e+06
0.0906224 0.0611256 0.025 -1.0899e+06
0.0926518 0.0624944 0.025 -1.05648e+06
0.0947185 0.0638884 0.025 -1.0808e+06
0.096823 0.065308 0.025 -1.04758e+06
0.0989659 0.0667532 0.025 -1.10918e+06
0.101147 0.0682245 0.025 -1.35997e+06
0.103367 0.0697219 0.025 -1.30633e+06
0.105626 0.0712458 0.025 -1.02316e+06
0.107926 0.0727965 0.025 -1.02862e+06
0.110265 0.074374 0.025 -1.0564e+06
0.112644 0.0759789 0.025 -1.47684e+06
0.115063 0.0776111 0.025 -1.05369e+06
0.117524 0.0792709 0.025 -1.37977e+06
0.120026 0.0809585 0.025 -1.47501e+06
0.122569 0.0826741 0.025 -1.33395e+06
0.125155 0.0844179 0.025 -1.22019e+06
0.127782 0.0861901 0.025 -1.08425e+06
0.130451 0.0879908 0.025 -1.05995e+06
0.133163 0.08982 0.025 -1.0386e+06
0.135918 0.0916781 0.025 -1.01288e+06
0.138716 0.0935651 0.025 -1.00935e+06
0.141556 0.095481 0.025 -1.01375e+06
0.14444 0.097426 0.025 -1.27711e+06
0.147367 0.0994004 0.025 -1.75242e+06
0.150337 0.101404 0.025 -1.35476e+06
0.153351 0.103437 0.025 -1.3386e+06
0.156408 0.105498 0.025 -1.72486e+06
0.159508 0.107589 0.025 -876324
0.162651 0.10971 0.025 -1.22957e+06
0.165838 0.111859 0.025 -2.44124e+06
0.169069 0.114039 0.025 -1.78773e+06
0.172343 0.116247 0.025 -1.52164e+06
0.175659 0.118483 0.025 -1.47847e+06
0.179018 0.120749 0.025 -1.48105e+06
0.182421 0.123045 0.025 -1.50715e+06
0.185866 0.125368 0.025 -1.36755e+06
0.189353 0.12772 0.025 -1.38894e+06
0.192882 0.1301 0.025 -1.46171e+06
0.196453 0.132509 0.025 -1.40128e+06
0.200065 0.134946 0.025 -1.67127e+06
0.203718 0.13741 0.025 -1.5717e+06
0.207412 0.139901 0.025 -793764
0.211146 0.14242 0.025 -844460
0.214919 0.144965 0.025 -1.32653e+06
0.218732 0.147537 0.025 -850691
0.222583 0.150134 0.025 -1.52761e+06
0.226472 0.152757 0.025 -830172
0.230399 0.155406 0.025 -1.37263e+06
0.234362 0.15808 0.025 -1.32295e+06
0.238362 0.160777 0.025 -1.80275e+06
0.242396 0.163498 0.025 -1.58256e+06
0.246466 0.166244 0.025 -1.67217e+06
0.250569 0.169012 0.025 -793343
0.254706 0.171801 0.025 -1.23991e+06
0.258874 0.174613 0.025 -1.2564e+06
0.263074 0.177446 0.025 -1.51619e+06
0.267304 0.180299 0.025 -1.22867e+06
0.271564 0.183172 0.025 -798429
0.275852 0.186064 0.025 -1.24989e+06
0.280168 0.188975 0.025 -784991
0.28451 0.191904 0.025 -1.27331e+06
0.288876 0.19485 0.025 -1.72928e+06
0.293268 0.197812 0.025 -1.24817e+06
0.297683 0.20079 0.025 -1.52509e+06
0.302119 0.203782 0.025 -1.65126e+06
0.306577 0.206788 0.025 -1.21436e+06
0.311054 0.209808 0.025 -1.24347e+06
0.315549 0.212841 0.025 -1.00163e+06
0.320063 0.215885 0.025 -1.51404e+06
0.324591 0.218939 0.025 -1.11419e+06
0.329134 0.222003 0.025 -1.14361e+06
0.333691 0.225077 0.025 -1.68933e+06
0.33826 0.228159 0.025 -1.43786e+06
0.342839 0.231248 0.025 -1.45604e+06
0.347428 0.234343 0.025 -737085
0.352025 0.237444 0.025 -1.43848e+06
0.356628 0.240548 0.025 -1.09904e+06
0.361237 0.243658 0.025 -985380
0.36585 0.246769 0.025 -1.80846e+06
0.370465 0.249882 0.025 -917955
0.375082 0.252996 0.025 -1.20551e+06
0.379698 0.25611 0.025 -1.77328e+06
0.384313 0.259223 0.025 -1.14281e+06
0.388926 0.262333 0.025 -1.31768e+06
0.393534 0.265442 0.025 -1.11151e+06
0.398136 0.268546 0.025 -746916
0.40273 0.271645 0.025 -1.28528e+06
0.407317 0.274739 0.025 -1.24389e+06
0.411894 0.277826 0.025 -1.58365e+06
0.41646 0.280906 0.025 -709241
0.421014 0.283977 0.025 -1.17114e+06
0.425554 0.28704 0.025 -1.42069e+06
0.430079 0.290092 0.025 -1.18727e+06
0.434588 0.293133 0.025 -1.3938e+06
0.439079 0.296162 0.025 -1.01067e+06
0.443551 0.299179 0.025 -1.22303e+06
0.448004 0.302183 0.025 -1.29172e+06
0.452437 0.305172 0.025 -1.27479e+06
0.456846 0.308146 0.025 -1.2196e+06
0.461232 0.311105 0.025 -1.23535e+06
0.465593 0.314047 0.025 -1.14717e+06
0.469929 0.316971 0.025 -1.41768e+06
0.474238 0.319878 0.025 -863602
0.47852 0.322766 0.025 -922790
0.482773 0.325635 0.025 -735970
0.486996 0.328483 0.025 -1.05264e+06
0.491189 0.331311 0.025 -1.47372e+06
0.49535 0.334118 0.025 -1.01208e+06
