# Wall heat-flux
# Time        	patch         	min           	max           	integral      
13300         	base	-3.780376e+06	-3.193678e+04	-9.749073e+03
