# p  FACE_DATA 80
# x  y  z  p
-0.275972 0 0.05 671.719
-0.22368 0 0.05 671.719
-0.181118 0 0.05 671.719
-0.146477 0 0.05 671.719
-0.118282 0 0.05 671.719
-0.095333 0 0.05 671.719
-0.0766546 0 0.05 671.719
-0.061452 0 0.05 671.719
-0.0490783 0 0.05 671.719
-0.0390072 0 0.05 671.719
-0.0308101 0 0.05 671.719
-0.0241383 0 0.05 671.719
-0.0187081 0 0.05 671.719
-0.0142883 0 0.05 671.719
-0.0106909 0 0.05 671.719
-0.00776298 0 0.05 671.719
-0.00537988 0 0.05 671.719
-0.00344023 0 0.05 671.719
-0.00186151 0 0.05 671.72
-0.000576564 0 0.05 669.994
0.000597823 0 0.05 1192.18
0.00183445 0 0.05 1019.88
0.00315586 0 0.05 889.297
0.00456785 0 0.05 847.483
0.00607663 0 0.05 808.336
0.00768885 0 0.05 785.82
0.00941159 0 0.05 771.025
0.0112524 0 0.05 759.711
0.0132195 0 0.05 750.36
0.0153213 0 0.05 740.686
0.0175673 0 0.05 728.551
0.0199673 0 0.05 712.506
0.0225317 0 0.05 706.639
0.025272 0 0.05 701.083
0.0282001 0 0.05 700.566
0.031329 0 0.05 705.586
0.0346723 0 0.05 712.176
0.0382448 0 0.05 716.653
0.0420623 0 0.05 719.453
0.0461414 0 0.05 721.444
0.0505002 0 0.05 722.323
0.0551578 0 0.05 722.257
0.0601347 0 0.05 721.577
0.0654528 0 0.05 720.965
0.0711354 0 0.05 719.988
0.0772076 0 0.05 718.988
0.0836961 0 0.05 718.103
0.0906293 0 0.05 717.169
0.0980379 0 0.05 716.17
0.105954 0 0.05 715.28
0.114413 0 0.05 714.562
0.123453 0 0.05 713.899
0.133111 0 0.05 713.232
0.143432 0 0.05 712.595
0.15446 0 0.05 711.982
0.166245 0 0.05 711.346
0.178837 0 0.05 710.69
0.192293 0 0.05 710.076
0.20667 0 0.05 709.516
0.222034 0 0.05 708.958
0.238451 0 0.05 708.409
0.255993 0 0.05 707.903
0.274738 0 0.05 707.425
0.294767 0 0.05 706.942
0.31617 0 0.05 706.468
0.33904 0 0.05 706.007
0.363478 0 0.05 705.526
0.389591 0 0.05 705.036
0.417495 0 0.05 704.577
0.447311 0 0.05 704.149
0.479171 0 0.05 703.73
0.513216 0 0.05 703.318
0.549594 0 0.05 702.907
0.588466 0 0.05 702.489
0.630002 0 0.05 702.083
0.674387 0 0.05 701.695
0.721814 0 0.05 701.331
0.772492 0 0.05 700.903
0.826644 0 0.05 700.731
0.884509 0 0.05 699.991
