# wallShearStress  FACE_DATA 80
# x  y  z  wallShearStress_x  wallShearStress_y  wallShearStress_z
-0.275972 0 0.05 -1.30852e-12 -6.61538e-10 0
-0.22368 0 0.05 -5.35685e-12 -9.68888e-09 0
-0.181118 0 0.05 -1.00588e-11 -3.64191e-08 0
-0.146477 0 0.05 -1.40259e-11 -6.67449e-08 0
-0.118282 0 0.05 2.15021e-11 -1.01171e-07 0
-0.095333 0 0.05 2.71546e-10 6.02618e-10 0
-0.0766546 0 0.05 7.95824e-10 6.75868e-07 0
-0.061452 0 0.05 1.36641e-09 1.9346e-06 0
-0.0490783 0 0.05 1.75871e-09 3.43722e-06 0
-0.0390072 0 0.05 1.84394e-09 4.8616e-06 0
-0.0308101 0 0.05 1.57075e-09 5.96146e-06 0
-0.0241383 0 0.05 5.02152e-10 6.63263e-06 0
-0.0187081 0 0.05 -2.02929e-09 6.49392e-06 0
-0.0142883 0 0.05 -4.49683e-09 5.26625e-06 0
-0.0106909 0 0.05 -5.41441e-09 3.8476e-06 0
-0.00776298 0 0.05 -5.84311e-09 2.63275e-06 0
-0.00537988 0 0.05 -6.47105e-09 1.54024e-06 0
-0.00344023 0 0.05 -9.14026e-08 -1.98973e-06 0
-0.00186151 0 0.05 -0.000427843 -0.000139405 0
-0.000576564 0 0.05 -0.0367166 -0.52116 0
0.000597823 0 0.05 -261.68 -26.0389 0
0.00183445 0 0.05 -90.9533 -2.8471 0
0.00315586 0 0.05 -55.2389 -0.565362 0
0.00456785 0 0.05 -41.44 -0.21105 0
0.00607663 0 0.05 -34.2712 -0.143652 0
0.00768885 0 0.05 -29.2418 -0.0878095 0
0.00941159 0 0.05 -25.7644 -0.0576337 0
0.0112524 0 0.05 -23.2189 -0.0406336 0
0.0132195 0 0.05 -21.3364 -0.027472 0
0.0153213 0 0.05 -20.0497 -0.0169059 0
0.0175673 0 0.05 -19.3266 -0.007693 0
0.0199673 0 0.05 -18.8968 -0.00991488 0
0.0225317 0 0.05 -18.8688 0.00217915 0
0.025272 0 0.05 -19.3646 0.0051065 0
0.0282001 0 0.05 -20.3422 0.00673912 0
0.031329 0 0.05 -21.2443 0.00711907 0
0.0346723 0 0.05 -22.0101 0.00411584 0
0.0382448 0 0.05 -22.3626 -0.000244286 0
0.0420623 0 0.05 -22.4324 -0.00135621 0
0.0461414 0 0.05 -22.3303 -0.00288934 0
0.0505002 0 0.05 -22.0592 -0.00455913 0
0.0551578 0 0.05 -21.6876 -0.00616614 0
0.0601347 0 0.05 -21.3062 -0.00591418 0
0.0654528 0 0.05 -20.9175 -0.00505143 0
0.0711354 0 0.05 -20.5385 -0.00518693 0
0.0772076 0 0.05 -20.16 -0.00563057 0
0.0836961 0 0.05 -19.7966 -0.00616491 0
0.0906293 0 0.05 -19.4518 -0.00698786 0
0.0980379 0 0.05 -19.1189 -0.00792342 0
0.105954 0 0.05 -18.7979 -0.0083068 0
0.114413 0 0.05 -18.4944 -0.00820098 0
0.123453 0 0.05 -18.2073 -0.00837433 0
0.133111 0 0.05 -17.9304 -0.00909709 0
0.143432 0 0.05 -17.6628 -0.00999696 0
0.15446 0 0.05 -17.4053 -0.010799 0
0.166245 0 0.05 -17.157 -0.0115221 0
0.178837 0 0.05 -16.9157 -0.0122217 0
0.192293 0 0.05 -16.6812 -0.0130195 0
0.20667 0 0.05 -16.4543 -0.0138843 0
0.222034 0 0.05 -16.2343 -0.0147533 0
0.238451 0 0.05 -16.0201 -0.0155461 0
0.255993 0 0.05 -15.8113 -0.016357 0
0.274738 0 0.05 -15.6081 -0.0172253 0
0.294767 0 0.05 -15.4092 -0.0181378 0
0.31617 0 0.05 -15.2142 -0.0190718 0
0.33904 0 0.05 -15.0232 -0.0200024 0
0.363478 0 0.05 -14.8356 -0.0209586 0
0.389591 0 0.05 -14.6506 -0.0219434 0
0.417495 0 0.05 -14.4688 -0.0229326 0
0.447311 0 0.05 -14.2903 -0.0239118 0
0.479171 0 0.05 -14.115 -0.0248903 0
0.513216 0 0.05 -13.9423 -0.025839 0
0.549594 0 0.05 -13.7723 -0.0267866 0
0.588466 0 0.05 -13.6045 -0.0277615 0
0.630002 0 0.05 -13.4391 -0.0287413 0
0.674387 0 0.05 -13.2758 -0.0296904 0
0.721814 0 0.05 -13.1164 -0.0305944 0
0.772492 0 0.05 -12.9538 -0.0315489 0
0.826644 0 0.05 -12.8076 -0.0324652 0
0.884509 0 0.05 -12.5427 -0.0337555 0
