# p  FACE_DATA 317
# x  y  z  p
-2.24217 0 0.27 23911.3
-2.12942 0 0.27 23884.1
-2.02231 0 0.27 23857.3
-1.92055 0 0.27 23847
-1.82389 0 0.27 23844.3
-1.73207 0 0.27 23839.4
-1.64485 0 0.27 23831.6
-1.562 0 0.27 23826.9
-1.48331 0 0.27 23826.6
-1.40856 0 0.27 23824.5
-1.33756 0 0.27 23816.7
-1.27013 0 0.27 23802.6
-1.20608 0 0.27 23784.1
-1.14539 0 0.27 23762.6
-1.08787 0 0.27 23743.1
-1.03323 0 0.27 23725.8
-0.981322 0 0.27 23710.7
-0.932014 0 0.27 23698.7
-0.885173 0 0.27 23689.3
-0.84068 0 0.27 23682.4
-0.798416 0 0.27 23677.6
-0.758473 0 0.27 23674.5
-0.720912 0 0.27 23672.8
-0.685558 0 0.27 23672.2
-0.652245 0 0.27 23672.1
-0.620811 0 0.27 23672
-0.591171 0 0.27 23671.9
-0.563165 0 0.27 23672.1
-0.536572 0 0.27 23673.1
-0.51125 0 0.27 23674.6
-0.487059 0 0.27 23677
-0.463863 0 0.27 23680.5
-0.441526 0 0.27 23684.9
-0.419915 0 0.27 23690.1
-0.398896 0 0.27 23695.7
-0.378338 0 0.27 23701.6
-0.358104 0 0.27 23707.4
-0.33806 0 0.27 23710.9
-0.318069 0 0.27 23739.1
-0.296809 0 0.27 23757.1
-0.275112 0 0.27 23739.5
-0.255001 0 0.27 23735.7
-0.23636 0 0.27 23763
-0.219081 0 0.27 23754.1
-0.203066 0 0.27 23731.5
-0.188221 0 0.27 23729
-0.174462 0 0.27 23726.3
-0.161708 0 0.27 23726.3
-0.149886 0 0.27 23727.1
-0.138929 0 0.27 23726.4
-0.128773 0 0.27 23726.7
-0.119359 0 0.27 23725.8
-0.110632 0 0.27 23725.7
-0.102544 0 0.27 23725.7
-0.0950472 0 0.27 23726.4
-0.0880983 0 0.27 23726.5
-0.0816572 0 0.27 23726.8
-0.0756869 0 0.27 23725.8
-0.070153 0 0.27 23737.2
-0.0650234 0 0.27 24179.9
-0.0602687 0 0.27 29841.7
-0.0558616 0 0.27 39717
-0.0517765 0 0.27 44203.6
-0.0479899 0 0.27 46757.5
-0.04448 0 0.27 48522.9
-0.0412265 0 0.27 49637.5
-0.0382106 0 0.27 50599.1
-0.0354151 0 0.27 51411.6
-0.0328237 0 0.27 52064.8
-0.0304215 0 0.27 52652.3
-0.0281948 0 0.27 53177.1
-0.0261306 0 0.27 53647.6
-0.0242171 0 0.27 54069
-0.0224431 0 0.27 54450
-0.0207985 0 0.27 54797
-0.0192738 0 0.27 55112.3
-0.0178602 0 0.27 55399.7
-0.0165496 0 0.27 55660.5
-0.0153345 0 0.27 55897.8
-0.0142077 0 0.27 56114
-0.0131629 0 0.27 56311.2
-0.0121939 0 0.27 56491.8
-0.0112952 0 0.27 56658
-0.0104616 0 0.27 56811.5
-0.0096884 0 0.27 56954
-0.00897103 0 0.27 57086.9
-0.00830536 0 0.27 57211.2
-0.00768758 0 0.27 57328.1
-0.0071141 0 0.27 57437.9
-0.00658165 0 0.27 57541.9
-0.00608714 0 0.27 57640.3
-0.00562772 0 0.27 57733.5
-0.00520074 0 0.27 57821.9
-0.00480375 0 0.27 57905.8
-0.00443446 0 0.27 57985.3
-0.00409073 0 0.27 58060.7
-0.00377059 0 0.27 58130.7
-0.00347218 0 0.27 58204.3
-0.00319379 0 0.27 58267.8
-0.00293381 0 0.27 58328.9
-0.00269075 0 0.27 58387
-0.00246319 0 0.27 58442
-0.00224984 0 0.27 58494.3
-0.00204945 0 0.27 58543.7
-0.00186089 0 0.27 58590.6
-0.00168306 0 0.27 58634.5
-0.00151492 0 0.27 58676.5
-0.00135552 0 0.27 58715.4
-0.00120394 0 0.27 58752.6
-0.00105929 0 0.27 58786.5
-0.000920752 0 0.27 58819.1
-0.000787523 0 0.27 58847.7
-0.000658834 0 0.27 58874.2
-0.000533942 0 0.27 58896.6
-0.000412129 0 0.27 58912.6
-0.000292693 0 0.27 58928.8
-0.000174943 0 0.27 58906.9
-5.82025e-05 0 0.27 59123.4
6.0278e-05 2.68374e-05 0.27 58378.7
0.000182584 8.12915e-05 0.27 58611.9
0.000308438 0.000137325 0.27 58567.1
0.000437939 0.000194983 0.27 58547.9
0.00057119 0.00025431 0.27 58529.4
0.000708293 0.000315353 0.27 58522.3
0.000849358 0.000378158 0.27 58525.9
0.000994492 0.000442776 0.27 58534.9
0.00114381 0.000509256 0.27 58551.3
0.00129743 0.000577649 0.27 58570.8
0.00145545 0.000648007 0.27 58596
0.00161801 0.000720386 0.27 58624.2
0.00178523 0.000794839 0.27 58657.1
0.00195724 0.000871423 0.27 58692.7
0.00213417 0.000950195 0.27 58732.3
0.00231614 0.00103122 0.27 58774.7
0.0025033 0.00111455 0.27 58820.8
0.00269579 0.00120024 0.27 58869.6
0.00289374 0.00128838 0.27 58921.7
0.00309731 0.00137901 0.27 58976.8
0.00330663 0.00147221 0.27 59035.1
0.00352187 0.00156804 0.27 59096.5
0.00374317 0.00166657 0.27 59162
0.0039707 0.00176788 0.27 59229.8
0.00420463 0.00187202 0.27 59300.5
0.00444512 0.0019791 0.27 59374.3
0.00469233 0.00208916 0.27 59451.5
0.00494645 0.0022023 0.27 59532
0.00520763 0.00231859 0.27 59616
0.00547608 0.00243811 0.27 59703.4
0.00575197 0.00256094 0.27 59794.4
0.00603549 0.00268717 0.27 59888.8
0.00632683 0.00281688 0.27 59987
0.00662618 0.00295016 0.27 60088.8
0.00693375 0.0030871 0.27 60194.4
0.00724974 0.0032278 0.27 60304
0.00757435 0.00337232 0.27 60417.6
0.0079078 0.00352077 0.27 60535.3
0.00825029 0.00367327 0.27 60657.2
0.00860204 0.00382988 0.27 60783.6
0.00896328 0.00399071 0.27 60914.5
0.00933422 0.00415586 0.27 61050.1
0.0097151 0.00432544 0.27 61190.5
0.0101061 0.00449954 0.27 61336
0.0105076 0.00467828 0.27 61486.8
0.0109197 0.00486175 0.27 61643
0.0113426 0.00505007 0.27 61804.8
0.0117768 0.00524333 0.27 61972.5
0.0122222 0.00544166 0.27 62146.5
0.0126792 0.00564515 0.27 62326.7
0.0131482 0.00585394 0.27 62513.8
0.0136292 0.00606812 0.27 62707.5
0.0141227 0.00628781 0.27 62908.8
0.0146288 0.00651313 0.27 63117.6
0.0151477 0.00674419 0.27 63334
0.0156799 0.00698113 0.27 63558.6
0.0162254 0.00722403 0.27 63791.4
0.0167847 0.00747303 0.27 64032.6
0.017358 0.00772826 0.27 64282.6
0.0179454 0.00798982 0.27 64541.5
0.0185474 0.00825783 0.27 64809.5
0.0191641 0.00853242 0.27 65086.9
0.0197959 0.00881371 0.27 65373.7
0.0204431 0.00910183 0.27 65670.3
0.0211057 0.00939688 0.27 65976.8
0.0217843 0.00969898 0.27 66293.3
0.0224789 0.0100083 0.27 66620.1
0.02319 0.0103248 0.27 66956.9
0.0239176 0.0106488 0.27 67304.3
0.0246623 0.0109804 0.27 67661.7
0.025424 0.0113195 0.27 68029.4
0.0262032 0.0116664 0.27 68407.5
0.0270001 0.0120212 0.27 68796.2
0.0278149 0.012384 0.27 69195.3
0.0286479 0.0127549 0.27 69605.2
0.0294992 0.0131339 0.27 70025.6
0.0303692 0.0135212 0.27 70456.9
0.0312581 0.013917 0.27 70898.7
0.0321659 0.0143213 0.27 71350.9
0.0330931 0.014734 0.27 71813.5
0.0340398 0.0151555 0.27 72286.4
0.0350062 0.0155858 0.27 72769.2
0.0359924 0.0160249 0.27 73261.5
0.0369987 0.0164729 0.27 73764.1
0.0380251 0.0169299 0.27 74275.9
0.0390719 0.0173959 0.27 74796.8
0.0401391 0.0178711 0.27 75326.6
0.041227 0.0183554 0.27 75864.1
0.0423356 0.018849 0.27 76410.5
0.043465 0.0193519 0.27 76965
0.0446154 0.0198641 0.27 77525.9
0.0457867 0.0203856 0.27 78093.3
0.046979 0.0209164 0.27 78665.2
0.0481924 0.0214567 0.27 79241
0.0494267 0.0220063 0.27 79818.6
0.0506823 0.0225652 0.27 80396.2
0.0519588 0.0231335 0.27 80971.6
0.0532563 0.0237113 0.27 81542.4
0.0545749 0.0242983 0.27 82107.4
0.0559142 0.0248946 0.27 82663.8
0.0572744 0.0255002 0.27 83210.7
0.0586552 0.0261149 0.27 83746.3
0.0600565 0.0267388 0.27 84270.5
0.0614781 0.0273718 0.27 84783.5
0.0629198 0.0280137 0.27 85284.8
0.0643815 0.0286645 0.27 85777.2
0.0658629 0.029324 0.27 86260.5
0.0673636 0.0299922 0.27 86737.6
0.0688836 0.030669 0.27 87209.1
0.0704223 0.0313541 0.27 87677
0.0719795 0.0320474 0.27 88143.8
0.0735549 0.0327488 0.27 88608.8
0.075148 0.0334581 0.27 89073.4
0.0767585 0.0341751 0.27 89538
0.0783859 0.0348996 0.27 90001
0.0800297 0.0356315 0.27 90462.7
0.0816895 0.0363706 0.27 90922.2
0.0833647 0.0371164 0.27 91372.1
0.085055 0.0378689 0.27 91812.1
0.0867595 0.0386278 0.27 92233.8
0.0884779 0.0393929 0.27 92634.1
0.0902095 0.0401639 0.27 93011.5
0.0919538 0.0409405 0.27 93364.7
0.09371 0.0417224 0.27 93693.4
0.0954776 0.0425094 0.27 94001.2
0.0972558 0.0433011 0.27 94293
0.0990439 0.0440972 0.27 94572.6
0.100841 0.0448975 0.27 94839.5
0.102647 0.0457015 0.27 95095.8
0.104461 0.046509 0.27 95360.1
0.106282 0.0473197 0.27 95617.8
0.108109 0.0481331 0.27 95889.7
0.109941 0.048949 0.27 96155.4
0.111779 0.0497671 0.27 96415.1
0.11362 0.0505868 0.27 96674.8
0.115464 0.051408 0.27 96956.9
0.117311 0.0522302 0.27 97216.2
0.11916 0.0530531 0.27 97449.8
0.121009 0.0538763 0.27 97711.7
0.122857 0.0546995 0.27 97936.1
0.124705 0.0555223 0.27 98124.5
0.126552 0.0563444 0.27 98297.7
0.128395 0.0571653 0.27 98452.3
0.130236 0.0579847 0.27 98587
0.132072 0.0588023 0.27 98705.3
0.133904 0.0596177 0.27 98808.8
0.13573 0.0604306 0.27 98887.5
0.137549 0.0612407 0.27 98939.1
0.139361 0.0620475 0.27 98985.6
0.141165 0.0628508 0.27 99016.1
0.14296 0.0636503 0.27 99110.4
0.144747 0.0644455 0.27 99205.5
0.146523 0.0652363 0.27 99308.9
0.148288 0.0660222 0.27 99431.7
0.150042 0.0668031 0.27 99565.8
0.151784 0.0675785 0.27 99748.8
0.153513 0.0683483 0.27 99908
0.155228 0.0691121 0.27 100095
0.15693 0.0698698 0.27 100315
0.158617 0.070621 0.27 100523
0.160289 0.0713654 0.27 100748
0.161946 0.072103 0.27 100955
0.163586 0.0728334 0.27 101143
0.165211 0.0735564 0.27 101338
0.166817 0.0742718 0.27 101511
0.168406 0.0749795 0.27 101677
0.169978 0.0756793 0.27 101831
0.171532 0.0763709 0.27 101945
0.173067 0.0770543 0.27 102045
0.174583 0.0777293 0.27 102113
0.17608 0.0783958 0.27 102198
0.177557 0.0790535 0.27 102284
0.179014 0.0797025 0.27 102290
0.180452 0.0803425 0.27 102281
0.18187 0.0809736 0.27 102317
0.183266 0.0815956 0.27 102349
0.184643 0.0822085 0.27 102419
0.185999 0.0828122 0.27 102451
0.187334 0.0834066 0.27 102475
0.188648 0.0839917 0.27 102534
0.189942 0.0845675 0.27 102566
0.191214 0.0851339 0.27 102652
0.192465 0.085691 0.27 102704
0.193695 0.0862387 0.27 102786
0.194904 0.086777 0.27 102885
0.196093 0.0873059 0.27 102983
0.197259 0.0878254 0.27 103075
0.198405 0.0883357 0.27 103181
0.19953 0.0888366 0.27 103318
0.200635 0.0893284 0.27 103487
0.201718 0.0898108 0.27 103631
0.202782 0.0902841 0.27 103775
0.203824 0.0907483 0.27 103937
0.204846 0.0912035 0.27 104057
0.205848 0.0916496 0.27 104211
0.206831 0.0920869 0.27 104386
0.207793 0.0925153 0.27 104546
0.208735 0.092935 0.27 104738
0.209658 0.093346 0.27 104611
