# p  FACE_DATA 398
# x  y  z  p
-0.7975 0 0.025 4472.93
-0.79239 0 0.025 3650.85
-0.787056 0 0.025 2980.23
-0.781492 0 0.025 2873.15
-0.775691 0 0.025 2796.58
-0.769649 0 0.025 2780.19
-0.763362 0 0.025 2785.99
-0.756822 0 0.025 2783.94
-0.750025 0 0.025 2793.87
-0.742968 0 0.025 2798.81
-0.735648 0 0.025 2799.31
-0.72806 0 0.025 2797.5
-0.720203 0 0.025 2798.45
-0.712076 0 0.025 2797.01
-0.703677 0 0.025 2795.14
-0.695006 0 0.025 2794.58
-0.686065 0 0.025 2793.91
-0.676855 0 0.025 2791.4
-0.667379 0 0.025 2789.05
-0.65764 0 0.025 2788.07
-0.647644 0 0.025 2787.58
-0.637397 0 0.025 2786.31
-0.626906 0 0.025 2784.56
-0.616179 0 0.025 2783.51
-0.605224 0 0.025 2782.82
-0.594054 0 0.025 2781.67
-0.582678 0 0.025 2779.63
-0.57111 0 0.025 2777.76
-0.559364 0 0.025 2776.14
-0.547454 0 0.025 2774.54
-0.535396 0 0.025 2772.78
-0.523205 0 0.025 2771.46
-0.510901 0 0.025 2769.78
-0.4985 0 0.025 2767.42
-0.486021 0 0.025 2764.42
-0.473483 0 0.025 2762.25
-0.460905 0 0.025 2761.2
-0.448308 0 0.025 2759.98
-0.435709 0 0.025 2757.18
-0.42313 0 0.025 2753.64
-0.41059 0 0.025 2750.83
-0.39811 0 0.025 2749.64
-0.385706 0 0.025 2749.12
-0.373398 0 0.025 2747.23
-0.361205 0 0.025 2743.89
-0.349141 0 0.025 2739.8
-0.337226 0 0.025 2736.57
-0.325475 0 0.025 2735.29
-0.313901 0 0.025 2736.69
-0.30252 0 0.025 2737.71
-0.291343 0 0.025 2738.14
-0.280382 0 0.025 2735.76
-0.269646 0 0.025 2731.2
-0.259148 0 0.025 2725.87
-0.248893 0 0.025 2720.88
-0.23889 0 0.025 2717
-0.229143 0 0.025 2715.39
-0.219659 0 0.025 2715.36
-0.210441 0 0.025 2718.37
-0.201491 0 0.025 2721.48
-0.192812 0 0.025 2724.25
-0.184405 0 0.025 2725.7
-0.176269 0 0.025 2726.12
-0.168404 0 0.025 2724.67
-0.160808 0 0.025 2722.12
-0.15348 0 0.025 2718.63
-0.146415 0 0.025 2714.52
-0.13961 0 0.025 2710.19
-0.133063 0 0.025 2706.15
-0.126767 0 0.025 2702.42
-0.120718 0 0.025 2699.37
-0.11491 0 0.025 2697.02
-0.109339 0 0.025 2695.47
-0.103997 0 0.025 2694.56
-0.0988805 0 0.025 2694.22
-0.0939808 0 0.025 2694.17
-0.0892928 0 0.025 2694.73
-0.0848096 0 0.025 2695.49
-0.0805248 0 0.025 2696.6
-0.0764316 0 0.025 2698
-0.0725237 0 0.025 2699.63
-0.0687943 0 0.025 2701.44
-0.065237 0 0.025 2703.31
-0.0618454 0 0.025 2705.01
-0.058613 0 0.025 2706.54
-0.0555337 0 0.025 2707.9
-0.0526013 0 0.025 2709.05
-0.0498099 0 0.025 2710.02
-0.0471536 0 0.025 2710.8
-0.0446266 0 0.025 2711.46
-0.0422235 0 0.025 2711.99
-0.039939 0 0.025 2712.42
-0.0377676 0 0.025 2712.75
-0.0357044 0 0.025 2712.98
-0.0337445 0 0.025 2713.21
-0.0318832 0 0.025 2719.14
-0.0301159 0 0.025 2991.02
-0.0284383 0 0.025 5296.35
-0.0268461 0 0.025 7175.15
-0.0253353 0 0.025 8301.1
-0.023902 0 0.025 8930.01
-0.0225426 0 0.025 9357.54
-0.0212532 0 0.025 9630.37
-0.0200306 0 0.025 9839.92
-0.0188715 0 0.025 10022
-0.0177728 0 0.025 10168.4
-0.0167313 0 0.025 10303.8
-0.0157444 0 0.025 10421
-0.0148092 0 0.025 10524.4
-0.0139232 0 0.025 10622.2
-0.0130838 0 0.025 10711.8
-0.0122887 0 0.025 10792.5
-0.0115356 0 0.025 10864.7
-0.0108223 0 0.025 10929.8
-0.0101469 0 0.025 10988.5
-0.00950727 0 0.025 11041.1
-0.00890168 0 0.025 11086.9
-0.00832835 0 0.025 11124.1
-0.00778557 0 0.025 11155
-0.00727176 0 0.025 11177.2
-0.0067854 0 0.025 11191.5
-0.00632507 0 0.025 11198.7
-0.00588937 0 0.025 11201.3
-0.00547703 0 0.025 11202.4
-0.0050868 0 0.025 11205.3
-0.00471753 0 0.025 11212
-0.0043681 0 0.025 11225.3
-0.00403746 0 0.025 11246.8
-0.00372461 0 0.025 11276.4
-0.0034286 0 0.025 11314.6
-0.00314855 0 0.025 11361.1
-0.0028836 0 0.025 11418.2
-0.00263294 0 0.025 11488.6
-0.00239581 0 0.025 11566.9
-0.0021715 0 0.025 11656.1
-0.00195929 0 0.025 11758.2
-0.00175856 0 0.025 11872.5
-0.00156869 0 0.025 11999
-0.00138908 0 0.025 12136.8
-0.0012192 0 0.025 12284.8
-0.00105853 0 0.025 12440.6
-0.000906546 0 0.025 12601.7
-0.000762803 0 0.025 12763.9
-0.000626848 0 0.025 12920
-0.000498265 0 0.025 13058.6
-0.000376656 0 0.025 13163.7
-0.000261642 0 0.025 13219.9
-0.00015287 0 0.025 13229.8
-5e-05 0 0.025 13330.1
4.14519e-05 2.79596e-05 0.025 12827.2
0.000125371 8.45641e-05 0.025 12910
0.000211347 0.000142556 0.025 12866.7
0.000299429 0.000201968 0.025 12774.2
0.000389669 0.000262835 0.025 12660.1
0.000482118 0.000325193 0.025 12538.4
0.000576831 0.000389077 0.025 12417.3
0.000673861 0.000454524 0.025 12303
0.000773265 0.000521574 0.025 12200.4
0.0008751 0.000590262 0.025 12111.9
0.000979426 0.000660632 0.025 12037.1
0.0010863 0.000732721 0.025 11974.7
0.00119579 0.000806572 0.025 11924.4
0.00130795 0.000882227 0.025 11887.5
0.00142285 0.00095973 0.025 11862.6
0.00154056 0.00103912 0.025 11853.6
0.00166115 0.00112046 0.025 11859.2
0.00178467 0.00120378 0.025 11876.6
0.00191121 0.00128913 0.025 11904.9
0.00204083 0.00137656 0.025 11944
0.00217362 0.00146612 0.025 11993.7
0.00230964 0.00155787 0.025 12053.1
0.00244897 0.00165185 0.025 12122.6
0.00259169 0.00174812 0.025 12202.5
0.00273789 0.00184673 0.025 12291.2
0.00288765 0.00194774 0.025 12388.9
0.00304105 0.00205122 0.025 12495.6
0.00319818 0.00215719 0.025 12611.5
0.00335912 0.00226575 0.025 12736.1
0.00352397 0.00237695 0.025 12870
0.00369283 0.00249085 0.025 13013
0.00386579 0.00260751 0.025 13165.6
0.00404294 0.00272699 0.025 13328.3
0.00422438 0.00284938 0.025 13501
0.00441022 0.00297474 0.025 13685.1
0.00460056 0.00310312 0.025 13881.9
0.00479552 0.00323462 0.025 14092.9
0.00499519 0.0033693 0.025 14318.8
0.00519968 0.00350723 0.025 14562.6
0.00540911 0.00364849 0.025 14825.9
0.00562361 0.00379318 0.025 15111.1
0.00584329 0.00394134 0.025 15420.2
0.00606826 0.00409309 0.025 15755.9
0.00629865 0.00424849 0.025 16120.6
0.0065346 0.00440764 0.025 16516.6
0.00677623 0.00457063 0.025 16946.1
0.00702368 0.00473753 0.025 17412.6
0.00727707 0.00490844 0.025 17918.6
0.00753655 0.00508347 0.025 18467.2
0.00780227 0.00526269 0.025 19062.1
0.00807436 0.00544622 0.025 19707.9
0.00835298 0.00563415 0.025 20409
0.00863826 0.00582659 0.025 21170.1
0.00893038 0.00602362 0.025 21996
0.00922949 0.00622537 0.025 22891.9
0.00953574 0.00643195 0.025 23862.6
0.00984929 0.00664345 0.025 24912.8
0.0101703 0.00686 0.025 26052.3
0.0104991 0.00708171 0.025 27285.2
0.0108356 0.00730871 0.025 28623.9
0.0111801 0.0075411 0.025 30079.5
0.0115329 0.00777902 0.025 31665.6
0.011894 0.00802259 0.025 33394.3
0.0122637 0.00827194 0.025 35273.1
0.0126421 0.00852719 0.025 37274.6
0.0130295 0.0087885 0.025 39606.5
0.013426 0.00905597 0.025 42074.6
0.013832 0.00932978 0.025 44916.6
0.0142475 0.00961003 0.025 47915.2
0.0146727 0.0098969 0.025 50877.9
0.0151081 0.0101905 0.025 54565.6
0.0155536 0.010491 0.025 58792.8
0.0160097 0.0107986 0.025 62579.2
0.0164764 0.0111134 0.025 67360.8
0.016954 0.0114356 0.025 73007.6
0.0174427 0.0117653 0.025 78948.7
0.0179429 0.0121026 0.025 85190.4
0.0184548 0.0124479 0.025 92221
0.0189786 0.0128013 0.025 100838
0.0195146 0.0131628 0.025 110068
0.020063 0.0135327 0.025 119951
0.0206242 0.0139112 0.025 131302
0.0211983 0.0142984 0.025 143212
0.0217857 0.0146947 0.025 155801
0.0223867 0.0151 0.025 168818
0.0230015 0.0155147 0.025 181536
0.0236304 0.0159389 0.025 192126
0.0242738 0.0163729 0.025 203144
0.0249318 0.0168167 0.025 200649
0.025605 0.0172708 0.025 194182
0.0262935 0.0177352 0.025 183263
0.0269977 0.0182102 0.025 171413
0.0277178 0.0186959 0.025 160608
0.0284544 0.0191927 0.025 151621
0.0292075 0.0197008 0.025 143920
0.0299777 0.0202203 0.025 137332
0.0307653 0.0207514 0.025 131760
0.0315704 0.0212945 0.025 127533
0.0323937 0.0218499 0.025 124993
0.0332354 0.0224176 0.025 123673
0.0340959 0.022998 0.025 123167
0.0349755 0.0235913 0.025 122513
0.0358747 0.0241978 0.025 121706
0.0367938 0.0248178 0.025 120669
0.0377331 0.0254513 0.025 120633
0.0386932 0.0260989 0.025 121598
0.0396743 0.0267606 0.025 122945
0.0406769 0.0274369 0.025 123602
0.0417013 0.0281279 0.025 123829
0.042748 0.0288339 0.025 124101
0.0438175 0.0295552 0.025 124762
0.04491 0.0302922 0.025 125226
0.0460262 0.031045 0.025 125363
0.0471662 0.031814 0.025 125151
0.0483306 0.0325995 0.025 124865
0.0495199 0.0334016 0.025 124782
0.0507344 0.0342208 0.025 125206
0.0519746 0.0350573 0.025 125392
0.0532409 0.0359114 0.025 125390
0.0545339 0.0367835 0.025 125241
0.0558538 0.0376739 0.025 125560
0.0572012 0.0385827 0.025 126132
0.0585766 0.0395104 0.025 126771
0.0599804 0.0404573 0.025 127181
0.061413 0.0414236 0.025 127344
0.0628748 0.0424096 0.025 127397
0.0643665 0.0434157 0.025 127482
0.0658883 0.0444422 0.025 127678
0.0674408 0.0454894 0.025 127846
0.0690245 0.0465576 0.025 128026
0.0706398 0.0476471 0.025 128092
0.0722871 0.0487582 0.025 128163
0.0739669 0.0498912 0.025 128306
0.0756797 0.0510466 0.025 128462
0.0774258 0.0522244 0.025 128567
0.0792059 0.053425 0.025 128544
0.0810203 0.0546489 0.025 128448
0.0828694 0.0558961 0.025 128157
0.0847537 0.0571671 0.025 127852
0.0866737 0.0584622 0.025 127425
0.0886298 0.0597816 0.025 127093
0.0906224 0.0611256 0.025 126916
0.0926518 0.0624944 0.025 126853
0.0947185 0.0638884 0.025 126742
0.096823 0.065308 0.025 126801
0.0989659 0.0667532 0.025 126960
0.101147 0.0682245 0.025 127277
0.103367 0.0697219 0.025 127955
0.105626 0.0712458 0.025 128584
0.107926 0.0727965 0.025 129067
0.110265 0.074374 0.025 129078
0.112644 0.0759789 0.025 128790
0.115063 0.0776111 0.025 128687
0.117524 0.0792709 0.025 128282
0.120026 0.0809585 0.025 127911
0.122569 0.0826741 0.025 127633
0.125155 0.0844179 0.025 127264
0.127782 0.0861901 0.025 127016
0.130451 0.0879908 0.025 126888
0.133163 0.08982 0.025 126859
0.135918 0.0916781 0.025 127811
0.138716 0.0935651 0.025 128692
0.141556 0.095481 0.025 129115
0.14444 0.097426 0.025 129328
0.147367 0.0994004 0.025 127911
0.150337 0.101404 0.025 127590
0.153351 0.103437 0.025 126500
0.156408 0.105498 0.025 125059
0.159508 0.107589 0.025 126290
0.162651 0.10971 0.025 126436
0.165838 0.111859 0.025 125450
0.169069 0.114039 0.025 126659
0.172343 0.116247 0.025 125676
0.175659 0.118483 0.025 124270
0.179018 0.120749 0.025 123624
0.182421 0.123045 0.025 122654
0.185866 0.125368 0.025 122185
0.189353 0.12772 0.025 121673
0.192882 0.1301 0.025 121404
0.196453 0.132509 0.025 121372
0.200065 0.134946 0.025 121405
0.203718 0.13741 0.025 122032
0.207412 0.139901 0.025 122270
0.211146 0.14242 0.025 122337
0.214919 0.144965 0.025 121824
0.218732 0.147537 0.025 121501
0.222583 0.150134 0.025 120090
0.226472 0.152757 0.025 120323
0.230399 0.155406 0.025 119880
0.234362 0.15808 0.025 119926
0.238362 0.160777 0.025 120448
0.242396 0.163498 0.025 120420
0.246466 0.166244 0.025 119892
0.250569 0.169012 0.025 121056
0.254706 0.171801 0.025 120659
0.258874 0.174613 0.025 120227
0.263074 0.177446 0.025 120150
0.267304 0.180299 0.025 120711
0.271564 0.183172 0.025 120698
0.275852 0.186064 0.025 120369
0.280168 0.188975 0.025 120638
0.28451 0.191904 0.025 120482
0.288876 0.19485 0.025 120265
0.293268 0.197812 0.025 120648
0.297683 0.20079 0.025 120389
0.302119 0.203782 0.025 119076
0.306577 0.206788 0.025 120121
0.311054 0.209808 0.025 119387
0.315549 0.212841 0.025 120096
0.320063 0.215885 0.025 119473
0.324591 0.218939 0.025 120621
0.329134 0.222003 0.025 121165
0.333691 0.225077 0.025 121181
0.33826 0.228159 0.025 121645
0.342839 0.231248 0.025 120629
0.347428 0.234343 0.025 121527
0.352025 0.237444 0.025 120692
0.356628 0.240548 0.025 120902
0.361237 0.243658 0.025 120803
0.36585 0.246769 0.025 120630
0.370465 0.249882 0.025 120948
0.375082 0.252996 0.025 120640
0.379698 0.25611 0.025 120501
0.384313 0.259223 0.025 120697
0.388926 0.262333 0.025 120432
0.393534 0.265442 0.025 120639
0.398136 0.268546 0.025 120509
0.40273 0.271645 0.025 119796
0.407317 0.274739 0.025 120393
0.411894 0.277826 0.025 120337
0.41646 0.280906 0.025 120506
0.421014 0.283977 0.025 120174
0.425554 0.28704 0.025 120394
0.430079 0.290092 0.025 120598
0.434588 0.293133 0.025 120727
0.439079 0.296162 0.025 120731
0.443551 0.299179 0.025 120671
0.448004 0.302183 0.025 120468
0.452437 0.305172 0.025 120847
0.456846 0.308146 0.025 121046
0.461232 0.311105 0.025 120472
0.465593 0.314047 0.025 120948
0.469929 0.316971 0.025 120610
0.474238 0.319878 0.025 121286
0.47852 0.322766 0.025 121017
0.482773 0.325635 0.025 120773
0.486996 0.328483 0.025 120370
0.491189 0.331311 0.025 120283
0.49535 0.334118 0.025 120774
