# wallHeatFlux  FACE_DATA 398
# x  y  z  wallHeatFlux
-0.7975 0 0.025 -653698
-0.79239 0 0.025 -120536
-0.787056 0 0.025 -68088.4
-0.781492 0 0.025 -66888.6
-0.775691 0 0.025 -71968.9
-0.769649 0 0.025 -76424.5
-0.763362 0 0.025 -79323.4
-0.756822 0 0.025 -80926.8
-0.750025 0 0.025 -81963.5
-0.742968 0 0.025 -82370.9
-0.735648 0 0.025 -82325.7
-0.72806 0 0.025 -82014.4
-0.720203 0 0.025 -81673.1
-0.712076 0 0.025 -81174
-0.703677 0 0.025 -80631.6
-0.695006 0 0.025 -80088.7
-0.686065 0 0.025 -79518.7
-0.676855 0 0.025 -78878.8
-0.667379 0 0.025 -78221.5
-0.65764 0 0.025 -77596.3
-0.647644 0 0.025 -76966.8
-0.637397 0 0.025 -76308.7
-0.626906 0 0.025 -75625.2
-0.616179 0 0.025 -74966.9
-0.605224 0 0.025 -74319.9
-0.594054 0 0.025 -73648.5
-0.582678 0 0.025 -72956
-0.57111 0 0.025 -72271.3
-0.559364 0 0.025 -71595.9
-0.547454 0 0.025 -70937.5
-0.535396 0 0.025 -70287.6
-0.523205 0 0.025 -69653.1
-0.510901 0 0.025 -69024.1
-0.4985 0 0.025 -68388.8
-0.486021 0 0.025 -67756.7
-0.473483 0 0.025 -67164.7
-0.460905 0 0.025 -66622.4
-0.448308 0 0.025 -66084.2
-0.435709 0 0.025 -65527.3
-0.42313 0 0.025 -64977.1
-0.41059 0 0.025 -64468.3
-0.39811 0 0.025 -64021.9
-0.385706 0 0.025 -63599.7
-0.373398 0 0.025 -63156.1
-0.361205 0 0.025 -62705.8
-0.349141 0 0.025 -62263.4
-0.337226 0 0.025 -61869.3
-0.325475 0 0.025 -61538.9
-0.313901 0 0.025 -61278.2
-0.30252 0 0.025 -61016.4
-0.291343 0 0.025 -60745.5
-0.280382 0 0.025 -60431.6
-0.269646 0 0.025 -60079.1
-0.259148 0 0.025 -59727.4
-0.248893 0 0.025 -59404.9
-0.23889 0 0.025 -59126
-0.229143 0 0.025 -58910.8
-0.219659 0 0.025 -58740.7
-0.210441 0 0.025 -58645.4
-0.201491 0 0.025 -58559.6
-0.192812 0 0.025 -58470.7
-0.184405 0 0.025 -58361.2
-0.176269 0 0.025 -58227.8
-0.168404 0 0.025 -58070.1
-0.160808 0 0.025 -57885.8
-0.15348 0 0.025 -57689.4
-0.146415 0 0.025 -57488.8
-0.13961 0 0.025 -57297.2
-0.133063 0 0.025 -57113.4
-0.126767 0 0.025 -56946.9
-0.120718 0 0.025 -56797.2
-0.11491 0 0.025 -56675
-0.109339 0 0.025 -56569.8
-0.103997 0 0.025 -56485
-0.0988805 0 0.025 -56416.2
-0.0939808 0 0.025 -56354.6
-0.0892928 0 0.025 -56316.3
-0.0848096 0 0.025 -56278.1
-0.0805248 0 0.025 -56251.2
-0.0764316 0 0.025 -56240.7
-0.0725237 0 0.025 -56230.3
-0.0687943 0 0.025 -56242.3
-0.065237 0 0.025 -56237.5
-0.0618454 0 0.025 -56233.9
-0.058613 0 0.025 -56229.4
-0.0555337 0 0.025 -56226.2
-0.0526013 0 0.025 -56216.8
-0.0498099 0 0.025 -56207.8
-0.0471536 0 0.025 -56198.8
-0.0446266 0 0.025 -56184.5
-0.0422235 0 0.025 -56170.2
-0.039939 0 0.025 -56155.9
-0.0377676 0 0.025 -56141.2
-0.0357044 0 0.025 -56122.4
-0.0337445 0 0.025 -56102.3
-0.0318832 0 0.025 -56104.1
-0.0301159 0 0.025 -58652.1
-0.0284383 0 0.025 -79311.8
-0.0268461 0 0.025 -82372.9
-0.0253353 0 0.025 -81889.9
-0.023902 0 0.025 -84866.3
-0.0225426 0 0.025 -88191.1
-0.0212532 0 0.025 -89224.1
-0.0200306 0 0.025 -88735.4
-0.0188715 0 0.025 -88231.9
-0.0177728 0 0.025 -87449.3
-0.0167313 0 0.025 -87123
-0.0157444 0 0.025 -86775.3
-0.0148092 0 0.025 -86469.3
-0.0139232 0 0.025 -86367
-0.0130838 0 0.025 -86274.5
-0.0122887 0 0.025 -86151.9
-0.0115356 0 0.025 -86067.3
-0.0108223 0 0.025 -86114.1
-0.0101469 0 0.025 -86349.6
-0.00950727 0 0.025 -86855.1
-0.00890168 0 0.025 -87662.6
-0.00832835 0 0.025 -88724.3
-0.00778557 0 0.025 -90072.8
-0.00727176 0 0.025 -91665.8
-0.0067854 0 0.025 -93448.8
-0.00632507 0 0.025 -95376
-0.00588937 0 0.025 -97418.9
-0.00547703 0 0.025 -99590.1
-0.0050868 0 0.025 -101917
-0.00471753 0 0.025 -104407
-0.0043681 0 0.025 -107070
-0.00403746 0 0.025 -109942
-0.00372461 0 0.025 -113004
-0.0034286 0 0.025 -116245
-0.00314855 0 0.025 -119659
-0.0028836 0 0.025 -123263
-0.00263294 0 0.025 -126977
-0.00239581 0 0.025 -130644
-0.0021715 0 0.025 -134432
-0.00195929 0 0.025 -138382
-0.00175856 0 0.025 -142438
-0.00156869 0 0.025 -146581
-0.00138908 0 0.025 -150807
-0.0012192 0 0.025 -155053
-0.00105853 0 0.025 -159306
-0.000906546 0 0.025 -163266
-0.000762803 0 0.025 -166737
-0.000626848 0 0.025 -169317
-0.000498265 0 0.025 -169630
-0.000376656 0 0.025 -165728
-0.000261642 0 0.025 -153835
-0.00015287 0 0.025 -128179
-5e-05 0 0.025 -76432.1
4.14519e-05 2.79596e-05 0.025 -50108.6
0.000125371 8.45641e-05 0.025 -57773
0.000211347 0.000142556 0.025 -70925.7
0.000299429 0.000201968 0.025 -80709.1
0.000389669 0.000262835 0.025 -89022.6
0.000482118 0.000325193 0.025 -97310.5
0.000576831 0.000389077 0.025 -105294
0.000673861 0.000454524 0.025 -112518
0.000773265 0.000521574 0.025 -118859
0.0008751 0.000590262 0.025 -124361
0.000979426 0.000660632 0.025 -129110
0.0010863 0.000732721 0.025 -133163
0.00119579 0.000806572 0.025 -136613
0.00130795 0.000882227 0.025 -139607
0.00142285 0.00095973 0.025 -142207
0.00154056 0.00103912 0.025 -144709
0.00166115 0.00112046 0.025 -147050
0.00178467 0.00120378 0.025 -149286
0.00191121 0.00128913 0.025 -151491
0.00204083 0.00137656 0.025 -153616
0.00217362 0.00146612 0.025 -155765
0.00230964 0.00155787 0.025 -157947
0.00244897 0.00165185 0.025 -160166
0.00259169 0.00174812 0.025 -162445
0.00273789 0.00184673 0.025 -164797
0.00288765 0.00194774 0.025 -167267
0.00304105 0.00205122 0.025 -169811
0.00319818 0.00215719 0.025 -172462
0.00335912 0.00226575 0.025 -175273
0.00352397 0.00237695 0.025 -178186
0.00369283 0.00249085 0.025 -181250
0.00386579 0.00260751 0.025 -184458
0.00404294 0.00272699 0.025 -187852
0.00422438 0.00284938 0.025 -191454
0.00441022 0.00297474 0.025 -195265
0.00460056 0.00310312 0.025 -199318
0.00479552 0.00323462 0.025 -203628
0.00499519 0.0033693 0.025 -208319
0.00519968 0.00350723 0.025 -213287
0.00540911 0.00364849 0.025 -218702
0.00562361 0.00379318 0.025 -224548
0.00584329 0.00394134 0.025 -230817
0.00606826 0.00409309 0.025 -237671
0.00629865 0.00424849 0.025 -245000
0.0065346 0.00440764 0.025 -253006
0.00677623 0.00457063 0.025 -261650
0.00702368 0.00473753 0.025 -270873
0.00727707 0.00490844 0.025 -281010
0.00753655 0.00508347 0.025 -291923
0.00780227 0.00526269 0.025 -303733
0.00807436 0.00544622 0.025 -316496
0.00835298 0.00563415 0.025 -330362
0.00863826 0.00582659 0.025 -345457
0.00893038 0.00602362 0.025 -361778
0.00922949 0.00622537 0.025 -379560
0.00953574 0.00643195 0.025 -398712
0.00984929 0.00664345 0.025 -419830
0.0101703 0.00686 0.025 -442165
0.0104991 0.00708171 0.025 -467032
0.0108356 0.00730871 0.025 -494510
0.0111801 0.0075411 0.025 -523822
0.0115329 0.00777902 0.025 -556049
0.011894 0.00802259 0.025 -593634
0.0122637 0.00827194 0.025 -643456
0.0126421 0.00852719 0.025 -768598
0.0130295 0.0087885 0.025 -720663
0.013426 0.00905597 0.025 -787595
0.013832 0.00932978 0.025 -968536
0.0142475 0.00961003 0.025 -1.04881e+06
0.0146727 0.0098969 0.025 -1.11113e+06
0.0151081 0.0101905 0.025 -1.20063e+06
0.0155536 0.010491 0.025 -1.27864e+06
0.0160097 0.0107986 0.025 -1.34002e+06
0.0164764 0.0111134 0.025 -1.40883e+06
0.016954 0.0114356 0.025 -1.51613e+06
0.0174427 0.0117653 0.025 -1.56765e+06
0.0179429 0.0121026 0.025 -1.61516e+06
0.0184548 0.0124479 0.025 -1.68327e+06
0.0189786 0.0128013 0.025 -1.74961e+06
0.0195146 0.0131628 0.025 -1.79066e+06
0.020063 0.0135327 0.025 -1.83471e+06
0.0206242 0.0139112 0.025 -1.87865e+06
0.0211983 0.0142984 0.025 -1.88298e+06
0.0217857 0.0146947 0.025 -1.8907e+06
0.0223867 0.0151 0.025 -1.88704e+06
0.0230015 0.0155147 0.025 -1.87425e+06
0.0236304 0.0159389 0.025 -1.8557e+06
0.0242738 0.0163729 0.025 -1.81773e+06
0.0249318 0.0168167 0.025 -1.82414e+06
0.025605 0.0172708 0.025 -1.85358e+06
0.0262935 0.0177352 0.025 -1.83232e+06
0.0269977 0.0182102 0.025 -1.79871e+06
0.0277178 0.0186959 0.025 -1.7514e+06
0.0284544 0.0191927 0.025 -1.7418e+06
0.0292075 0.0197008 0.025 -1.69322e+06
0.0299777 0.0202203 0.025 -1.63881e+06
0.0307653 0.0207514 0.025 -1.59545e+06
0.0315704 0.0212945 0.025 -1.55839e+06
0.0323937 0.0218499 0.025 -1.5328e+06
0.0332354 0.0224176 0.025 -1.51377e+06
0.0340959 0.022998 0.025 -1.49284e+06
0.0349755 0.0235913 0.025 -1.46284e+06
0.0358747 0.0241978 0.025 -1.45191e+06
0.0367938 0.0248178 0.025 -1.41882e+06
0.0377331 0.0254513 0.025 -1.40127e+06
0.0386932 0.0260989 0.025 -1.39615e+06
0.0396743 0.0267606 0.025 -1.40864e+06
0.0406769 0.0274369 0.025 -1.39634e+06
0.0417013 0.0281279 0.025 -1.38971e+06
0.042748 0.0288339 0.025 -1.3941e+06
0.0438175 0.0295552 0.025 -1.38929e+06
0.04491 0.0302922 0.025 -1.37939e+06
0.0460262 0.031045 0.025 -1.37896e+06
0.0471662 0.031814 0.025 -1.37818e+06
0.0483306 0.0325995 0.025 -1.35432e+06
0.0495199 0.0334016 0.025 -1.37024e+06
0.0507344 0.0342208 0.025 -1.35587e+06
0.0519746 0.0350573 0.025 -1.33093e+06
0.0532409 0.0359114 0.025 -1.33045e+06
0.0545339 0.0367835 0.025 -1.31437e+06
0.0558538 0.0376739 0.025 -1.29803e+06
0.0572012 0.0385827 0.025 -1.29836e+06
0.0585766 0.0395104 0.025 -1.29547e+06
0.0599804 0.0404573 0.025 -1.29742e+06
0.061413 0.0414236 0.025 -1.27755e+06
0.0628748 0.0424096 0.025 -1.28341e+06
0.0643665 0.0434157 0.025 -1.26955e+06
0.0658883 0.0444422 0.025 -1.25296e+06
0.0674408 0.0454894 0.025 -1.24006e+06
0.0690245 0.0465576 0.025 -1.23227e+06
0.0706398 0.0476471 0.025 -1.21755e+06
0.0722871 0.0487582 0.025 -1.20365e+06
0.0739669 0.0498912 0.025 -1.19803e+06
0.0756797 0.0510466 0.025 -1.19951e+06
0.0774258 0.0522244 0.025 -1.19925e+06
0.0792059 0.053425 0.025 -1.18345e+06
0.0810203 0.0546489 0.025 -1.19018e+06
0.0828694 0.0558961 0.025 -1.16522e+06
0.0847537 0.0571671 0.025 -1.17313e+06
0.0866737 0.0584622 0.025 -1.14603e+06
0.0886298 0.0597816 0.025 -1.13561e+06
0.0906224 0.0611256 0.025 -1.13791e+06
0.0926518 0.0624944 0.025 -1.11169e+06
0.0947185 0.0638884 0.025 -1.14097e+06
0.096823 0.065308 0.025 -1.12808e+06
0.0989659 0.0667532 0.025 -1.19201e+06
0.101147 0.0682245 0.025 -1.41299e+06
0.103367 0.0697219 0.025 -1.38097e+06
0.105626 0.0712458 0.025 -1.11922e+06
0.107926 0.0727965 0.025 -1.13544e+06
0.110265 0.074374 0.025 -1.1233e+06
0.112644 0.0759789 0.025 -1.58422e+06
0.115063 0.0776111 0.025 -1.14624e+06
0.117524 0.0792709 0.025 -1.27677e+06
0.120026 0.0809585 0.025 -1.34211e+06
0.122569 0.0826741 0.025 -1.23922e+06
0.125155 0.0844179 0.025 -1.16946e+06
0.127782 0.0861901 0.025 -1.09289e+06
0.130451 0.0879908 0.025 -1.14068e+06
0.133163 0.08982 0.025 -1.13591e+06
0.135918 0.0916781 0.025 -1.13219e+06
0.138716 0.0935651 0.025 -1.13798e+06
0.141556 0.095481 0.025 -1.14902e+06
0.14444 0.097426 0.025 -1.31142e+06
0.147367 0.0994004 0.025 -1.9967e+06
0.150337 0.101404 0.025 -1.29063e+06
0.153351 0.103437 0.025 -1.21866e+06
0.156408 0.105498 0.025 -1.96471e+06
0.159508 0.107589 0.025 -957569
0.162651 0.10971 0.025 -1.28539e+06
0.165838 0.111859 0.025 -2.51414e+06
0.169069 0.114039 0.025 -1.38291e+06
0.172343 0.116247 0.025 -1.58144e+06
0.175659 0.118483 0.025 -1.78425e+06
0.179018 0.120749 0.025 -1.28014e+06
0.182421 0.123045 0.025 -1.26371e+06
0.185866 0.125368 0.025 -1.20087e+06
0.189353 0.12772 0.025 -1.24459e+06
0.192882 0.1301 0.025 -1.21705e+06
0.196453 0.132509 0.025 -1.17318e+06
0.200065 0.134946 0.025 -1.27021e+06
0.203718 0.13741 0.025 -1.224e+06
0.207412 0.139901 0.025 -893397
0.211146 0.14242 0.025 -994182
0.214919 0.144965 0.025 -1.2391e+06
0.218732 0.147537 0.025 -930484
0.222583 0.150134 0.025 -1.75267e+06
0.226472 0.152757 0.025 -920787
0.230399 0.155406 0.025 -1.3843e+06
0.234362 0.15808 0.025 -1.60407e+06
0.238362 0.160777 0.025 -1.3075e+06
0.242396 0.163498 0.025 -1.58146e+06
0.246466 0.166244 0.025 -2.00897e+06
0.250569 0.169012 0.025 -912824
0.254706 0.171801 0.025 -1.38617e+06
0.258874 0.174613 0.025 -1.55983e+06
0.263074 0.177446 0.025 -1.39545e+06
0.267304 0.180299 0.025 -1.17762e+06
0.271564 0.183172 0.025 -984183
0.275852 0.186064 0.025 -1.38276e+06
0.280168 0.188975 0.025 -949668
0.28451 0.191904 0.025 -1.3621e+06
0.288876 0.19485 0.025 -1.64572e+06
0.293268 0.197812 0.025 -1.20278e+06
0.297683 0.20079 0.025 -1.0241e+06
0.302119 0.203782 0.025 -2.28673e+06
0.306577 0.206788 0.025 -1.04795e+06
0.311054 0.209808 0.025 -1.62936e+06
0.315549 0.212841 0.025 -1.093e+06
0.320063 0.215885 0.025 -1.93803e+06
0.324591 0.218939 0.025 -1.28079e+06
0.329134 0.222003 0.025 -1.12889e+06
0.333691 0.225077 0.025 -1.23489e+06
0.33826 0.228159 0.025 -1.11515e+06
0.342839 0.231248 0.025 -1.99616e+06
0.347428 0.234343 0.025 -899200
0.352025 0.237444 0.025 -1.43136e+06
0.356628 0.240548 0.025 -1.15386e+06
0.361237 0.243658 0.025 -1.10577e+06
0.36585 0.246769 0.025 -1.25763e+06
0.370465 0.249882 0.025 -1.11653e+06
0.375082 0.252996 0.025 -1.17819e+06
0.379698 0.25611 0.025 -1.35191e+06
0.384313 0.259223 0.025 -1.20611e+06
0.388926 0.262333 0.025 -1.18193e+06
0.393534 0.265442 0.025 -1.11174e+06
0.398136 0.268546 0.025 -995580
0.40273 0.271645 0.025 -1.78026e+06
0.407317 0.274739 0.025 -1.27447e+06
0.411894 0.277826 0.025 -1.35529e+06
0.41646 0.280906 0.025 -968757
0.421014 0.283977 0.025 -1.40427e+06
0.425554 0.28704 0.025 -1.24322e+06
0.430079 0.290092 0.025 -1.1612e+06
0.434588 0.293133 0.025 -1.2674e+06
0.439079 0.296162 0.025 -1.17216e+06
0.443551 0.299179 0.025 -1.32647e+06
0.448004 0.302183 0.025 -1.44906e+06
0.452437 0.305172 0.025 -1.33356e+06
0.456846 0.308146 0.025 -1.27582e+06
0.461232 0.311105 0.025 -1.76635e+06
0.465593 0.314047 0.025 -1.32293e+06
0.469929 0.316971 0.025 -1.7276e+06
0.474238 0.319878 0.025 -1.09598e+06
0.47852 0.322766 0.025 -1.14733e+06
0.482773 0.325635 0.025 -1.05818e+06
0.486996 0.328483 0.025 -1.56827e+06
0.491189 0.331311 0.025 -1.34836e+06
0.49535 0.334118 0.025 -1.0996e+06
