# Wall heat-flux
# Time        	patch         	min           	max           	integral      
8100          	base	-2.511772e+05	-5.882114e+03	-5.759571e+02
