# p  FACE_DATA 398
# x  y  z  p
-0.7975 0 0.025 4472.61
-0.79239 0 0.025 3681.24
-0.787056 0 0.025 2934.92
-0.781492 0 0.025 2837.41
-0.775691 0 0.025 2788.98
-0.769649 0 0.025 2787.78
-0.763362 0 0.025 2815.36
-0.756822 0 0.025 2839.15
-0.750025 0 0.025 2854.01
-0.742968 0 0.025 2861.44
-0.735648 0 0.025 2866.19
-0.72806 0 0.025 2867.22
-0.720203 0 0.025 2866.92
-0.712076 0 0.025 2866
-0.703677 0 0.025 2865.61
-0.695006 0 0.025 2864.42
-0.686065 0 0.025 2863.12
-0.676855 0 0.025 2862.46
-0.667379 0 0.025 2859.75
-0.65764 0 0.025 2855.33
-0.647644 0 0.025 2853.66
-0.637397 0 0.025 2853.8
-0.626906 0 0.025 2849.22
-0.616179 0 0.025 2847.81
-0.605224 0 0.025 2845.57
-0.594054 0 0.025 2843.72
-0.582678 0 0.025 2841.02
-0.57111 0 0.025 2839.3
-0.559364 0 0.025 2836.95
-0.547454 0 0.025 2835.75
-0.535396 0 0.025 2833.23
-0.523205 0 0.025 2832.37
-0.510901 0 0.025 2830.27
-0.4985 0 0.025 2827.49
-0.486021 0 0.025 2825.92
-0.473483 0 0.025 2824.52
-0.460905 0 0.025 2823.54
-0.448308 0 0.025 2822.63
-0.435709 0 0.025 2820.32
-0.42313 0 0.025 2817.4
-0.41059 0 0.025 2816.12
-0.39811 0 0.025 2815.95
-0.385706 0 0.025 2815.14
-0.373398 0 0.025 2813.59
-0.361205 0 0.025 2813.03
-0.349141 0 0.025 2812.22
-0.337226 0 0.025 2810.23
-0.325475 0 0.025 2807.86
-0.313901 0 0.025 2806.17
-0.30252 0 0.025 2805.34
-0.291343 0 0.025 2805.17
-0.280382 0 0.025 2804.82
-0.269646 0 0.025 2804.73
-0.259148 0 0.025 2804.68
-0.248893 0 0.025 2804.99
-0.23889 0 0.025 2804.32
-0.229143 0 0.025 2803.17
-0.219659 0 0.025 2801.34
-0.210441 0 0.025 2799.34
-0.201491 0 0.025 2796.94
-0.192812 0 0.025 2794.64
-0.184405 0 0.025 2792.59
-0.176269 0 0.025 2791.66
-0.168404 0 0.025 2791.31
-0.160808 0 0.025 2791.83
-0.15348 0 0.025 2792.78
-0.146415 0 0.025 2794.09
-0.13961 0 0.025 2795.36
-0.133063 0 0.025 2796.65
-0.126767 0 0.025 2797.59
-0.120718 0 0.025 2798.29
-0.11491 0 0.025 2798.45
-0.109339 0 0.025 2798.06
-0.103997 0 0.025 2797.21
-0.0988805 0 0.025 2796.08
-0.0939808 0 0.025 2794.73
-0.0892928 0 0.025 2793.35
-0.0848096 0 0.025 2791.99
-0.0805248 0 0.025 2790.69
-0.0764316 0 0.025 2789.48
-0.0725237 0 0.025 2788.38
-0.0687943 0 0.025 2787.35
-0.065237 0 0.025 2786.46
-0.0618454 0 0.025 2785.69
-0.058613 0 0.025 2785.01
-0.0555337 0 0.025 2784.42
-0.0526013 0 0.025 2783.89
-0.0498099 0 0.025 2783.44
-0.0471536 0 0.025 2783.06
-0.0446266 0 0.025 2782.78
-0.0422235 0 0.025 2782.58
-0.039939 0 0.025 2782.46
-0.0377676 0 0.025 2782.42
-0.0357044 0 0.025 2782.43
-0.0337445 0 0.025 2782.56
-0.0318832 0 0.025 2782.27
-0.0301159 0 0.025 2786.67
-0.0284383 0 0.025 2905.33
-0.0268461 0 0.025 3775.96
-0.0253353 0 0.025 5267.4
-0.023902 0 0.025 6394.86
-0.0225426 0 0.025 7228.92
-0.0212532 0 0.025 7817.72
-0.0200306 0 0.025 8292.74
-0.0188715 0 0.025 8707.25
-0.0177728 0 0.025 9059.07
-0.0167313 0 0.025 9365.84
-0.0157444 0 0.025 9639
-0.0148092 0 0.025 9880.52
-0.0139232 0 0.025 10099.4
-0.0130838 0 0.025 10301
-0.0122887 0 0.025 10488.2
-0.0115356 0 0.025 10662
-0.0108223 0 0.025 10823.2
-0.0101469 0 0.025 10972.7
-0.00950727 0 0.025 11111.2
-0.00890168 0 0.025 11238.6
-0.00832835 0 0.025 11354.8
-0.00778557 0 0.025 11459.8
-0.00727176 0 0.025 11554.4
-0.0067854 0 0.025 11639.1
-0.00632507 0 0.025 11715.2
-0.00588937 0 0.025 11784.1
-0.00547703 0 0.025 11847.5
-0.0050868 0 0.025 11907.1
-0.00471753 0 0.025 11964.9
-0.0043681 0 0.025 12022.2
-0.00403746 0 0.025 12080.7
-0.00372461 0 0.025 12142.5
-0.0034286 0 0.025 12207.9
-0.00314855 0 0.025 12277.8
-0.0028836 0 0.025 12353.4
-0.00263294 0 0.025 12438.6
-0.00239581 0 0.025 12527.7
-0.0021715 0 0.025 12620.4
-0.00195929 0 0.025 12718.8
-0.00175856 0 0.025 12822.1
-0.00156869 0 0.025 12929
-0.00138908 0 0.025 13039.1
-0.0012192 0 0.025 13151
-0.00105853 0 0.025 13263.7
-0.000906546 0 0.025 13375.3
-0.000762803 0 0.025 13483.1
-0.000626848 0 0.025 13583
-0.000498265 0 0.025 13668.8
-0.000376656 0 0.025 13731.9
-0.000261642 0 0.025 13765.6
-0.00015287 0 0.025 13773
-5e-05 0 0.025 13865.4
4.14519e-05 2.79596e-05 0.025 13439.6
0.000125371 8.45641e-05 0.025 13541.4
0.000211347 0.000142556 0.025 13507.5
0.000299429 0.000201968 0.025 13440.3
0.000389669 0.000262835 0.025 13361.7
0.000482118 0.000325193 0.025 13282.1
0.000576831 0.000389077 0.025 13207.4
0.000673861 0.000454524 0.025 13141.3
0.000773265 0.000521574 0.025 13086.6
0.0008751 0.000590262 0.025 13044.4
0.000979426 0.000660632 0.025 13016.7
0.0010863 0.000732721 0.025 12998.7
0.00119579 0.000806572 0.025 12996.2
0.00130795 0.000882227 0.025 13006.8
0.00142285 0.00095973 0.025 13028.8
0.00154056 0.00103912 0.025 13062.3
0.00166115 0.00112046 0.025 13106.9
0.00178467 0.00120378 0.025 13162.3
0.00191121 0.00128913 0.025 13227.3
0.00204083 0.00137656 0.025 13302.5
0.00217362 0.00146612 0.025 13386.7
0.00230964 0.00155787 0.025 13480.4
0.00244897 0.00165185 0.025 13582.1
0.00259169 0.00174812 0.025 13693.1
0.00273789 0.00184673 0.025 13812.4
0.00288765 0.00194774 0.025 13940.5
0.00304105 0.00205122 0.025 14077.2
0.00319818 0.00215719 0.025 14222.9
0.00335912 0.00226575 0.025 14377.2
0.00352397 0.00237695 0.025 14540.8
0.00369283 0.00249085 0.025 14713.7
0.00386579 0.00260751 0.025 14896.5
0.00404294 0.00272699 0.025 15089.4
0.00422438 0.00284938 0.025 15293
0.00441022 0.00297474 0.025 15508
0.00460056 0.00310312 0.025 15734.9
0.00479552 0.00323462 0.025 15974.7
0.00499519 0.0033693 0.025 16227.7
0.00519968 0.00350723 0.025 16495.6
0.00540911 0.00364849 0.025 16778.7
0.00562361 0.00379318 0.025 17078.7
0.00584329 0.00394134 0.025 17396.4
0.00606826 0.00409309 0.025 17733.2
0.00629865 0.00424849 0.025 18090.6
0.0065346 0.00440764 0.025 18470.4
0.00677623 0.00457063 0.025 18873.8
0.00702368 0.00473753 0.025 19303.4
0.00727707 0.00490844 0.025 19760.5
0.00753655 0.00508347 0.025 20247.8
0.00780227 0.00526269 0.025 20767.8
0.00807436 0.00544622 0.025 21322.8
0.00835298 0.00563415 0.025 21915.8
0.00863826 0.00582659 0.025 22549.6
0.00893038 0.00602362 0.025 23228.4
0.00922949 0.00622537 0.025 23953.9
0.00953574 0.00643195 0.025 24731.5
0.00984929 0.00664345 0.025 25562.7
0.0101703 0.00686 0.025 26454.9
0.0104991 0.00708171 0.025 27408.7
0.0108356 0.00730871 0.025 28430.5
0.0111801 0.0075411 0.025 29527.2
0.0115329 0.00777902 0.025 30704
0.011894 0.00802259 0.025 31967.2
0.0122637 0.00827194 0.025 33330.1
0.0126421 0.00852719 0.025 34796.4
0.0130295 0.0087885 0.025 36376.9
0.013426 0.00905597 0.025 38083.8
0.013832 0.00932978 0.025 39925.1
0.0142475 0.00961003 0.025 41913.3
0.0146727 0.0098969 0.025 44056.4
0.0151081 0.0101905 0.025 46369
0.0155536 0.010491 0.025 48868.7
0.0160097 0.0107986 0.025 51577.2
0.0164764 0.0111134 0.025 54503.3
0.016954 0.0114356 0.025 57673.8
0.0174427 0.0117653 0.025 61100.2
0.0179429 0.0121026 0.025 64812.4
0.0184548 0.0124479 0.025 68821
0.0189786 0.0128013 0.025 73148.3
0.0195146 0.0131628 0.025 77839.7
0.020063 0.0135327 0.025 82922.5
0.0206242 0.0139112 0.025 88446.3
0.0211983 0.0142984 0.025 94505.1
0.0217857 0.0146947 0.025 101190
0.0223867 0.0151 0.025 108529
0.0230015 0.0155147 0.025 116447
0.0236304 0.0159389 0.025 124976
0.0242738 0.0163729 0.025 134005
0.0249318 0.0168167 0.025 143262
0.025605 0.0172708 0.025 152059
0.0262935 0.0177352 0.025 159190
0.0269977 0.0182102 0.025 163798
0.0277178 0.0186959 0.025 165454
0.0284544 0.0191927 0.025 165422
0.0292075 0.0197008 0.025 163506
0.0299777 0.0202203 0.025 162235
0.0307653 0.0207514 0.025 159681
0.0315704 0.0212945 0.025 157139
0.0323937 0.0218499 0.025 154381
0.0332354 0.0224176 0.025 151240
0.0340959 0.022998 0.025 147813
0.0349755 0.0235913 0.025 144288
0.0358747 0.0241978 0.025 140995
0.0367938 0.0248178 0.025 137972
0.0377331 0.0254513 0.025 135394
0.0386932 0.0260989 0.025 133290
0.0396743 0.0267606 0.025 131613
0.0406769 0.0274369 0.025 130230
0.0417013 0.0281279 0.025 129029
0.042748 0.0288339 0.025 128175
0.0438175 0.0295552 0.025 127579
0.04491 0.0302922 0.025 127103
0.0460262 0.031045 0.025 126704
0.0471662 0.031814 0.025 126484
0.0483306 0.0325995 0.025 126808
0.0495199 0.0334016 0.025 127214
0.0507344 0.0342208 0.025 127287
0.0519746 0.0350573 0.025 126965
0.0532409 0.0359114 0.025 126645
0.0545339 0.0367835 0.025 126642
0.0558538 0.0376739 0.025 126990
0.0572012 0.0385827 0.025 127082
0.0585766 0.0395104 0.025 126810
0.0599804 0.0404573 0.025 126374
0.061413 0.0414236 0.025 126743
0.0628748 0.0424096 0.025 127732
0.0643665 0.0434157 0.025 128547
0.0658883 0.0444422 0.025 128607
0.0674408 0.0454894 0.025 128207
0.0690245 0.0465576 0.025 127841
0.0706398 0.0476471 0.025 127761
0.0722871 0.0487582 0.025 128332
0.0739669 0.0498912 0.025 128724
0.0756797 0.0510466 0.025 128743
0.0774258 0.0522244 0.025 128520
0.0792059 0.053425 0.025 128318
0.0810203 0.0546489 0.025 128621
0.0828694 0.0558961 0.025 129144
0.0847537 0.0571671 0.025 129751
0.0866737 0.0584622 0.025 129955
0.0886298 0.0597816 0.025 130018
0.0906224 0.0611256 0.025 130033
0.0926518 0.0624944 0.025 130156
0.0947185 0.0638884 0.025 130336
0.096823 0.065308 0.025 130400
0.0989659 0.0667532 0.025 130407
0.101147 0.0682245 0.025 129800
0.103367 0.0697219 0.025 129296
0.105626 0.0712458 0.025 129027
0.107926 0.0727965 0.025 128542
0.110265 0.074374 0.025 128130
0.112644 0.0759789 0.025 127386
0.115063 0.0776111 0.025 127655
0.117524 0.0792709 0.025 127819
0.120026 0.0809585 0.025 128500
0.122569 0.0826741 0.025 129572
0.125155 0.0844179 0.025 130294
0.127782 0.0861901 0.025 130319
0.130451 0.0879908 0.025 129709
0.133163 0.08982 0.025 129334
0.135918 0.0916781 0.025 128919
0.138716 0.0935651 0.025 129133
0.141556 0.095481 0.025 129561
0.14444 0.097426 0.025 129837
0.147367 0.0994004 0.025 129226
0.150337 0.101404 0.025 129594
0.153351 0.103437 0.025 128688
0.156408 0.105498 0.025 127104
0.159508 0.107589 0.025 127659
0.162651 0.10971 0.025 126627
0.165838 0.111859 0.025 124313
0.169069 0.114039 0.025 127466
0.172343 0.116247 0.025 125424
0.175659 0.118483 0.025 124931
0.179018 0.120749 0.025 124124
0.182421 0.123045 0.025 123055
0.185866 0.125368 0.025 122597
0.189353 0.12772 0.025 122183
0.192882 0.1301 0.025 122114
0.196453 0.132509 0.025 122358
0.200065 0.134946 0.025 121714
0.203718 0.13741 0.025 121745
0.207412 0.139901 0.025 122005
0.211146 0.14242 0.025 121222
0.214919 0.144965 0.025 120468
0.218732 0.147537 0.025 121289
0.222583 0.150134 0.025 121105
0.226472 0.152757 0.025 122584
0.230399 0.155406 0.025 122263
0.234362 0.15808 0.025 122335
0.238362 0.160777 0.025 121139
0.242396 0.163498 0.025 121133
0.246466 0.166244 0.025 120340
0.250569 0.169012 0.025 121252
0.254706 0.171801 0.025 120376
0.258874 0.174613 0.025 120356
0.263074 0.177446 0.025 119895
0.267304 0.180299 0.025 120640
0.271564 0.183172 0.025 121255
0.275852 0.186064 0.025 120812
0.280168 0.188975 0.025 121432
0.28451 0.191904 0.025 121037
0.288876 0.19485 0.025 120342
0.293268 0.197812 0.025 121002
0.297683 0.20079 0.025 119813
0.302119 0.203782 0.025 119261
0.306577 0.206788 0.025 120273
0.311054 0.209808 0.025 119298
0.315549 0.212841 0.025 120031
0.320063 0.215885 0.025 119411
0.324591 0.218939 0.025 120975
0.329134 0.222003 0.025 121537
0.333691 0.225077 0.025 121019
0.33826 0.228159 0.025 121951
0.342839 0.231248 0.025 121551
0.347428 0.234343 0.025 122485
0.352025 0.237444 0.025 121024
0.356628 0.240548 0.025 121286
0.361237 0.243658 0.025 121276
0.36585 0.246769 0.025 119656
0.370465 0.249882 0.025 122051
0.375082 0.252996 0.025 120897
0.379698 0.25611 0.025 120020
0.384313 0.259223 0.025 121461
0.388926 0.262333 0.025 120598
0.393534 0.265442 0.025 121001
0.398136 0.268546 0.025 121303
0.40273 0.271645 0.025 120552
0.407317 0.274739 0.025 120410
0.411894 0.277826 0.025 119838
0.41646 0.280906 0.025 121450
0.421014 0.283977 0.025 120599
0.425554 0.28704 0.025 120380
0.430079 0.290092 0.025 120909
0.434588 0.293133 0.025 120658
0.439079 0.296162 0.025 121438
0.443551 0.299179 0.025 121065
0.448004 0.302183 0.025 120975
0.452437 0.305172 0.025 121099
0.456846 0.308146 0.025 121417
0.461232 0.311105 0.025 121293
0.465593 0.314047 0.025 121457
0.469929 0.316971 0.025 121033
0.474238 0.319878 0.025 122191
0.47852 0.322766 0.025 121848
0.482773 0.325635 0.025 121945
0.486996 0.328483 0.025 121509
0.491189 0.331311 0.025 120756
0.49535 0.334118 0.025 122070
