# wallHeatFlux  FACE_DATA 398
# x  y  z  wallHeatFlux
-0.7975 0 0.025 -653671
-0.79239 0 0.025 -120055
-0.787056 0 0.025 -71302.7
-0.781492 0 0.025 -64206.2
-0.775691 0 0.025 -65634.7
-0.769649 0 0.025 -66451.5
-0.763362 0 0.025 -67063
-0.756822 0 0.025 -66988.4
-0.750025 0 0.025 -66488.1
-0.742968 0 0.025 -65738.3
-0.735648 0 0.025 -64843.4
-0.72806 0 0.025 -63878.3
-0.720203 0 0.025 -62892.7
-0.712076 0 0.025 -62019.7
-0.703677 0 0.025 -61220.3
-0.695006 0 0.025 -60441.4
-0.686065 0 0.025 -59709.8
-0.676855 0 0.025 -59030.9
-0.667379 0 0.025 -58324
-0.65764 0 0.025 -57643.6
-0.647644 0 0.025 -57056
-0.637397 0 0.025 -56525.9
-0.626906 0 0.025 -55905.8
-0.616179 0 0.025 -55382.1
-0.605224 0 0.025 -54880.4
-0.594054 0 0.025 -54397.8
-0.582678 0 0.025 -53890.1
-0.57111 0 0.025 -53434
-0.559364 0 0.025 -52993
-0.547454 0 0.025 -52602.4
-0.535396 0 0.025 -52178
-0.523205 0 0.025 -51797.5
-0.510901 0 0.025 -51417.1
-0.4985 0 0.025 -51037.4
-0.486021 0 0.025 -50704.6
-0.473483 0 0.025 -50396.4
-0.460905 0 0.025 -50106.7
-0.448308 0 0.025 -49800
-0.435709 0 0.025 -49453.6
-0.42313 0 0.025 -49131
-0.41059 0 0.025 -48871.7
-0.39811 0 0.025 -48680.7
-0.385706 0 0.025 -48476.9
-0.373398 0 0.025 -48240.8
-0.361205 0 0.025 -47998.3
-0.349141 0 0.025 -47737.4
-0.337226 0 0.025 -47487.2
-0.325475 0 0.025 -47274
-0.313901 0 0.025 -47098.2
-0.30252 0 0.025 -46964.6
-0.291343 0 0.025 -46826.7
-0.280382 0 0.025 -46672.8
-0.269646 0 0.025 -46523.2
-0.259148 0 0.025 -46379.6
-0.248893 0 0.025 -46243.1
-0.23889 0 0.025 -46107.1
-0.229143 0 0.025 -45960
-0.219659 0 0.025 -45809.2
-0.210441 0 0.025 -45636.9
-0.201491 0 0.025 -45451.8
-0.192812 0 0.025 -45275.1
-0.184405 0 0.025 -45108.5
-0.176269 0 0.025 -44988.1
-0.168404 0 0.025 -44901.8
-0.160808 0 0.025 -44852.9
-0.15348 0 0.025 -44839.2
-0.146415 0 0.025 -44853.1
-0.13961 0 0.025 -44881.7
-0.133063 0 0.025 -44896.2
-0.126767 0 0.025 -44906.3
-0.120718 0 0.025 -44906.3
-0.11491 0 0.025 -44885.6
-0.109339 0 0.025 -44838.8
-0.103997 0 0.025 -44780.6
-0.0988805 0 0.025 -44699.8
-0.0939808 0 0.025 -44605.6
-0.0892928 0 0.025 -44507.5
-0.0848096 0 0.025 -44404.2
-0.0805248 0 0.025 -44295.9
-0.0764316 0 0.025 -44193.3
-0.0725237 0 0.025 -44090.8
-0.0687943 0 0.025 -43994.3
-0.065237 0 0.025 -43907.9
-0.0618454 0 0.025 -43827.9
-0.058613 0 0.025 -43752.4
-0.0555337 0 0.025 -43683.3
-0.0526013 0 0.025 -43624.2
-0.0498099 0 0.025 -43570.8
-0.0471536 0 0.025 -43517.4
-0.0446266 0 0.025 -43480
-0.0422235 0 0.025 -43442.7
-0.039939 0 0.025 -43410.7
-0.0377676 0 0.025 -43383.8
-0.0357044 0 0.025 -43363.2
-0.0337445 0 0.025 -43346.9
-0.0318832 0 0.025 -43331
-0.0301159 0 0.025 -43127.4
-0.0284383 0 0.025 -39701.5
-0.0268461 0 0.025 -31599
-0.0253353 0 0.025 -39448.7
-0.023902 0 0.025 -58252.8
-0.0225426 0 0.025 -69266.6
-0.0212532 0 0.025 -76149.7
-0.0200306 0 0.025 -81846.1
-0.0188715 0 0.025 -86842
-0.0177728 0 0.025 -90905.6
-0.0167313 0 0.025 -94546.5
-0.0157444 0 0.025 -97861.1
-0.0148092 0 0.025 -100805
-0.0139232 0 0.025 -103567
-0.0130838 0 0.025 -106162
-0.0122887 0 0.025 -108514
-0.0115356 0 0.025 -110582
-0.0108223 0 0.025 -112390
-0.0101469 0 0.025 -113974
-0.00950727 0 0.025 -115366
-0.00890168 0 0.025 -116593
-0.00832835 0 0.025 -117699
-0.00778557 0 0.025 -118736
-0.00727176 0 0.025 -119761
-0.0067854 0 0.025 -120824
-0.00632507 0 0.025 -121963
-0.00588937 0 0.025 -123190
-0.00547703 0 0.025 -124529
-0.0050868 0 0.025 -125982
-0.00471753 0 0.025 -127565
-0.0043681 0 0.025 -129290
-0.00403746 0 0.025 -131154
-0.00372461 0 0.025 -133180
-0.0034286 0 0.025 -135344
-0.00314855 0 0.025 -137691
-0.0028836 0 0.025 -140267
-0.00263294 0 0.025 -143023
-0.00239581 0 0.025 -145739
-0.0021715 0 0.025 -148512
-0.00195929 0 0.025 -151453
-0.00175856 0 0.025 -154517
-0.00156869 0 0.025 -157697
-0.00138908 0 0.025 -160983
-0.0012192 0 0.025 -164351
-0.00105853 0 0.025 -167799
-0.000906546 0 0.025 -171300
-0.000762803 0 0.025 -174735
-0.000626848 0 0.025 -177817
-0.000498265 0 0.025 -179750
-0.000376656 0 0.025 -178641
-0.000261642 0 0.025 -170764
-0.00015287 0 0.025 -148886
-5e-05 0 0.025 -96343.5
4.14519e-05 2.79596e-05 0.025 -68988.6
0.000125371 8.45641e-05 0.025 -82689.7
0.000211347 0.000142556 0.025 -98385.5
0.000299429 0.000201968 0.025 -109577
0.000389669 0.000262835 0.025 -118991
0.000482118 0.000325193 0.025 -127925
0.000576831 0.000389077 0.025 -136298
0.000673861 0.000454524 0.025 -143859
0.000773265 0.000521574 0.025 -150550
0.0008751 0.000590262 0.025 -156446
0.000979426 0.000660632 0.025 -161673
0.0010863 0.000732721 0.025 -166342
0.00119579 0.000806572 0.025 -170665
0.00130795 0.000882227 0.025 -174674
0.00142285 0.00095973 0.025 -178436
0.00154056 0.00103912 0.025 -182071
0.00166115 0.00112046 0.025 -185586
0.00178467 0.00120378 0.025 -189073
0.00191121 0.00128913 0.025 -192557
0.00204083 0.00137656 0.025 -195995
0.00217362 0.00146612 0.025 -199499
0.00230964 0.00155787 0.025 -203062
0.00244897 0.00165185 0.025 -206643
0.00259169 0.00174812 0.025 -210318
0.00273789 0.00184673 0.025 -214105
0.00288765 0.00194774 0.025 -218036
0.00304105 0.00205122 0.025 -222067
0.00319818 0.00215719 0.025 -226234
0.00335912 0.00226575 0.025 -230599
0.00352397 0.00237695 0.025 -235110
0.00369283 0.00249085 0.025 -239823
0.00386579 0.00260751 0.025 -244718
0.00404294 0.00272699 0.025 -249855
0.00422438 0.00284938 0.025 -255264
0.00441022 0.00297474 0.025 -260946
0.00460056 0.00310312 0.025 -266901
0.00479552 0.00323462 0.025 -273147
0.00499519 0.0033693 0.025 -279808
0.00519968 0.00350723 0.025 -286774
0.00540911 0.00364849 0.025 -294214
0.00562361 0.00379318 0.025 -302052
0.00584329 0.00394134 0.025 -310297
0.00606826 0.00409309 0.025 -319138
0.00629865 0.00424849 0.025 -328437
0.0065346 0.00440764 0.025 -338372
0.00677623 0.00457063 0.025 -348964
0.00702368 0.00473753 0.025 -360121
0.00727707 0.00490844 0.025 -372134
0.00753655 0.00508347 0.025 -384986
0.00780227 0.00526269 0.025 -398748
0.00807436 0.00544622 0.025 -413526
0.00835298 0.00563415 0.025 -429461
0.00863826 0.00582659 0.025 -446767
0.00893038 0.00602362 0.025 -465698
0.00922949 0.00622537 0.025 -485609
0.00953574 0.00643195 0.025 -507230
0.00984929 0.00664345 0.025 -531598
0.0101703 0.00686 0.025 -558299
0.0104991 0.00708171 0.025 -587920
0.0108356 0.00730871 0.025 -622077
0.0111801 0.0075411 0.025 -659960
0.0115329 0.00777902 0.025 -699458
0.011894 0.00802259 0.025 -745700
0.0122637 0.00827194 0.025 -790802
0.0126421 0.00852719 0.025 -835476
0.0130295 0.0087885 0.025 -880801
0.013426 0.00905597 0.025 -923309
0.013832 0.00932978 0.025 -965824
0.0142475 0.00961003 0.025 -1.00725e+06
0.0146727 0.0098969 0.025 -1.04566e+06
0.0151081 0.0101905 0.025 -1.0879e+06
0.0155536 0.010491 0.025 -1.13286e+06
0.0160097 0.0107986 0.025 -1.17932e+06
0.0164764 0.0111134 0.025 -1.23004e+06
0.016954 0.0114356 0.025 -1.28411e+06
0.0174427 0.0117653 0.025 -1.33902e+06
0.0179429 0.0121026 0.025 -1.39769e+06
0.0184548 0.0124479 0.025 -1.46754e+06
0.0189786 0.0128013 0.025 -1.51678e+06
0.0195146 0.0131628 0.025 -1.56904e+06
0.020063 0.0135327 0.025 -1.63087e+06
0.0206242 0.0139112 0.025 -1.67064e+06
0.0211983 0.0142984 0.025 -1.69923e+06
0.0217857 0.0146947 0.025 -1.73327e+06
0.0223867 0.0151 0.025 -1.76138e+06
0.0230015 0.0155147 0.025 -1.78361e+06
0.0236304 0.0159389 0.025 -1.81129e+06
0.0242738 0.0163729 0.025 -1.81061e+06
0.0249318 0.0168167 0.025 -1.82349e+06
0.025605 0.0172708 0.025 -1.82974e+06
0.0262935 0.0177352 0.025 -1.80122e+06
0.0269977 0.0182102 0.025 -1.76832e+06
0.0277178 0.0186959 0.025 -1.72616e+06
0.0284544 0.0191927 0.025 -1.73797e+06
0.0292075 0.0197008 0.025 -1.67257e+06
0.0299777 0.0202203 0.025 -1.6361e+06
0.0307653 0.0207514 0.025 -1.60697e+06
0.0315704 0.0212945 0.025 -1.57873e+06
0.0323937 0.0218499 0.025 -1.55531e+06
0.0332354 0.0224176 0.025 -1.53031e+06
0.0340959 0.022998 0.025 -1.50794e+06
0.0349755 0.0235913 0.025 -1.47642e+06
0.0358747 0.0241978 0.025 -1.47567e+06
0.0367938 0.0248178 0.025 -1.44145e+06
0.0377331 0.0254513 0.025 -1.41633e+06
0.0386932 0.0260989 0.025 -1.39723e+06
0.0396743 0.0267606 0.025 -1.37948e+06
0.0406769 0.0274369 0.025 -1.3666e+06
0.0417013 0.0281279 0.025 -1.35161e+06
0.042748 0.0288339 0.025 -1.34949e+06
0.0438175 0.0295552 0.025 -1.33534e+06
0.04491 0.0302922 0.025 -1.32291e+06
0.0460262 0.031045 0.025 -1.32548e+06
0.0471662 0.031814 0.025 -1.33177e+06
0.0483306 0.0325995 0.025 -1.32094e+06
0.0495199 0.0334016 0.025 -1.3232e+06
0.0507344 0.0342208 0.025 -1.31815e+06
0.0519746 0.0350573 0.025 -1.31417e+06
0.0532409 0.0359114 0.025 -1.31627e+06
0.0545339 0.0367835 0.025 -1.30183e+06
0.0558538 0.0376739 0.025 -1.30008e+06
0.0572012 0.0385827 0.025 -1.29899e+06
0.0585766 0.0395104 0.025 -1.29709e+06
0.0599804 0.0404573 0.025 -1.30545e+06
0.061413 0.0414236 0.025 -1.29132e+06
0.0628748 0.0424096 0.025 -1.31946e+06
0.0643665 0.0434157 0.025 -1.32221e+06
0.0658883 0.0444422 0.025 -1.29825e+06
0.0674408 0.0454894 0.025 -1.28436e+06
0.0690245 0.0465576 0.025 -1.28497e+06
0.0706398 0.0476471 0.025 -1.27447e+06
0.0722871 0.0487582 0.025 -1.27305e+06
0.0739669 0.0498912 0.025 -1.27093e+06
0.0756797 0.0510466 0.025 -1.27963e+06
0.0774258 0.0522244 0.025 -1.28923e+06
0.0792059 0.053425 0.025 -1.28086e+06
0.0810203 0.0546489 0.025 -1.30272e+06
0.0828694 0.0558961 0.025 -1.27415e+06
0.0847537 0.0571671 0.025 -1.3192e+06
0.0866737 0.0584622 0.025 -1.27985e+06
0.0886298 0.0597816 0.025 -1.2803e+06
0.0906224 0.0611256 0.025 -1.29002e+06
0.0926518 0.0624944 0.025 -1.25608e+06
0.0947185 0.0638884 0.025 -1.2993e+06
0.096823 0.065308 0.025 -1.25618e+06
0.0989659 0.0667532 0.025 -1.34201e+06
0.101147 0.0682245 0.025 -1.68845e+06
0.103367 0.0697219 0.025 -1.59296e+06
0.105626 0.0712458 0.025 -1.20173e+06
0.107926 0.0727965 0.025 -1.19641e+06
0.110265 0.074374 0.025 -1.23505e+06
0.112644 0.0759789 0.025 -1.83305e+06
0.115063 0.0776111 0.025 -1.23859e+06
0.117524 0.0792709 0.025 -1.70841e+06
0.120026 0.0809585 0.025 -1.87686e+06
0.122569 0.0826741 0.025 -1.66778e+06
0.125155 0.0844179 0.025 -1.49079e+06
0.127782 0.0861901 0.025 -1.29487e+06
0.130451 0.0879908 0.025 -1.24947e+06
0.133163 0.08982 0.025 -1.22707e+06
0.135918 0.0916781 0.025 -1.19655e+06
0.138716 0.0935651 0.025 -1.1974e+06
0.141556 0.095481 0.025 -1.20638e+06
0.14444 0.097426 0.025 -1.58649e+06
0.147367 0.0994004 0.025 -2.35552e+06
0.150337 0.101404 0.025 -1.66577e+06
0.153351 0.103437 0.025 -1.61374e+06
0.156408 0.105498 0.025 -2.25483e+06
0.159508 0.107589 0.025 -1.02496e+06
0.162651 0.10971 0.025 -1.5119e+06
0.165838 0.111859 0.025 -3.61605e+06
0.169069 0.114039 0.025 -1.61762e+06
0.172343 0.116247 0.025 -1.97846e+06
0.175659 0.118483 0.025 -1.87534e+06
0.179018 0.120749 0.025 -1.87204e+06
0.182421 0.123045 0.025 -1.93779e+06
0.185866 0.125368 0.025 -1.70107e+06
0.189353 0.12772 0.025 -1.73705e+06
0.192882 0.1301 0.025 -1.84455e+06
0.196453 0.132509 0.025 -1.7448e+06
0.200065 0.134946 0.025 -2.16898e+06
0.203718 0.13741 0.025 -1.94162e+06
0.207412 0.139901 0.025 -926427
0.211146 0.14242 0.025 -989798
0.214919 0.144965 0.025 -1.61848e+06
0.218732 0.147537 0.025 -989545
0.222583 0.150134 0.025 -1.94611e+06
0.226472 0.152757 0.025 -979277
0.230399 0.155406 0.025 -1.8327e+06
0.234362 0.15808 0.025 -1.72762e+06
0.238362 0.160777 0.025 -2.35751e+06
0.242396 0.163498 0.025 -1.95643e+06
0.246466 0.166244 0.025 -2.11631e+06
0.250569 0.169012 0.025 -933215
0.254706 0.171801 0.025 -1.53403e+06
0.258874 0.174613 0.025 -1.53404e+06
0.263074 0.177446 0.025 -1.94978e+06
0.267304 0.180299 0.025 -1.57857e+06
0.271564 0.183172 0.025 -948943
0.275852 0.186064 0.025 -1.62494e+06
0.280168 0.188975 0.025 -925127
0.28451 0.191904 0.025 -1.65232e+06
0.288876 0.19485 0.025 -2.27567e+06
0.293268 0.197812 0.025 -1.60886e+06
0.297683 0.20079 0.025 -1.91906e+06
0.302119 0.203782 0.025 -2.23057e+06
0.306577 0.206788 0.025 -1.43082e+06
0.311054 0.209808 0.025 -1.5828e+06
0.315549 0.212841 0.025 -1.16518e+06
0.320063 0.215885 0.025 -2.01913e+06
0.324591 0.218939 0.025 -1.42517e+06
0.329134 0.222003 0.025 -1.41047e+06
0.333691 0.225077 0.025 -2.21484e+06
0.33826 0.228159 0.025 -1.78288e+06
0.342839 0.231248 0.025 -1.82855e+06
0.347428 0.234343 0.025 -874581
0.352025 0.237444 0.025 -1.92872e+06
0.356628 0.240548 0.025 -1.41184e+06
0.361237 0.243658 0.025 -1.1547e+06
0.36585 0.246769 0.025 -2.56195e+06
0.370465 0.249882 0.025 -1.02332e+06
0.375082 0.252996 0.025 -1.42664e+06
0.379698 0.25611 0.025 -2.62829e+06
0.384313 0.259223 0.025 -1.37899e+06
0.388926 0.262333 0.025 -1.70448e+06
0.393534 0.265442 0.025 -1.40664e+06
0.398136 0.268546 0.025 -880445
0.40273 0.271645 0.025 -1.62516e+06
0.407317 0.274739 0.025 -1.67902e+06
0.411894 0.277826 0.025 -2.10838e+06
0.41646 0.280906 0.025 -836125
0.421014 0.283977 0.025 -1.5883e+06
0.425554 0.28704 0.025 -1.86118e+06
0.430079 0.290092 0.025 -1.48061e+06
0.434588 0.293133 0.025 -1.82015e+06
0.439079 0.296162 0.025 -1.27625e+06
0.443551 0.299179 0.025 -1.65778e+06
0.448004 0.302183 0.025 -1.68777e+06
0.452437 0.305172 0.025 -1.64775e+06
0.456846 0.308146 0.025 -1.53025e+06
0.461232 0.311105 0.025 -1.55625e+06
0.465593 0.314047 0.025 -1.44202e+06
0.469929 0.316971 0.025 -1.93269e+06
0.474238 0.319878 0.025 -991703
0.47852 0.322766 0.025 -1.11015e+06
0.482773 0.325635 0.025 -880686
0.486996 0.328483 0.025 -1.32249e+06
0.491189 0.331311 0.025 -2.00961e+06
0.49535 0.334118 0.025 -1.28209e+06
