# y+ ()       
# Time        	patch         	min           	max           	average       
13300         	base	7.066811e-03	2.367220e+01	5.498334e+00
