# y+ ()       
# Time        	patch         	min           	max           	average       
0             	base	3.253272e-02	6.470652e-01	2.545954e-01
