# y+ ()       
# Time        	patch         	min           	max           	average       
7800          	base	8.482000e-03	6.372004e-01	2.602384e-01
