# p  FACE_DATA 317
# x  y  z  p
-2.24217 0 0.27 23912.5
-2.12942 0 0.27 23876.9
-2.02231 0 0.27 23850.5
-1.92055 0 0.27 23840.6
-1.82389 0 0.27 23837.7
-1.73207 0 0.27 23832.7
-1.64485 0 0.27 23825.7
-1.562 0 0.27 23821.3
-1.48331 0 0.27 23820.8
-1.40856 0 0.27 23818.4
-1.33756 0 0.27 23810.4
-1.27013 0 0.27 23796.8
-1.20608 0 0.27 23778.5
-1.14539 0 0.27 23757.5
-1.08787 0 0.27 23738.2
-1.03323 0 0.27 23721.4
-0.981322 0 0.27 23706.7
-0.932014 0 0.27 23694.8
-0.885173 0 0.27 23685.8
-0.84068 0 0.27 23679
-0.798416 0 0.27 23674.5
-0.758473 0 0.27 23671.6
-0.720912 0 0.27 23669.9
-0.685558 0 0.27 23669.3
-0.652245 0 0.27 23669.3
-0.620811 0 0.27 23669.3
-0.591171 0 0.27 23669.4
-0.563165 0 0.27 23669.5
-0.536572 0 0.27 23670.4
-0.51125 0 0.27 23672
-0.487059 0 0.27 23674.5
-0.463863 0 0.27 23677.9
-0.441526 0 0.27 23682.5
-0.419915 0 0.27 23687.8
-0.398896 0 0.27 23693.3
-0.378338 0 0.27 23699
-0.358104 0 0.27 23704.7
-0.33806 0 0.27 23707.9
-0.318069 0 0.27 23735.8
-0.296809 0 0.27 23751.9
-0.275112 0 0.27 23735.5
-0.255001 0 0.27 23731.4
-0.23636 0 0.27 23757.6
-0.219081 0 0.27 23748.2
-0.203066 0 0.27 23727.4
-0.188221 0 0.27 23724.9
-0.174462 0 0.27 23722.5
-0.161708 0 0.27 23722.8
-0.149886 0 0.27 23723.6
-0.138929 0 0.27 23723
-0.128773 0 0.27 23723.3
-0.119359 0 0.27 23722.6
-0.110632 0 0.27 23722.7
-0.102544 0 0.27 23722.7
-0.0950472 0 0.27 23723.4
-0.0880983 0 0.27 23723.6
-0.0816572 0 0.27 23723.7
-0.0756869 0 0.27 23724.4
-0.070153 0 0.27 23722.4
-0.0650234 0 0.27 23743.5
-0.0602687 0 0.27 24667.9
-0.0558616 0 0.27 31054.7
-0.0517765 0 0.27 40206.4
-0.0479899 0 0.27 44436.3
-0.04448 0 0.27 46921.1
-0.0412265 0 0.27 48443.7
-0.0382106 0 0.27 49730.1
-0.0354151 0 0.27 50666.2
-0.0328237 0 0.27 51458.3
-0.0304215 0 0.27 52154.6
-0.0281948 0 0.27 52762.3
-0.0261306 0 0.27 53296.7
-0.0242171 0 0.27 53774.2
-0.0224431 0 0.27 54205.9
-0.0207985 0 0.27 54598.3
-0.0192738 0 0.27 54954.3
-0.0178602 0 0.27 55278
-0.0165496 0 0.27 55571.8
-0.0153345 0 0.27 55838.9
-0.0142077 0 0.27 56081.5
-0.0131629 0 0.27 56302.6
-0.0121939 0 0.27 56504.9
-0.0112952 0 0.27 56690.5
-0.0104616 0 0.27 56861.5
-0.0096884 0 0.27 57019.7
-0.00897103 0 0.27 57166.8
-0.00830536 0 0.27 57304
-0.00768758 0 0.27 57432.4
-0.0071141 0 0.27 57553.2
-0.00658165 0 0.27 57666.7
-0.00608714 0 0.27 57773.9
-0.00562772 0 0.27 57875.4
-0.00520074 0 0.27 57971.4
-0.00480375 0 0.27 58062.3
-0.00443446 0 0.27 58148.5
-0.00409073 0 0.27 58229.9
-0.00377059 0 0.27 58307.1
-0.00347218 0 0.27 58378.8
-0.00319379 0 0.27 58452.7
-0.00293381 0 0.27 58517.8
-0.00269075 0 0.27 58579.7
-0.00246319 0 0.27 58638.4
-0.00224984 0 0.27 58694.1
-0.00204945 0 0.27 58746.7
-0.00186089 0 0.27 58796.5
-0.00168306 0 0.27 58843.3
-0.00151492 0 0.27 58887.7
-0.00135552 0 0.27 58929.1
-0.00120394 0 0.27 58968.5
-0.00105929 0 0.27 59004.5
-0.000920752 0 0.27 59038.9
-0.000787523 0 0.27 59069.4
-0.000658834 0 0.27 59097.3
-0.000533942 0 0.27 59121.2
-0.000412129 0 0.27 59138.5
-0.000292693 0 0.27 59154.8
-0.000174943 0 0.27 59134.5
-5.82025e-05 0 0.27 59333.1
6.0278e-05 2.68374e-05 0.27 58615.5
0.000182584 8.12915e-05 0.27 58837.3
0.000308438 0.000137325 0.27 58795.6
0.000437939 0.000194983 0.27 58783.1
0.00057119 0.00025431 0.27 58771.8
0.000708293 0.000315353 0.27 58774.3
0.000849358 0.000378158 0.27 58786.2
0.000994492 0.000442776 0.27 58802.9
0.00114381 0.000509256 0.27 58826.9
0.00129743 0.000577649 0.27 58854.1
0.00145545 0.000648007 0.27 58886.8
0.00161801 0.000720386 0.27 58922.6
0.00178523 0.000794839 0.27 58962.8
0.00195724 0.000871423 0.27 59005.9
0.00213417 0.000950195 0.27 59052.8
0.00231614 0.00103122 0.27 59102.7
0.0025033 0.00111455 0.27 59156.1
0.00269579 0.00120024 0.27 59212.5
0.00289374 0.00128838 0.27 59272.1
0.00309731 0.00137901 0.27 59334.8
0.00330663 0.00147221 0.27 59401.6
0.00352187 0.00156804 0.27 59471.3
0.00374317 0.00166657 0.27 59543.5
0.0039707 0.00176788 0.27 59619
0.00420463 0.00187202 0.27 59697.9
0.00444512 0.0019791 0.27 59780.2
0.00469233 0.00208916 0.27 59866
0.00494645 0.0022023 0.27 59955.3
0.00520763 0.00231859 0.27 60048.1
0.00547608 0.00243811 0.27 60144.5
0.00575197 0.00256094 0.27 60244.6
0.00603549 0.00268717 0.27 60348.4
0.00632683 0.00281688 0.27 60456.2
0.00662618 0.00295016 0.27 60567.8
0.00693375 0.0030871 0.27 60683.6
0.00724974 0.0032278 0.27 60803.5
0.00757435 0.00337232 0.27 60927.8
0.0079078 0.00352077 0.27 61056.4
0.00825029 0.00367327 0.27 61189.6
0.00860204 0.00382988 0.27 61327.5
0.00896328 0.00399071 0.27 61470.2
0.00933422 0.00415586 0.27 61617.9
0.0097151 0.00432544 0.27 61770.9
0.0101061 0.00449954 0.27 61929.2
0.0105076 0.00467828 0.27 62093.4
0.0109197 0.00486175 0.27 62263.2
0.0113426 0.00505007 0.27 62439.2
0.0117768 0.00524333 0.27 62621.3
0.0122222 0.00544166 0.27 62810
0.0126792 0.00564515 0.27 63005.4
0.0131482 0.00585394 0.27 63208.1
0.0136292 0.00606812 0.27 63417.8
0.0141227 0.00628781 0.27 63635.4
0.0146288 0.00651313 0.27 63860.8
0.0151477 0.00674419 0.27 64094.2
0.0156799 0.00698113 0.27 64336.1
0.0162254 0.00722403 0.27 64586.7
0.0167847 0.00747303 0.27 64846.4
0.017358 0.00772826 0.27 65115.2
0.0179454 0.00798982 0.27 65393.6
0.0185474 0.00825783 0.27 65681.5
0.0191641 0.00853242 0.27 65979.3
0.0197959 0.00881371 0.27 66287
0.0204431 0.00910183 0.27 66604.8
0.0211057 0.00939688 0.27 66932.8
0.0217843 0.00969898 0.27 67271.4
0.0224789 0.0100083 0.27 67620.5
0.02319 0.0103248 0.27 67980.3
0.0239176 0.0106488 0.27 68351.2
0.0246623 0.0109804 0.27 68732.9
0.025424 0.0113195 0.27 69125.7
0.0262032 0.0116664 0.27 69529.4
0.0270001 0.0120212 0.27 69943.8
0.0278149 0.012384 0.27 70368.6
0.0286479 0.0127549 0.27 70804.3
0.0294992 0.0131339 0.27 71249.9
0.0303692 0.0135212 0.27 71706.2
0.0312581 0.013917 0.27 72172.7
0.0321659 0.0143213 0.27 72649.4
0.0330931 0.014734 0.27 73136.4
0.0340398 0.0151555 0.27 73633.4
0.0350062 0.0155858 0.27 74140.5
0.0359924 0.0160249 0.27 74657.4
0.0369987 0.0164729 0.27 75184.5
0.0380251 0.0169299 0.27 75720
0.0390719 0.0173959 0.27 76264.1
0.0401391 0.0178711 0.27 76815.3
0.041227 0.0183554 0.27 77371.8
0.0423356 0.018849 0.27 77934.7
0.043465 0.0193519 0.27 78503
0.0446154 0.0198641 0.27 79073.7
0.0457867 0.0203856 0.27 79647.1
0.046979 0.0209164 0.27 80220.6
0.0481924 0.0214567 0.27 80793.8
0.0494267 0.0220063 0.27 81364.7
0.0506823 0.0225652 0.27 81931.7
0.0519588 0.0231335 0.27 82493.6
0.0532563 0.0237113 0.27 83048.3
0.0545749 0.0242983 0.27 83595.7
0.0559142 0.0248946 0.27 84133.9
0.0572744 0.0255002 0.27 84663.4
0.0586552 0.0261149 0.27 85182.7
0.0600565 0.0267388 0.27 85693
0.0614781 0.0273718 0.27 86194.5
0.0629198 0.0280137 0.27 86687.5
0.0643815 0.0286645 0.27 87175.2
0.0658629 0.029324 0.27 87656.5
0.0673636 0.0299922 0.27 88134.1
0.0688836 0.030669 0.27 88607.2
0.0704223 0.0313541 0.27 89076
0.0719795 0.0320474 0.27 89542.1
0.0735549 0.0327488 0.27 90003.4
0.075148 0.0334581 0.27 90459.3
0.0767585 0.0341751 0.27 90908.6
0.0783859 0.0348996 0.27 91348.8
0.0800297 0.0356315 0.27 91781.4
0.0816895 0.0363706 0.27 92207.3
0.0833647 0.0371164 0.27 92620.2
0.085055 0.0378689 0.27 93022.8
0.0867595 0.0386278 0.27 93408.9
0.0884779 0.0393929 0.27 93777.7
0.0902095 0.0401639 0.27 94128.7
0.0919538 0.0409405 0.27 94460.1
0.09371 0.0417224 0.27 94771
0.0954776 0.0425094 0.27 95063.2
0.0972558 0.0433011 0.27 95339.1
0.0990439 0.0440972 0.27 95599.7
0.100841 0.0448975 0.27 95838.4
0.102647 0.0457015 0.27 96054.2
0.104461 0.046509 0.27 96268.4
0.106282 0.0473197 0.27 96459.8
0.108109 0.0481331 0.27 96656
0.109941 0.048949 0.27 96835.9
0.111779 0.0497671 0.27 97001.8
0.11362 0.0505868 0.27 97167.4
0.115464 0.051408 0.27 97365.3
0.117311 0.0522302 0.27 97547.9
0.11916 0.0530531 0.27 97724.5
0.121009 0.0538763 0.27 97956.8
0.122857 0.0546995 0.27 98179
0.124705 0.0555223 0.27 98398.6
0.126552 0.0563444 0.27 98635.9
0.128395 0.0571653 0.27 98883.8
0.130236 0.0579847 0.27 99136.4
0.132072 0.0588023 0.27 99391.7
0.133904 0.0596177 0.27 99644.6
0.13573 0.0604306 0.27 99873.8
0.137549 0.0612407 0.27 100067
0.139361 0.0620475 0.27 100242
0.141165 0.0628508 0.27 100364
0.14296 0.0636503 0.27 100519
0.144747 0.0644455 0.27 100640
0.146523 0.0652363 0.27 100718
0.148288 0.0660222 0.27 100774
0.150042 0.0668031 0.27 100794
0.151784 0.0675785 0.27 100827
0.153513 0.0683483 0.27 100802
0.155228 0.0691121 0.27 100770
0.15693 0.0698698 0.27 100764
0.158617 0.070621 0.27 100742
0.160289 0.0713654 0.27 100729
0.161946 0.072103 0.27 100699
0.163586 0.0728334 0.27 100663
0.165211 0.0735564 0.27 100646
0.166817 0.0742718 0.27 100637
0.168406 0.0749795 0.27 100663
0.169978 0.0756793 0.27 100680
0.171532 0.0763709 0.27 100702
0.173067 0.0770543 0.27 100747
0.174583 0.0777293 0.27 100801
0.17608 0.0783958 0.27 100912
0.177557 0.0790535 0.27 101055
0.179014 0.0797025 0.27 101134
0.180452 0.0803425 0.27 101254
0.18187 0.0809736 0.27 101435
0.183266 0.0815956 0.27 101637
0.184643 0.0822085 0.27 101877
0.185999 0.0828122 0.27 102110
0.187334 0.0834066 0.27 102340
0.188648 0.0839917 0.27 102607
0.189942 0.0845675 0.27 102848
0.191214 0.0851339 0.27 103175
0.192465 0.085691 0.27 103449
0.193695 0.0862387 0.27 103762
0.194904 0.086777 0.27 104095
0.196093 0.0873059 0.27 104419
0.197259 0.0878254 0.27 104729
0.198405 0.0883357 0.27 105043
0.19953 0.0888366 0.27 105376
0.200635 0.0893284 0.27 105724
0.201718 0.0898108 0.27 106027
0.202782 0.0902841 0.27 106310
0.203824 0.0907483 0.27 106580
0.204846 0.0912035 0.27 106804
0.205848 0.0916496 0.27 107032
0.206831 0.0920869 0.27 107265
0.207793 0.0925153 0.27 107461
0.208735 0.092935 0.27 107689
0.209658 0.093346 0.27 107571
