# wallHeatFlux  FACE_DATA 398
# x  y  z  wallHeatFlux
-0.7975 0 0.025 -653671
-0.79239 0 0.025 -120002
-0.787056 0 0.025 -71419.2
-0.781492 0 0.025 -65012
-0.775691 0 0.025 -66377.4
-0.769649 0 0.025 -67051.2
-0.763362 0 0.025 -67434.7
-0.756822 0 0.025 -67184.9
-0.750025 0 0.025 -66562.5
-0.742968 0 0.025 -65616
-0.735648 0 0.025 -64582.7
-0.72806 0 0.025 -63564.3
-0.720203 0 0.025 -62626.4
-0.712076 0 0.025 -61689.2
-0.703677 0 0.025 -60820.3
-0.695006 0 0.025 -60009.1
-0.686065 0 0.025 -59271.9
-0.676855 0 0.025 -58587.4
-0.667379 0 0.025 -57869.6
-0.65764 0 0.025 -57178.2
-0.647644 0 0.025 -56601.1
-0.637397 0 0.025 -56060
-0.626906 0 0.025 -55461
-0.616179 0 0.025 -54958.6
-0.605224 0 0.025 -54445.9
-0.594054 0 0.025 -53984.6
-0.582678 0 0.025 -53508.9
-0.57111 0 0.025 -53058
-0.559364 0 0.025 -52611.5
-0.547454 0 0.025 -52204.7
-0.535396 0 0.025 -51807
-0.523205 0 0.025 -51474.8
-0.510901 0 0.025 -51105.1
-0.4985 0 0.025 -50720
-0.486021 0 0.025 -50370.9
-0.473483 0 0.025 -50057.3
-0.460905 0 0.025 -49762.3
-0.448308 0 0.025 -49487.8
-0.435709 0 0.025 -49184.5
-0.42313 0 0.025 -48872.7
-0.41059 0 0.025 -48618.9
-0.39811 0 0.025 -48422.5
-0.385706 0 0.025 -48202.6
-0.373398 0 0.025 -47950.5
-0.361205 0 0.025 -47691.9
-0.349141 0 0.025 -47452.6
-0.337226 0 0.025 -47234.7
-0.325475 0 0.025 -47048.4
-0.313901 0 0.025 -46921.1
-0.30252 0 0.025 -46803.6
-0.291343 0 0.025 -46676.5
-0.280382 0 0.025 -46511.8
-0.269646 0 0.025 -46281.9
-0.259148 0 0.025 -46047.2
-0.248893 0 0.025 -45830.5
-0.23889 0 0.025 -45651.8
-0.229143 0 0.025 -45520.8
-0.219659 0 0.025 -45466.5
-0.210441 0 0.025 -45454.9
-0.201491 0 0.025 -45435.7
-0.192812 0 0.025 -45398.2
-0.184405 0 0.025 -45338.5
-0.176269 0 0.025 -45255.6
-0.168404 0 0.025 -45153.1
-0.160808 0 0.025 -45018.7
-0.15348 0 0.025 -44871.3
-0.146415 0 0.025 -44714.1
-0.13961 0 0.025 -44566.2
-0.133063 0 0.025 -44436.4
-0.126767 0 0.025 -44318.2
-0.120718 0 0.025 -44211.2
-0.11491 0 0.025 -44131.7
-0.109339 0 0.025 -44063.5
-0.103997 0 0.025 -44010.6
-0.0988805 0 0.025 -43967.2
-0.0939808 0 0.025 -43937.1
-0.0892928 0 0.025 -43924.6
-0.0848096 0 0.025 -43917.4
-0.0805248 0 0.025 -43910.8
-0.0764316 0 0.025 -43909.8
-0.0725237 0 0.025 -43924.9
-0.0687943 0 0.025 -43930.1
-0.065237 0 0.025 -43940
-0.0618454 0 0.025 -43945.6
-0.058613 0 0.025 -43945.1
-0.0555337 0 0.025 -43945.6
-0.0526013 0 0.025 -43945.4
-0.0498099 0 0.025 -43940.3
-0.0471536 0 0.025 -43935.1
-0.0446266 0 0.025 -43924.6
-0.0422235 0 0.025 -43914.1
-0.039939 0 0.025 -43903.6
-0.0377676 0 0.025 -43887.4
-0.0357044 0 0.025 -43877.6
-0.0337445 0 0.025 -43861.4
-0.0318832 0 0.025 -43829.4
-0.0301159 0 0.025 -42966.5
-0.0284383 0 0.025 -36484.6
-0.0268461 0 0.025 -31470.3
-0.0253353 0 0.025 -47525.1
-0.023902 0 0.025 -60955.9
-0.0225426 0 0.025 -69277.3
-0.0212532 0 0.025 -75092.9
-0.0200306 0 0.025 -80257.9
-0.0188715 0 0.025 -84759.9
-0.0177728 0 0.025 -88479.8
-0.0167313 0 0.025 -91911
-0.0157444 0 0.025 -95101.8
-0.0148092 0 0.025 -98093.3
-0.0139232 0 0.025 -100866
-0.0130838 0 0.025 -103428
-0.0122887 0 0.025 -105743
-0.0115356 0 0.025 -107788
-0.0108223 0 0.025 -109580
-0.0101469 0 0.025 -111147
-0.00950727 0 0.025 -112512
-0.00890168 0 0.025 -113733
-0.00832835 0 0.025 -114870
-0.00778557 0 0.025 -115982
-0.00727176 0 0.025 -117135
-0.0067854 0 0.025 -118354
-0.00632507 0 0.025 -119670
-0.00588937 0 0.025 -121100
-0.00547703 0 0.025 -122644
-0.0050868 0 0.025 -124295
-0.00471753 0 0.025 -126051
-0.0043681 0 0.025 -127920
-0.00403746 0 0.025 -129929
-0.00372461 0 0.025 -132035
-0.0034286 0 0.025 -134263
-0.00314855 0 0.025 -136636
-0.0028836 0 0.025 -139222
-0.00263294 0 0.025 -141924
-0.00239581 0 0.025 -144492
-0.0021715 0 0.025 -147192
-0.00195929 0 0.025 -150022
-0.00175856 0 0.025 -152946
-0.00156869 0 0.025 -155969
-0.00138908 0 0.025 -159102
-0.0012192 0 0.025 -162302
-0.00105853 0 0.025 -165573
-0.000906546 0 0.025 -168887
-0.000762803 0 0.025 -172129
-0.000626848 0 0.025 -175002
-0.000498265 0 0.025 -176687
-0.000376656 0 0.025 -175350
-0.000261642 0 0.025 -167423
-0.00015287 0 0.025 -145822
-5e-05 0 0.025 -94450.8
4.14519e-05 2.79596e-05 0.025 -67120.9
0.000125371 8.45641e-05 0.025 -80470.7
0.000211347 0.000142556 0.025 -96103.7
0.000299429 0.000201968 0.025 -107399
0.000389669 0.000262835 0.025 -116888
0.000482118 0.000325193 0.025 -125883
0.000576831 0.000389077 0.025 -134309
0.000673861 0.000454524 0.025 -141932
0.000773265 0.000521574 0.025 -148666
0.0008751 0.000590262 0.025 -154599
0.000979426 0.000660632 0.025 -159850
0.0010863 0.000732721 0.025 -164538
0.00119579 0.000806572 0.025 -168890
0.00130795 0.000882227 0.025 -172932
0.00142285 0.00095973 0.025 -176717
0.00154056 0.00103912 0.025 -180369
0.00166115 0.00112046 0.025 -183907
0.00178467 0.00120378 0.025 -187394
0.00191121 0.00128913 0.025 -190878
0.00204083 0.00137656 0.025 -194318
0.00217362 0.00146612 0.025 -197812
0.00230964 0.00155787 0.025 -201363
0.00244897 0.00165185 0.025 -204934
0.00259169 0.00174812 0.025 -208599
0.00273789 0.00184673 0.025 -212376
0.00288765 0.00194774 0.025 -216286
0.00304105 0.00205122 0.025 -220307
0.00319818 0.00215719 0.025 -224453
0.00335912 0.00226575 0.025 -228807
0.00352397 0.00237695 0.025 -233295
0.00369283 0.00249085 0.025 -237982
0.00386579 0.00260751 0.025 -242841
0.00404294 0.00272699 0.025 -247947
0.00422438 0.00284938 0.025 -253329
0.00441022 0.00297474 0.025 -258968
0.00460056 0.00310312 0.025 -264897
0.00479552 0.00323462 0.025 -271123
0.00499519 0.0033693 0.025 -277746
0.00519968 0.00350723 0.025 -284686
0.00540911 0.00364849 0.025 -292051
0.00562361 0.00379318 0.025 -299826
0.00584329 0.00394134 0.025 -308029
0.00606826 0.00409309 0.025 -316828
0.00629865 0.00424849 0.025 -326062
0.0065346 0.00440764 0.025 -335934
0.00677623 0.00457063 0.025 -346504
0.00702368 0.00473753 0.025 -357689
0.00727707 0.00490844 0.025 -369760
0.00753655 0.00508347 0.025 -382634
0.00780227 0.00526269 0.025 -396460
0.00807436 0.00544622 0.025 -411259
0.00835298 0.00563415 0.025 -426863
0.00863826 0.00582659 0.025 -444047
0.00893038 0.00602362 0.025 -463272
0.00922949 0.00622537 0.025 -482917
0.00953574 0.00643195 0.025 -503883
0.00984929 0.00664345 0.025 -528110
0.0101703 0.00686 0.025 -555693
0.0104991 0.00708171 0.025 -583604
0.0108356 0.00730871 0.025 -618100
0.0111801 0.0075411 0.025 -654983
0.0115329 0.00777902 0.025 -693210
0.011894 0.00802259 0.025 -736931
0.0122637 0.00827194 0.025 -778780
0.0126421 0.00852719 0.025 -822341
0.0130295 0.0087885 0.025 -863668
0.013426 0.00905597 0.025 -905516
0.013832 0.00932978 0.025 -946830
0.0142475 0.00961003 0.025 -988038
0.0146727 0.0098969 0.025 -1.02918e+06
0.0151081 0.0101905 0.025 -1.07343e+06
0.0155536 0.010491 0.025 -1.11887e+06
0.0160097 0.0107986 0.025 -1.16445e+06
0.0164764 0.0111134 0.025 -1.21416e+06
0.016954 0.0114356 0.025 -1.26674e+06
0.0174427 0.0117653 0.025 -1.32023e+06
0.0179429 0.0121026 0.025 -1.37641e+06
0.0184548 0.0124479 0.025 -1.44143e+06
0.0189786 0.0128013 0.025 -1.48616e+06
0.0195146 0.0131628 0.025 -1.53849e+06
0.020063 0.0135327 0.025 -1.59935e+06
0.0206242 0.0139112 0.025 -1.63908e+06
0.0211983 0.0142984 0.025 -1.6687e+06
0.0217857 0.0146947 0.025 -1.70352e+06
0.0223867 0.0151 0.025 -1.73203e+06
0.0230015 0.0155147 0.025 -1.75411e+06
0.0236304 0.0159389 0.025 -1.78087e+06
0.0242738 0.0163729 0.025 -1.77904e+06
0.0249318 0.0168167 0.025 -1.79013e+06
0.025605 0.0172708 0.025 -1.79506e+06
0.0262935 0.0177352 0.025 -1.76919e+06
0.0269977 0.0182102 0.025 -1.74208e+06
0.0277178 0.0186959 0.025 -1.70562e+06
0.0284544 0.0191927 0.025 -1.72139e+06
0.0292075 0.0197008 0.025 -1.66901e+06
0.0299777 0.0202203 0.025 -1.62173e+06
0.0307653 0.0207514 0.025 -1.59031e+06
0.0315704 0.0212945 0.025 -1.5639e+06
0.0323937 0.0218499 0.025 -1.53971e+06
0.0332354 0.0224176 0.025 -1.51399e+06
0.0340959 0.022998 0.025 -1.49085e+06
0.0349755 0.0235913 0.025 -1.45855e+06
0.0358747 0.0241978 0.025 -1.45721e+06
0.0367938 0.0248178 0.025 -1.42332e+06
0.0377331 0.0254513 0.025 -1.40069e+06
0.0386932 0.0260989 0.025 -1.38416e+06
0.0396743 0.0267606 0.025 -1.36938e+06
0.0406769 0.0274369 0.025 -1.35819e+06
0.0417013 0.0281279 0.025 -1.34301e+06
0.042748 0.0288339 0.025 -1.34322e+06
0.0438175 0.0295552 0.025 -1.32993e+06
0.04491 0.0302922 0.025 -1.31376e+06
0.0460262 0.031045 0.025 -1.31757e+06
0.0471662 0.031814 0.025 -1.32366e+06
0.0483306 0.0325995 0.025 -1.31089e+06
0.0495199 0.0334016 0.025 -1.31374e+06
0.0507344 0.0342208 0.025 -1.31352e+06
0.0519746 0.0350573 0.025 -1.3059e+06
0.0532409 0.0359114 0.025 -1.31217e+06
0.0545339 0.0367835 0.025 -1.29513e+06
0.0558538 0.0376739 0.025 -1.29269e+06
0.0572012 0.0385827 0.025 -1.29281e+06
0.0585766 0.0395104 0.025 -1.2927e+06
0.0599804 0.0404573 0.025 -1.30143e+06
0.061413 0.0414236 0.025 -1.286e+06
0.0628748 0.0424096 0.025 -1.31365e+06
0.0643665 0.0434157 0.025 -1.31652e+06
0.0658883 0.0444422 0.025 -1.29229e+06
0.0674408 0.0454894 0.025 -1.28337e+06
0.0690245 0.0465576 0.025 -1.28238e+06
0.0706398 0.0476471 0.025 -1.27748e+06
0.0722871 0.0487582 0.025 -1.27234e+06
0.0739669 0.0498912 0.025 -1.2734e+06
0.0756797 0.0510466 0.025 -1.28385e+06
0.0774258 0.0522244 0.025 -1.29526e+06
0.0792059 0.053425 0.025 -1.28821e+06
0.0810203 0.0546489 0.025 -1.31073e+06
0.0828694 0.0558961 0.025 -1.27944e+06
0.0847537 0.0571671 0.025 -1.32395e+06
0.0866737 0.0584622 0.025 -1.28409e+06
0.0886298 0.0597816 0.025 -1.28516e+06
0.0906224 0.0611256 0.025 -1.29526e+06
0.0926518 0.0624944 0.025 -1.26118e+06
0.0947185 0.0638884 0.025 -1.30581e+06
0.096823 0.065308 0.025 -1.2602e+06
0.0989659 0.0667532 0.025 -1.34822e+06
0.101147 0.0682245 0.025 -1.70231e+06
0.103367 0.0697219 0.025 -1.60523e+06
0.105626 0.0712458 0.025 -1.20762e+06
0.107926 0.0727965 0.025 -1.20243e+06
0.110265 0.074374 0.025 -1.24102e+06
0.112644 0.0759789 0.025 -1.85305e+06
0.115063 0.0776111 0.025 -1.24612e+06
0.117524 0.0792709 0.025 -1.72598e+06
0.120026 0.0809585 0.025 -1.89922e+06
0.122569 0.0826741 0.025 -1.68462e+06
0.125155 0.0844179 0.025 -1.50335e+06
0.127782 0.0861901 0.025 -1.30393e+06
0.130451 0.0879908 0.025 -1.25808e+06
0.133163 0.08982 0.025 -1.23537e+06
0.135918 0.0916781 0.025 -1.20716e+06
0.138716 0.0935651 0.025 -1.20526e+06
0.141556 0.095481 0.025 -1.21452e+06
0.14444 0.097426 0.025 -1.6052e+06
0.147367 0.0994004 0.025 -2.39055e+06
0.150337 0.101404 0.025 -1.6854e+06
0.153351 0.103437 0.025 -1.63197e+06
0.156408 0.105498 0.025 -2.2935e+06
0.159508 0.107589 0.025 -1.03393e+06
0.162651 0.10971 0.025 -1.5334e+06
0.165838 0.111859 0.025 -3.79346e+06
0.169069 0.114039 0.025 -1.60446e+06
0.172343 0.116247 0.025 -2.00793e+06
0.175659 0.118483 0.025 -1.90165e+06
0.179018 0.120749 0.025 -1.89926e+06
0.182421 0.123045 0.025 -1.971e+06
0.185866 0.125368 0.025 -1.72777e+06
0.189353 0.12772 0.025 -1.76434e+06
0.192882 0.1301 0.025 -1.8733e+06
0.196453 0.132509 0.025 -1.77048e+06
0.200065 0.134946 0.025 -2.22729e+06
0.203718 0.13741 0.025 -1.97285e+06
0.207412 0.139901 0.025 -935249
0.211146 0.14242 0.025 -998657
0.214919 0.144965 0.025 -1.64013e+06
0.218732 0.147537 0.025 -998686
0.222583 0.150134 0.025 -1.97753e+06
0.226472 0.152757 0.025 -986905
0.230399 0.155406 0.025 -1.86387e+06
0.234362 0.15808 0.025 -1.75437e+06
0.238362 0.160777 0.025 -2.39049e+06
0.242396 0.163498 0.025 -1.9766e+06
0.246466 0.166244 0.025 -2.14276e+06
0.250569 0.169012 0.025 -941035
0.254706 0.171801 0.025 -1.55493e+06
0.258874 0.174613 0.025 -1.56107e+06
0.263074 0.177446 0.025 -1.99494e+06
0.267304 0.180299 0.025 -1.60756e+06
0.271564 0.183172 0.025 -958817
0.275852 0.186064 0.025 -1.65253e+06
0.280168 0.188975 0.025 -933081
0.28451 0.191904 0.025 -1.67849e+06
0.288876 0.19485 0.025 -2.31862e+06
0.293268 0.197812 0.025 -1.63542e+06
0.297683 0.20079 0.025 -1.95246e+06
0.302119 0.203782 0.025 -1.8614e+06
0.306577 0.206788 0.025 -1.40231e+06
0.311054 0.209808 0.025 -1.60397e+06
0.315549 0.212841 0.025 -1.17865e+06
0.320063 0.215885 0.025 -2.06443e+06
0.324591 0.218939 0.025 -1.44348e+06
0.329134 0.222003 0.025 -1.43242e+06
0.333691 0.225077 0.025 -2.25465e+06
0.33826 0.228159 0.025 -1.8043e+06
0.342839 0.231248 0.025 -1.8557e+06
0.347428 0.234343 0.025 -884608
0.352025 0.237444 0.025 -1.97919e+06
0.356628 0.240548 0.025 -1.4358e+06
0.361237 0.243658 0.025 -1.16721e+06
0.36585 0.246769 0.025 -2.66627e+06
0.370465 0.249882 0.025 -1.02779e+06
0.375082 0.252996 0.025 -1.45738e+06
0.379698 0.25611 0.025 -2.67633e+06
0.384313 0.259223 0.025 -1.36904e+06
0.388926 0.262333 0.025 -1.73836e+06
0.393534 0.265442 0.025 -1.42979e+06
0.398136 0.268546 0.025 -889469
0.40273 0.271645 0.025 -1.6594e+06
0.407317 0.274739 0.025 -1.7157e+06
0.411894 0.277826 0.025 -2.15897e+06
0.41646 0.280906 0.025 -843179
0.421014 0.283977 0.025 -1.62241e+06
0.425554 0.28704 0.025 -1.91971e+06
0.430079 0.290092 0.025 -1.50133e+06
0.434588 0.293133 0.025 -1.86191e+06
0.439079 0.296162 0.025 -1.29605e+06
0.443551 0.299179 0.025 -1.69628e+06
0.448004 0.302183 0.025 -1.72429e+06
0.452437 0.305172 0.025 -1.68016e+06
0.456846 0.308146 0.025 -1.55956e+06
0.461232 0.311105 0.025 -1.58743e+06
0.465593 0.314047 0.025 -1.46772e+06
0.469929 0.316971 0.025 -1.97711e+06
0.474238 0.319878 0.025 -1.00144e+06
0.47852 0.322766 0.025 -1.12644e+06
0.482773 0.325635 0.025 -892803
0.486996 0.328483 0.025 -1.34785e+06
0.491189 0.331311 0.025 -2.0675e+06
0.49535 0.334118 0.025 -1.30447e+06
