# p  FACE_DATA 398
# x  y  z  p
-0.7975 0 0.025 4472.46
-0.79239 0 0.025 3675.78
-0.787056 0 0.025 2940.37
-0.781492 0 0.025 2853.91
-0.775691 0 0.025 2793.49
-0.769649 0 0.025 2785.36
-0.763362 0 0.025 2811.69
-0.756822 0 0.025 2832.1
-0.750025 0 0.025 2849.8
-0.742968 0 0.025 2858.71
-0.735648 0 0.025 2862.99
-0.72806 0 0.025 2865.78
-0.720203 0 0.025 2867.95
-0.712076 0 0.025 2866.49
-0.703677 0 0.025 2865.26
-0.695006 0 0.025 2860.39
-0.686065 0 0.025 2855.83
-0.676855 0 0.025 2851.25
-0.667379 0 0.025 2847.66
-0.65764 0 0.025 2839.23
-0.647644 0 0.025 2833.08
-0.637397 0 0.025 2825.52
-0.626906 0 0.025 2818.52
-0.616179 0 0.025 2811.16
-0.605224 0 0.025 2804.5
-0.594054 0 0.025 2796.39
-0.582678 0 0.025 2789.23
-0.57111 0 0.025 2782.27
-0.559364 0 0.025 2774.93
-0.547454 0 0.025 2768.24
-0.535396 0 0.025 2761.57
-0.523205 0 0.025 2755.17
-0.510901 0 0.025 2749.36
-0.4985 0 0.025 2743.74
-0.486021 0 0.025 2737.74
-0.473483 0 0.025 2732.43
-0.460905 0 0.025 2727.91
-0.448308 0 0.025 2723.37
-0.435709 0 0.025 2717.79
-0.42313 0 0.025 2712.07
-0.41059 0 0.025 2707.83
-0.39811 0 0.025 2707.01
-0.385706 0 0.025 2706.5
-0.373398 0 0.025 2703.78
-0.361205 0 0.025 2697.65
-0.349141 0 0.025 2690.81
-0.337226 0 0.025 2685.57
-0.325475 0 0.025 2682.66
-0.313901 0 0.025 2685.91
-0.30252 0 0.025 2688.57
-0.291343 0 0.025 2689.77
-0.280382 0 0.025 2688.57
-0.269646 0 0.025 2683.9
-0.259148 0 0.025 2676.8
-0.248893 0 0.025 2670.47
-0.23889 0 0.025 2665.75
-0.229143 0 0.025 2663.64
-0.219659 0 0.025 2663.35
-0.210441 0 0.025 2666.81
-0.201491 0 0.025 2671.43
-0.192812 0 0.025 2676.14
-0.184405 0 0.025 2679.4
-0.176269 0 0.025 2681.29
-0.168404 0 0.025 2681.71
-0.160808 0 0.025 2681.03
-0.15348 0 0.025 2677.91
-0.146415 0 0.025 2673.97
-0.13961 0 0.025 2668.73
-0.133063 0 0.025 2663.37
-0.126767 0 0.025 2658.51
-0.120718 0 0.025 2654.43
-0.11491 0 0.025 2651.09
-0.109339 0 0.025 2648.61
-0.103997 0 0.025 2646.87
-0.0988805 0 0.025 2645.83
-0.0939808 0 0.025 2645.46
-0.0892928 0 0.025 2645.4
-0.0848096 0 0.025 2646.44
-0.0805248 0 0.025 2647.94
-0.0764316 0 0.025 2649.98
-0.0725237 0 0.025 2652.41
-0.0687943 0 0.025 2655.06
-0.065237 0 0.025 2657.76
-0.0618454 0 0.025 2660.35
-0.058613 0 0.025 2662.77
-0.0555337 0 0.025 2665
-0.0526013 0 0.025 2666.98
-0.0498099 0 0.025 2668.73
-0.0471536 0 0.025 2670.26
-0.0446266 0 0.025 2671.63
-0.0422235 0 0.025 2672.86
-0.039939 0 0.025 2673.98
-0.0377676 0 0.025 2674.96
-0.0357044 0 0.025 2675.84
-0.0337445 0 0.025 2676.6
-0.0318832 0 0.025 2677.27
-0.0301159 0 0.025 2677.84
-0.0284383 0 0.025 2678.34
-0.0268461 0 0.025 2678.75
-0.0253353 0 0.025 2679.09
-0.023902 0 0.025 2679.37
-0.0225426 0 0.025 2679.61
-0.0212532 0 0.025 2679.79
-0.0200306 0 0.025 2679.95
-0.0188715 0 0.025 2681.69
-0.0177728 0 0.025 2807.34
-0.0167313 0 0.025 4434.25
-0.0157444 0 0.025 7737.46
-0.0148092 0 0.025 9263.66
-0.0139232 0 0.025 9501.15
-0.0130838 0 0.025 9800.87
-0.0122887 0 0.025 10203
-0.0115356 0 0.025 10555.4
-0.0108223 0 0.025 10824.8
-0.0101469 0 0.025 11020
-0.00950727 0 0.025 11168.6
-0.00890168 0 0.025 11284.5
-0.00832835 0 0.025 11370
-0.00778557 0 0.025 11434.4
-0.00727176 0 0.025 11484.6
-0.0067854 0 0.025 11525.4
-0.00632507 0 0.025 11558.5
-0.00588937 0 0.025 11584.5
-0.00547703 0 0.025 11602.4
-0.0050868 0 0.025 11610.1
-0.00471753 0 0.025 11608.8
-0.0043681 0 0.025 11595
-0.00403746 0 0.025 11571.5
-0.00372461 0 0.025 11541.6
-0.0034286 0 0.025 11512.9
-0.00314855 0 0.025 11492.3
-0.0028836 0 0.025 11482.2
-0.00263294 0 0.025 11487.3
-0.00239581 0 0.025 11515.3
-0.0021715 0 0.025 11568
-0.00195929 0 0.025 11649.7
-0.00175856 0 0.025 11762.7
-0.00156869 0 0.025 11891.3
-0.00138908 0 0.025 12050.9
-0.0012192 0 0.025 12236.7
-0.00105853 0 0.025 12445.2
-0.000906546 0 0.025 12671.5
-0.000762803 0 0.025 12907.8
-0.000626848 0 0.025 13143.7
-0.000498265 0 0.025 13361.4
-0.000376656 0 0.025 13534.9
-0.000261642 0 0.025 13638.3
-0.00015287 0 0.025 13658.7
-5e-05 0 0.025 13801.2
4.14519e-05 2.79596e-05 0.025 13076.2
0.000125371 8.45641e-05 0.025 13175.4
0.000211347 0.000142556 0.025 13096.2
0.000299429 0.000201968 0.025 12956
0.000389669 0.000262835 0.025 12793.3
0.000482118 0.000325193 0.025 12629.1
0.000576831 0.000389077 0.025 12470.2
0.000673861 0.000454524 0.025 12322
0.000773265 0.000521574 0.025 12190.8
0.0008751 0.000590262 0.025 12082.4
0.000979426 0.000660632 0.025 12002.5
0.0010863 0.000732721 0.025 11950.8
0.00119579 0.000806572 0.025 11922.3
0.00130795 0.000882227 0.025 11926.8
0.00142285 0.00095973 0.025 11957.5
0.00154056 0.00103912 0.025 12006.3
0.00166115 0.00112046 0.025 12075.2
0.00178467 0.00120378 0.025 12163.2
0.00191121 0.00128913 0.025 12266.9
0.00204083 0.00137656 0.025 12387.1
0.00217362 0.00146612 0.025 12522.8
0.00230964 0.00155787 0.025 12673.3
0.00244897 0.00165185 0.025 12839.2
0.00259169 0.00174812 0.025 13020
0.00273789 0.00184673 0.025 13215.8
0.00288765 0.00194774 0.025 13426.4
0.00304105 0.00205122 0.025 13652.6
0.00319818 0.00215719 0.025 13894.8
0.00335912 0.00226575 0.025 14153.4
0.00352397 0.00237695 0.025 14429.8
0.00369283 0.00249085 0.025 14725.3
0.00386579 0.00260751 0.025 15040.3
0.00404294 0.00272699 0.025 15376.5
0.00422438 0.00284938 0.025 15735.3
0.00441022 0.00297474 0.025 16119
0.00460056 0.00310312 0.025 16528.9
0.00479552 0.00323462 0.025 16968.1
0.00499519 0.0033693 0.025 17438
0.00519968 0.00350723 0.025 17942.1
0.00540911 0.00364849 0.025 18483.4
0.00562361 0.00379318 0.025 19065.6
0.00584329 0.00394134 0.025 19692.4
0.00606826 0.00409309 0.025 20369.5
0.00629865 0.00424849 0.025 21100.2
0.0065346 0.00440764 0.025 21893.3
0.00677623 0.00457063 0.025 22752.2
0.00702368 0.00473753 0.025 23689.2
0.00727707 0.00490844 0.025 24710.9
0.00753655 0.00508347 0.025 25832.6
0.00780227 0.00526269 0.025 27066.5
0.00807436 0.00544622 0.025 28430.2
0.00835298 0.00563415 0.025 29946
0.00863826 0.00582659 0.025 31637
0.00893038 0.00602362 0.025 33531.1
0.00922949 0.00622537 0.025 35664.6
0.00953574 0.00643195 0.025 38077
0.00984929 0.00664345 0.025 40819.9
0.0101703 0.00686 0.025 43948.8
0.0104991 0.00708171 0.025 47539.4
0.0108356 0.00730871 0.025 51607.6
0.0111801 0.0075411 0.025 56191.1
0.0115329 0.00777902 0.025 61309.8
0.011894 0.00802259 0.025 66960.9
0.0122637 0.00827194 0.025 73161.8
0.0126421 0.00852719 0.025 80038.2
0.0130295 0.0087885 0.025 87756.8
0.013426 0.00905597 0.025 96657.6
0.013832 0.00932978 0.025 106959
0.0142475 0.00961003 0.025 118620
0.0146727 0.0098969 0.025 131127
0.0151081 0.0101905 0.025 144255
0.0155536 0.010491 0.025 157398
0.0160097 0.0107986 0.025 169342
0.0164764 0.0111134 0.025 178324
0.016954 0.0114356 0.025 182148
0.0174427 0.0117653 0.025 178212
0.0179429 0.0121026 0.025 170257
0.0184548 0.0124479 0.025 162152
0.0189786 0.0128013 0.025 153728
0.0195146 0.0131628 0.025 145518
0.020063 0.0135327 0.025 138675
0.0206242 0.0139112 0.025 133317
0.0211983 0.0142984 0.025 129358
0.0217857 0.0146947 0.025 126557
0.0223867 0.0151 0.025 125031
0.0230015 0.0155147 0.025 124365
0.0236304 0.0159389 0.025 124541
0.0242738 0.0163729 0.025 125180
0.0249318 0.0168167 0.025 125613
0.025605 0.0172708 0.025 125477
0.0262935 0.0177352 0.025 124935
0.0269977 0.0182102 0.025 124665
0.0277178 0.0186959 0.025 125269
0.0284544 0.0191927 0.025 126259
0.0292075 0.0197008 0.025 126841
0.0299777 0.0202203 0.025 126791
0.0307653 0.0207514 0.025 126567
0.0315704 0.0212945 0.025 126848
0.0323937 0.0218499 0.025 127413
0.0332354 0.0224176 0.025 127730
0.0340959 0.022998 0.025 127728
0.0349755 0.0235913 0.025 127678
0.0358747 0.0241978 0.025 127912
0.0367938 0.0248178 0.025 128100
0.0377331 0.0254513 0.025 127985
0.0386932 0.0260989 0.025 127513
0.0396743 0.0267606 0.025 126890
0.0406769 0.0274369 0.025 126366
0.0417013 0.0281279 0.025 126236
0.042748 0.0288339 0.025 126670
0.0438175 0.0295552 0.025 127146
0.04491 0.0302922 0.025 127101
0.0460262 0.031045 0.025 126557
0.0471662 0.031814 0.025 125850
0.0483306 0.0325995 0.025 125407
0.0495199 0.0334016 0.025 125472
0.0507344 0.0342208 0.025 125716
0.0519746 0.0350573 0.025 125693
0.0532409 0.0359114 0.025 125531
0.0545339 0.0367835 0.025 125207
0.0558538 0.0376739 0.025 125091
0.0572012 0.0385827 0.025 125276
0.0585766 0.0395104 0.025 125634
0.0599804 0.0404573 0.025 125952
0.061413 0.0414236 0.025 126080
0.0628748 0.0424096 0.025 126023
0.0643665 0.0434157 0.025 125873
0.0658883 0.0444422 0.025 125756
0.0674408 0.0454894 0.025 125683
0.0690245 0.0465576 0.025 125789
0.0706398 0.0476471 0.025 125984
0.0722871 0.0487582 0.025 126199
0.0739669 0.0498912 0.025 126376
0.0756797 0.0510466 0.025 126416
0.0774258 0.0522244 0.025 126296
0.0792059 0.053425 0.025 126044
0.0810203 0.0546489 0.025 125802
0.0828694 0.0558961 0.025 125527
0.0847537 0.0571671 0.025 125225
0.0866737 0.0584622 0.025 124844
0.0886298 0.0597816 0.025 124436
0.0906224 0.0611256 0.025 124114
0.0926518 0.0624944 0.025 123960
0.0947185 0.0638884 0.025 124238
0.096823 0.065308 0.025 124800
0.0989659 0.0667532 0.025 125511
0.101147 0.0682245 0.025 125880
0.103367 0.0697219 0.025 126140
0.105626 0.0712458 0.025 126194
0.107926 0.0727965 0.025 125877
0.110265 0.074374 0.025 125594
0.112644 0.0759789 0.025 125014
0.115063 0.0776111 0.025 125331
0.117524 0.0792709 0.025 125254
0.120026 0.0809585 0.025 125334
0.122569 0.0826741 0.025 125814
0.125155 0.0844179 0.025 126077
0.127782 0.0861901 0.025 126360
0.130451 0.0879908 0.025 126634
0.133163 0.08982 0.025 127207
0.135918 0.0916781 0.025 127619
0.138716 0.0935651 0.025 127839
0.141556 0.095481 0.025 127819
0.14444 0.097426 0.025 127511
0.147367 0.0994004 0.025 126514
0.150337 0.101404 0.025 126892
0.153351 0.103437 0.025 126846
0.156408 0.105498 0.025 126006
0.159508 0.107589 0.025 127054
0.162651 0.10971 0.025 126076
0.165838 0.111859 0.025 123793
0.169069 0.114039 0.025 125661
0.172343 0.116247 0.025 124314
0.175659 0.118483 0.025 123953
0.179018 0.120749 0.025 123460
0.182421 0.123045 0.025 122812
0.185866 0.125368 0.025 122487
0.189353 0.12772 0.025 121935
0.192882 0.1301 0.025 121518
0.196453 0.132509 0.025 121388
0.200065 0.134946 0.025 120797
0.203718 0.13741 0.025 120888
0.207412 0.139901 0.025 121492
0.211146 0.14242 0.025 121041
0.214919 0.144965 0.025 120585
0.218732 0.147537 0.025 121093
0.222583 0.150134 0.025 120363
0.226472 0.152757 0.025 121107
0.230399 0.155406 0.025 120371
0.234362 0.15808 0.025 120238
0.238362 0.160777 0.025 119368
0.242396 0.163498 0.025 120081
0.246466 0.166244 0.025 119279
0.250569 0.169012 0.025 120470
0.254706 0.171801 0.025 119897
0.258874 0.174613 0.025 119922
0.263074 0.177446 0.025 119518
0.267304 0.180299 0.025 120131
0.271564 0.183172 0.025 120587
0.275852 0.186064 0.025 120363
0.280168 0.188975 0.025 121311
0.28451 0.191904 0.025 120949
0.288876 0.19485 0.025 120251
0.293268 0.197812 0.025 121160
0.297683 0.20079 0.025 120703
0.302119 0.203782 0.025 119327
0.306577 0.206788 0.025 120525
0.311054 0.209808 0.025 119928
0.315549 0.212841 0.025 120636
0.320063 0.215885 0.025 120100
0.324591 0.218939 0.025 119595
0.329134 0.222003 0.025 120914
0.333691 0.225077 0.025 119770
0.33826 0.228159 0.025 120947
0.342839 0.231248 0.025 120420
0.347428 0.234343 0.025 121246
0.352025 0.237444 0.025 119996
0.356628 0.240548 0.025 120615
0.361237 0.243658 0.025 120832
0.36585 0.246769 0.025 118874
0.370465 0.249882 0.025 121250
0.375082 0.252996 0.025 120407
0.379698 0.25611 0.025 118976
0.384313 0.259223 0.025 120766
0.388926 0.262333 0.025 119809
0.393534 0.265442 0.025 120339
0.398136 0.268546 0.025 120522
0.40273 0.271645 0.025 119718
0.407317 0.274739 0.025 119590
0.411894 0.277826 0.025 119150
0.41646 0.280906 0.025 120759
0.421014 0.283977 0.025 119937
0.425554 0.28704 0.025 119717
0.430079 0.290092 0.025 120325
0.434588 0.293133 0.025 119989
0.439079 0.296162 0.025 120679
0.443551 0.299179 0.025 120178
0.448004 0.302183 0.025 120148
0.452437 0.305172 0.025 120337
0.456846 0.308146 0.025 120654
0.461232 0.311105 0.025 120595
0.465593 0.314047 0.025 120774
0.469929 0.316971 0.025 120133
0.474238 0.319878 0.025 121612
0.47852 0.322766 0.025 121155
0.482773 0.325635 0.025 121086
0.486996 0.328483 0.025 120588
0.491189 0.331311 0.025 119626
0.49535 0.334118 0.025 120766
