# wallHeatFlux  FACE_DATA 398
# x  y  z  wallHeatFlux
-0.7975 0 0.025 -653677
-0.79239 0 0.025 -120230
-0.787056 0 0.025 -70614.3
-0.781492 0 0.025 -65595.1
-0.775691 0 0.025 -67862.8
-0.769649 0 0.025 -69652
-0.763362 0 0.025 -71156.9
-0.756822 0 0.025 -71662.9
-0.750025 0 0.025 -71531.4
-0.742968 0 0.025 -70970.6
-0.735648 0 0.025 -70041.2
-0.72806 0 0.025 -69047.1
-0.720203 0 0.025 -68032.5
-0.712076 0 0.025 -66938.8
-0.703677 0 0.025 -65907.8
-0.695006 0 0.025 -64880.9
-0.686065 0 0.025 -63917.2
-0.676855 0 0.025 -63032.5
-0.667379 0 0.025 -62333.5
-0.65764 0 0.025 -61559.2
-0.647644 0 0.025 -60856.2
-0.637397 0 0.025 -60205.1
-0.626906 0 0.025 -59635.3
-0.616179 0 0.025 -59102.8
-0.605224 0 0.025 -58592.3
-0.594054 0 0.025 -58090.2
-0.582678 0 0.025 -57702.2
-0.57111 0 0.025 -57306.7
-0.559364 0 0.025 -56915.6
-0.547454 0 0.025 -56558.6
-0.535396 0 0.025 -56221.5
-0.523205 0 0.025 -55927.9
-0.510901 0 0.025 -55683
-0.4985 0 0.025 -55454.6
-0.486021 0 0.025 -55219.2
-0.473483 0 0.025 -55008.2
-0.460905 0 0.025 -54820.9
-0.448308 0 0.025 -54680.9
-0.435709 0 0.025 -54549.6
-0.42313 0 0.025 -54420.2
-0.41059 0 0.025 -54332.4
-0.39811 0 0.025 -54296.5
-0.385706 0 0.025 -54269
-0.373398 0 0.025 -54203.7
-0.361205 0 0.025 -54088.8
-0.349141 0 0.025 -53960.5
-0.337226 0 0.025 -53869.7
-0.325475 0 0.025 -53847.9
-0.313901 0 0.025 -53938.6
-0.30252 0 0.025 -54038.8
-0.291343 0 0.025 -54097.3
-0.280382 0 0.025 -54091.3
-0.269646 0 0.025 -53998.3
-0.259148 0 0.025 -53868.3
-0.248893 0 0.025 -53745.7
-0.23889 0 0.025 -53672
-0.229143 0 0.025 -53645.8
-0.219659 0 0.025 -53653.8
-0.210441 0 0.025 -53736.4
-0.201491 0 0.025 -53860.2
-0.192812 0 0.025 -53975.9
-0.184405 0 0.025 -54054.2
-0.176269 0 0.025 -54098.1
-0.168404 0 0.025 -54101.4
-0.160808 0 0.025 -54078.1
-0.15348 0 0.025 -54005
-0.146415 0 0.025 -53906.1
-0.13961 0 0.025 -53784.3
-0.133063 0 0.025 -53654.1
-0.126767 0 0.025 -53541.1
-0.120718 0 0.025 -53444.8
-0.11491 0 0.025 -53370.8
-0.109339 0 0.025 -53313.6
-0.103997 0 0.025 -53276.8
-0.0988805 0 0.025 -53250.5
-0.0939808 0 0.025 -53242.2
-0.0892928 0 0.025 -53230.4
-0.0848096 0 0.025 -53256.1
-0.0805248 0 0.025 -53287.8
-0.0764316 0 0.025 -53330.5
-0.0725237 0 0.025 -53384
-0.0687943 0 0.025 -53443.8
-0.065237 0 0.025 -53497.6
-0.0618454 0 0.025 -53547.2
-0.058613 0 0.025 -53590.5
-0.0555337 0 0.025 -53635.1
-0.0526013 0 0.025 -53668.3
-0.0498099 0 0.025 -53701.8
-0.0471536 0 0.025 -53724.6
-0.0446266 0 0.025 -53747.5
-0.0422235 0 0.025 -53765
-0.039939 0 0.025 -53782.6
-0.0377676 0 0.025 -53799.7
-0.0357044 0 0.025 -53807.4
-0.0337445 0 0.025 -53819.2
-0.0318832 0 0.025 -53826
-0.0301159 0 0.025 -53832.8
-0.0284383 0 0.025 -53834.2
-0.0268461 0 0.025 -53835.7
-0.0253353 0 0.025 -53837.1
-0.023902 0 0.025 -53838.6
-0.0225426 0 0.025 -53834.1
-0.0212532 0 0.025 -53831.7
-0.0200306 0 0.025 -53832.5
-0.0188715 0 0.025 -53866.4
-0.0177728 0 0.025 -56583.9
-0.0167313 0 0.025 -89296.9
-0.0157444 0 0.025 -132917
-0.0148092 0 0.025 -149540
-0.0139232 0 0.025 -137383
-0.0130838 0 0.025 -130534
-0.0122887 0 0.025 -132376
-0.0115356 0 0.025 -135483
-0.0108223 0 0.025 -137339
-0.0101469 0 0.025 -137610
-0.00950727 0 0.025 -137211
-0.00890168 0 0.025 -136481
-0.00832835 0 0.025 -135283
-0.00778557 0 0.025 -133700
-0.00727176 0 0.025 -131871
-0.0067854 0 0.025 -130032
-0.00632507 0 0.025 -128455
-0.00588937 0 0.025 -127368
-0.00547703 0 0.025 -126846
-0.0050868 0 0.025 -126785
-0.00471753 0 0.025 -127344
-0.0043681 0 0.025 -128562
-0.00403746 0 0.025 -130603
-0.00372461 0 0.025 -133380
-0.0034286 0 0.025 -136943
-0.00314855 0 0.025 -141292
-0.0028836 0 0.025 -146290
-0.00263294 0 0.025 -151946
-0.00239581 0 0.025 -158339
-0.0021715 0 0.025 -165547
-0.00195929 0 0.025 -173383
-0.00175856 0 0.025 -181544
-0.00156869 0 0.025 -189766
-0.00138908 0 0.025 -198698
-0.0012192 0 0.025 -208144
-0.00105853 0 0.025 -218050
-0.000906546 0 0.025 -228376
-0.000762803 0 0.025 -239031
-0.000626848 0 0.025 -248979
-0.000498265 0 0.025 -257129
-0.000376656 0 0.025 -260945
-0.000261642 0 0.025 -253417
-0.00015287 0 0.025 -223970
-5e-05 0 0.025 -147328
4.14519e-05 2.79596e-05 0.025 -97108.1
0.000125371 8.45641e-05 0.025 -104066
0.000211347 0.000142556 0.025 -123164
0.000299429 0.000201968 0.025 -136239
0.000389669 0.000262835 0.025 -147206
0.000482118 0.000325193 0.025 -158055
0.000576831 0.000389077 0.025 -168153
0.000673861 0.000454524 0.025 -176820
0.000773265 0.000521574 0.025 -183942
0.0008751 0.000590262 0.025 -189762
0.000979426 0.000660632 0.025 -194590
0.0010863 0.000732721 0.025 -198835
0.00119579 0.000806572 0.025 -202546
0.00130795 0.000882227 0.025 -206188
0.00142285 0.00095973 0.025 -209700
0.00154056 0.00103912 0.025 -213174
0.00166115 0.00112046 0.025 -216655
0.00178467 0.00120378 0.025 -220195
0.00191121 0.00128913 0.025 -223844
0.00204083 0.00137656 0.025 -227549
0.00217362 0.00146612 0.025 -231470
0.00230964 0.00155787 0.025 -235590
0.00244897 0.00165185 0.025 -239905
0.00259169 0.00174812 0.025 -244407
0.00273789 0.00184673 0.025 -249185
0.00288765 0.00194774 0.025 -254239
0.00304105 0.00205122 0.025 -259536
0.00319818 0.00215719 0.025 -265128
0.00335912 0.00226575 0.025 -271115
0.00352397 0.00237695 0.025 -277403
0.00369283 0.00249085 0.025 -284117
0.00386579 0.00260751 0.025 -291203
0.00404294 0.00272699 0.025 -298783
0.00422438 0.00284938 0.025 -306891
0.00441022 0.00297474 0.025 -315540
0.00460056 0.00310312 0.025 -324767
0.00479552 0.00323462 0.025 -334681
0.00499519 0.0033693 0.025 -345441
0.00519968 0.00350723 0.025 -356924
0.00540911 0.00364849 0.025 -369450
0.00562361 0.00379318 0.025 -383037
0.00584329 0.00394134 0.025 -397771
0.00606826 0.00409309 0.025 -414034
0.00629865 0.00424849 0.025 -431697
0.0065346 0.00440764 0.025 -451312
0.00677623 0.00457063 0.025 -472897
0.00702368 0.00473753 0.025 -496772
0.00727707 0.00490844 0.025 -523557
0.00753655 0.00508347 0.025 -553498
0.00780227 0.00526269 0.025 -587280
0.00807436 0.00544622 0.025 -625456
0.00835298 0.00563415 0.025 -668766
0.00863826 0.00582659 0.025 -718088
0.00893038 0.00602362 0.025 -774038
0.00922949 0.00622537 0.025 -837000
0.00953574 0.00643195 0.025 -906075
0.00984929 0.00664345 0.025 -985270
0.0101703 0.00686 0.025 -1.06929e+06
0.0104991 0.00708171 0.025 -1.15688e+06
0.0108356 0.00730871 0.025 -1.24893e+06
0.0111801 0.0075411 0.025 -1.33866e+06
0.0115329 0.00777902 0.025 -1.42459e+06
0.011894 0.00802259 0.025 -1.49999e+06
0.0122637 0.00827194 0.025 -1.56457e+06
0.0126421 0.00852719 0.025 -1.62202e+06
0.0130295 0.0087885 0.025 -1.66895e+06
0.013426 0.00905597 0.025 -1.70741e+06
0.013832 0.00932978 0.025 -1.73931e+06
0.0142475 0.00961003 0.025 -1.76155e+06
0.0146727 0.0098969 0.025 -1.77276e+06
0.0151081 0.0101905 0.025 -1.76725e+06
0.0155536 0.010491 0.025 -1.75156e+06
0.0160097 0.0107986 0.025 -1.7175e+06
0.0164764 0.0111134 0.025 -1.69238e+06
0.016954 0.0114356 0.025 -1.69408e+06
0.0174427 0.0117653 0.025 -1.66399e+06
0.0179429 0.0121026 0.025 -1.63028e+06
0.0184548 0.0124479 0.025 -1.61664e+06
0.0189786 0.0128013 0.025 -1.5785e+06
0.0195146 0.0131628 0.025 -1.53811e+06
0.020063 0.0135327 0.025 -1.508e+06
0.0206242 0.0139112 0.025 -1.45328e+06
0.0211983 0.0142984 0.025 -1.40305e+06
0.0217857 0.0146947 0.025 -1.37192e+06
0.0223867 0.0151 0.025 -1.34992e+06
0.0230015 0.0155147 0.025 -1.33471e+06
0.0236304 0.0159389 0.025 -1.33652e+06
0.0242738 0.0163729 0.025 -1.33063e+06
0.0249318 0.0168167 0.025 -1.33867e+06
0.025605 0.0172708 0.025 -1.3474e+06
0.0262935 0.0177352 0.025 -1.33698e+06
0.0269977 0.0182102 0.025 -1.33054e+06
0.0277178 0.0186959 0.025 -1.33271e+06
0.0284544 0.0191927 0.025 -1.36703e+06
0.0292075 0.0197008 0.025 -1.35662e+06
0.0299777 0.0202203 0.025 -1.34707e+06
0.0307653 0.0207514 0.025 -1.34493e+06
0.0315704 0.0212945 0.025 -1.34044e+06
0.0323937 0.0218499 0.025 -1.34045e+06
0.0332354 0.0224176 0.025 -1.3419e+06
0.0340959 0.022998 0.025 -1.34087e+06
0.0349755 0.0235913 0.025 -1.33224e+06
0.0358747 0.0241978 0.025 -1.34693e+06
0.0367938 0.0248178 0.025 -1.33189e+06
0.0377331 0.0254513 0.025 -1.32131e+06
0.0386932 0.0260989 0.025 -1.30992e+06
0.0396743 0.0267606 0.025 -1.29752e+06
0.0406769 0.0274369 0.025 -1.28633e+06
0.0417013 0.0281279 0.025 -1.27447e+06
0.042748 0.0288339 0.025 -1.27478e+06
0.0438175 0.0295552 0.025 -1.26373e+06
0.04491 0.0302922 0.025 -1.25222e+06
0.0460262 0.031045 0.025 -1.24886e+06
0.0471662 0.031814 0.025 -1.24839e+06
0.0483306 0.0325995 0.025 -1.23291e+06
0.0495199 0.0334016 0.025 -1.23126e+06
0.0507344 0.0342208 0.025 -1.22575e+06
0.0519746 0.0350573 0.025 -1.22375e+06
0.0532409 0.0359114 0.025 -1.22723e+06
0.0545339 0.0367835 0.025 -1.21607e+06
0.0558538 0.0376739 0.025 -1.21297e+06
0.0572012 0.0385827 0.025 -1.21493e+06
0.0585766 0.0395104 0.025 -1.22062e+06
0.0599804 0.0404573 0.025 -1.23349e+06
0.061413 0.0414236 0.025 -1.22484e+06
0.0628748 0.0424096 0.025 -1.2458e+06
0.0643665 0.0434157 0.025 -1.2493e+06
0.0658883 0.0444422 0.025 -1.22629e+06
0.0674408 0.0454894 0.025 -1.22371e+06
0.0690245 0.0465576 0.025 -1.22953e+06
0.0706398 0.0476471 0.025 -1.23021e+06
0.0722871 0.0487582 0.025 -1.23182e+06
0.0739669 0.0498912 0.025 -1.23409e+06
0.0756797 0.0510466 0.025 -1.24705e+06
0.0774258 0.0522244 0.025 -1.26209e+06
0.0792059 0.053425 0.025 -1.25927e+06
0.0810203 0.0546489 0.025 -1.28176e+06
0.0828694 0.0558961 0.025 -1.25909e+06
0.0847537 0.0571671 0.025 -1.29664e+06
0.0866737 0.0584622 0.025 -1.26209e+06
0.0886298 0.0597816 0.025 -1.26494e+06
0.0906224 0.0611256 0.025 -1.27757e+06
0.0926518 0.0624944 0.025 -1.2507e+06
0.0947185 0.0638884 0.025 -1.29272e+06
0.096823 0.065308 0.025 -1.26634e+06
0.0989659 0.0667532 0.025 -1.35184e+06
0.101147 0.0682245 0.025 -1.66045e+06
0.103367 0.0697219 0.025 -1.59603e+06
0.105626 0.0712458 0.025 -1.25223e+06
0.107926 0.0727965 0.025 -1.25861e+06
0.110265 0.074374 0.025 -1.30007e+06
0.112644 0.0759789 0.025 -1.84397e+06
0.115063 0.0776111 0.025 -1.31498e+06
0.117524 0.0792709 0.025 -1.74062e+06
0.120026 0.0809585 0.025 -1.88577e+06
0.122569 0.0826741 0.025 -1.70099e+06
0.125155 0.0844179 0.025 -1.5487e+06
0.127782 0.0861901 0.025 -1.37171e+06
0.130451 0.0879908 0.025 -1.34572e+06
0.133163 0.08982 0.025 -1.33376e+06
0.135918 0.0916781 0.025 -1.31662e+06
0.138716 0.0935651 0.025 -1.32275e+06
0.141556 0.095481 0.025 -1.33707e+06
0.14444 0.097426 0.025 -1.71849e+06
0.147367 0.0994004 0.025 -2.40291e+06
0.150337 0.101404 0.025 -1.79874e+06
0.153351 0.103437 0.025 -1.75991e+06
0.156408 0.105498 0.025 -2.35794e+06
0.159508 0.107589 0.025 -1.17108e+06
0.162651 0.10971 0.025 -1.68856e+06
0.165838 0.111859 0.025 -3.41744e+06
0.169069 0.114039 0.025 -1.78229e+06
0.172343 0.116247 0.025 -2.1125e+06
0.175659 0.118483 0.025 -2.02902e+06
0.179018 0.120749 0.025 -2.04322e+06
0.182421 0.123045 0.025 -2.10665e+06
0.185866 0.125368 0.025 -1.89906e+06
0.189353 0.12772 0.025 -1.92983e+06
0.192882 0.1301 0.025 -2.05048e+06
0.196453 0.132509 0.025 -1.94175e+06
0.200065 0.134946 0.025 -2.32827e+06
0.203718 0.13741 0.025 -2.13764e+06
0.207412 0.139901 0.025 -1.06175e+06
0.211146 0.14242 0.025 -1.14025e+06
0.214919 0.144965 0.025 -1.84463e+06
0.218732 0.147537 0.025 -1.14334e+06
0.222583 0.150134 0.025 -2.14253e+06
0.226472 0.152757 0.025 -1.14813e+06
0.230399 0.155406 0.025 -2.06645e+06
0.234362 0.15808 0.025 -1.9495e+06
0.238362 0.160777 0.025 -2.55917e+06
0.242396 0.163498 0.025 -1.75857e+06
0.246466 0.166244 0.025 -2.49393e+06
0.250569 0.169012 0.025 -1.11189e+06
0.254706 0.171801 0.025 -1.78479e+06
0.258874 0.174613 0.025 -1.7817e+06
0.263074 0.177446 0.025 -2.23776e+06
0.267304 0.180299 0.025 -1.86365e+06
0.271564 0.183172 0.025 -1.1483e+06
0.275852 0.186064 0.025 -1.95308e+06
0.280168 0.188975 0.025 -1.14398e+06
0.28451 0.191904 0.025 -2.02976e+06
0.288876 0.19485 0.025 -2.63701e+06
0.293268 0.197812 0.025 -1.98392e+06
0.297683 0.20079 0.025 -1.69823e+06
0.302119 0.203782 0.025 -2.66185e+06
0.306577 0.206788 0.025 -1.77683e+06
0.311054 0.209808 0.025 -1.96814e+06
0.315549 0.212841 0.025 -1.43738e+06
0.320063 0.215885 0.025 -1.70653e+06
0.324591 0.218939 0.025 -2.3918e+06
0.329134 0.222003 0.025 -1.69244e+06
0.333691 0.225077 0.025 -2.76777e+06
0.33826 0.228159 0.025 -1.86142e+06
0.342839 0.231248 0.025 -2.36888e+06
0.347428 0.234343 0.025 -1.08782e+06
0.352025 0.237444 0.025 -2.34398e+06
0.356628 0.240548 0.025 -1.76142e+06
0.361237 0.243658 0.025 -1.44695e+06
0.36585 0.246769 0.025 -2.99722e+06
0.370465 0.249882 0.025 -1.5446e+06
0.375082 0.252996 0.025 -1.5477e+06
0.379698 0.25611 0.025 -2.94585e+06
0.384313 0.259223 0.025 -1.46579e+06
0.388926 0.262333 0.025 -2.12291e+06
0.393534 0.265442 0.025 -1.77207e+06
0.398136 0.268546 0.025 -1.1155e+06
0.40273 0.271645 0.025 -2.05374e+06
0.407317 0.274739 0.025 -2.14305e+06
0.411894 0.277826 0.025 -2.57339e+06
0.41646 0.280906 0.025 -1.09358e+06
0.421014 0.283977 0.025 -2.03165e+06
0.425554 0.28704 0.025 -2.32237e+06
0.430079 0.290092 0.025 -1.92258e+06
0.434588 0.293133 0.025 -2.29888e+06
0.439079 0.296162 0.025 -1.65297e+06
0.443551 0.299179 0.025 -2.1422e+06
0.448004 0.302183 0.025 -2.17447e+06
0.452437 0.305172 0.025 -2.15321e+06
0.456846 0.308146 0.025 -1.96248e+06
0.461232 0.311105 0.025 -2.00992e+06
0.465593 0.314047 0.025 -1.90139e+06
0.469929 0.316971 0.025 -2.45286e+06
0.474238 0.319878 0.025 -1.29219e+06
0.47852 0.322766 0.025 -1.4553e+06
0.482773 0.325635 0.025 -1.16438e+06
0.486996 0.328483 0.025 -1.74661e+06
0.491189 0.331311 0.025 -2.51601e+06
0.49535 0.334118 0.025 -1.48693e+06
