# p  FACE_DATA 317
# x  y  z  p
-2.24217 0 0.27 23911.1
-2.12942 0 0.27 23883.1
-2.02231 0 0.27 23856.4
-1.92055 0 0.27 23846
-1.82389 0 0.27 23843.4
-1.73207 0 0.27 23838.4
-1.64485 0 0.27 23830.7
-1.562 0 0.27 23826.1
-1.48331 0 0.27 23825.8
-1.40856 0 0.27 23823.7
-1.33756 0 0.27 23815.8
-1.27013 0 0.27 23801.8
-1.20608 0 0.27 23783.3
-1.14539 0 0.27 23761.9
-1.08787 0 0.27 23742.4
-1.03323 0 0.27 23725.2
-0.981322 0 0.27 23710.2
-0.932014 0 0.27 23698.1
-0.885173 0 0.27 23688.9
-0.84068 0 0.27 23682
-0.798416 0 0.27 23677.2
-0.758473 0 0.27 23674.1
-0.720912 0 0.27 23672.5
-0.685558 0 0.27 23671.8
-0.652245 0 0.27 23671.7
-0.620811 0 0.27 23671.7
-0.591171 0 0.27 23671.6
-0.563165 0 0.27 23671.8
-0.536572 0 0.27 23672.7
-0.51125 0 0.27 23674.3
-0.487059 0 0.27 23676.6
-0.463863 0 0.27 23680
-0.441526 0 0.27 23684.4
-0.419915 0 0.27 23689.5
-0.398896 0 0.27 23695.1
-0.378338 0 0.27 23700.9
-0.358104 0 0.27 23706.6
-0.33806 0 0.27 23710.1
-0.318069 0 0.27 23738.1
-0.296809 0 0.27 23756.1
-0.275112 0 0.27 23738.6
-0.255001 0 0.27 23734.7
-0.23636 0 0.27 23762.4
-0.219081 0 0.27 23753.6
-0.203066 0 0.27 23731.1
-0.188221 0 0.27 23728.8
-0.174462 0 0.27 23726.3
-0.161708 0 0.27 23726.4
-0.149886 0 0.27 23727.3
-0.138929 0 0.27 23726.7
-0.128773 0 0.27 23727.1
-0.119359 0 0.27 23726.3
-0.110632 0 0.27 23726.3
-0.102544 0 0.27 23726.3
-0.0950472 0 0.27 23726.9
-0.0880983 0 0.27 23727
-0.0816572 0 0.27 23727
-0.0756869 0 0.27 23727.9
-0.070153 0 0.27 23725.7
-0.0650234 0 0.27 23757.6
-0.0602687 0 0.27 25192.7
-0.0558616 0 0.27 32950.6
-0.0517765 0 0.27 41893.1
-0.0479899 0 0.27 45333.9
-0.04448 0 0.27 47544.1
-0.0412265 0 0.27 49130.6
-0.0382106 0 0.27 50179.5
-0.0354151 0 0.27 51074.7
-0.0328237 0 0.27 51859.2
-0.0304215 0 0.27 52491.9
-0.0281948 0 0.27 53064.5
-0.0261306 0 0.27 53575.8
-0.0242171 0 0.27 54036.9
-0.0224431 0 0.27 54449.6
-0.0207985 0 0.27 54823.2
-0.0192738 0 0.27 55162.3
-0.0178602 0 0.27 55470.4
-0.0165496 0 0.27 55751.1
-0.0153345 0 0.27 56006.3
-0.0142077 0 0.27 56238.3
-0.0131629 0 0.27 56450.2
-0.0121939 0 0.27 56644.1
-0.0112952 0 0.27 56822.1
-0.0104616 0 0.27 56986.1
-0.0096884 0 0.27 57138.1
-0.00897103 0 0.27 57279.4
-0.00830536 0 0.27 57411.5
-0.00768758 0 0.27 57535.4
-0.0071141 0 0.27 57652
-0.00658165 0 0.27 57761.5
-0.00608714 0 0.27 57865.5
-0.00562772 0 0.27 57963.7
-0.00520074 0 0.27 58056.7
-0.00480375 0 0.27 58144.9
-0.00443446 0 0.27 58228.4
-0.00409073 0 0.27 58307.5
-0.00377059 0 0.27 58382.3
-0.00347218 0 0.27 58453
-0.00319379 0 0.27 58524.5
-0.00293381 0 0.27 58587.3
-0.00269075 0 0.27 58647.8
-0.00246319 0 0.27 58705
-0.00224984 0 0.27 58759.3
-0.00204945 0 0.27 58810.5
-0.00186089 0 0.27 58859.1
-0.00168306 0 0.27 58904.7
-0.00151492 0 0.27 58948
-0.00135552 0 0.27 58988.3
-0.00120394 0 0.27 59026.8
-0.00105929 0 0.27 59061.8
-0.000920752 0 0.27 59095.4
-0.000787523 0 0.27 59125.1
-0.000658834 0 0.27 59152.3
-0.000533942 0 0.27 59175.5
-0.000412129 0 0.27 59192.2
-0.000292693 0 0.27 59208.3
-0.000174943 0 0.27 59187.5
-5.82025e-05 0 0.27 59390.8
6.0278e-05 2.68374e-05 0.27 58665.8
0.000182584 8.12915e-05 0.27 58890.7
0.000308438 0.000137325 0.27 58848
0.000437939 0.000194983 0.27 58833.4
0.00057119 0.00025431 0.27 58819.8
0.000708293 0.000315353 0.27 58819.4
0.000849358 0.000378158 0.27 58828.7
0.000994492 0.000442776 0.27 58842.8
0.00114381 0.000509256 0.27 58864.3
0.00129743 0.000577649 0.27 58889
0.00145545 0.000648007 0.27 58919.2
0.00161801 0.000720386 0.27 58952.4
0.00178523 0.000794839 0.27 58990.1
0.00195724 0.000871423 0.27 59030.6
0.00213417 0.000950195 0.27 59075
0.00231614 0.00103122 0.27 59122.2
0.0025033 0.00111455 0.27 59173
0.00269579 0.00120024 0.27 59226.7
0.00289374 0.00128838 0.27 59283.6
0.00309731 0.00137901 0.27 59343.6
0.00330663 0.00147221 0.27 59407
0.00352187 0.00156804 0.27 59474.4
0.00374317 0.00166657 0.27 59543.8
0.0039707 0.00176788 0.27 59616.4
0.00420463 0.00187202 0.27 59692.3
0.00444512 0.0019791 0.27 59771.4
0.00469233 0.00208916 0.27 59854
0.00494645 0.0022023 0.27 59940
0.00520763 0.00231859 0.27 60029.5
0.00547608 0.00243811 0.27 60122.5
0.00575197 0.00256094 0.27 60219.1
0.00603549 0.00268717 0.27 60319.4
0.00632683 0.00281688 0.27 60423.5
0.00662618 0.00295016 0.27 60531.4
0.00693375 0.0030871 0.27 60643.3
0.00724974 0.0032278 0.27 60759.2
0.00757435 0.00337232 0.27 60879.2
0.0079078 0.00352077 0.27 61003.6
0.00825029 0.00367327 0.27 61132.3
0.00860204 0.00382988 0.27 61265.7
0.00896328 0.00399071 0.27 61403.8
0.00933422 0.00415586 0.27 61546.7
0.0097151 0.00432544 0.27 61694.6
0.0101061 0.00449954 0.27 61847.7
0.0105076 0.00467828 0.27 62006.3
0.0109197 0.00486175 0.27 62170.6
0.0113426 0.00505007 0.27 62340.9
0.0117768 0.00524333 0.27 62517.2
0.0122222 0.00544166 0.27 62700.1
0.0126792 0.00564515 0.27 62889.5
0.0131482 0.00585394 0.27 63085.9
0.0136292 0.00606812 0.27 63289.3
0.0141227 0.00628781 0.27 63500.5
0.0146288 0.00651313 0.27 63719.4
0.0151477 0.00674419 0.27 63946.3
0.0156799 0.00698113 0.27 64181.6
0.0162254 0.00722403 0.27 64425.3
0.0167847 0.00747303 0.27 64677.9
0.017358 0.00772826 0.27 64939.6
0.0179454 0.00798982 0.27 65210.8
0.0185474 0.00825783 0.27 65491.4
0.0191641 0.00853242 0.27 65781.9
0.0197959 0.00881371 0.27 66082.2
0.0204431 0.00910183 0.27 66392.5
0.0211057 0.00939688 0.27 66712.8
0.0217843 0.00969898 0.27 67043.1
0.0224789 0.0100083 0.27 67383.6
0.02319 0.0103248 0.27 67734.3
0.0239176 0.0106488 0.27 68095.7
0.0246623 0.0109804 0.27 68467.3
0.025424 0.0113195 0.27 68849.5
0.0262032 0.0116664 0.27 69242.5
0.0270001 0.0120212 0.27 69646.1
0.0278149 0.012384 0.27 70060.2
0.0286479 0.0127549 0.27 70485.2
0.0294992 0.0131339 0.27 70920.1
0.0303692 0.0135212 0.27 71365.4
0.0312581 0.013917 0.27 71820.4
0.0321659 0.0143213 0.27 72284.9
0.0330931 0.014734 0.27 72759.1
0.0340398 0.0151555 0.27 73242.9
0.0350062 0.0155858 0.27 73736.2
0.0359924 0.0160249 0.27 74239
0.0369987 0.0164729 0.27 74752.2
0.0380251 0.0169299 0.27 75274
0.0390719 0.0173959 0.27 75804.8
0.0401391 0.0178711 0.27 76344.4
0.041227 0.0183554 0.27 76890.9
0.0423356 0.018849 0.27 77445.8
0.043465 0.0193519 0.27 78008.3
0.0446154 0.0198641 0.27 78576
0.0457867 0.0203856 0.27 79149.3
0.046979 0.0209164 0.27 79725.6
0.0481924 0.0214567 0.27 80304.5
0.0494267 0.0220063 0.27 80883.6
0.0506823 0.0225652 0.27 81460.8
0.0519588 0.0231335 0.27 82034.4
0.0532563 0.0237113 0.27 82601.1
0.0545749 0.0242983 0.27 83159.9
0.0559142 0.0248946 0.27 83707.3
0.0572744 0.0255002 0.27 84242.7
0.0586552 0.0261149 0.27 84764.2
0.0600565 0.0267388 0.27 85272.5
0.0614781 0.0273718 0.27 85767.9
0.0629198 0.0280137 0.27 86250.8
0.0643815 0.0286645 0.27 86724.6
0.0658629 0.029324 0.27 87189.5
0.0673636 0.0299922 0.27 87649.1
0.0688836 0.030669 0.27 88104.3
0.0704223 0.0313541 0.27 88557
0.0719795 0.0320474 0.27 89010.5
0.0735549 0.0327488 0.27 89464
0.075148 0.0334581 0.27 89918
0.0767585 0.0341751 0.27 90372.7
0.0783859 0.0348996 0.27 90825.8
0.0800297 0.0356315 0.27 91278.2
0.0816895 0.0363706 0.27 91729.1
0.0833647 0.0371164 0.27 92170.6
0.085055 0.0378689 0.27 92602.5
0.0867595 0.0386278 0.27 93015.4
0.0884779 0.0393929 0.27 93405.4
0.0902095 0.0401639 0.27 93769.9
0.0919538 0.0409405 0.27 94106.3
0.09371 0.0417224 0.27 94413.3
0.0954776 0.0425094 0.27 94693.4
0.0972558 0.0433011 0.27 94951.2
0.0990439 0.0440972 0.27 95190.5
0.100841 0.0448975 0.27 95409.5
0.102647 0.0457015 0.27 95610.8
0.104461 0.046509 0.27 95817.4
0.106282 0.0473197 0.27 96012.6
0.108109 0.0481331 0.27 96223.2
0.109941 0.048949 0.27 96428.8
0.111779 0.0497671 0.27 96631.9
0.11362 0.0505868 0.27 96843.1
0.115464 0.051408 0.27 97091
0.117311 0.0522302 0.27 97328.4
0.11916 0.0530531 0.27 97559.1
0.121009 0.0538763 0.27 97839.8
0.122857 0.0546995 0.27 98102.9
0.124705 0.0555223 0.27 98350.1
0.126552 0.0563444 0.27 98598
0.128395 0.0571653 0.27 98837.2
0.130236 0.0579847 0.27 99061.9
0.132072 0.0588023 0.27 99269.7
0.133904 0.0596177 0.27 99459.2
0.13573 0.0604306 0.27 99614.8
0.137549 0.0612407 0.27 99729.4
0.139361 0.0620475 0.27 99826
0.141165 0.0628508 0.27 99879.8
0.14296 0.0636503 0.27 99975
0.144747 0.0644455 0.27 100051
0.146523 0.0652363 0.27 100102
0.148288 0.0660222 0.27 100146
0.150042 0.0668031 0.27 100173
0.151784 0.0675785 0.27 100232
0.153513 0.0683483 0.27 100249
0.155228 0.0691121 0.27 100282
0.15693 0.0698698 0.27 100349
0.158617 0.070621 0.27 100406
0.160289 0.0713654 0.27 100492
0.161946 0.072103 0.27 100570
0.163586 0.0728334 0.27 100651
0.165211 0.0735564 0.27 100757
0.166817 0.0742718 0.27 100863
0.168406 0.0749795 0.27 100984
0.169978 0.0756793 0.27 101112
0.171532 0.0763709 0.27 101219
0.173067 0.0770543 0.27 101328
0.174583 0.0777293 0.27 101421
0.17608 0.0783958 0.27 101544
0.177557 0.0790535 0.27 101682
0.179014 0.0797025 0.27 101737
0.180452 0.0803425 0.27 101800
0.18187 0.0809736 0.27 101917
0.183266 0.0815956 0.27 102039
0.184643 0.0822085 0.27 102198
0.185999 0.0828122 0.27 102330
0.187334 0.0834066 0.27 102458
0.188648 0.0839917 0.27 102623
0.189942 0.0845675 0.27 102769
0.191214 0.0851339 0.27 102975
0.192465 0.085691 0.27 103144
0.193695 0.0862387 0.27 103352
0.194904 0.086777 0.27 103579
0.196093 0.0873059 0.27 103806
0.197259 0.0878254 0.27 104031
0.198405 0.0883357 0.27 104267
0.19953 0.0888366 0.27 104531
0.200635 0.0893284 0.27 104829
0.201718 0.0898108 0.27 105093
0.202782 0.0902841 0.27 105348
0.203824 0.0907483 0.27 105604
0.204846 0.0912035 0.27 105818
0.205848 0.0916496 0.27 106042
0.206831 0.0920869 0.27 106279
0.207793 0.0925153 0.27 106485
0.208735 0.092935 0.27 106716
0.209658 0.093346 0.27 106601
