/*--------------------------------*- C++ -*----------------------------------*\
| =========                 |                                                 |
| \\      /  F ield         | OpenFOAM: The Open Source CFD Toolbox           |
|  \\    /   O peration     | Version:  v2012                                 |
|   \\  /    A nd           | Website:  www.openfoam.com                      |
|    \\/     M anipulation  |                                                 |
\*---------------------------------------------------------------------------*/
FoamFile
{
    version     2.0;
    format      ascii;
    class       volScalarField;
    location    "15001";
    object      alphat;
}
// * * * * * * * * * * * * * * * * * * * * * * * * * * * * * * * * * * * * * //

dimensions      [1 -1 -1 0 0 0 0];


internalField   nonuniform List<scalar> 
294912
(
1.80302e-05
1.68563e-05
1.80301e-05
1.80321e-05
1.59347e-05
1.68548e-05
1.68442e-05
1.80301e-05
1.8032e-05
1.80335e-05
1.51372e-05
1.59264e-05
1.58357e-05
1.68532e-05
1.68423e-05
1.68242e-05
1.80302e-05
1.80319e-05
1.80333e-05
1.80346e-05
1.45248e-05
1.51216e-05
1.4974e-05
1.59182e-05
1.58268e-05
1.57194e-05
1.68516e-05
1.68403e-05
1.68219e-05
1.67938e-05
1.80305e-05
1.80319e-05
1.80331e-05
1.80343e-05
1.80355e-05
1.41116e-05
1.45078e-05
1.43828e-05
1.51067e-05
1.49601e-05
1.48312e-05
1.59082e-05
1.58182e-05
1.57106e-05
1.5597e-05
1.68504e-05
1.68377e-05
1.68195e-05
1.67913e-05
1.67523e-05
1.80311e-05
1.8032e-05
1.80329e-05
1.8034e-05
1.80352e-05
1.80362e-05
1.38487e-05
1.40976e-05
1.40287e-05
1.44917e-05
1.43702e-05
1.4296e-05
1.50888e-05
1.49471e-05
1.48201e-05
1.47255e-05
1.58958e-05
1.58069e-05
1.57024e-05
1.55891e-05
1.54826e-05
1.68497e-05
1.68344e-05
1.68157e-05
1.67886e-05
1.67496e-05
1.67007e-05
1.80319e-05
1.80323e-05
1.80327e-05
1.80336e-05
1.80348e-05
1.80359e-05
1.80367e-05
1.3683e-05
1.38388e-05
1.38226e-05
1.40844e-05
1.402e-05
1.40078e-05
1.4473e-05
1.43585e-05
1.42879e-05
1.42635e-05
1.50665e-05
1.4931e-05
1.481e-05
1.47177e-05
1.46638e-05
1.58823e-05
1.57915e-05
1.56909e-05
1.5582e-05
1.5476e-05
1.53876e-05
1.68495e-05
1.68309e-05
1.68101e-05
1.6784e-05
1.6747e-05
1.6698e-05
1.66426e-05
1.80327e-05
1.80327e-05
1.80326e-05
1.80331e-05
1.80342e-05
1.80355e-05
1.80363e-05
1.80364e-05
1.35777e-05
1.36768e-05
1.36998e-05
1.38295e-05
1.38175e-05
1.38495e-05
1.40695e-05
1.4012e-05
1.40034e-05
1.40329e-05
1.44505e-05
1.43447e-05
1.42806e-05
1.42592e-05
1.42748e-05
1.50418e-05
1.49099e-05
1.47972e-05
1.47108e-05
1.46591e-05
1.46429e-05
1.58672e-05
1.57734e-05
1.56743e-05
1.55718e-05
1.54705e-05
1.53828e-05
1.53186e-05
1.68495e-05
1.6827e-05
1.68034e-05
1.67766e-05
1.6742e-05
1.66956e-05
1.66401e-05
1.65829e-05
1.80337e-05
1.80332e-05
1.80324e-05
1.80326e-05
1.80334e-05
1.80347e-05
1.80358e-05
1.8036e-05
1.8035e-05
1.35107e-05
1.35744e-05
1.36244e-05
1.3671e-05
1.36974e-05
1.37574e-05
1.38192e-05
1.38128e-05
1.38478e-05
1.39092e-05
1.40521e-05
1.40027e-05
1.39994e-05
1.40314e-05
1.40879e-05
1.4426e-05
1.43274e-05
1.42717e-05
1.42554e-05
1.42733e-05
1.43161e-05
1.50147e-05
1.48857e-05
1.47798e-05
1.47021e-05
1.46552e-05
1.46407e-05
1.46531e-05
1.58503e-05
1.57525e-05
1.56539e-05
1.55562e-05
1.54628e-05
1.53791e-05
1.53156e-05
1.52758e-05
1.68494e-05
1.68227e-05
1.67955e-05
1.67671e-05
1.67333e-05
1.66908e-05
1.66382e-05
1.65808e-05
1.65267e-05
1.80347e-05
1.80337e-05
1.80323e-05
1.8032e-05
1.80325e-05
1.80335e-05
1.80347e-05
1.80355e-05
1.80347e-05
1.80322e-05
1.34694e-05
1.35097e-05
1.35781e-05
1.35713e-05
1.3624e-05
1.37012e-05
1.36646e-05
1.36953e-05
1.37574e-05
1.3836e-05
1.38075e-05
1.38075e-05
1.38463e-05
1.39095e-05
1.3986e-05
1.40336e-05
1.39915e-05
1.39946e-05
1.40303e-05
1.40884e-05
1.41593e-05
1.43999e-05
1.43082e-05
1.42602e-05
1.42507e-05
1.42721e-05
1.43164e-05
1.43745e-05
1.49851e-05
1.48586e-05
1.47593e-05
1.46897e-05
1.46503e-05
1.46391e-05
1.46527e-05
1.46835e-05
1.58313e-05
1.57285e-05
1.56298e-05
1.55366e-05
1.54502e-05
1.53743e-05
1.53136e-05
1.52744e-05
1.52553e-05
1.6849e-05
1.68175e-05
1.67862e-05
1.67557e-05
1.67219e-05
1.66819e-05
1.66342e-05
1.65794e-05
1.65251e-05
1.64777e-05
1.80357e-05
1.80343e-05
1.80322e-05
1.80313e-05
1.80314e-05
1.80321e-05
1.8033e-05
1.8034e-05
1.80342e-05
1.8032e-05
1.80283e-05
1.34467e-05
1.34701e-05
1.35517e-05
1.35087e-05
1.35792e-05
1.36673e-05
1.35679e-05
1.36237e-05
1.37024e-05
1.37906e-05
1.36573e-05
1.36927e-05
1.37576e-05
1.38374e-05
1.3924e-05
1.37952e-05
1.3801e-05
1.38443e-05
1.391e-05
1.39875e-05
1.40708e-05
1.40143e-05
1.39793e-05
1.39884e-05
1.40286e-05
1.4089e-05
1.41608e-05
1.42378e-05
1.43723e-05
1.42876e-05
1.42472e-05
1.42443e-05
1.42705e-05
1.4317e-05
1.43758e-05
1.44398e-05
1.49528e-05
1.48287e-05
1.47361e-05
1.46748e-05
1.46429e-05
1.46373e-05
1.46529e-05
1.46844e-05
1.47241e-05
1.58096e-05
1.57013e-05
1.56019e-05
1.55129e-05
1.54338e-05
1.5366e-05
1.53117e-05
1.52739e-05
1.52552e-05
1.52509e-05
1.6848e-05
1.68115e-05
1.67754e-05
1.6742e-05
1.67078e-05
1.66698e-05
1.66263e-05
1.65769e-05
1.65243e-05
1.64767e-05
1.6438e-05
1.80367e-05
1.80349e-05
1.80321e-05
1.80306e-05
1.80302e-05
1.80304e-05
1.80309e-05
1.80315e-05
1.80323e-05
1.80315e-05
1.80281e-05
1.80239e-05
1.34383e-05
1.34488e-05
1.35405e-05
1.34708e-05
1.3554e-05
1.36496e-05
1.35074e-05
1.35803e-05
1.36696e-05
1.37632e-05
1.35639e-05
1.36231e-05
1.37038e-05
1.37928e-05
1.38843e-05
1.36498e-05
1.36895e-05
1.37574e-05
1.38389e-05
1.39262e-05
1.40145e-05
1.37827e-05
1.37942e-05
1.38415e-05
1.391e-05
1.39892e-05
1.40729e-05
1.41577e-05
1.39946e-05
1.39666e-05
1.39816e-05
1.4026e-05
1.40893e-05
1.41626e-05
1.42399e-05
1.4317e-05
1.43433e-05
1.42655e-05
1.4233e-05
1.42367e-05
1.42677e-05
1.43173e-05
1.43775e-05
1.44419e-05
1.45048e-05
1.49178e-05
1.47961e-05
1.47103e-05
1.46575e-05
1.46336e-05
1.4634e-05
1.46533e-05
1.46858e-05
1.47259e-05
1.47678e-05
1.57851e-05
1.56707e-05
1.55704e-05
1.54854e-05
1.54136e-05
1.53543e-05
1.53078e-05
1.52746e-05
1.52559e-05
1.52519e-05
1.52566e-05
1.68462e-05
1.68043e-05
1.67628e-05
1.67262e-05
1.6691e-05
1.66546e-05
1.66151e-05
1.65714e-05
1.65238e-05
1.64765e-05
1.64375e-05
1.64073e-05
1.80375e-05
1.80355e-05
1.8032e-05
1.80298e-05
1.80288e-05
1.80286e-05
1.80285e-05
1.80284e-05
1.80287e-05
1.80292e-05
1.80278e-05
1.8024e-05
1.80204e-05
1.34417e-05
1.34417e-05
1.3542e-05
1.34509e-05
1.35439e-05
1.36452e-05
1.34713e-05
1.35564e-05
1.36528e-05
1.375e-05
1.35059e-05
1.35812e-05
1.36719e-05
1.37662e-05
1.38599e-05
1.35598e-05
1.36221e-05
1.37049e-05
1.37951e-05
1.3887e-05
1.3977e-05
1.36424e-05
1.36862e-05
1.37568e-05
1.38402e-05
1.39285e-05
1.40171e-05
1.4105e-05
1.37701e-05
1.37872e-05
1.38385e-05
1.39096e-05
1.39905e-05
1.40753e-05
1.41601e-05
1.42436e-05
1.39743e-05
1.39535e-05
1.39745e-05
1.4023e-05
1.4089e-05
1.41641e-05
1.42423e-05
1.43194e-05
1.4392e-05
1.43129e-05
1.42424e-05
1.42178e-05
1.42284e-05
1.42644e-05
1.43171e-05
1.43791e-05
1.44442e-05
1.45073e-05
1.45648e-05
1.48801e-05
1.47612e-05
1.46823e-05
1.46383e-05
1.46227e-05
1.46296e-05
1.46531e-05
1.46877e-05
1.47281e-05
1.47702e-05
1.48095e-05
1.57574e-05
1.56367e-05
1.55353e-05
1.54543e-05
1.53898e-05
1.53394e-05
1.53013e-05
1.52748e-05
1.52587e-05
1.52535e-05
1.52583e-05
1.52673e-05
1.68432e-05
1.67957e-05
1.67484e-05
1.67079e-05
1.66714e-05
1.66363e-05
1.66005e-05
1.65626e-05
1.65217e-05
1.64783e-05
1.64378e-05
1.64073e-05
1.63842e-05
1.80382e-05
1.80359e-05
1.80318e-05
1.80289e-05
1.80273e-05
1.80264e-05
1.80257e-05
1.80249e-05
1.80244e-05
1.80248e-05
1.80254e-05
1.80237e-05
1.80205e-05
1.80188e-05
1.34548e-05
1.34459e-05
1.35546e-05
1.34449e-05
1.35462e-05
1.36528e-05
1.34529e-05
1.35473e-05
1.36492e-05
1.37495e-05
1.34716e-05
1.35586e-05
1.36561e-05
1.37537e-05
1.38485e-05
1.35042e-05
1.35819e-05
1.36741e-05
1.37693e-05
1.38631e-05
1.39535e-05
1.35558e-05
1.36211e-05
1.37057e-05
1.37972e-05
1.38899e-05
1.398e-05
1.40686e-05
1.3635e-05
1.36828e-05
1.3756e-05
1.38411e-05
1.39305e-05
1.40199e-05
1.41076e-05
1.41943e-05
1.37576e-05
1.37802e-05
1.38355e-05
1.39091e-05
1.39916e-05
1.40774e-05
1.41629e-05
1.4246e-05
1.43249e-05
1.39538e-05
1.39402e-05
1.39671e-05
1.40199e-05
1.40886e-05
1.41652e-05
1.42445e-05
1.43222e-05
1.43946e-05
1.44592e-05
1.42815e-05
1.42185e-05
1.42019e-05
1.42195e-05
1.42605e-05
1.43165e-05
1.43805e-05
1.44466e-05
1.45101e-05
1.45676e-05
1.46177e-05
1.48398e-05
1.4724e-05
1.46524e-05
1.46173e-05
1.46102e-05
1.46239e-05
1.46522e-05
1.46896e-05
1.4731e-05
1.47729e-05
1.48123e-05
1.48467e-05
1.57262e-05
1.55993e-05
1.54968e-05
1.542e-05
1.53629e-05
1.53214e-05
1.52923e-05
1.52731e-05
1.52621e-05
1.52578e-05
1.52607e-05
1.52696e-05
1.52798e-05
1.68387e-05
1.67855e-05
1.6732e-05
1.66874e-05
1.66492e-05
1.6615e-05
1.65828e-05
1.65506e-05
1.65167e-05
1.64802e-05
1.64418e-05
1.64081e-05
1.63847e-05
1.6367e-05
1.80386e-05
1.80363e-05
1.80315e-05
1.80279e-05
1.80256e-05
1.80241e-05
1.80226e-05
1.80208e-05
1.80195e-05
1.80195e-05
1.80209e-05
1.80218e-05
1.80203e-05
1.80189e-05
1.80188e-05
1.3476e-05
1.34595e-05
1.35769e-05
1.34501e-05
1.35593e-05
1.36716e-05
1.34481e-05
1.35506e-05
1.36573e-05
1.37611e-05
1.34547e-05
1.35508e-05
1.36534e-05
1.37537e-05
1.38498e-05
1.34719e-05
1.35607e-05
1.36593e-05
1.37575e-05
1.38522e-05
1.39427e-05
1.35027e-05
1.35826e-05
1.36761e-05
1.37722e-05
1.38665e-05
1.39569e-05
1.40447e-05
1.3552e-05
1.36201e-05
1.37064e-05
1.3799e-05
1.38925e-05
1.39832e-05
1.40714e-05
1.41593e-05
1.36278e-05
1.36795e-05
1.37552e-05
1.38419e-05
1.39323e-05
1.40224e-05
1.41106e-05
1.41967e-05
1.42805e-05
1.37452e-05
1.37733e-05
1.38324e-05
1.39085e-05
1.39925e-05
1.40793e-05
1.41654e-05
1.42489e-05
1.43273e-05
1.43979e-05
1.39332e-05
1.39267e-05
1.39595e-05
1.40166e-05
1.4088e-05
1.41663e-05
1.42465e-05
1.43247e-05
1.43976e-05
1.44619e-05
1.45174e-05
1.42491e-05
1.41939e-05
1.41855e-05
1.421e-05
1.42563e-05
1.43157e-05
1.43817e-05
1.44489e-05
1.45129e-05
1.45707e-05
1.46206e-05
1.46623e-05
1.47971e-05
1.46851e-05
1.46211e-05
1.45951e-05
1.45964e-05
1.46172e-05
1.46505e-05
1.4691e-05
1.47342e-05
1.47764e-05
1.48154e-05
1.48497e-05
1.48783e-05
1.56915e-05
1.55587e-05
1.54554e-05
1.53829e-05
1.53334e-05
1.53009e-05
1.52808e-05
1.52694e-05
1.52643e-05
1.52635e-05
1.52659e-05
1.52725e-05
1.52825e-05
1.5292e-05
1.68324e-05
1.67735e-05
1.67136e-05
1.66644e-05
1.66243e-05
1.6591e-05
1.65621e-05
1.65356e-05
1.65088e-05
1.64798e-05
1.64477e-05
1.64139e-05
1.63859e-05
1.63677e-05
1.63538e-05
1.80387e-05
1.80364e-05
1.80311e-05
1.80268e-05
1.80238e-05
1.80215e-05
1.80191e-05
1.80163e-05
1.80139e-05
1.80132e-05
1.80151e-05
1.80182e-05
1.80195e-05
1.80186e-05
1.8019e-05
1.80199e-05
1.35038e-05
1.34808e-05
1.3608e-05
1.34644e-05
1.35817e-05
1.37011e-05
1.34544e-05
1.35644e-05
1.36763e-05
1.37851e-05
1.34513e-05
1.35552e-05
1.36624e-05
1.37656e-05
1.38646e-05
1.34565e-05
1.35542e-05
1.36578e-05
1.37583e-05
1.38538e-05
1.39453e-05
1.34721e-05
1.35627e-05
1.36625e-05
1.37615e-05
1.38563e-05
1.39465e-05
1.40335e-05
1.35012e-05
1.35832e-05
1.3678e-05
1.3775e-05
1.38699e-05
1.39606e-05
1.40477e-05
1.41357e-05
1.35483e-05
1.36192e-05
1.37072e-05
1.38008e-05
1.3895e-05
1.39861e-05
1.40746e-05
1.41616e-05
1.4249e-05
1.36208e-05
1.36764e-05
1.37546e-05
1.38427e-05
1.39341e-05
1.40248e-05
1.41133e-05
1.41997e-05
1.42826e-05
1.43595e-05
1.37329e-05
1.37664e-05
1.38294e-05
1.39079e-05
1.39935e-05
1.40811e-05
1.41677e-05
1.42515e-05
1.43302e-05
1.44004e-05
1.44611e-05
1.39125e-05
1.39133e-05
1.39519e-05
1.40133e-05
1.40875e-05
1.41674e-05
1.42485e-05
1.43272e-05
1.44003e-05
1.4465e-05
1.45202e-05
1.45655e-05
1.42162e-05
1.4169e-05
1.41688e-05
1.42003e-05
1.42517e-05
1.43147e-05
1.43828e-05
1.44511e-05
1.45156e-05
1.45737e-05
1.46238e-05
1.46653e-05
1.46989e-05
1.47524e-05
1.46449e-05
1.45889e-05
1.4572e-05
1.45819e-05
1.46095e-05
1.46481e-05
1.46921e-05
1.47372e-05
1.47803e-05
1.48192e-05
1.4853e-05
1.48814e-05
1.49044e-05
1.56532e-05
1.55151e-05
1.54116e-05
1.53437e-05
1.53019e-05
1.52784e-05
1.52672e-05
1.52639e-05
1.5265e-05
1.52685e-05
1.52731e-05
1.52784e-05
1.52857e-05
1.5295e-05
1.53033e-05
1.6824e-05
1.67595e-05
1.66932e-05
1.66392e-05
1.65971e-05
1.65645e-05
1.65389e-05
1.65178e-05
1.64983e-05
1.6477e-05
1.64519e-05
1.6423e-05
1.6393e-05
1.63692e-05
1.63548e-05
1.63434e-05
1.80384e-05
1.80363e-05
1.80305e-05
1.80255e-05
1.80218e-05
1.80186e-05
1.80153e-05
1.80114e-05
1.80077e-05
1.80062e-05
1.80084e-05
1.80135e-05
1.80179e-05
1.80191e-05
1.80187e-05
1.802e-05
1.8021e-05
1.35368e-05
1.35082e-05
1.36467e-05
1.34861e-05
1.36124e-05
1.37409e-05
1.34696e-05
1.35874e-05
1.37055e-05
1.38218e-05
1.34588e-05
1.35702e-05
1.3682e-05
1.37895e-05
1.3894e-05
1.34545e-05
1.35601e-05
1.36681e-05
1.37711e-05
1.38687e-05
1.39631e-05
1.34583e-05
1.35577e-05
1.36623e-05
1.37635e-05
1.38588e-05
1.39496e-05
1.40371e-05
1.34725e-05
1.35648e-05
1.36656e-05
1.37653e-05
1.38606e-05
1.39508e-05
1.40367e-05
1.41249e-05
1.34999e-05
1.3584e-05
1.368e-05
1.37777e-05
1.38731e-05
1.39641e-05
1.40514e-05
1.41379e-05
1.4228e-05
1.35448e-05
1.36184e-05
1.3708e-05
1.38027e-05
1.38974e-05
1.39889e-05
1.40776e-05
1.41646e-05
1.42506e-05
1.43341e-05
1.36141e-05
1.36734e-05
1.37541e-05
1.38437e-05
1.39359e-05
1.40271e-05
1.41159e-05
1.42023e-05
1.42854e-05
1.43614e-05
1.44283e-05
1.37209e-05
1.37597e-05
1.38266e-05
1.39075e-05
1.39946e-05
1.4083e-05
1.417e-05
1.4254e-05
1.43328e-05
1.44033e-05
1.44637e-05
1.45124e-05
1.38919e-05
1.39e-05
1.39444e-05
1.401e-05
1.4087e-05
1.41686e-05
1.42506e-05
1.43296e-05
1.44029e-05
1.44678e-05
1.45233e-05
1.45684e-05
1.46046e-05
1.41829e-05
1.41442e-05
1.41521e-05
1.41904e-05
1.4247e-05
1.43135e-05
1.43838e-05
1.44534e-05
1.45184e-05
1.45768e-05
1.4627e-05
1.46686e-05
1.47019e-05
1.47283e-05
1.4706e-05
1.4604e-05
1.45563e-05
1.45485e-05
1.45668e-05
1.46013e-05
1.46451e-05
1.46926e-05
1.474e-05
1.47843e-05
1.48235e-05
1.4857e-05
1.48849e-05
1.49075e-05
1.49255e-05
1.56114e-05
1.54691e-05
1.5366e-05
1.5303e-05
1.52689e-05
1.52543e-05
1.52521e-05
1.52567e-05
1.52643e-05
1.52725e-05
1.528e-05
1.52864e-05
1.52919e-05
1.52984e-05
1.53063e-05
1.53135e-05
1.68131e-05
1.67434e-05
1.66708e-05
1.66121e-05
1.65678e-05
1.65358e-05
1.65135e-05
1.64978e-05
1.64852e-05
1.64717e-05
1.64541e-05
1.64312e-05
1.64044e-05
1.63771e-05
1.63565e-05
1.63445e-05
1.63347e-05
1.80376e-05
1.80359e-05
1.80297e-05
1.80241e-05
1.80196e-05
1.80156e-05
1.80112e-05
1.80061e-05
1.80011e-05
1.79986e-05
1.8001e-05
1.8008e-05
1.80157e-05
1.80201e-05
1.80201e-05
1.80197e-05
1.8021e-05
1.80219e-05
1.35735e-05
1.35404e-05
1.36919e-05
1.35135e-05
1.36501e-05
1.37904e-05
1.34919e-05
1.36182e-05
1.37443e-05
1.38718e-05
1.34751e-05
1.35941e-05
1.37116e-05
1.38255e-05
1.39396e-05
1.34633e-05
1.35764e-05
1.3689e-05
1.37956e-05
1.38976e-05
1.3999e-05
1.34576e-05
1.35649e-05
1.36741e-05
1.37776e-05
1.38744e-05
1.39675e-05
1.4059e-05
1.34601e-05
1.3561e-05
1.36668e-05
1.37687e-05
1.38644e-05
1.39546e-05
1.40403e-05
1.41307e-05
1.34729e-05
1.35669e-05
1.36687e-05
1.37692e-05
1.38649e-05
1.39552e-05
1.40409e-05
1.41271e-05
1.42198e-05
1.34988e-05
1.35849e-05
1.3682e-05
1.37805e-05
1.38763e-05
1.39676e-05
1.40548e-05
1.41413e-05
1.42291e-05
1.4319e-05
1.35415e-05
1.36178e-05
1.3709e-05
1.38046e-05
1.38999e-05
1.39917e-05
1.40805e-05
1.41673e-05
1.42534e-05
1.43353e-05
1.44096e-05
1.36075e-05
1.36706e-05
1.37537e-05
1.38448e-05
1.39378e-05
1.40294e-05
1.41185e-05
1.42049e-05
1.42877e-05
1.43641e-05
1.44304e-05
1.44834e-05
1.37092e-05
1.37533e-05
1.38238e-05
1.39072e-05
1.39958e-05
1.4085e-05
1.41724e-05
1.42565e-05
1.43353e-05
1.44058e-05
1.44665e-05
1.45152e-05
1.4553e-05
1.38717e-05
1.38869e-05
1.3937e-05
1.40068e-05
1.40865e-05
1.41699e-05
1.42528e-05
1.43322e-05
1.44055e-05
1.44705e-05
1.45261e-05
1.45716e-05
1.46074e-05
1.46356e-05
1.41498e-05
1.41196e-05
1.41357e-05
1.41807e-05
1.42423e-05
1.43123e-05
1.43848e-05
1.44557e-05
1.45214e-05
1.45799e-05
1.46302e-05
1.46718e-05
1.47052e-05
1.47313e-05
1.47517e-05
1.46587e-05
1.45631e-05
1.45239e-05
1.45251e-05
1.45515e-05
1.45927e-05
1.46416e-05
1.46927e-05
1.47425e-05
1.47882e-05
1.4828e-05
1.48616e-05
1.4889e-05
1.4911e-05
1.49286e-05
1.49428e-05
1.55665e-05
1.54214e-05
1.53195e-05
1.52617e-05
1.52352e-05
1.52294e-05
1.52359e-05
1.52483e-05
1.52624e-05
1.52754e-05
1.52861e-05
1.52943e-05
1.53003e-05
1.53047e-05
1.53099e-05
1.53166e-05
1.53231e-05
1.67995e-05
1.67253e-05
1.66469e-05
1.65836e-05
1.65371e-05
1.65056e-05
1.64863e-05
1.64758e-05
1.64702e-05
1.64644e-05
1.64543e-05
1.64377e-05
1.64153e-05
1.63898e-05
1.63646e-05
1.63464e-05
1.63359e-05
1.63271e-05
1.80363e-05
1.80349e-05
1.80286e-05
1.80225e-05
1.80172e-05
1.80123e-05
1.80069e-05
1.80004e-05
1.7994e-05
1.79904e-05
1.79928e-05
1.80016e-05
1.80127e-05
1.80209e-05
1.80232e-05
1.80214e-05
1.80205e-05
1.80217e-05
1.80216e-05
1.36127e-05
1.35759e-05
1.37423e-05
1.35452e-05
1.36937e-05
1.38489e-05
1.35197e-05
1.36556e-05
1.37922e-05
1.39352e-05
1.34984e-05
1.36257e-05
1.37504e-05
1.3874e-05
1.40029e-05
1.34808e-05
1.36017e-05
1.37197e-05
1.38319e-05
1.3942e-05
1.40558e-05
1.34676e-05
1.35828e-05
1.36966e-05
1.38036e-05
1.3904e-05
1.40028e-05
1.41036e-05
1.34606e-05
1.35697e-05
1.36801e-05
1.37845e-05
1.38815e-05
1.39733e-05
1.40619e-05
1.41582e-05
1.34618e-05
1.35644e-05
1.36713e-05
1.3774e-05
1.387e-05
1.39601e-05
1.40452e-05
1.41328e-05
1.42299e-05
1.34735e-05
1.35691e-05
1.3672e-05
1.37731e-05
1.38692e-05
1.39596e-05
1.40451e-05
1.41308e-05
1.42204e-05
1.43172e-05
1.34978e-05
1.35859e-05
1.36842e-05
1.37834e-05
1.38796e-05
1.39711e-05
1.40582e-05
1.41442e-05
1.42319e-05
1.43193e-05
1.44025e-05
1.35385e-05
1.36173e-05
1.37102e-05
1.38067e-05
1.39025e-05
1.39946e-05
1.40834e-05
1.417e-05
1.42555e-05
1.43377e-05
1.44108e-05
1.44707e-05
1.36013e-05
1.3668e-05
1.37534e-05
1.3846e-05
1.39399e-05
1.4032e-05
1.41211e-05
1.42074e-05
1.42901e-05
1.43662e-05
1.4433e-05
1.44862e-05
1.45254e-05
1.36978e-05
1.3747e-05
1.38212e-05
1.39069e-05
1.39971e-05
1.40872e-05
1.4175e-05
1.4259e-05
1.43377e-05
1.44081e-05
1.44689e-05
1.45181e-05
1.45559e-05
1.45848e-05
1.38519e-05
1.38743e-05
1.39299e-05
1.40037e-05
1.40861e-05
1.41712e-05
1.42551e-05
1.43349e-05
1.44083e-05
1.44731e-05
1.45287e-05
1.45743e-05
1.46105e-05
1.46384e-05
1.46601e-05
1.41171e-05
1.40958e-05
1.41197e-05
1.41712e-05
1.42376e-05
1.4311e-05
1.43858e-05
1.4458e-05
1.45244e-05
1.45833e-05
1.46335e-05
1.46751e-05
1.47085e-05
1.47346e-05
1.47545e-05
1.47702e-05
1.4611e-05
1.45227e-05
1.44922e-05
1.45022e-05
1.45364e-05
1.4584e-05
1.46378e-05
1.46926e-05
1.47448e-05
1.47919e-05
1.48326e-05
1.48664e-05
1.48936e-05
1.49151e-05
1.49321e-05
1.49458e-05
1.49573e-05
1.55192e-05
1.53729e-05
1.52731e-05
1.52206e-05
1.52017e-05
1.52042e-05
1.5219e-05
1.5239e-05
1.52594e-05
1.52773e-05
1.52915e-05
1.53018e-05
1.53087e-05
1.53131e-05
1.53162e-05
1.53202e-05
1.53261e-05
1.53326e-05
1.67831e-05
1.67054e-05
1.66218e-05
1.65542e-05
1.65055e-05
1.64743e-05
1.64579e-05
1.64525e-05
1.64534e-05
1.64552e-05
1.64526e-05
1.64426e-05
1.64249e-05
1.64022e-05
1.63777e-05
1.63544e-05
1.63379e-05
1.63284e-05
1.63203e-05
1.80343e-05
1.80335e-05
1.80272e-05
1.80207e-05
1.80148e-05
1.80089e-05
1.80023e-05
1.79944e-05
1.79865e-05
1.79818e-05
1.79841e-05
1.79944e-05
1.8009e-05
1.80211e-05
1.80264e-05
1.80256e-05
1.80224e-05
1.80212e-05
1.80215e-05
1.80204e-05
1.3653e-05
1.36135e-05
1.37966e-05
1.358e-05
1.37421e-05
1.39153e-05
1.35516e-05
1.36984e-05
1.38484e-05
1.40117e-05
1.3527e-05
1.36636e-05
1.37978e-05
1.39351e-05
1.40846e-05
1.35052e-05
1.36345e-05
1.37596e-05
1.38805e-05
1.40033e-05
1.41359e-05
1.34863e-05
1.36097e-05
1.37291e-05
1.38415e-05
1.39491e-05
1.40581e-05
1.41747e-05
1.34717e-05
1.35891e-05
1.37046e-05
1.38125e-05
1.39129e-05
1.40094e-05
1.41055e-05
1.42132e-05
1.34635e-05
1.35744e-05
1.36862e-05
1.37916e-05
1.38889e-05
1.39803e-05
1.40677e-05
1.41599e-05
1.42651e-05
1.34637e-05
1.35679e-05
1.36758e-05
1.37794e-05
1.38758e-05
1.39659e-05
1.40506e-05
1.41372e-05
1.42301e-05
1.43355e-05
1.34741e-05
1.35714e-05
1.36754e-05
1.37772e-05
1.38737e-05
1.39642e-05
1.40493e-05
1.41342e-05
1.42234e-05
1.43165e-05
1.44104e-05
1.3497e-05
1.3587e-05
1.36865e-05
1.37865e-05
1.38831e-05
1.39747e-05
1.40617e-05
1.41471e-05
1.42339e-05
1.43215e-05
1.44023e-05
1.44728e-05
1.35356e-05
1.36169e-05
1.37114e-05
1.38089e-05
1.39053e-05
1.39976e-05
1.40864e-05
1.41727e-05
1.42577e-05
1.43393e-05
1.4413e-05
1.44729e-05
1.45157e-05
1.35953e-05
1.36655e-05
1.37532e-05
1.38473e-05
1.3942e-05
1.40346e-05
1.41239e-05
1.421e-05
1.42923e-05
1.43682e-05
1.44349e-05
1.44887e-05
1.45288e-05
1.45566e-05
1.36868e-05
1.37411e-05
1.38188e-05
1.39068e-05
1.39985e-05
1.40895e-05
1.41777e-05
1.42618e-05
1.43402e-05
1.44103e-05
1.4471e-05
1.45204e-05
1.45588e-05
1.45876e-05
1.46095e-05
1.38329e-05
1.38622e-05
1.39231e-05
1.40008e-05
1.40858e-05
1.41726e-05
1.42575e-05
1.43378e-05
1.44113e-05
1.4476e-05
1.45313e-05
1.45768e-05
1.46132e-05
1.46414e-05
1.46627e-05
1.46793e-05
1.40855e-05
1.40728e-05
1.41045e-05
1.4162e-05
1.42331e-05
1.43097e-05
1.43867e-05
1.44603e-05
1.45275e-05
1.45868e-05
1.46371e-05
1.46785e-05
1.47117e-05
1.47378e-05
1.47578e-05
1.47729e-05
1.47852e-05
1.4564e-05
1.44836e-05
1.44619e-05
1.44802e-05
1.45218e-05
1.45755e-05
1.4634e-05
1.46923e-05
1.47468e-05
1.47955e-05
1.48371e-05
1.48713e-05
1.48986e-05
1.49198e-05
1.49362e-05
1.49492e-05
1.49602e-05
1.49701e-05
1.54701e-05
1.53243e-05
1.52277e-05
1.51808e-05
1.51689e-05
1.51794e-05
1.5202e-05
1.52292e-05
1.52557e-05
1.52785e-05
1.52961e-05
1.53086e-05
1.53168e-05
1.53217e-05
1.53245e-05
1.53263e-05
1.53297e-05
1.53356e-05
1.53428e-05
1.67637e-05
1.66837e-05
1.65962e-05
1.65247e-05
1.64739e-05
1.6443e-05
1.64292e-05
1.64284e-05
1.64356e-05
1.64445e-05
1.64492e-05
1.64458e-05
1.64333e-05
1.64136e-05
1.63906e-05
1.63673e-05
1.63457e-05
1.63304e-05
1.63216e-05
1.63139e-05
1.80315e-05
1.80314e-05
1.80254e-05
1.80187e-05
1.80122e-05
1.80055e-05
1.79977e-05
1.79883e-05
1.79788e-05
1.79728e-05
1.7975e-05
1.79868e-05
1.80047e-05
1.80207e-05
1.80295e-05
1.80304e-05
1.80269e-05
1.80227e-05
1.8021e-05
1.80202e-05
1.80182e-05
1.36935e-05
1.3652e-05
1.38533e-05
1.36165e-05
1.37939e-05
1.39883e-05
1.35862e-05
1.37456e-05
1.39121e-05
1.41004e-05
1.35594e-05
1.37066e-05
1.38532e-05
1.40087e-05
1.41849e-05
1.35347e-05
1.36735e-05
1.38078e-05
1.39414e-05
1.40824e-05
1.42408e-05
1.35118e-05
1.36441e-05
1.37706e-05
1.38915e-05
1.40108e-05
1.41359e-05
1.42753e-05
1.34915e-05
1.36175e-05
1.37391e-05
1.38525e-05
1.39598e-05
1.40657e-05
1.4175e-05
1.43006e-05
1.34757e-05
1.35952e-05
1.37125e-05
1.38218e-05
1.39225e-05
1.40183e-05
1.41126e-05
1.4214e-05
1.43324e-05
1.34665e-05
1.35791e-05
1.36924e-05
1.37989e-05
1.38967e-05
1.3988e-05
1.40748e-05
1.41655e-05
1.42647e-05
1.43814e-05
1.34656e-05
1.35714e-05
1.36806e-05
1.37851e-05
1.3882e-05
1.39722e-05
1.40561e-05
1.41416e-05
1.42337e-05
1.43337e-05
1.44403e-05
1.34748e-05
1.35738e-05
1.36789e-05
1.37815e-05
1.38784e-05
1.39691e-05
1.40537e-05
1.41378e-05
1.42255e-05
1.43188e-05
1.44085e-05
1.44938e-05
1.34963e-05
1.35882e-05
1.36889e-05
1.37897e-05
1.38869e-05
1.39785e-05
1.40653e-05
1.41502e-05
1.4236e-05
1.43226e-05
1.44041e-05
1.44738e-05
1.4524e-05
1.35329e-05
1.36167e-05
1.37127e-05
1.38112e-05
1.39082e-05
1.40008e-05
1.40895e-05
1.41754e-05
1.42598e-05
1.4341e-05
1.44142e-05
1.44751e-05
1.45194e-05
1.4546e-05
1.35896e-05
1.36633e-05
1.37532e-05
1.38487e-05
1.39443e-05
1.40374e-05
1.41268e-05
1.42127e-05
1.42946e-05
1.437e-05
1.44366e-05
1.44906e-05
1.45313e-05
1.45603e-05
1.45797e-05
1.36764e-05
1.37355e-05
1.38165e-05
1.39068e-05
1.4e-05
1.4092e-05
1.41806e-05
1.42648e-05
1.43428e-05
1.44126e-05
1.44729e-05
1.45222e-05
1.45609e-05
1.45904e-05
1.46121e-05
1.46285e-05
1.38147e-05
1.38507e-05
1.39167e-05
1.3998e-05
1.40856e-05
1.4174e-05
1.426e-05
1.43408e-05
1.44145e-05
1.4479e-05
1.45341e-05
1.45792e-05
1.46156e-05
1.4644e-05
1.46656e-05
1.46817e-05
1.46944e-05
1.40552e-05
1.40512e-05
1.40901e-05
1.41534e-05
1.42288e-05
1.43085e-05
1.43877e-05
1.44627e-05
1.45307e-05
1.45904e-05
1.46408e-05
1.46821e-05
1.47151e-05
1.4741e-05
1.4761e-05
1.47762e-05
1.47878e-05
1.47978e-05
1.45184e-05
1.44464e-05
1.44333e-05
1.44595e-05
1.45078e-05
1.45672e-05
1.46302e-05
1.46919e-05
1.47487e-05
1.47989e-05
1.48415e-05
1.48762e-05
1.49037e-05
1.49247e-05
1.49408e-05
1.49532e-05
1.49636e-05
1.49729e-05
1.49823e-05
1.54203e-05
1.52772e-05
1.51843e-05
1.51428e-05
1.51377e-05
1.51555e-05
1.51853e-05
1.52192e-05
1.52516e-05
1.5279e-05
1.53001e-05
1.5315e-05
1.53245e-05
1.53301e-05
1.5333e-05
1.53344e-05
1.53357e-05
1.53391e-05
1.53456e-05
1.53541e-05
1.6741e-05
1.66607e-05
1.65707e-05
1.64962e-05
1.64432e-05
1.64122e-05
1.64006e-05
1.64041e-05
1.6417e-05
1.64327e-05
1.64445e-05
1.64476e-05
1.64402e-05
1.6424e-05
1.64027e-05
1.63799e-05
1.63579e-05
1.63379e-05
1.63237e-05
1.63152e-05
1.63081e-05
1.80279e-05
1.80287e-05
1.80231e-05
1.80165e-05
1.80096e-05
1.80021e-05
1.79931e-05
1.79821e-05
1.7971e-05
1.79637e-05
1.79655e-05
1.79786e-05
1.79996e-05
1.80197e-05
1.80322e-05
1.80352e-05
1.80318e-05
1.80266e-05
1.8022e-05
1.80196e-05
1.80179e-05
1.80145e-05
1.3733e-05
1.36904e-05
1.39111e-05
1.36537e-05
1.38479e-05
1.40663e-05
1.36223e-05
1.37959e-05
1.39819e-05
1.41998e-05
1.35942e-05
1.37536e-05
1.39156e-05
1.40939e-05
1.43027e-05
1.35679e-05
1.37173e-05
1.38637e-05
1.40144e-05
1.41794e-05
1.43705e-05
1.35423e-05
1.36845e-05
1.38203e-05
1.39537e-05
1.40903e-05
1.42378e-05
1.44073e-05
1.35179e-05
1.36535e-05
1.37827e-05
1.39046e-05
1.40236e-05
1.41448e-05
1.42734e-05
1.44239e-05
1.34963e-05
1.36251e-05
1.37491e-05
1.38643e-05
1.39719e-05
1.4077e-05
1.41838e-05
1.42998e-05
1.44375e-05
1.34795e-05
1.36012e-05
1.37206e-05
1.38314e-05
1.39327e-05
1.40283e-05
1.41218e-05
1.42212e-05
1.43308e-05
1.44633e-05
1.34693e-05
1.35839e-05
1.36987e-05
1.38066e-05
1.39051e-05
1.39964e-05
1.4082e-05
1.41714e-05
1.42694e-05
1.43786e-05
1.45001e-05
1.34675e-05
1.3575e-05
1.36855e-05
1.3791e-05
1.38885e-05
1.39787e-05
1.4062e-05
1.41461e-05
1.42364e-05
1.43363e-05
1.44367e-05
1.45398e-05
1.34756e-05
1.35762e-05
1.36825e-05
1.3786e-05
1.38835e-05
1.39743e-05
1.40585e-05
1.41416e-05
1.42279e-05
1.43196e-05
1.44099e-05
1.44928e-05
1.4556e-05
1.34956e-05
1.35894e-05
1.36914e-05
1.3793e-05
1.38907e-05
1.39826e-05
1.40692e-05
1.41534e-05
1.42382e-05
1.43239e-05
1.44044e-05
1.44756e-05
1.45273e-05
1.45553e-05
1.35303e-05
1.36165e-05
1.3714e-05
1.38136e-05
1.39111e-05
1.40041e-05
1.40928e-05
1.41783e-05
1.42619e-05
1.43424e-05
1.44153e-05
1.44762e-05
1.45215e-05
1.45511e-05
1.45648e-05
1.35842e-05
1.36611e-05
1.37532e-05
1.385e-05
1.39466e-05
1.40403e-05
1.41299e-05
1.42156e-05
1.4297e-05
1.43717e-05
1.44379e-05
1.44919e-05
1.4533e-05
1.45629e-05
1.45832e-05
1.4597e-05
1.36665e-05
1.37302e-05
1.38143e-05
1.39069e-05
1.40015e-05
1.40944e-05
1.41836e-05
1.42679e-05
1.43457e-05
1.44151e-05
1.44749e-05
1.45238e-05
1.45626e-05
1.45924e-05
1.46148e-05
1.4631e-05
1.46434e-05
1.37977e-05
1.384e-05
1.39108e-05
1.39954e-05
1.40854e-05
1.41755e-05
1.42625e-05
1.4344e-05
1.44178e-05
1.44822e-05
1.4537e-05
1.45818e-05
1.46178e-05
1.46462e-05
1.46681e-05
1.46846e-05
1.46967e-05
1.47067e-05
1.40269e-05
1.40311e-05
1.40768e-05
1.41453e-05
1.42247e-05
1.43074e-05
1.43887e-05
1.4465e-05
1.45339e-05
1.45941e-05
1.46446e-05
1.46859e-05
1.47187e-05
1.47443e-05
1.47641e-05
1.47792e-05
1.47909e-05
1.48003e-05
1.4809e-05
1.44752e-05
1.44119e-05
1.44068e-05
1.44402e-05
1.44948e-05
1.45594e-05
1.46264e-05
1.46914e-05
1.47506e-05
1.48023e-05
1.48459e-05
1.48812e-05
1.49088e-05
1.49299e-05
1.49457e-05
1.49577e-05
1.49675e-05
1.49762e-05
1.4985e-05
1.49947e-05
1.53707e-05
1.52322e-05
1.51441e-05
1.51077e-05
1.51086e-05
1.51329e-05
1.51693e-05
1.52094e-05
1.52472e-05
1.52791e-05
1.53037e-05
1.53209e-05
1.53319e-05
1.53382e-05
1.53413e-05
1.53427e-05
1.53434e-05
1.53448e-05
1.53491e-05
1.53568e-05
1.53671e-05
1.67152e-05
1.66365e-05
1.65458e-05
1.64693e-05
1.64145e-05
1.6383e-05
1.63731e-05
1.63802e-05
1.63984e-05
1.64203e-05
1.64387e-05
1.64479e-05
1.64457e-05
1.64331e-05
1.64139e-05
1.63919e-05
1.637e-05
1.63494e-05
1.63308e-05
1.63174e-05
1.63095e-05
1.63032e-05
1.80231e-05
1.80253e-05
1.80205e-05
1.80141e-05
1.80071e-05
1.79989e-05
1.79887e-05
1.79762e-05
1.79633e-05
1.79546e-05
1.79559e-05
1.79703e-05
1.79942e-05
1.80184e-05
1.80346e-05
1.804e-05
1.80371e-05
1.8031e-05
1.80248e-05
1.80203e-05
1.80171e-05
1.80143e-05
1.80096e-05
1.37708e-05
1.37278e-05
1.39687e-05
1.36905e-05
1.39028e-05
1.41474e-05
1.36588e-05
1.3848e-05
1.40564e-05
1.43082e-05
1.36304e-05
1.38034e-05
1.39839e-05
1.41897e-05
1.44371e-05
1.36033e-05
1.37648e-05
1.39262e-05
1.4099e-05
1.4294e-05
1.45252e-05
1.35764e-05
1.37296e-05
1.38774e-05
1.4028e-05
1.41879e-05
1.43647e-05
1.45718e-05
1.35493e-05
1.36955e-05
1.38344e-05
1.39689e-05
1.41053e-05
1.42485e-05
1.44031e-05
1.45858e-05
1.35235e-05
1.36626e-05
1.37949e-05
1.3919e-05
1.40383e-05
1.4159e-05
1.42849e-05
1.44211e-05
1.4585e-05
1.35009e-05
1.36325e-05
1.37592e-05
1.38765e-05
1.39849e-05
1.40897e-05
1.4196e-05
1.43098e-05
1.44344e-05
1.45877e-05
1.34833e-05
1.36072e-05
1.37288e-05
1.38415e-05
1.39437e-05
1.40393e-05
1.41314e-05
1.42296e-05
1.43379e-05
1.44592e-05
1.45995e-05
1.34722e-05
1.35886e-05
1.37053e-05
1.38148e-05
1.39141e-05
1.40053e-05
1.40899e-05
1.41775e-05
1.42737e-05
1.43826e-05
1.44949e-05
1.46183e-05
1.34694e-05
1.35786e-05
1.36905e-05
1.37973e-05
1.38956e-05
1.39859e-05
1.40685e-05
1.41513e-05
1.42395e-05
1.43374e-05
1.44383e-05
1.45363e-05
1.46181e-05
1.34764e-05
1.35787e-05
1.3686e-05
1.37906e-05
1.38888e-05
1.39798e-05
1.40638e-05
1.41459e-05
1.42305e-05
1.43207e-05
1.44095e-05
1.4494e-05
1.45577e-05
1.45942e-05
1.34951e-05
1.35907e-05
1.36938e-05
1.37963e-05
1.38946e-05
1.39868e-05
1.40734e-05
1.41569e-05
1.42405e-05
1.43251e-05
1.4405e-05
1.44758e-05
1.45289e-05
1.45619e-05
1.457e-05
1.3528e-05
1.36164e-05
1.37154e-05
1.3816e-05
1.3914e-05
1.40075e-05
1.40963e-05
1.41814e-05
1.42642e-05
1.43438e-05
1.44161e-05
1.4477e-05
1.45225e-05
1.45537e-05
1.45702e-05
1.45785e-05
1.35791e-05
1.36592e-05
1.37533e-05
1.38515e-05
1.3949e-05
1.40432e-05
1.41331e-05
1.42187e-05
1.42995e-05
1.43736e-05
1.44392e-05
1.44928e-05
1.4534e-05
1.45645e-05