/*--------------------------------*- C++ -*----------------------------------*\
| =========                 |                                                 |
| \\      /  F ield         | OpenFOAM: The Open Source CFD Toolbox           |
|  \\    /   O peration     | Version:  v2012                                 |
|   \\  /    A nd           | Website:  www.openfoam.com                      |
|    \\/     M anipulation  |                                                 |
\*---------------------------------------------------------------------------*/
FoamFile
{
    version     2.0;
    format      ascii;
    class       volScalarField;
    location    "15001";
    object      Fs;
}
// * * * * * * * * * * * * * * * * * * * * * * * * * * * * * * * * * * * * * //

dimensions      [0 0 0 0 0 0 0];


internalField   nonuniform List<scalar> 
294912
(
4.51973e-05
4.50914e-05
4.51998e-05
4.5249e-05
4.51395e-05
4.51039e-05
4.50689e-05
4.51929e-05
4.52467e-05
4.53007e-05
4.52595e-05
4.51555e-05
4.51366e-05
4.51097e-05
4.50794e-05
4.50724e-05
4.51798e-05
4.52385e-05
4.52944e-05
4.53424e-05
4.53515e-05
4.52888e-05
4.52299e-05
4.51581e-05
4.51509e-05
4.51171e-05
4.51076e-05
4.5089e-05
4.50823e-05
4.506e-05
4.51678e-05
4.5226e-05
4.52882e-05
4.53325e-05
4.53564e-05
4.54263e-05
4.54094e-05
4.52857e-05
4.52884e-05
4.52531e-05
4.51967e-05
4.51516e-05
4.51589e-05
4.51354e-05
4.50503e-05
4.51068e-05
4.50914e-05
4.50939e-05
4.50691e-05
4.5061e-05
4.51619e-05
4.52163e-05
4.5281e-05
4.53266e-05
4.53429e-05
4.5374e-05
4.54868e-05
4.55304e-05
4.53043e-05
4.54014e-05
4.5334e-05
4.5231e-05
4.52791e-05
4.52618e-05
4.5225e-05
4.51099e-05
4.51492e-05
4.51564e-05
4.51461e-05
4.50692e-05
4.4981e-05
4.51096e-05
4.50948e-05
4.5097e-05
4.50832e-05
4.50693e-05
4.50516e-05
4.51568e-05
4.52137e-05
4.52781e-05
4.53211e-05
4.53371e-05
4.53557e-05
4.54197e-05
4.55193e-05
4.56464e-05
4.52689e-05
4.55111e-05
4.53959e-05
4.52251e-05
4.53905e-05
4.53404e-05
4.52844e-05
4.51224e-05
4.52742e-05
4.52554e-05
4.52367e-05
4.51412e-05
4.49786e-05
4.51479e-05
4.51584e-05
4.51452e-05
4.50829e-05
4.49991e-05
4.49367e-05
4.5114e-05
4.51017e-05
4.51021e-05
4.50877e-05
4.5087e-05
4.50582e-05
4.50546e-05
4.51536e-05
4.52153e-05
4.52818e-05
4.53203e-05
4.53312e-05
4.53513e-05
4.53962e-05
4.54739e-05
4.55395e-05
4.57382e-05
4.52132e-05
4.56197e-05
4.54194e-05
4.51888e-05
4.54982e-05
4.53935e-05
4.53275e-05
4.50983e-05
4.53821e-05
4.53323e-05
4.52976e-05
4.51786e-05
4.49379e-05
4.52707e-05
4.52538e-05
4.52293e-05
4.51572e-05
4.50128e-05
4.48477e-05
4.51476e-05
4.51619e-05
4.515e-05
4.50831e-05
4.50162e-05
4.49536e-05
4.49141e-05
4.51184e-05
4.51108e-05
4.51102e-05
4.50945e-05
4.50945e-05
4.50789e-05
4.50575e-05
4.50809e-05
4.51481e-05
4.52184e-05
4.52867e-05
4.53253e-05
4.53302e-05
4.53468e-05
4.53916e-05
4.54479e-05
4.55187e-05
4.55602e-05
4.5822e-05
4.5145e-05
4.57144e-05
4.54284e-05
4.50951e-05
4.56008e-05
4.5403e-05
4.53507e-05
4.50291e-05
4.54867e-05
4.53874e-05
4.53314e-05
4.5202e-05
4.49005e-05
4.53738e-05
4.53269e-05
4.5287e-05
4.51985e-05
4.49991e-05
4.4711e-05
4.52678e-05
4.5254e-05
4.52287e-05
4.51506e-05
4.50342e-05
4.48822e-05
4.47271e-05
4.51469e-05
4.51667e-05
4.51566e-05
4.50904e-05
4.50188e-05
4.49753e-05
4.49306e-05
4.48997e-05
4.5123e-05
4.51198e-05
4.51195e-05
4.5104e-05
4.51046e-05
4.50884e-05
4.50791e-05
4.50774e-05
4.51295e-05
4.51368e-05
4.5222e-05
4.52924e-05
4.5332e-05
4.53335e-05
4.53471e-05
4.53865e-05
4.54439e-05
4.54982e-05
4.55441e-05
4.55902e-05
4.59048e-05
4.50761e-05
4.57973e-05
4.54208e-05
4.49882e-05
4.56861e-05
4.54007e-05
4.53285e-05
4.49408e-05
4.55896e-05
4.53977e-05
4.53436e-05
4.52006e-05
4.4818e-05
4.54719e-05
4.53802e-05
4.53204e-05
4.52175e-05
4.50095e-05
4.45838e-05
4.53655e-05
4.53234e-05
4.52812e-05
4.51878e-05
4.50271e-05
4.47734e-05
4.44848e-05
4.52644e-05
4.52558e-05
4.5231e-05
4.51525e-05
4.50295e-05
4.49088e-05
4.47598e-05
4.46577e-05
4.51489e-05
4.51709e-05
4.51647e-05
4.51002e-05
4.50296e-05
4.49813e-05
4.49543e-05
4.49155e-05
4.49017e-05
4.51342e-05
4.51285e-05
4.51289e-05
4.51158e-05
4.51165e-05
4.51017e-05
4.5088e-05
4.50978e-05
4.51244e-05
4.51804e-05
4.51302e-05
4.52169e-05
4.52998e-05
4.53384e-05
4.53384e-05
4.53505e-05
4.53866e-05
4.54401e-05
4.54943e-05
4.55263e-05
4.55677e-05
4.56326e-05
4.59888e-05
4.50221e-05
4.58718e-05
4.54013e-05
4.48955e-05
4.57645e-05
4.53855e-05
4.52901e-05
4.48548e-05
4.56709e-05
4.53963e-05
4.53088e-05
4.51889e-05
4.47011e-05
4.55685e-05
4.5389e-05
4.53367e-05
4.52026e-05
4.49928e-05
4.44435e-05
4.54569e-05
4.53732e-05
4.53096e-05
4.52076e-05
4.5037e-05
4.46952e-05
4.42277e-05
4.53566e-05
4.53217e-05
4.52793e-05
4.51838e-05
4.50178e-05
4.4811e-05
4.45442e-05
4.43406e-05
4.52629e-05
4.52572e-05
4.52353e-05
4.51578e-05
4.5036e-05
4.49066e-05
4.47925e-05
4.46917e-05
4.4612e-05
4.51542e-05
4.51745e-05
4.51719e-05
4.51116e-05
4.5042e-05
4.49967e-05
4.49618e-05
4.49417e-05
4.49151e-05
4.49251e-05
4.51479e-05
4.51371e-05
4.51384e-05
4.5129e-05
4.51281e-05
4.51168e-05
4.51016e-05
4.5105e-05
4.51422e-05
4.51759e-05
4.52249e-05
4.5122e-05
4.52119e-05
4.53012e-05
4.53455e-05
4.53438e-05
4.53549e-05
4.53886e-05
4.54413e-05
4.54907e-05
4.55255e-05
4.55458e-05
4.55999e-05
4.56889e-05
4.60679e-05
4.49955e-05
4.59414e-05
4.53768e-05
4.482e-05
4.58418e-05
4.53661e-05
4.52468e-05
4.47481e-05
4.57443e-05
4.53796e-05
4.52593e-05
4.51571e-05
4.45695e-05
4.56444e-05
4.53876e-05
4.53023e-05
4.5177e-05
4.49495e-05
4.43108e-05
4.55453e-05
4.53772e-05
4.53266e-05
4.51924e-05
4.50123e-05
4.4624e-05
4.39477e-05
4.54405e-05
4.53688e-05
4.53011e-05
4.51999e-05
4.50253e-05
4.474e-05
4.43358e-05
4.3935e-05
4.53481e-05
4.53201e-05
4.52803e-05
4.51851e-05
4.50191e-05
4.48048e-05
4.45919e-05
4.43929e-05
4.42758e-05
4.52629e-05
4.52582e-05
4.52392e-05
4.51657e-05
4.50457e-05
4.49181e-05
4.47952e-05
4.47275e-05
4.46378e-05
4.46414e-05
4.5163e-05
4.51831e-05
4.51777e-05
4.51225e-05
4.50569e-05
4.50132e-05
4.49795e-05
4.49499e-05
4.49413e-05
4.49389e-05
4.4961e-05
4.51586e-05
4.51595e-05
4.51489e-05
4.51417e-05
4.51394e-05
4.51332e-05
4.51162e-05
4.51175e-05
4.51483e-05
4.51924e-05
4.52184e-05
4.5264e-05
4.5113e-05
4.52057e-05
4.52941e-05
4.53514e-05
4.53513e-05
4.53594e-05
4.53913e-05
4.54432e-05
4.54908e-05
4.55206e-05
4.55461e-05
4.55669e-05
4.56158e-05
4.57566e-05
4.61347e-05
4.50005e-05
4.60099e-05
4.5357e-05
4.47833e-05
4.59205e-05
4.53466e-05
4.51967e-05
4.46785e-05
4.58154e-05
4.53572e-05
4.52117e-05
4.5094e-05
4.44816e-05
4.57139e-05
4.53719e-05
4.52539e-05
4.51358e-05
4.48901e-05
4.41907e-05
4.56119e-05
4.53722e-05
4.52901e-05
4.51715e-05
4.49542e-05
4.4566e-05
4.36964e-05
4.55199e-05
4.53675e-05
4.53133e-05
4.51795e-05
4.5008e-05
4.46651e-05
4.41229e-05
4.34736e-05
4.54259e-05
4.53642e-05
4.52953e-05
4.51978e-05
4.50198e-05
4.47319e-05
4.43978e-05
4.40324e-05
4.38291e-05
4.53404e-05
4.53183e-05
4.52813e-05
4.51896e-05
4.50265e-05
4.48149e-05
4.45907e-05
4.44482e-05
4.43293e-05
4.42626e-05
4.52637e-05
4.52627e-05
4.52423e-05
4.51729e-05
4.50585e-05
4.49318e-05
4.48153e-05
4.47316e-05
4.46783e-05
4.46663e-05
4.46777e-05
4.51732e-05
4.51942e-05
4.51868e-05
4.51323e-05
4.50715e-05
4.50308e-05
4.49984e-05
4.49683e-05
4.49496e-05
4.49629e-05
4.49728e-05
4.5e-05
4.51703e-05
4.51775e-05
4.51742e-05
4.51535e-05
4.51509e-05
4.51485e-05
4.51321e-05
4.51308e-05
4.51595e-05
4.5197e-05
4.52336e-05
4.52553e-05
4.52924e-05
4.51023e-05
4.51974e-05
4.52898e-05
4.53483e-05
4.53591e-05
4.53658e-05
4.53942e-05
4.54454e-05
4.54913e-05
4.55211e-05
4.5539e-05
4.55654e-05
4.55881e-05
4.5612e-05
4.58336e-05
4.61929e-05
4.50342e-05
4.60792e-05
4.53446e-05
4.4793e-05
4.59963e-05
4.53343e-05
4.51552e-05
4.46676e-05
4.58892e-05
4.5334e-05
4.51618e-05
4.50357e-05
4.4448e-05
4.57812e-05
4.53514e-05
4.52069e-05
4.50659e-05
4.484e-05
4.41106e-05
4.56741e-05
4.53549e-05
4.52451e-05
4.5136e-05
4.48809e-05
4.44943e-05
4.35004e-05
4.55764e-05
4.53574e-05
4.5274e-05
4.51601e-05
4.49559e-05
4.4596e-05
4.39432e-05
4.30107e-05
4.54935e-05
4.53584e-05
4.53002e-05
4.51736e-05
4.50008e-05
4.46636e-05
4.41904e-05
4.36312e-05
4.32252e-05
4.54121e-05
4.53549e-05
4.52917e-05
4.52008e-05
4.50222e-05
4.47378e-05
4.43954e-05
4.41027e-05
4.39217e-05
4.38023e-05
4.53319e-05
4.53179e-05
4.52825e-05
4.51941e-05
4.50377e-05
4.48309e-05
4.46117e-05
4.4452e-05
4.43844e-05
4.43123e-05
4.43248e-05
4.52677e-05
4.5266e-05
4.52474e-05
4.51796e-05
4.50709e-05
4.49484e-05
4.48408e-05
4.47518e-05
4.46862e-05
4.47039e-05
4.47039e-05
4.47234e-05
4.51824e-05
4.52094e-05
4.51988e-05
4.51422e-05
4.50869e-05
4.50467e-05
4.50197e-05
4.49874e-05
4.49687e-05
4.49706e-05
4.49951e-05
4.50115e-05
4.50335e-05
4.51837e-05
4.51943e-05
4.5198e-05
4.51708e-05
4.51616e-05
4.5162e-05
4.51467e-05
4.51452e-05
4.51709e-05
4.52058e-05
4.52366e-05
4.52688e-05
4.52849e-05
4.53032e-05
4.50889e-05
4.51847e-05
4.52818e-05
4.53464e-05
4.53625e-05
4.53732e-05
4.53986e-05
4.54472e-05
4.54922e-05
4.55203e-05
4.55393e-05
4.55606e-05
4.55847e-05
4.55938e-05
4.56069e-05
4.59074e-05
4.6243e-05
4.50893e-05
4.61433e-05
4.53441e-05
4.48361e-05
4.60641e-05
4.53288e-05
4.51316e-05
4.47122e-05
4.59632e-05
4.53191e-05
4.51233e-05
4.49998e-05
4.44707e-05
4.58529e-05
4.53298e-05
4.51586e-05
4.5002e-05
4.48133e-05
4.40996e-05
4.57354e-05
4.53361e-05
4.52018e-05
4.50732e-05
4.48175e-05
4.44309e-05
4.33991e-05
4.56302e-05
4.53356e-05
4.52283e-05
4.51266e-05
4.489e-05
4.45088e-05
4.3792e-05
4.26227e-05
4.55393e-05
4.53428e-05
4.52624e-05
4.51474e-05
4.49484e-05
4.46054e-05
4.40084e-05
4.32297e-05
4.25246e-05
4.54664e-05
4.53508e-05
4.52883e-05
4.51767e-05
4.49993e-05
4.46671e-05
4.4194e-05
4.37163e-05
4.33732e-05
4.31538e-05
4.53978e-05
4.53454e-05
4.52927e-05
4.52026e-05
4.50302e-05
4.47536e-05
4.44171e-05
4.41062e-05
4.39921e-05
4.3886e-05
4.39441e-05
4.53252e-05
4.53169e-05
4.52841e-05
4.51983e-05
4.50485e-05
4.48518e-05
4.46392e-05
4.44828e-05
4.43897e-05
4.43686e-05
4.43878e-05
4.43787e-05
4.52717e-05
4.52725e-05
4.52528e-05
4.51865e-05
4.50835e-05
4.49652e-05
4.48696e-05
4.47732e-05
4.47144e-05
4.47113e-05
4.47396e-05
4.47492e-05
4.47649e-05
4.51922e-05
4.52238e-05
4.52146e-05
4.51559e-05
4.5103e-05
4.50592e-05
4.50406e-05
4.50092e-05
4.49886e-05
4.49893e-05
4.50014e-05
4.50314e-05
4.50452e-05
4.50567e-05
4.52003e-05
4.52118e-05
4.52181e-05
4.51975e-05
4.51735e-05
4.51731e-05
4.516e-05
4.51586e-05
4.51829e-05
4.52142e-05
4.52439e-05
4.52709e-05
4.52974e-05
4.53002e-05
4.5298e-05
4.50766e-05
4.51714e-05
4.52671e-05
4.53361e-05
4.53617e-05
4.53789e-05
4.5404e-05
4.54494e-05
4.54922e-05
4.55183e-05
4.55373e-05
4.55627e-05
4.55819e-05
4.55892e-05
4.55871e-05
4.56039e-05
4.59841e-05
4.62845e-05
4.51612e-05
4.61929e-05
4.53533e-05
4.49096e-05
4.61236e-05
4.53347e-05
4.51266e-05
4.48052e-05
4.60328e-05
4.53119e-05
4.51035e-05
4.49973e-05
4.45551e-05
4.59258e-05
4.53179e-05
4.51218e-05
4.49633e-05
4.48221e-05
4.41728e-05
4.58043e-05
4.53182e-05
4.5159e-05
4.50163e-05
4.47805e-05
4.4383e-05
4.34294e-05
4.56835e-05
4.53157e-05
4.51872e-05
4.50715e-05
4.48355e-05
4.4433e-05
4.3701e-05
4.24097e-05
4.55841e-05
4.53163e-05
4.52114e-05
4.51128e-05
4.48881e-05
4.45346e-05
4.38511e-05
4.28783e-05
4.18586e-05
4.55005e-05
4.5329e-05
4.52528e-05
4.51388e-05
4.49459e-05
4.46089e-05
4.40327e-05
4.33251e-05
4.26961e-05
4.23458e-05
4.5438e-05
4.53433e-05
4.52788e-05
4.51796e-05
4.50034e-05
4.46832e-05
4.42175e-05
4.37243e-05
4.34614e-05
4.32734e-05
4.34539e-05
4.53834e-05
4.53377e-05
4.52946e-05
4.52041e-05
4.50383e-05
4.47764e-05
4.44487e-05
4.41439e-05
4.39983e-05
4.39544e-05
4.4045e-05
4.40698e-05
4.5322e-05
4.5316e-05
4.52862e-05
4.52026e-05
4.50594e-05
4.48727e-05
4.46722e-05
4.4522e-05
4.44229e-05
4.4378e-05
4.44364e-05
4.44419e-05
4.4434e-05
4.52762e-05
4.5281e-05
4.52591e-05
4.51954e-05
4.50966e-05
4.49831e-05
4.48964e-05
4.48002e-05
4.47455e-05
4.47395e-05
4.47475e-05
4.47826e-05
4.4793e-05
4.47983e-05
4.52016e-05
4.52373e-05
4.52313e-05
4.51724e-05
4.5121e-05
4.50705e-05
4.50613e-05
4.50309e-05
4.50113e-05
4.50091e-05
4.5018e-05
4.50362e-05
4.50629e-05
4.50691e-05
4.50673e-05
4.52133e-05
4.523e-05
4.52392e-05
4.52187e-05
4.51983e-05
4.51845e-05
4.51703e-05
4.517e-05
4.51935e-05
4.52219e-05
4.52497e-05
4.52769e-05
4.52989e-05
4.5312e-05
4.52996e-05
4.52861e-05
4.50783e-05
4.51589e-05
4.5254e-05
4.53202e-05
4.53514e-05
4.53758e-05
4.54078e-05
4.54527e-05
4.54931e-05
4.5517e-05
4.55365e-05
4.55619e-05
4.55853e-05
4.55874e-05
4.55829e-05
4.55559e-05
4.55673e-05
4.60449e-05
4.63209e-05
4.52428e-05
4.62419e-05
4.53699e-05
4.49966e-05
4.617e-05
4.53447e-05
4.51354e-05
4.49201e-05
4.60946e-05
4.53185e-05
4.51019e-05
4.50139e-05
4.4675e-05
4.59976e-05
4.53149e-05
4.51056e-05
4.49517e-05
4.48458e-05
4.433e-05
4.58769e-05
4.53132e-05
4.51285e-05
4.49877e-05
4.47715e-05
4.43793e-05
4.35821e-05
4.57484e-05
4.52978e-05
4.51513e-05
4.50236e-05
4.48059e-05
4.43694e-05
4.37009e-05
4.24096e-05
4.56281e-05
4.52949e-05
4.5169e-05
4.50598e-05
4.48448e-05
4.44781e-05
4.37513e-05
4.26713e-05
4.13817e-05
4.55359e-05
4.5298e-05
4.51959e-05
4.51052e-05
4.48841e-05
4.45443e-05
4.38933e-05
4.29846e-05
4.20513e-05
4.14803e-05
4.54607e-05
4.53144e-05
4.52443e-05
4.51306e-05
4.49528e-05
4.46222e-05
4.40604e-05
4.33512e-05
4.27993e-05
4.24774e-05
4.27688e-05
4.54092e-05
4.53359e-05
4.52693e-05
4.51806e-05
4.5008e-05
4.47085e-05
4.4256e-05
4.37681e-05
4.34725e-05
4.33511e-05
4.35549e-05
4.37914e-05
4.53697e-05
4.53294e-05
4.52946e-05
4.52042e-05
4.50472e-05
4.47982e-05
4.44878e-05
4.41944e-05
4.40426e-05
4.39658e-05
4.40954e-05
4.41828e-05
4.41761e-05
4.53209e-05
4.53175e-05
4.5287e-05
4.52077e-05
4.50703e-05
4.48947e-05
4.47053e-05
4.45691e-05
4.44624e-05
4.44198e-05
4.44476e-05
4.44888e-05
4.45028e-05
4.44756e-05
4.52808e-05
4.52903e-05
4.52689e-05
4.52024e-05
4.51112e-05
4.50025e-05
4.49215e-05
4.48298e-05
4.47831e-05
4.4772e-05
4.47748e-05
4.47896e-05
4.48237e-05
4.48289e-05
4.4818e-05
4.52104e-05
4.5251e-05
4.52475e-05
4.51925e-05
4.51394e-05
4.50867e-05
4.50809e-05
4.50532e-05
4.50346e-05
4.50313e-05
4.50357e-05
4.50504e-05
4.50662e-05
4.5085e-05
4.5081e-05
4.50699e-05
4.51964e-05
4.52331e-05
4.52597e-05
4.52395e-05
4.52204e-05
4.52077e-05
4.51824e-05
4.51777e-05
4.52011e-05
4.52283e-05
4.52546e-05
4.52811e-05
4.53042e-05
4.53129e-05
4.53112e-05
4.52882e-05
4.52742e-05
4.51159e-05
4.51611e-05
4.52456e-05
4.5306e-05
4.5338e-05
4.53635e-05
4.54017e-05
4.54475e-05
4.5492e-05
4.55171e-05
4.55346e-05
4.5565e-05
4.5585e-05
4.559e-05
4.55842e-05
4.55471e-05
4.55907e-05
4.56473e-05
4.60941e-05
4.63374e-05
4.53176e-05
4.62647e-05
4.53932e-05
4.50847e-05
4.62226e-05
4.53585e-05
4.51569e-05
4.50295e-05
4.61449e-05
4.53271e-05
4.51122e-05
4.50494e-05
4.48029e-05
4.60594e-05
4.5324e-05
4.51018e-05
4.49638e-05
4.48939e-05
4.45151e-05
4.59504e-05
4.5319e-05
4.5118e-05
4.49841e-05
4.47876e-05
4.4449e-05
4.38069e-05
4.5819e-05
4.5296e-05
4.51321e-05
4.50021e-05
4.47959e-05
4.43509e-05
4.37915e-05
4.25788e-05
4.5688e-05
4.5276e-05
4.51335e-05
4.50198e-05
4.48248e-05
4.44357e-05
4.37384e-05
4.26156e-05
4.11792e-05
4.55702e-05
4.52753e-05
4.51539e-05
4.50498e-05
4.4845e-05
4.44946e-05
4.38184e-05
4.27832e-05
4.15512e-05
4.07416e-05
4.54863e-05
4.52791e-05
4.51813e-05
4.51009e-05
4.48877e-05
4.45609e-05
4.39263e-05
4.30343e-05
4.21753e-05
4.16116e-05
4.18311e-05
4.54202e-05
4.52988e-05
4.52351e-05
4.5123e-05
4.49622e-05
4.46475e-05
4.41009e-05
4.3407e-05
4.28197e-05
4.25664e-05
4.28253e-05
4.34174e-05
4.53804e-05
4.53271e-05
4.52595e-05
4.51796e-05
4.5014e-05
4.47342e-05
4.43075e-05
4.38241e-05
4.353e-05
4.33645e-05
4.36084e-05
4.39254e-05
4.40824e-05
4.53575e-05
4.53222e-05
4.52922e-05
4.52043e-05
4.50563e-05
4.48198e-05
4.45262e-05
4.42563e-05
4.41001e-05
4.40165e-05
4.41118e-05
4.4236e-05
4.43039e-05
4.42271e-05
4.53205e-05
4.53203e-05
4.52895e-05
4.5211e-05
4.50809e-05
4.4917e-05
4.47395e-05
4.46168e-05
4.45072e-05
4.44723e-05
4.44891e-05
4.45012e-05
4.45468e-05
4.45472e-05
4.45038e-05
4.52831e-05
4.52986e-05
4.5279e-05
4.52137e-05
4.51242e-05
4.50237e-05
4.4944e-05
4.48613e-05
4.48228e-05
4.48083e-05
4.48061e-05
4.48146e-05
4.48293e-05
4.48569e-05
4.48514e-05
4.48231e-05
4.52006e-05
4.52468e-05
4.52616e-05
4.52144e-05
4.51594e-05
4.51056e-05
4.51025e-05
4.50768e-05
4.50588e-05
4.50538e-05
4.50563e-05
4.50659e-05
4.50783e-05
4.50868e-05
4.50951e-05
4.50848e-05
4.5075e-05
4.52002e-05
4.52582e-05
4.52666e-05
4.52486e-05
4.52435e-05
4.52302e-05
4.52036e-05
4.51938e-05
4.5208e-05
4.52314e-05
4.52575e-05
4.52854e-05
4.53075e-05
4.53173e-05
4.53121e-05
4.52991e-05
4.52783e-05
4.52745e-05
4.51592e-05
4.51891e-05
4.52481e-05
4.52995e-05
4.53267e-05
4.53522e-05
4.53873e-05
4.54351e-05
4.54785e-05
4.55091e-05
4.55315e-05
4.55621e-05
4.55825e-05
4.55897e-05
4.559e-05
4.55537e-05
4.55925e-05
4.5598e-05
4.5646e-05
4.61318e-05
4.63427e-05
4.53799e-05
4.62726e-05
4.5417e-05
4.51629e-05
4.6242e-05
4.53761e-05
4.51828e-05
4.51189e-05
4.61909e-05
4.53463e-05
4.51319e-05
4.50881e-05
4.49227e-05
4.61175e-05
4.5338e-05
4.51124e-05
4.4991e-05
4.49379e-05
4.4686e-05
4.60144e-05
4.53333e-05
4.51181e-05
4.50068e-05
4.48093e-05
4.45474e-05
4.40219e-05
4.58914e-05
4.53076e-05
4.51313e-05
4.50028e-05
4.4814e-05
4.43896e-05
4.39366e-05
4.28229e-05
4.57555e-05
4.52764e-05
4.51189e-05
4.50033e-05
4.48252e-05
4.44412e-05
4.38071e-05
4.26995e-05
4.12492e-05
4.56261e-05
4.52547e-05
4.51206e-05
4.50125e-05
4.48301e-05
4.44612e-05
4.38282e-05
4.27144e-05
4.12896e-05
4.02693e-05
4.55094e-05
4.52548e-05
4.51404e-05
4.50447e-05
4.48505e-05
4.45102e-05
4.38604e-05
4.28706e-05
4.16999e-05
4.08359e-05
4.07607e-05
4.54354e-05
4.52597e-05
4.5166e-05
4.50984e-05
4.48933e-05
4.45935e-05
4.39737e-05
4.31005e-05
4.22133e-05
4.17348e-05
4.18092e-05
4.27402e-05
4.538e-05
4.52842e-05
4.52245e-05
4.51137e-05
4.49726e-05
4.46745e-05
4.41532e-05
4.34781e-05
4.28948e-05
4.25754e-05
4.28934e-05
4.34976e-05
4.40919e-05
4.53553e-05
4.5318e-05
4.52487e-05
4.5177e-05
4.50198e-05
4.47575e-05
4.43607e-05
4.38954e-05
4.36014e-05
4.34392e-05
4.36184e-05
4.39707e-05
4.4248e-05
4.4221e-05
4.5345e-05
4.53165e-05
4.52893e-05
4.52037e-05
4.5064e-05
4.48415e-05
4.45666e-05
4.43176e-05
4.41708e-05
4.40863e-05
4.41767e-05
4.42557e-05
4.43576e-05
4.43657e-05
4.42489e-05
4.53206e-05
4.53249e-05
4.52945e-05
4.52161e-05
4.50906e-05
4.49388e-05
4.47727e-05
4.46638e-05
4.4553e-05
4.45347e-05
4.45381e-05
4.45423e-05
4.45581e-05
4.45884e-05
4.45781e-05
4.45161e-05
4.52861e-05
4.53035e-05
4.52899e-05
4.52276e-05
4.51385e-05
4.50483e-05
4.49649e-05
4.48949e-05
4.48631e-05
4.48459e-05
4.48419e-05
4.48436e-05
4.48517e-05
4.48609e-05
4.48763e-05
4.48594e-05
4.48221e-05
4.52186e-05
4.52505e-05
4.52514e-05
4.52182e-05
4.51817e-05
4.513e-05
4.51241e-05
4.51037e-05
4.50849e-05
4.50777e-05
4.50777e-05
4.50841e-05
4.50918e-05
4.50975e-05
4.50957e-05
4.50974e-05
4.509e-05
4.509e-05
4.5176e-05
4.52556e-05
4.52979e-05
4.52642e-05
4.52486e-05
4.52476e-05
4.52259e-05
4.52163e-05
4.5226e-05
4.52415e-05
4.52603e-05
4.52862e-05
4.53102e-05
4.532e-05
4.53164e-05
4.53012e-05
4.52893e-05
4.52773e-05
4.52859e-05
4.51845e-05
4.5223e-05
4.52704e-05
4.52991e-05
4.53185e-05
4.5345e-05
4.53732e-05
4.54188e-05
4.54616e-05
4.54958e-05
4.55179e-05
4.55516e-05
4.55784e-05
4.5586e-05
4.5592e-05
4.55887e-05
4.55927e-05
4.56041e-05
4.56083e-05
4.56253e-05
4.61602e-05
4.6335e-05
4.54278e-05
4.627e-05
4.54397e-05
4.52273e-05
4.62545e-05
4.53933e-05
4.52107e-05
4.51915e-05
4.62154e-05
4.5372e-05
4.51535e-05
4.51249e-05
4.50283e-05
4.61598e-05
4.53649e-05
4.51318e-05
4.502e-05
4.49802e-05
4.48335e-05
4.60802e-05
4.53561e-05
4.51338e-05
4.50458e-05
4.48323e-05
4.46465e-05
4.42159e-05
4.59582e-05
4.53236e-05
4.51439e-05
4.50266e-05
4.48483e-05
4.44707e-05
4.40627e-05
4.30657e-05
4.58247e-05
4.52902e-05
4.51179e-05
4.50144e-05
4.48485e-05
4.44991e-05
4.39264e-05
4.28558e-05
4.1454e-05
4.56921e-05
4.52574e-05
4.51125e-05
4.49968e-05
4.48444e-05
4.44674e-05
4.39067e-05
4.27786e-05
4.12835e-05
4.00795e-05
4.55599e-05
4.52334e-05
4.51083e-05
4.50126e-05
4.48382e-05
4.44736e-05
4.38687e-05
4.28308e-05
4.14472e-05
4.03122e-05
3.98064e-05
4.5447e-05
4.52338e-05
4.51253e-05
4.50422e-05
4.48604e-05
4.45413e-05
4.39113e-05
4.29413e-05
4.17664e-05
4.09987e-05
4.06459e-05
4.17666e-05
4.53846e-05
4.5239e-05
4.51513e-05
4.50867e-05
4.49017e-05
4.46291e-05
4.40404e-05
4.31923e-05
4.22959e-05
4.17567e-05
4.18912e-05
4.26753e-05
4.40531e-05
4.53406e-05
4.527e-05
4.52057e-05
4.51058e-05
4.49804e-05
4.47018e-05
4.42101e-05
4.35643e-05
4.29934e-05
4.26531e-05
4.28887e-05
4.35258e-05
4.42501e-05
4.45796e-05
4.5332e-05
4.53032e-05
4.52399e-05
4.51747e-05
4.50243e-05
4.47779e-05
4.44086e-05
4.39715e-05
4.36916e-05
4.35356e-05
4.369e-05
4.39905e-05
4.42924e-05
4.44232e-05
4.42642e-05
4.5335e-05
4.53181e-05
4.52878e-05
4.52036e-05
4.50699e-05
4.48608e-05
4.46081e-05
4.43749e-05
4.42471e-05
4.41654e-05
4.42525e-05
4.43175e-05
4.43789e-05
4.44215e-05
4.43945e-05
4.42517e-05
4.53224e-05
4.53264e-05
4.52989e-05
4.52211e-05
4.51e-05
4.49601e-05
4.48047e-05
4.47085e-05
4.46041e-05
4.46016e-05
4.45963e-05
4.45926e-05
4.45958e-05
4.45985e-05
4.46167e-05
4.45927e-05
4.45164e-05
4.52784e-05
4.52936e-05
4.52822e-05
4.52376e-05
4.5156e-05
4.50738e-05
4.49772e-05
4.49305e-05
4.49037e-05
4.48854e-05
4.48789e-05
4.48768e-05
4.48777e-05
4.4881e-05
4.48787e-05
4.48808e-05
4.48596e-05
4.48265e-05
4.52689e-05
4.53116e-05
4.5296e-05
4.52356e-05
4.51657e-05
4.51403e-05
4.51497e-05
4.51309e-05
4.51115e-05
4.51032e-05
4.51006e-05
4.51033e-05
4.51078e-05
4.51093e-05
4.51054e-05
4.50969e-05
4.5101e-05
4.51044e-05
4.51146e-05
4.51514e-05
4.52269e-05
4.52912e-05
4.52973e-05
4.52784e-05
4.52617e-05
4.52401e-05
4.52384e-05
4.52448e-05
4.52582e-05
4.52748e-05
4.52923e-05
4.53093e-05
4.53218e-05
4.53193e-05
4.53085e-05
4.52917e-05
4.52891e-05
4.52852e-05
4.53026e-05
4.51961e-05
4.52296e-05
4.52901e-05
4.53188e-05
4.53173e-05
4.53365e-05
4.53641e-05
4.54055e-05
4.54436e-05
4.54787e-05
4.55039e-05
4.55323e-05
4.55615e-05
4.55798e-05
4.55905e-05
4.55985e-05
4.55541e-05
4.55924e-05
4.56033e-05
4.56269e-05
4.56498e-05
4.61757e-05
4.63201e-05
4.54654e-05
4.6257e-05
4.54614e-05
4.52791e-05
4.62548e-05
4.54047e-05
4.524e-05
4.52349e-05
4.62321e-05
4.53949e-05
4.51728e-05
4.51617e-05
4.51079e-05
4.61899e-05
4.53929e-05
4.51536e-05
4.5042e-05
4.50245e-05
4.49501e-05
4.61275e-05
4.53876e-05
4.51587e-05
4.50822e-05
4.48565e-05
4.47405e-05
4.43769e-05
4.6026e-05
4.53525e-05
4.51707e-05
4.5061e-05
4.48935e-05
4.45527e-05
4.4175e-05
4.33234e-05
4.58924e-05
4.53043e-05
4.51305e-05
4.50442e-05
4.48851e-05
4.45982e-05
4.40317e-05
4.30229e-05
4.16322e-05
4.57609e-05
4.52705e-05
4.51136e-05
4.50072e-05
4.48706e-05
4.45315e-05
4.40367e-05
4.2914e-05
4.14048e-05
4.00582e-05
4.5622e-05
4.52395e-05
4.51024e-05
4.49995e-05
4.4845e-05
4.44678e-05
4.39455e-05
4.29136e-05
4.14647e-05
4.00431e-05
3.91093e-05
4.54934e-05
4.52106e-05
4.50954e-05
4.50133e-05
4.48524e-05
4.44998e-05
4.39179e-05
4.29076e-05
4.15468e-05
4.05256e-05
3.95951e-05
4.06699e-05
4.53843e-05
4.52111e-05
4.51093e-05
4.50368e-05
4.48729e-05
4.45815e-05
4.39812e-05
4.30256e-05
4.18568e-05
4.10421e-05
4.07627e-05
4.15304e-05
4.36333e-05
4.53332e-05
4.52191e-05
4.51359e-05
4.5068e-05
4.4912e-05
4.46641e-05
4.41106e-05
4.33103e-05
4.23966e-05
4.18472e-05
4.1865e-05
4.26999e-05
4.40294e-05
4.53357e-05
4.53024e-05
4.52567e-05
4.51862e-05
4.51043e-05
4.49823e-05
4.47252e-05
4.42672e-05
4.3662e-05
4.31194e-05
4.27503e-05
4.29619e-05
4.35301e-05
4.42052e-05
4.48635e-05
4.47861e-05
4.53147e-05
4.52907e-05
4.52363e-05
4.51693e-05
4.50261e-05
4.47951e-05
4.44528e-05
4.40508e-05
4.37829e-05
4.36508e-05
4.37917e-05
4.4071e-05
4.43175e-05
4.44781e-05
4.44927e-05
4.42542e-05
4.53241e-05
4.53167e-05
4.52862e-05
4.52039e-05
4.50762e-05
4.48799e-05
4.46463e-05
4.44296e-05
4.43301e-05
4.4249e-05
4.4347e-05
4.43947e-05
4.44381e-05
4.44428e-05
4.44511e-05
4.44018e-05
4.42391e-05
4.53183e-05
4.53262e-05
4.53034e-05
4.52291e-05
4.51161e-05
4.49745e-05
4.48377e-05
4.47521e-05
4.46602e-05
4.46671e-05
4.46577e-05
4.46513e-05
4.46408e-05
4.46327e-05
4.46242e-05
4.46289e-05
4.45945e-05
4.45154e-05
4.52978e-05
4.53247e-05
4.52854e-05
4.52198e-05
4.51436e-05
4.50961e-05
4.49968e-05
4.49665e-05
4.49443e-05
4.49243e-05
4.49169e-05
4.49112e-05
4.49079e-05
4.49045e-05
4.48976e-05
4.48822e-05
4.48781e-05
4.48623e-05
4.48426e-05
4.52769e-05
4.53122e-05
4.53223e-05
4.52946e-05
4.52112e-05
4.51608e-05
4.51499e-05
4.51574e-05
4.51368e-05
4.51279e-05
4.51241e-05
4.5124e-05
4.51252e-05
4.51238e-05
4.51162e-05
4.51056e-05
4.50999e-05
4.51141e-05
4.51276e-05
4.51436e-05
4.51655e-05
4.5238e-05
4.52769e-05
4.52919e-05
4.53218e-05
4.52909e-05
4.5259e-05
4.52486e-05
4.52619e-05
4.52762e-05
4.52897e-05
4.53055e-05
4.532e-05
4.5323e-05
4.53214e-05
4.53127e-05
4.52987e-05
4.52897e-05
4.52972e-05
4.53021e-05
4.53268e-05
4.52016e-05
4.52271e-05
4.52901e-05
4.53307e-05
4.53343e-05
4.53431e-05
4.53545e-05
4.53938e-05
4.54278e-05
4.54629e-05
4.54865e-05
4.55113e-05
4.55423e-05
4.55624e-05
4.5581e-05
4.55955e-05
4.5561e-05
4.56159e-05
4.56162e-05
4.56229e-05
4.55745e-05
4.55968e-05
4.61795e-05
4.63002e-05
4.54945e-05
4.62373e-05
4.54786e-05
4.53218e-05
4.6249e-05
4.54102e-05
4.5266e-05
4.52727e-05
4.62358e-05
4.54114e-05
4.51897e-05
4.51954e-05
4.51869e-05
4.62061e-05
4.54161e-05
4.51733e-05
4.50581e-05
4.50707e-05
4.50325e-05
4.61637e-05
4.54175e-05
4.51873e-05
4.51109e-05
4.48786e-05
4.48238e-05
4.45147e-05
4.60738e-05
4.53871e-05
4.52083e-05
4.50911e-05
4.49376e-05
4.46157e-05
4.42779e-05
4.35203e-05
4.59559e-05
4.53314e-05
4.51562e-05
4.5085e-05
4.49324e-05
4.46937e-05
4.41117e-05
4.32092e-05
4.18917e-05
4.58334e-05
4.52872e-05
4.51309e-05
4.50344e-05
4.49125e-05
4.46324e-05
4.41569e-05
4.30647e-05
4.15467e-05
4.01425e-05
4.56891e-05
4.52514e-05
4.51044e-05
4.50133e-05
4.48649e-05
4.45182e-05
4.40751e-05
4.3079e-05
4.15977e-05
3.99563e-05
3.86077e-05
4.55528e-05
4.52186e-05
4.5091e-05
4.50023e-05
4.48603e-05
4.44881e-05
4.39813e-05
4.2981e-05
4.15723e-05
4.03199e-05
3.88529e-05
3.95612e-05
4.54259e-05
4.5185e-05
4.50823e-05
4.50104e-05
4.48687e-05
4.45432e-05
4.3982e-05
4.29851e-05
4.16337e-05
4.05918e-05
3.97744e-05
4.02772e-05
4.26797e-05
4.5318e-05
4.51896e-05
4.50892e-05
4.50315e-05
4.48785e-05
4.46269e-05
4.40603e-05
4.31398e-05
4.19641e-05
4.11377e-05
4.07278e-05
4.16181e-05
4.32711e-05
4.59044e-05
4.52863e-05
4.5197e-05
4.51228e-05
4.5049e-05
4.49239e-05
4.46889e-05
4.41834e-05
4.34239e-05
4.25316e-05
4.19557e-05
4.19337e-05
4.26732e-05
4.38265e-05
4.55239e-05
4.58639e-05
4.52711e-05
4.52433e-05
4.51684e-05
4.51013e-05
4.49791e-05
4.4745e-05
4.43232e-05
4.37641e-05
4.32444e-05
4.28893e-05
4.30663e-05
4.36145e-05
4.42227e-05
4.48084e-05
4.5155e-05
4.47832e-05
4.5297e-05
4.52831e-05
4.5237e-05
4.51644e-05
4.50292e-05
4.48088e-05
4.44919e-05
4.41245e-05
4.38738e-05
4.37648e-05
4.39197e-05
4.41777e-05
4.43952e-05
4.45085e-05
4.45548e-05
4.45054e-05
4.42124e-05
4.53176e-05
4.53277e-05
4.52902e-05
4.52102e-05
4.5079e-05
4.48952e-05
4.46799e-05
4.44898e-05
4.44004e-05
4.43426e-05
4.44467e-05
4.44884e-05
4.45119e-05
4.44986e-05
4.44699e-05
4.44592e-05
4.43932e-05
4.42204e-05
4.53139e-05
4.53134e-05
4.52864e-05
4.52101e-05
4.51243e-05
4.4992e-05
4.48817e-05
4.47839e-05
4.47181e-05
4.47288e-05
4.47209e-05
4.47123e-05
4.46939e-05
4.46733e-05
4.46557e-05
4.46333e-05
4.46279e-05
4.4593e-05
4.45217e-05
4.53277e-05
4.53628e-05
4.53473e-05
4.52816e-05
4.51887e-05
4.50678e-05
4.50025e-05
4.50046e-05
4.49809e-05
4.4964e-05
4.49546e-05
4.49459e-05
4.49394e-05
4.49322e-05
4.49192e-05
4.49003e-05
4.48786e-05
4.48789e-05
4.48741e-05
4.48668e-05
4.52542e-05
4.52887e-05
4.53067e-05
4.52989e-05
4.52436e-05
4.52251e-05
4.51923e-05
4.5155e-05
4.51606e-05
4.51521e-05
4.51462e-05
4.51446e-05
4.51437e-05
4.514e-05
4.513e-05
4.51157e-05
4.51078e-05
4.51124e-05
4.51363e-05
4.5154e-05
4.51723e-05
4.51944e-05
4.52576e-05
4.52874e-05
4.52836e-05
4.53129e-05
4.53208e-05
4.5301e-05
4.52669e-05
4.52694e-05
4.52908e-05
4.53041e-05
4.5318e-05
4.53319e-05
4.53366e-05
4.5328e-05
4.53151e-05
4.53041e-05
4.52958e-05
4.52971e-05
4.53146e-05
4.53194e-05
4.53482e-05
4.52114e-05
4.52337e-05
4.52896e-05
4.53283e-05
4.53464e-05
4.53455e-05
4.53581e-05
4.53789e-05
4.54163e-05
4.54451e-05
4.54704e-05
4.54918e-05
4.55242e-05
4.55472e-05
4.55665e-05
4.55845e-05
4.55657e-05
4.56083e-05
4.56429e-05
4.56459e-05
4.55708e-05
4.5596e-05
4.56282e-05
4.61739e-05
4.6278e-05
4.55175e-05
4.62116e-05
4.54897e-05
4.53551e-05
4.6235e-05
4.54125e-05
4.5287e-05
4.53034e-05
4.62321e-05
4.54229e-05
4.52054e-05
4.52211e-05
4.52531e-05
4.62128e-05
4.5434e-05
4.51875e-05
4.50761e-05
4.51109e-05
4.50974e-05
4.61842e-05
4.54428e-05
4.52121e-05
4.51344e-05
4.49028e-05
4.48897e-05
4.46181e-05
4.611e-05
4.54212e-05
4.5247e-05
4.51175e-05
4.49772e-05
4.46582e-05
4.43864e-05
4.36998e-05
4.60028e-05
4.53621e-05
4.51938e-05
4.51266e-05
4.49782e-05
4.47714e-05
4.41707e-05
4.33723e-05
4.21894e-05
4.58969e-05
4.53153e-05
4.51597e-05
4.50681e-05
4.49568e-05
4.47341e-05
4.42597e-05
4.32255e-05
4.17501e-05
4.03611e-05
4.57595e-05
4.52744e-05
4.51208e-05
4.50413e-05
4.49096e-05
4.46135e-05
4.42026e-05
4.3256e-05
4.17104e-05
3.9987e-05
3.84266e-05
4.56202e-05
4.52301e-05
4.50986e-05
4.50187e-05
4.48772e-05
4.4524e-05
4.41033e-05
4.31505e-05
4.17436e-05
4.02434e-05
3.83705e-05
3.85651e-05
4.54787e-05
4.51943e-05
4.50805e-05
4.50027e-05
4.48828e-05
4.45306e-05
4.4025e-05
4.30412e-05
4.16634e-05
4.04012e-05
3.91183e-05
3.9089e-05
4.12662e-05
4.53559e-05
4.51596e-05
4.5062e-05
4.50089e-05
4.48755e-05
4.45978e-05
4.40599e-05
4.3086e-05
4.17339e-05
4.06676e-05
3.97416e-05
4.04831e-05
4.18852e-05
4.58351e-05
4.52589e-05
4.51643e-05
4.50685e-05
4.50212e-05
4.48811e-05
4.46618e-05
4.41471e-05
4.32705e-05
4.21032e-05
4.12479e-05
4.07753e-05
4.15504e-05
4.30098e-05
4.57699e-05
4.70701e-05
4.52406e-05
4.51755e-05
4.51069e-05
4.5029e-05
4.49294e-05
4.47075e-05
4.42441e-05
4.35364e-05
4.26864e-05
4.20995e-05
4.20316e-05
4.27464e-05
4.38099e-05
4.53117e-05
4.6278e-05
4.59316e-05
4.52459e-05
4.524e-05
4.51581e-05
4.50989e-05
4.49748e-05
4.47597e-05
4.43721e-05
4.38691e-05
4.33622e-05
4.30521e-05
4.31998e-05
4.3738e-05
4.42981e-05
4.48447e-05
4.51309e-05