/*--------------------------------*- C++ -*----------------------------------*\
| =========                 |                                                 |
| \\      /  F ield         | OpenFOAM: The Open Source CFD Toolbox           |
|  \\    /   O peration     | Version:  v2012                                 |
|   \\  /    A nd           | Website:  www.openfoam.com                      |
|    \\/     M anipulation  |                                                 |
\*---------------------------------------------------------------------------*/
FoamFile
{
    version     2.0;
    format      ascii;
    class       volScalarField;
    location    "15001";
    object      I1;
}
// * * * * * * * * * * * * * * * * * * * * * * * * * * * * * * * * * * * * * //

dimensions      [0 0 0 0 0 0 0];


internalField   nonuniform List<scalar> 
294912
(
1.87875e-17
2.73782e-13
2.11312e-17
2.6118e-17
7.47518e-11
2.82842e-13
5.55658e-13
2.5211e-17
3.10321e-17
2.94137e-17
2.75405e-09
7.71045e-11
1.39947e-10
2.89696e-13
5.65913e-13
7.33625e-13
3.02841e-17
3.88413e-17
3.45792e-17
4.2468e-17
3.75765e-08
2.87753e-09
5.19047e-09
7.80017e-11
1.43639e-10
1.85696e-10
2.93779e-13
5.62262e-13
7.49855e-13
9.96874e-13
3.39402e-17
4.67628e-17
4.36048e-17
5.07546e-17
6.7568e-17
2.99261e-07
4.01615e-08
7.09485e-08
2.98539e-09
5.32803e-09
6.82166e-09
7.93013e-11
1.43842e-10
1.91049e-10
2.5066e-10
3.1174e-13
5.58851e-13
7.40595e-13
1.01466e-12
1.2771e-12
3.76564e-17
5.20375e-17
5.20167e-17
6.42971e-17
7.68576e-17
9.04405e-17
1.71735e-06
3.24151e-07
5.95406e-07
4.21827e-08
7.64899e-08
9.20612e-08
3.11429e-09
5.52845e-09
7.11558e-09
8.46482e-09
8.13732e-11
1.44351e-10
1.91997e-10
2.54413e-10
3.03279e-10
3.2657e-13
5.67323e-13
7.38891e-13
9.85465e-13
1.30158e-12
1.54101e-12
4.18963e-17
5.54292e-17
6.02267e-17
7.28246e-17
9.09469e-17
1.12991e-16
1.24372e-16
7.4895e-06
1.85941e-06
3.47581e-06
3.47734e-07
6.38059e-07
7.65699e-07
4.53473e-08
7.96062e-08
9.89389e-08
1.14055e-07
3.30479e-09
5.77553e-09
7.3242e-09
8.82424e-09
9.77641e-09
8.70685e-11
1.48302e-10
1.9191e-10
2.53717e-10
3.09104e-10
3.31134e-10
3.43334e-13
5.82579e-13
7.52807e-13
9.66848e-13
1.26424e-12
1.56165e-12
1.69794e-12
4.47653e-17
6.19222e-17
6.31336e-17
8.17886e-17
1.02901e-16
1.24052e-16
1.57595e-16
1.63097e-16
2.6173e-05
8.16096e-06
1.54372e-05
2.01245e-06
3.76216e-06
4.5445e-06
3.78921e-07
6.72415e-07
8.30107e-07
9.6896e-07
4.90838e-08
8.52331e-08
1.03964e-07
1.20501e-07
1.31012e-07
3.58889e-09
6.11398e-09
7.50612e-09
9.16438e-09
1.00407e-08
1.02946e-08
9.28421e-11
1.54703e-10
1.9665e-10
2.51103e-10
3.05247e-10
3.38573e-10
3.32888e-10
3.53039e-13
6.22343e-13
7.54887e-13
9.95831e-13
1.21467e-12
1.51085e-12
1.73387e-12
1.76653e-12
5.02822e-17
6.60969e-17
6.95086e-17
8.82661e-17
1.07091e-16
1.37731e-16
1.75465e-16
1.79836e-16
2.50723e-16
7.48743e-05
2.87991e-05
5.34695e-05
8.90808e-06
1.6614e-05
2.06881e-05
2.19439e-06
4.04009e-06
4.91178e-06
5.94874e-06
4.1569e-07
7.35809e-07
8.74583e-07
1.04818e-06
1.1192e-06
5.34317e-08
9.13831e-08
1.09808e-07
1.26592e-07
1.37937e-07
1.38698e-07
3.84465e-09
6.48734e-09
7.82769e-09
9.31307e-09
1.02898e-08
1.06485e-08
1.02206e-08
1.00143e-10
1.63535e-10
2.04274e-10
2.52712e-10
3.02289e-10
3.28935e-10
3.41933e-10
3.14346e-10
3.71147e-13
6.38987e-13
8.09812e-13
9.85967e-13
1.24232e-12
1.43938e-12
1.65902e-12
1.82722e-12
1.77888e-12
6.09071e-17
7.00191e-17
7.62497e-17
9.46034e-17
1.13416e-16
1.41157e-16
1.83796e-16
2.0399e-16
2.63548e-16
2.34976e-16
0.000183782
8.24864e-05
0.000154387
3.11436e-05
5.91352e-05
7.20375e-05
9.67438e-06
1.79601e-05
2.24612e-05
2.67443e-05
2.41959e-06
4.35635e-06
5.32163e-06
6.31949e-06
7.0525e-06
4.57524e-07
7.95458e-07
9.42052e-07
1.11137e-06
1.19296e-06
1.24508e-06
5.87503e-08
9.83941e-08
1.15377e-07
1.3371e-07
1.42451e-07
1.47305e-07
1.41707e-07
4.2051e-09
6.94516e-09
8.18871e-09
9.59221e-09
1.03848e-08
1.07854e-08
1.0601e-08
9.5683e-09
1.05732e-10
1.77403e-10
2.11204e-10
2.61761e-10
2.96945e-10
3.26982e-10
3.28177e-10
3.21122e-10
2.89197e-10
3.76013e-13
6.77049e-13
8.52738e-13
1.01965e-12
1.2522e-12
1.40142e-12
1.61364e-12
1.72635e-12
1.82587e-12
1.8331e-12
6.94681e-17
8.30566e-17
8.19048e-17
9.99185e-17
1.22397e-16
1.46283e-16
1.75082e-16
2.32185e-16
2.45088e-16
3.03285e-16
2.55732e-16
0.000386336
0.00020023
0.000366678
8.96871e-05
0.000168084
0.000203572
3.38461e-05
6.3361e-05
7.91587e-05
9.4292e-05
1.06399e-05
1.95949e-05
2.41802e-05
2.89747e-05
3.26179e-05
2.68207e-06
4.77975e-06
5.73439e-06
6.83956e-06
7.49788e-06
7.91061e-06
5.01901e-07
8.5762e-07
1.00982e-06
1.18197e-06
1.26701e-06
1.32344e-06
1.30477e-06
6.39165e-08
1.05483e-07
1.2217e-07
1.38962e-07
1.48388e-07
1.52139e-07
1.49521e-07
1.37437e-07
4.61883e-09
7.46438e-09
8.60716e-09
9.9296e-09
1.05037e-08
1.08746e-08
1.05568e-08
9.94929e-09
8.70379e-09
1.11217e-10
1.89641e-10
2.26543e-10
2.64806e-10
3.05335e-10
3.14008e-10
3.25416e-10
3.06933e-10
2.93499e-10
2.61711e-10
4.02847e-13
6.88326e-13
9.04415e-13
1.06833e-12
1.27704e-12
1.38287e-12
1.56853e-12
1.64845e-12
1.74215e-12
1.86374e-12
1.63537e-12
8.23244e-17
9.79897e-17
9.46585e-17
1.06781e-16
1.28422e-16
1.51573e-16
1.82152e-16
2.10407e-16
2.78693e-16
2.73857e-16
3.33692e-16
2.58167e-16
0.000715245
0.000418239
0.000743179
0.000217007
0.000396312
0.000473434
9.69938e-05
0.00018022
0.000222784
0.000262826
3.7067e-05
6.89946e-05
8.53539e-05
0.000102218
0.000114497
1.18254e-05
2.15417e-05
2.6212e-05
3.14637e-05
3.48645e-05
3.68945e-05
2.9479e-06
5.18107e-06
6.21199e-06
7.36393e-06
8.04635e-06
8.48871e-06
8.48118e-06
5.46494e-07
9.22578e-07
1.07746e-06
1.24698e-06
1.34664e-06
1.38899e-06
1.39434e-06
1.32457e-06
7.01938e-08
1.13371e-07
1.29136e-07
1.45396e-07
1.52642e-07
1.57157e-07
1.53158e-07
1.45386e-07
1.26496e-07
5.03015e-09
8.00752e-09
9.12893e-09
1.01794e-08
1.08408e-08
1.07317e-08
1.06947e-08
9.78507e-09
9.01843e-09
7.77459e-09
1.13074e-10
2.00237e-10
2.4117e-10
2.74187e-10
3.08386e-10
3.09917e-10
3.17865e-10
2.94867e-10
2.83314e-10
2.6899e-10
2.24745e-10
4.63714e-13
7.07585e-13
9.20574e-13
1.15205e-12
1.27363e-12
1.43528e-12
1.48393e-12
1.60084e-12
1.67927e-12
1.67697e-12
1.79113e-12
1.54931e-12
9.40848e-17
1.12811e-16
1.163e-16
1.14578e-16
1.3634e-16
1.56768e-16
1.84527e-16
2.09508e-16
2.63704e-16
2.75348e-16
3.47359e-16
2.83089e-16
3.27601e-16
0.00117767
0.00077219
0.00130049
0.000451699
0.000786979
0.000940116
0.000234283
0.000426349
0.000509799
0.000600622
0.00010659
0.000195635
0.000239143
0.00028589
0.000309797
4.07708e-05
7.59929e-05
9.25837e-05
0.000110709
0.000123391
0.000127795
1.28598e-05
2.35387e-05
2.85126e-05
3.40997e-05
3.7895e-05
3.94695e-05
4.00686e-05
3.22625e-06
5.58976e-06
6.683e-06
7.87556e-06
8.66548e-06
9.04738e-06
9.12075e-06
8.87641e-06
6.01644e-07
9.91864e-07
1.15042e-06
1.31365e-06
1.41323e-06
1.45953e-06
1.46379e-06
1.41053e-06
1.26188e-06
7.66182e-08
1.21543e-07
1.36315e-07
1.51854e-07
1.57577e-07
1.61042e-07
1.5587e-07
1.49195e-07
1.3316e-07
1.13509e-07
5.20586e-09
8.57689e-09
9.54383e-09
1.06015e-08
1.08546e-08
1.1043e-08
1.03387e-08
9.87938e-09
8.84831e-09
8.03246e-09
6.81517e-09
1.17526e-10
2.01667e-10
2.5281e-10
2.85355e-10
3.11496e-10
3.06934e-10
3.10377e-10
2.82504e-10
2.73625e-10
2.54746e-10
2.31782e-10
2.10664e-10
5.17692e-13
7.94518e-13
9.34672e-13
1.19013e-12
1.35318e-12
1.40398e-12
1.50971e-12
1.50443e-12
1.5846e-12
1.63617e-12
1.5838e-12
1.73008e-12
1.46869e-12
1.08329e-16
1.29147e-16
1.37637e-16
1.32024e-16
1.45803e-16
1.61255e-16
1.88341e-16
2.08909e-16
2.5407e-16
2.62066e-16
3.33938e-16
3.02871e-16
3.45775e-16
2.46573e-16
0.00179932
0.0012609
0.00208194
0.000825616
0.00139223
0.00159166
0.000481327
0.00084798
0.000999428
0.00112739
0.000252527
0.000458624
0.000550899
0.000635873
0.000685953
0.000117444
0.000213708
0.000260744
0.000307478
0.000332731
0.000345721
4.52096e-05
8.2537e-05
0.000101907
0.000120793
0.000132651
0.000139182
0.000137578
1.40155e-05
2.54949e-05
3.07755e-05
3.70385e-05
4.09981e-05
4.2725e-05
4.32489e-05
4.20092e-05
3.49137e-06
6.03984e-06
7.1103e-06
8.42924e-06
9.18653e-06
9.67941e-06
9.728e-06
9.5427e-06
8.76146e-06
6.56035e-07
1.06214e-06
1.22312e-06
1.38218e-06
1.48328e-06
1.51443e-06
1.5342e-06
1.46617e-06
1.35111e-06
1.15183e-06
8.22761e-08
1.29502e-07
1.43566e-07
1.56775e-07
1.64086e-07
1.62534e-07
1.61001e-07
1.48709e-07
1.36596e-07
1.20913e-07
9.89256e-08
5.37406e-09
8.83365e-09
9.9772e-09
1.08682e-08
1.09844e-08
1.10636e-08
1.02377e-08
9.75433e-09
8.64643e-09
7.95586e-09
7.09355e-09
5.90619e-09
1.26056e-10
2.04273e-10
2.518e-10
2.97866e-10
3.08569e-10
3.13304e-10
2.91359e-10
2.80825e-10
2.55627e-10
2.42264e-10
2.25883e-10
2.07571e-10
1.91937e-10
5.92986e-13
9.0704e-13
1.00714e-12
1.20513e-12
1.39091e-12
1.43743e-12
1.48996e-12
1.45785e-12
1.50437e-12
1.51092e-12
1.50535e-12
1.61493e-12
1.50043e-12
1.57985e-12
1.22576e-16
1.55705e-16
1.50289e-16
1.64506e-16
1.56994e-16
1.7383e-16
1.86062e-16
2.17891e-16
2.32046e-16
2.74949e-16
2.7414e-16
3.41402e-16
2.95578e-16
3.3487e-16
2.38161e-16
0.0025315
0.00189063
0.00300008
0.00135094
0.00217575
0.00242328
0.00087233
0.00147632
0.00168572
0.00184477
0.000518325
0.000912723
0.0010647
0.00119102
0.00124714
0.000280515
0.000498223
0.000598028
0.000685699
0.000722907
0.000731641
0.000128456
0.000233043
0.000287432
0.000334233
0.000360398
0.000370106
0.000359536
4.83371e-05
9.03617e-05
0.000109528
0.000132845
0.000144997
0.000150072
0.000149211
0.000144239
1.52189e-05
2.74824e-05
3.30284e-05
3.99086e-05
4.40578e-05
4.65041e-05
4.65016e-05
4.53941e-05
4.27034e-05
3.82705e-06
6.45313e-06
7.64586e-06
8.90301e-06
9.81472e-06
1.01743e-05
1.04059e-05
1.00856e-05
9.47121e-06
8.2195e-06
7.07408e-07
1.13161e-06
1.29082e-06
1.44971e-06
1.55297e-06
1.57482e-06
1.59029e-06
1.51609e-06
1.41352e-06
1.22952e-06
1.0119e-06
8.58501e-08
1.35664e-07
1.49009e-07
1.62287e-07
1.66272e-07
1.68631e-07
1.59571e-07
1.53474e-07
1.35426e-07
1.22923e-07
1.07038e-07
8.62399e-08
5.55332e-09
8.87788e-09
1.01495e-08
1.10335e-08
1.10383e-08
1.0984e-08
1.00868e-08
9.61401e-09
8.36888e-09
7.82326e-09
6.90365e-09
6.17977e-09
5.55774e-09
1.33637e-10
2.13276e-10
2.49573e-10
2.94597e-10
3.13484e-10
3.02841e-10
2.90762e-10
2.60673e-10
2.49638e-10
2.25989e-10
2.11933e-10
2.0389e-10
1.87712e-10
1.76609e-10
6.75598e-13
1.03316e-12
1.12647e-12
1.26507e-12
1.38169e-12
1.46844e-12
1.47276e-12
1.42314e-12
1.42775e-12
1.40621e-12
1.39702e-12
1.49769e-12
1.41921e-12
1.59158e-12
1.36674e-12
1.48153e-16
1.76016e-16
1.82026e-16
1.7459e-16
1.90174e-16
1.80644e-16
2.00515e-16
2.08775e-16
2.4179e-16
2.44571e-16
2.85918e-16
2.71861e-16
3.34603e-16
2.83422e-16
3.27702e-16
2.27406e-16
0.00334234
0.00263139
0.00400993
0.00201709
0.00309807
0.00336429
0.00141643
0.00229078
0.00253028
0.00268682
0.000934042
0.00158107
0.00178096
0.00192238
0.00195017
0.000575477
0.000985042
0.00115268
0.00127303
0.00129867
0.00127479
0.000305833
0.000542887
0.000660143
0.000744084
0.000778606
0.000775569
0.000736742
0.000135948
0.000256767
0.00030866
0.000371041
0.000394503
0.000398583
0.000386297
0.000367572
5.21951e-05
9.73726e-05
0.000117884
0.000144327
0.000157497
0.000165075
0.000161354
0.000155135
0.000147936
1.66635e-05
2.92301e-05
3.58395e-05
4.2266e-05
4.77223e-05
4.95472e-05
5.0517e-05
4.87644e-05
4.62557e-05
4.12908e-05
4.13847e-06
6.88215e-06
8.12551e-06
9.43411e-06
1.04153e-05
1.07414e-05
1.09894e-05
1.06373e-05
1.00942e-05
8.88631e-06
7.40479e-06
7.49278e-07
1.1946e-06
1.34523e-06
1.51876e-06
1.60023e-06
1.65846e-06
1.61573e-06
1.59355e-06
1.43585e-06
1.28536e-06
1.1177e-06
8.47071e-07
8.87656e-08
1.38852e-07
1.53045e-07
1.65122e-07
1.68663e-07
1.70293e-07
1.6091e-07
1.54718e-07
1.34944e-07
1.2419e-07
1.07717e-07
9.15605e-08
7.96676e-08
5.70745e-09
8.94021e-09
1.00241e-08
1.0955e-08
1.1056e-08
1.05938e-08
1.01506e-08
9.05857e-09
8.38188e-09
7.42089e-09
6.72196e-09
6.15706e-09
5.58282e-09
5.13866e-09
1.43364e-10
2.23507e-10
2.51808e-10
2.86281e-10
3.04202e-10
2.97699e-10
2.7794e-10
2.49817e-10
2.35471e-10
2.1213e-10
1.99356e-10
1.91459e-10
1.78907e-10
1.81562e-10
1.54287e-10
8.33868e-13
1.11799e-12
1.30114e-12
1.35682e-12
1.43024e-12
1.43751e-12
1.45658e-12
1.38568e-12
1.35469e-12
1.3072e-12
1.31763e-12
1.30714e-12
1.42591e-12
1.35368e-12
1.53582e-12
1.34152e-12
1.73371e-16
2.07689e-16
2.12619e-16
1.98718e-16
2.0872e-16
1.9606e-16
2.14559e-16
2.1305e-16
2.39667e-16
2.37921e-16
2.69599e-16
2.53804e-16
2.98223e-16
2.71502e-16
3.39842e-16
2.70867e-16
3.18606e-16
0.00415642
0.00345495
0.00500894
0.00277535
0.004065
0.00437323
0.00212844
0.00323629
0.00344672
0.00360332
0.00154246
0.00241885
0.00265289
0.00277429
0.00270764
0.00100757
0.00172602
0.00190035
0.00203401
0.00201473
0.00190044
0.000606162
0.00109951
0.00124678
0.00138949
0.00138622
0.00132242
0.00124469
0.000329732
0.000586061
0.000726435
0.000816728
0.000859213
0.000831453
0.0007751
0.000731554
0.000149465
0.000270006
0.000341427
0.000397298
0.000439343
0.000438151
0.000417538
0.000393455
0.000373555
5.61775e-05
0.000104463
0.000126535
0.000155826
0.000169953
0.000180451
0.000176081
0.000168886
0.000158443
0.000146499
1.77943e-05
3.15059e-05
3.77812e-05
4.58605e-05
5.04007e-05
5.38199e-05
5.33994e-05
5.31097e-05
4.94468e-05
4.4755e-05
3.88981e-05
4.43004e-06
7.29218e-06
8.56643e-06
9.94318e-06
1.10019e-05
1.13392e-05
1.16357e-05
1.11201e-05
1.06997e-05
9.40099e-06
8.06567e-06
6.11987e-06
7.84153e-07
1.24455e-06
1.39479e-06
1.55823e-06
1.66194e-06
1.68467e-06
1.70268e-06
1.59762e-06
1.51024e-06
1.3054e-06
1.1624e-06
9.39437e-07
7.30948e-07
9.11934e-08
1.39906e-07
1.54111e-07
1.65743e-07
1.69027e-07
1.69753e-07
1.60985e-07
1.54259e-07
1.34605e-07
1.24017e-07
1.07304e-07
9.30721e-08
8.39786e-08
7.07683e-08
5.96528e-09
8.89238e-09
9.87949e-09
1.06319e-08
1.07171e-08
1.04171e-08
9.57583e-09
9.01121e-09
7.81635e-09
7.35979e-09
6.37453e-09
5.92836e-09
5.58505e-09
5.13055e-09
4.80386e-09
1.54637e-10
2.33204e-10
2.54812e-10
2.83075e-10
2.88627e-10
2.85715e-10
2.62259e-10
2.37406e-10
2.19519e-10
1.98119e-10
1.86412e-10
1.77324e-10
1.69878e-10
1.70583e-10
1.59251e-10
1.52261e-10
9.64352e-13
1.36326e-12
1.39926e-12
1.53742e-12
1.47101e-12
1.48167e-12
1.39088e-12
1.34629e-12
1.26989e-12
1.2275e-12
1.19362e-12
1.23402e-12
1.22243e-12
1.36647e-12
1.30469e-12
1.49688e-12
1.33472e-12
1.94583e-16
2.34076e-16
2.45638e-16
2.2841e-16
2.30003e-16
2.07883e-16
2.24534e-16
2.20171e-16
2.42946e-16
2.33923e-16
2.57318e-16
2.37955e-16
2.69013e-16
2.45944e-16
3.15032e-16
2.90008e-16
3.50571e-16
2.66449e-16
0.00501813
0.0042679
0.00606966
0.00361359
0.00510557
0.00532462
0.00288445
0.00424296
0.00441814
0.00448069
0.00222775
0.00342575
0.0035882
0.00362602
0.00350752
0.00167817
0.00259812
0.00284018
0.00288342
0.00275265
0.00257959
0.00112604
0.00184142
0.00211624
0.00218911
0.00211251
0.00196216
0.00179316
0.000647985
0.00119687
0.0013616
0.00154682
0.00151324
0.00141223
0.00128593
0.00117521
0.000341173
0.000647685
0.000764422
0.000917475
0.000939742
0.000922404
0.000839208
0.000763499
0.000723246
0.000159743
0.000288646
0.000367894
0.000429082
0.000481762
0.000480633
0.000464671
0.000426144
0.000395395
0.000375879
6.12281e-05
0.000109753
0.000138403
0.000164135
0.000187427
0.00019224
0.000193986
0.000183261
0.00017283
0.000156703
0.000140496
1.91074e-05
3.34176e-05
4.01396e-05
4.88511e-05
5.38756e-05
5.78517e-05
5.71227e-05
5.69398e-05
5.29487e-05
4.85807e-05
4.17344e-05
3.07199e-05
4.67783e-06
7.66067e-06
8.91252e-06
1.04596e-05
1.13949e-05
1.21066e-05
1.20278e-05
1.20212e-05
1.09168e-05
1.00625e-05
8.67612e-06
6.61122e-06
5.04665e-06
8.10832e-07
1.27699e-06
1.42406e-06
1.58963e-06
1.68837e-06
1.72046e-06
1.73984e-06
1.6357e-06
1.55526e-06
1.32863e-06
1.20285e-06
9.74373e-07
7.91909e-07
6.73453e-07
9.27136e-08
1.40839e-07
1.52195e-07
1.64146e-07
1.67471e-07
1.65365e-07
1.62127e-07
1.47812e-07
1.37649e-07
1.19945e-07
1.0807e-07
9.3137e-08
8.29285e-08
7.6973e-08
6.6243e-08
6.17112e-09
8.8658e-09
9.69752e-09
1.02184e-08
1.028e-08
9.90437e-09
9.17764e-09
8.53793e-09
7.49333e-09
7.00714e-09
6.08848e-09
5.69616e-09
5.36263e-09
5.01934e-09
4.96975e-09
4.33619e-09
1.76547e-10
2.41722e-10
2.6418e-10
2.73822e-10
2.8062e-10
2.66758e-10
2.45886e-10
2.21719e-10
2.01677e-10
1.84648e-10
1.71304e-10
1.64137e-10
1.60212e-10
1.55258e-10
1.57869e-10
1.48193e-10
1.42187e-10
1.21496e-12
1.6111e-12
1.60703e-12
1.71144e-12
1.53814e-12
1.53851e-12
1.35906e-12
1.29819e-12
1.17699e-12
1.13771e-12
1.09046e-12
1.1191e-12
1.11418e-12
1.22482e-12
1.22157e-12
1.39702e-12
1.33681e-12
1.46263e-12
2.07928e-16
2.44421e-16
2.58917e-16
2.66826e-16
2.40591e-16
2.36848e-16
2.16187e-16
2.35448e-16
2.25559e-16
2.46398e-16
2.32004e-16
2.4631e-16
2.20074e-16
2.5544e-16
2.35041e-16
3.13916e-16
2.93214e-16
3.80205e-16
3.07491e-16
0.00581603
0.00507402
0.0070328
0.00441518
0.00605092
0.00627438
0.00377297
0.00523375
0.00532904
0.00535492
0.00312631
0.00441171
0.00454468
0.00448332
0.00424607
0.00238607
0.00371263
0.00377808
0.00374468
0.00350273
0.0032271
0.00174488
0.00291948
0.00304775
0.00312054
0.00286508
0.00258132
0.00236722
0.00120866
0.0019881
0.00234567
0.00240989
0.00232083
0.00205697
0.00181394
0.00165887
0.000714703
0.00123674
0.00153456
0.0016621
0.00171509
0.00155791
0.00136879
0.00121369
0.0011386
0.000361936
0.00069219
0.000821334
0.00100268
0.00103061
0.00103361
0.00093212
0.00082757
0.000752054
0.000730786
0.000166154
0.000315329
0.00038318
0.000477902
0.000510461
0.00053869
0.000505194
0.000476204
0.00042734
0.000395563
0.00038034
6.53007e-05
0.000116662
0.0001475
0.000176101
0.000202896
0.000208315
0.000211842
0.000198256
0.000189723
0.000169383
0.000150083
0.000125168
2.04482e-05
3.50176e-05
4.27032e-05
5.09858e-05
5.82554e-05
6.08123e-05
6.28318e-05
5.97036e-05
5.78959e-05
5.13577e-05
4.50686e-05
3.5486e-05
2.42513e-05
4.90083e-06
7.93701e-06
9.24228e-06
1.07917e-05
1.18192e-05
1.25979e-05
1.26087e-05
1.26651e-05
1.14636e-05
1.05453e-05
9.08996e-06
7.17153e-06
5.61409e-06
4.05613e-06
8.35238e-07
1.28883e-06
1.44036e-06
1.59898e-06
1.69036e-06
1.75035e-06
1.72807e-06
1.707e-06
1.5339e-06
1.40391e-06
1.2075e-06
1.00156e-06
8.44123e-07
7.01248e-07
6.19349e-07
9.41929e-08
1.40075e-07
1.49272e-07
1.60464e-07
1.62742e-07
1.61184e-07
1.57094e-07
1.44619e-07
1.34495e-07
1.18621e-07
1.06851e-07
9.15509e-08
8.32053e-08
7.68014e-08
6.95391e-08
6.50804e-08
6.21555e-09
8.96794e-09
9.31921e-09
9.86557e-09
9.67623e-09
9.33906e-09
8.6828e-09
7.90492e-09
7.19529e-09
6.45692e-09
5.87532e-09
5.36646e-09
5.09963e-09
4.92976e-09
4.66608e-09
4.6619e-09
4.10874e-09
1.97703e-10
2.59079e-10
2.74814e-10
2.73916e-10
2.69644e-10
2.4901e-10
2.30092e-10
2.02729e-10
1.8657e-10
1.67415e-10
1.5764e-10
1.50513e-10
1.47747e-10
1.44394e-10
1.4737e-10
1.40892e-10
1.46014e-10
1.25552e-10
1.53385e-12
1.86351e-12
1.938e-12
1.79886e-12
1.76476e-12
1.505e-12
1.4171e-12
1.20397e-12
1.15072e-12
1.01575e-12
1.01637e-12
9.80525e-13
1.04047e-12
1.05063e-12
1.17531e-12
1.19328e-12
1.37355e-12
1.33314e-12
1.46805e-12
2.34192e-16
2.52676e-16
2.58142e-16
2.75894e-16
2.61204e-16
2.50765e-16
2.22252e-16
2.33278e-16
2.17011e-16
2.34054e-16
2.20202e-16
2.31885e-16
2.05579e-16
2.29317e-16
2.10557e-16
2.64589e-16
2.70739e-16
3.87399e-16
3.4091e-16
4.47407e-16
0.00652768
0.00584734
0.00787118
0.00520431
0.00696611
0.00712184
0.00461406
0.00617828
0.00619916
0.00613701
0.00401102
0.00541381
0.00544222
0.00526637
0.00493954
0.00324505
0.00481761
0.00473263
0.00455086
0.00418372
0.00383878
0.00255948
0.00408509
0.00408854
0.00402214
0.0035705
0.00316866
0.00290398
0.00195553
0.00304924
0.00347325
0.00340071
0.00313334
0.00267364
0.00232476
0.00214209
0.00128169
0.0021254
0.00257479
0.00265909
0.00262002
0.00226732
0.00191435
0.00166306
0.00158089
0.000724296
0.00137379
0.00158539
0.00189111
0.00185673
0.00177823
0.00153071
0.00129647
0.00115959
0.00115749
0.000382388
0.000735955
0.000880913
0.00109189
0.0011274
0.00115296
0.0010367
0.000931519
0.000810017
0.000751722
0.000761604
0.000179954
0.000326504
0.000421794
0.000499751
0.00057497
0.000575065
0.00057026
0.000515462
0.000478954
0.000426621
0.000392057
0.00036242
6.92378e-05
0.00012323
0.000155992
0.00018798
0.000218847
0.000226314
0.000232154
0.000216213
0.000206673
0.00018377
0.000164205
0.000135947
9.47005e-05
2.14677e-05
3.67109e-05
4.42238e-05
5.39687e-05
6.04803e-05
6.59938e-05
6.59809e-05
6.62492e-05
6.03433e-05
5.62964e-05
4.80549e-05
3.82762e-05
2.88131e-05
1.89153e-05
5.08784e-06
8.13447e-06
9.48505e-06
1.10079e-05
1.21195e-05
1.29526e-05
1.30843e-05
1.32383e-05
1.20447e-05
1.10955e-05
9.50002e-06
7.64947e-06
6.04296e-06
4.53716e-06
3.67968e-06
8.48534e-07
1.30558e-06
1.42913e-06
1.59462e-06
1.67761e-06
1.72996e-06
1.75051e-06
1.67085e-06
1.59182e-06
1.3891e-06
1.25686e-06
1.01499e-06
8.62729e-07
7.48352e-07
6.39838e-07
5.82646e-07
9.45939e-08
1.37436e-07
1.44818e-07
1.5525e-07
1.56267e-07
1.55201e-07
1.50011e-07
1.39566e-07
1.29755e-07
1.16072e-07
1.04157e-07
8.99898e-08
8.23523e-08
7.59412e-08
7.00768e-08
6.7699e-08
6.00655e-08
6.57833e-09
8.88528e-09
9.30185e-09
9.28727e-09
9.21153e-09
8.60076e-09
8.15834e-09
7.30064e-09
6.68959e-09
6.04781e-09
5.44252e-09
5.11616e-09
4.81475e-09
4.65558e-09
4.58594e-09
4.37689e-09
4.3947e-09
3.90209e-09
2.24787e-10
2.78643e-10
2.81608e-10
2.74499e-10
2.6734e-10
2.34384e-10
2.14318e-10
1.85091e-10
1.71091e-10
1.50024e-10
1.43663e-10
1.3621e-10
1.35306e-10
1.3344e-10
1.35276e-10
1.3333e-10
1.37214e-10
1.29568e-10
1.26529e-10
1.70027e-12
2.16365e-12
2.16113e-12
2.05355e-12
1.75039e-12
1.69021e-12
1.33482e-12
1.23782e-12
1.0283e-12
9.95029e-13
8.87677e-13
9.09455e-13
8.95614e-13
9.78228e-13
1.00362e-12
1.1395e-12
1.17596e-12
1.37462e-12
1.32346e-12
1.45423e-12
2.80734e-16
2.8481e-16
2.69546e-16
2.69028e-16
2.64857e-16
2.57418e-16
2.26411e-16
2.30538e-16
2.09649e-16
2.21791e-16
2.03789e-16
2.11143e-16
1.88659e-16
2.07185e-16
1.89992e-16
2.28809e-16
2.35755e-16
3.56265e-16
3.52938e-16
4.65246e-16
3.97153e-16
0.00720293
0.0065474
0.00866175
0.00594084
0.00780158
0.00787844
0.00542191
0.00704513
0.00699266
0.00682719
0.00473966
0.00643952
0.0062629
0.00597363
0.0055461
0.00413791
0.0058963
0.00561782
0.00527574
0.00479165
0.00438385
0.00366324
0.00509114
0.00523884
0.00480237
0.00419359
0.0036999
0.00337499
0.00272178
0.00448421
0.0044925
0.00448065
0.00385322
0.003215
0.00279101
0.00257907
0.00195548
0.00344991
0.00364321
0.00391324
0.0034788
0.00296157
0.0024089
0.00206921
0.00202412
0.00134781
0.00225877
0.00280023
0.0029169
0.0029594
0.00255915
0.00216224
0.0017514
0.00155629
0.00160553
0.000790593
0.00139415
0.00179026
0.00197252
0.00213782
0.00194813
0.00176028
0.00145915
0.00124631
0.00115679
0.0012251
0.000402445
0.000777923
0.000942652
0.00118686
0.00123628
0.00128718
0.00115218
0.00104822
0.000903739
0.00081468
0.000774073
0.000754735
0.000186492
0.000351359
0.000435637
0.000554756
0.000605237
0.000656601
0.000614066
0.000587244
0.000516006
0.000477907
0.000426129
0.000366255
0.000320206
7.28469e-05
0.000129256
0.000163431
0.000199138
0.000234049
0.000245471
0.000254547
0.000237301
0.000227549
0.00019814
0.000179982
0.000150427
0.000104788
8.08467e-05
2.24402e-05
3.80032e-05
4.59098e-05
5.55407e-05
6.37342e-05
6.83144e-05
7.20857e-05
6.92332e-05
6.75634e-05
5.86949e-05
5.23138e-05
4.20403e-05
3.10783e-05
2.30979e-05
1.51591e-05
5.25268e-06
8.28203e-06
9.63024e-06
1.11017e-05
1.22856e-05
1.31461e-05
1.34364e-05
1.36513e-05
1.25984e-05
1.16344e-05
1.0014e-05
8.09761e-06
6.40195e-06
4.96307e-06
4.07837e-06
3.32458e-06
8.5477e-07
1.29156e-06
1.4073e-06
1.56984e-06
1.64322e-06
1.70178e-06
1.71676e-06
1.66047e-06
1.5697e-06
1.41185e-06
1.26674e-06
1.0347e-06
8.85542e-07
7.66385e-07
6.67911e-07
6.15726e-07
5.40801e-07
9.42813e-08
1.35441e-07
1.40206e-07
1.48417e-07
1.48001e-07
1.47543e-07
1.41555e-07
1.32466e-07
1.23717e-07
1.11832e-07
1.00099e-07
8.78852e-08
8.09972e-08
7.42684e-08
7.00513e-08
6.71726e-08
6.22396e-08
5.94252e-08
6.8888e-09
8.91354e-09
9.18341e-09
9.077e-09
8.78504e-09
7.93627e-09
7.55796e-09
6.68205e-09
6.24463e-09
5.49951e-09
5.07054e-09
4.74689e-09
4.52957e-09
4.41517e-09
4.32504e-09
4.24058e-09
4.23588e-09
4.01452e-09
3.71359e-09
2.57723e-10
3.14432e-10
2.98306e-10
2.6391e-10
2.56827e-10
2.25842e-10
2.02617e-10
1.6707e-10
1.55507e-10
1.33694e-10
1.29993e-10
1.21609e-10
1.23058e-10
1.21553e-10
1.24166e-10
1.23632e-10
1.28063e-10
1.23524e-10
1.30755e-10
1.20506e-10
1.79946e-12
2.15038e-12
2.31529e-12
2.29247e-12
1.79383e-12
1.66432e-12
1.33449e-12
1.22495e-12
9.57364e-13
9.26694e-13
8.03954e-13
8.31497e-13
7.93315e-13
8.66682e-13
8.9417e-13
1.01491e-12
1.06681e-12
1.26121e-12
1.25286e-12
1.46628e-12
1.24377e-12
3.52582e-16
3.38217e-16
3.05882e-16
2.76632e-16
2.57999e-16
2.55426e-16
2.24589e-16
2.27157e-16
2.03363e-16
2.10046e-16
1.88161e-16
1.91281e-16
1.68437e-16
1.82064e-16
1.71089e-16
2.01087e-16
2.01258e-16
3.00394e-16
3.27815e-16
4.6574e-16
4.44937e-16
5.50145e-16
0.00780573
0.00718044
0.009359
0.00661344
0.0085467
0.00853852
0.00617456
0.0078224
0.00769806
0.00742325
0.00573246
0.00720056
0.00699546
0.00659383
0.00607081
0.00502515
0.00689936
0.00640678
0.0059092
0.00531555
0.00483923
0.00442604
0.00648595
0.00603756
0.00557195
0.00471831
0.00413375
0.00379107
0.00369018
0.00583862
0.00561939
0.00538904
0.00449083
0.00365899
0.00317231
0.00297197
0.00285735
0.00485954
0.00491877
0.0050618
0.00432025
0.00353955
0.00280646
0.00242275
0.0024057
0.00216613
0.00347057
0.0041927
0.00416376
0.00404296
0.0033444
0.00270615
0.00213529
0.00191653
0.00202804
0.00140545
0.00239225
0.00302922
0.00319292
0.00333147
0.00289424
0.00249597
0.00198244
0.00164262
0.00155294
0.00175247
0.000794255
0.00153776
0.00182356
0.00226936
0.0022649
0.00227219
0.00194605
0.00168387
0.00140235
0.00124183
0.00122048
0.00134591
0.000421839
0.000816424
0.00100477
0.00128425
0.0013595
0.00144371
0.00129166
0.00118627
0.00100591
0.000912559
0.000832593
0.000778374
0.000767587
0.000198446
0.000361422
0.000470114
0.000574468
0.000679995
0.000697453
0.00071164
0.000637054
0.000593627
0.000512208
0.000472697
0.000418686
0.00030715
0.000268048
7.60595e-05
0.00013444
0.000169554
0.000209017
0.000247279
0.000264399
0.00027807
0.000261
0.000252402
0.000217145
0.000195759
0.000164494
0.00012129
9.14368e-05
5.45471e-05
2.33249e-05
3.91371e-05
4.6935e-05
5.7005e-05
6.54565e-05
7.1197e-05
7.57665e-05
7.41557e-05
7.28152e-05
6.33623e-05
5.69756e-05
4.51333e-05
3.42357e-05
2.6343e-05
1.73677e-05
1.3564e-05
5.34996e-06
8.29519e-06
9.65028e-06
1.1091e-05
1.23147e-05
1.31625e-05
1.36393e-05
1.38746e-05
1.30523e-05
1.2092e-05
1.05043e-05
8.59018e-06
6.74423e-06
5.34778e-06
4.40564e-06
3.5147e-06
3.09738e-06
8.48829e-07
1.26783e-06
1.37249e-06
1.5203e-06
1.58909e-06
1.65411e-06
1.66076e-06
1.62628e-06
1.53026e-06
1.42283e-06
1.2645e-06
1.0495e-06
9.06764e-07
7.78709e-07
6.91063e-07
6.32165e-07
5.65967e-07
5.36627e-07
9.46369e-08
1.33849e-07
1.36658e-07
1.42993e-07
1.39213e-07
1.38988e-07
1.31258e-07
1.24705e-07
1.17063e-07
1.06046e-07
9.48191e-08
8.50735e-08
7.86089e-08
7.2639e-08
6.90021e-08
6.62544e-08
6.24004e-08
6.1146e-08
5.53801e-08
7.1592e-09
9.23426e-09
8.71523e-09
8.78404e-09
8.22597e-09
7.74305e-09
6.83831e-09
6.26793e-09
5.55232e-09
5.06948e-09
4.57387e-09
4.39799e-09
4.20257e-09
4.13041e-09
4.08192e-09
4.04525e-09
3.99915e-09
4.02382e-09
3.83117e-09
3.73241e-09
2.95122e-10
3.56413e-10
3.26866e-10
2.69662e-10
2.3814e-10
2.0722e-10
1.90616e-10
1.55356e-10
1.40023e-10
1.1881e-10
1.16888e-10
1.07719e-10
1.1107e-10
1.09232e-10
1.13122e-10
1.13939e-10
1.17452e-10
1.16974e-10
1.23325e-10
1.15429e-10
1.03821e-10
1.85329e-12
2.05256e-12
2.27005e-12
2.27973e-12
2.07394e-12
1.53167e-12
1.34704e-12
1.0964e-12
1.00111e-12
7.86054e-13
7.90491e-13
7.03512e-13
7.54206e-13
7.36817e-13
8.21351e-13
8.6377e-13
1.00101e-12
1.06075e-12
1.26234e-12
1.2364e-12
1.44373e-12
1.38125e-12
4.57672e-16
4.10163e-16
3.53687e-16
3.00671e-16
2.59129e-16
2.51238e-16
2.22214e-16
2.16196e-16
1.9295e-16
1.96685e-16
1.73055e-16
1.72894e-16
1.49446e-16
1.57411e-16
1.47826e-16
1.74144e-16
1.78241e-16
2.56891e-16
2.86343e-16
4.25189e-16
4.4659e-16
4.87876e-16
5.97016e-16
0.00833567
0.00774345
0.00996461
0.00721537
0.00919884
0.00910941
0.00685726
0.00850672
0.00831167
0.00792689
0.00651572
0.00795264
0.00763603
0.00712572
0.00651549
0.00587403
0.00780029
0.00709117
0.00645105
0.00575976
0.00522622
0.0053773
0.0072625
0.00703648
0.00612283
0.00515248
0.00451424
0.00412807
0.00504284
0.00676597
0.00693498
0.00603909
0.00500667
0.00400503
0.00348217
0.0033008
0.00415219
0.00594432
0.00653145
0.00589322
0.00511644
0.00397643
0.00309039
0.00272678
0.00271013
0.00298033
0.00521302
0.00535185
0.00570415
0.00489148
0.00407557
0.00312023
0.00241753
0.00220691
0.00239747
0.00212544
0.00391975
0.00426193
0.00487594
0.00439182
0.00393199
0.00310654
0.00241868
0.00196274
0.00188754
0.00227141
0.00145471
0.00252506
0.00326134
0.00349899
0.00375716
0.00327876
0.00288371
0.00227837
0.00187471
0.00162881
0.00167489
0.00213731
0.000853575
0.00154887
0.00204695
0.00233954
0.00266318
0.00245678
0.00230262
0.00188426
0.0016166
0.00138479
0.00130379
0.00136867
0.00134998
0.000439083
0.000850569
0.00106381
0.00137941
0.00149279
0.00162267
0.00146331
0.00136086
0.00113579
0.00102133
0.000920722
0.0008558
0.000779394
0.000588397
0.000204531
0.000379439
0.000481658
0.000622048
0.00070801
0.000794625
0.000763002
0.000751045
0.000644816
0.00059287
0.000507435
0.000454675
0.000378652
0.000248668
0.00017373
7.92573e-05
0.000138692
0.000173778
0.000218525
0.000254783
0.000287333
0.000292485
0.000297535
0.00026837
0.000252135
0.000208838
0.000179926
0.000141251
9.67754e-05
7.13251e-05
4.35855e-05
2.4101e-05
3.94359e-05
4.78135e-05
5.76349e-05
6.64432e-05
7.35631e-05
7.74624e-05
8.02457e-05
7.51553e-05
7.08956e-05
5.9854e-05
4.99741e-05
3.79474e-05
2.79229e-05
2.12838e-05
1.56112e-05
1.13617e-05
5.32388e-06
8.3004e-06
9.44873e-06
1.10234e-05
1.20902e-05
1.30942e-05
1.36546e-05
1.37996e-05
1.35432e-05
1.21703e-05
1.12984e-05
8.91097e-06
7.2165e-06
5.75617e-06
4.62276e-06
3.92736e-06
3.34188e-06
2.87817e-06
8.44579e-07
1.25365e-06
1.34201e-06
1.46811e-06
1.51676e-06
1.57617e-06
1.58278e-06
1.55858e-06
1.48853e-06
1.4061e-06
1.24335e-06
1.05584e-06
9.18277e-07
7.93868e-07
7.07497e-07
6.45697e-07
5.85105e-07