/*--------------------------------*- C++ -*----------------------------------*\
| =========                 |                                                 |
| \\      /  F ield         | OpenFOAM: The Open Source CFD Toolbox           |
|  \\    /   O peration     | Version:  v2012                                 |
|   \\  /    A nd           | Website:  www.openfoam.com                      |
|    \\/     M anipulation  |                                                 |
\*---------------------------------------------------------------------------*/
FoamFile
{
    version     2.0;
    format      ascii;
    class       volScalarField;
    location    "15001";
    object      I2;
}
// * * * * * * * * * * * * * * * * * * * * * * * * * * * * * * * * * * * * * //

dimensions      [0 0 0 0 0 0 0];


internalField   nonuniform List<scalar> 
294912
(
4.66064e-21
6.88006e-16
5.21759e-20
2.31595e-19
4.0781e-14
1.02188e-15
3.92958e-15
2.36676e-19
4.99586e-19
1.32196e-18
1.00002e-13
3.75887e-14
7.11762e-14
1.38097e-15
4.34014e-15
1.6904e-15
5.23804e-19
8.76422e-19
2.16236e-18
4.63959e-18
1.15572e-13
1.06831e-13
7.43422e-14
4.18366e-14
7.87288e-14
8.94645e-15
1.6959e-15
3.42278e-15
2.70035e-15
2.00985e-15
8.07388e-19
1.44025e-18
3.00039e-18
4.84102e-18
1.50988e-17
8.00383e-14
1.9575e-13
2.76603e-14
1.46979e-13
7.62748e-14
1.57698e-15
3.43511e-14
7.68258e-14
1.10122e-14
9.87353e-15
1.33096e-15
4.40561e-15
2.14064e-15
3.06982e-15
2.03051e-15
1.17799e-18
1.96016e-18
3.84682e-18
6.08879e-18
1.445e-17
1.70514e-17
2.43921e-13
2.42925e-13
2.69316e-14
2.42506e-13
1.02855e-13
2.08475e-15
1.04697e-13
6.76897e-14
5.75286e-15
6.57551e-16
3.91981e-14
4.6147e-14
1.44481e-14
7.74424e-15
4.1638e-15
1.35291e-15
4.10862e-15
2.03717e-15
3.17541e-15
2.04518e-15
3.4373e-15
1.65179e-18
2.7032e-18
4.00308e-18
8.99762e-18
1.13572e-17
2.40125e-17
2.44422e-17
1.10325e-12
5.39219e-13
7.56304e-14
5.44435e-13
2.09602e-13
2.96201e-14
1.74374e-13
9.90969e-14
4.11075e-14
3.24236e-15
7.71279e-14
4.33907e-14
3.20371e-15
3.37696e-15
1.74982e-16
2.45881e-14
5.87118e-14
8.34175e-15
1.00309e-14
3.14965e-15
1.30368e-15
1.39147e-15
3.98526e-15
1.8939e-15
2.9628e-15
2.11515e-15
3.25641e-15
2.42727e-15
2.23515e-18
3.35731e-18
5.3013e-18
7.8633e-18
1.64135e-17
1.76365e-17
3.4282e-17
3.00756e-17
5.58978e-12
1.65919e-12
8.00101e-13
1.30389e-12
6.03622e-13
2.64934e-13
4.71876e-13
3.28028e-13
3.8738e-13
5.99749e-14
1.00989e-13
3.4777e-14
2.47989e-14
4.81134e-14
7.14656e-15
4.30874e-14
4.96309e-14
7.24503e-16
1.18702e-15
1.65534e-15
1.92334e-16
2.2224e-14
5.38276e-14
7.07882e-15
8.52283e-15
2.90841e-15
1.24687e-15
3.19326e-16
1.68169e-15
2.9538e-15
2.51516e-15
1.96886e-15
2.74058e-15
2.25643e-15
3.4266e-15
2.43024e-15
2.52003e-18
4.27139e-18
6.23043e-18
8.63428e-18
1.671e-17
1.8296e-17
3.45545e-17
2.8115e-17
5.1921e-17
2.77208e-11
6.42191e-12
8.01918e-12
2.41286e-12
2.16807e-12
2.73068e-12
2.1257e-12
9.6976e-13
2.08994e-12
4.22818e-13
1.69576e-13
8.61131e-14
2.97294e-13
5.94739e-13
8.5364e-14
7.42456e-14
2.01027e-14
2.86854e-15
1.56506e-14
5.61533e-14
1.06351e-14
5.45476e-14
2.87314e-14
5.20977e-16
2.15012e-16
3.11518e-16
1.44514e-15
2.25455e-16
2.01411e-14
4.98747e-14
6.47731e-15
7.66266e-15
2.31304e-15
1.13419e-15
3.37547e-16
5.13078e-16
1.69882e-15
3.88192e-15
1.87122e-15
2.67346e-15
1.7792e-15
2.94872e-15
2.34898e-15
3.52533e-15
1.95608e-15
2.32187e-18
5.24576e-18
7.31984e-18
9.55122e-18
1.70312e-17
1.83391e-17
3.36561e-17
2.827e-17
4.72828e-17
3.88235e-17
1.45454e-10
2.37261e-11
7.97887e-11
2.93306e-12
1.19464e-11
2.18379e-11
6.9751e-12
1.75996e-12
1.07296e-11
3.15351e-12
8.30814e-13
3.05535e-13
1.6731e-12
3.3949e-12
8.24936e-13
9.55741e-14
2.39906e-14
4.96277e-14
2.77256e-13
6.87303e-13
1.5151e-13
4.25632e-14
2.3587e-14
9.68723e-16
1.61232e-15
1.30598e-14
5.84023e-14
1.33599e-14
4.81148e-14
2.51321e-14
3.96153e-16
1.14784e-16
2.55633e-17
2.61052e-16
1.2429e-15
1.99024e-16
2.83285e-14
3.11731e-14
8.92222e-15
4.74186e-15
3.02481e-15
6.29567e-16
3.55847e-16
3.79826e-16
2.48475e-16
2.43093e-15
3.88873e-15
1.88384e-15
2.63375e-15
1.72248e-15
2.72603e-15
2.11751e-15
3.46588e-15
1.74853e-15
2.51083e-15
2.36754e-18
5.50295e-18
8.00271e-18
1.22828e-17
1.4067e-17
2.42917e-17
2.31067e-17
3.93886e-17
3.13738e-17
5.2555e-17
4.2454e-17
5.94105e-10
1.00918e-10
4.40796e-10
2.77236e-12
7.49938e-11
1.58657e-10
1.44518e-11
2.14276e-12
5.67856e-11
3.8113e-11
2.98311e-12
9.18648e-13
5.87997e-12
1.75458e-11
1.15834e-11
3.46965e-13
1.8977e-14
3.17768e-13
1.32448e-12
5.3881e-12
1.35825e-12
7.99095e-14
2.09098e-14
1.59194e-14
4.16759e-14
1.60334e-13
7.95425e-13
1.94704e-13
4.8843e-14
1.46636e-14
1.01945e-15
8.44942e-16
2.91359e-15
1.1024e-14
5.82312e-14
1.32077e-14
4.38083e-14
2.26869e-14
3.11869e-16
7.917e-17
9.12277e-18
6.2604e-17
2.51961e-16
8.43094e-16
3.66934e-16
2.25904e-14
4.33332e-14
5.55394e-15
6.51035e-15
1.87041e-15
8.3952e-16
1.97681e-16
3.70048e-16
1.33004e-16
1.92951e-16
3.39108e-15
4.45361e-15
1.88229e-15
2.60749e-15
1.68958e-15
2.58942e-15
1.95248e-15
3.10668e-15
1.72883e-15
2.08141e-15
1.71655e-15
2.85185e-18
5.05451e-18
8.92231e-18
1.17881e-17
1.82058e-17
1.85013e-17
3.04927e-17
2.59719e-17
4.34797e-17
3.4379e-17
5.69522e-17
4.65754e-17
1.89278e-09
4.02514e-10
1.65521e-09
2.19831e-12
3.99652e-10
7.34082e-10
2.32899e-11
2.68392e-12
3.01334e-10
2.47466e-10
6.82083e-12
2.07726e-12
1.69315e-11
1.0841e-10
7.62224e-11
9.86014e-13
6.59267e-15
1.55605e-12
4.26969e-12
3.87535e-11
1.54418e-11
3.06546e-13
2.06229e-14
5.55151e-14
1.30951e-13
1.13915e-12
6.5528e-12
1.97518e-12
9.09458e-14
1.67345e-14
1.90664e-14
1.95942e-14
2.25322e-14
1.22111e-13
8.18233e-13
2.27253e-13
4.06065e-14
1.27078e-14
9.41901e-16
7.60075e-16
2.72724e-15
3.62757e-15
1.19007e-14
4.77509e-14
1.11521e-14
2.41555e-14
3.15025e-14
1.8394e-16
7.6224e-17
3.61079e-18
5.11188e-17
9.75222e-17
7.1557e-17
8.75106e-16
3.88002e-16
3.49078e-14
3.90124e-14
5.25124e-15
6.00642e-15
1.74498e-15
7.94673e-16
1.85018e-16
2.96723e-16
6.69623e-17
8.18611e-17
1.93059e-16
4.42104e-15
4.9425e-15
2.85488e-15
1.90772e-15
2.32111e-15
1.73195e-15
2.67428e-15
1.93607e-15
2.28723e-15
1.43017e-15
2.25708e-15
1.64728e-15
3.56298e-18
5.68483e-18
8.77485e-18
1.25452e-17
1.90157e-17
1.87141e-17
2.92288e-17
2.4422e-17
3.98193e-17
3.2477e-17
5.44598e-17
4.11228e-17
7.69397e-17
4.22462e-09
1.57138e-09
3.73481e-09
2.54738e-12
1.32283e-09
2.71155e-09
3.67911e-11
5.78973e-12
1.05373e-09
1.21579e-09
1.12517e-11
4.88212e-12
4.63009e-11
5.61617e-10
3.17521e-10
1.93857e-12
2.38178e-15
7.56972e-12
1.68683e-11
2.04179e-10
1.19122e-10
1.11378e-12
1.6696e-14
4.11472e-13
2.57809e-13
8.28461e-12
4.88911e-11
2.96982e-11
3.3794e-13
3.68672e-14
5.11132e-14
4.16901e-14
8.63719e-14
8.7341e-13
7.51496e-12
3.31588e-12
5.73036e-14
2.94103e-14
1.86097e-14
2.47884e-14
1.54811e-14
2.81024e-14
8.94327e-14
7.46791e-13
2.46101e-13
3.58251e-14
1.06253e-14
7.9413e-16
4.9916e-16
2.57281e-15
4.18755e-15
6.09947e-15
6.68524e-15
2.82622e-14
1.53551e-14
3.1509e-14
1.94981e-14
2.89298e-16
3.84351e-17
1.09544e-18
2.9673e-17
9.83994e-17
5.20352e-17
6.82876e-17
9.69584e-16
4.05128e-16
5.02853e-14
4.09423e-14
4.98858e-15
5.60192e-15
1.6344e-15
7.5514e-16
1.86177e-16
2.88762e-16
5.9019e-17
5.11142e-17
1.10225e-16
3.22478e-16
4.81792e-15
6.79749e-15
3.13118e-15
2.71966e-15
1.6561e-15
2.36283e-15
1.75466e-15
2.62297e-15
1.45442e-15
1.89444e-15
1.50828e-15
2.12337e-15
1.69344e-15
4.57442e-18
6.76673e-18
9.28982e-18
1.22472e-17
1.95595e-17
1.89188e-17
2.81453e-17
2.30665e-17
3.62307e-17
2.94616e-17
5.05399e-17
3.94092e-17
6.74264e-17
5.51061e-17
9.44218e-09
3.83568e-09
1.03277e-08
6.29521e-12
4.71559e-09
5.16307e-09
7.35263e-11
1.15511e-11
3.50503e-09
2.85388e-09
1.84527e-11
1.38426e-11
1.39982e-10
1.66358e-09
1.43231e-09
1.96163e-12
7.82076e-14
2.91628e-11
6.65212e-11
7.37485e-10
8.62681e-10
1.40981e-12
3.04477e-13
1.53269e-12
2.61222e-12
2.5053e-11
3.31293e-10
1.99297e-10
1.38229e-12
3.76654e-14
3.85986e-13
3.09781e-14
1.09255e-12
4.31279e-12
7.05759e-11
4.31786e-11
4.30868e-13
3.08921e-14
7.81718e-14
4.59448e-14
6.68523e-14
6.6121e-14
6.6122e-13
8.14552e-12
4.41623e-12
4.40716e-14
4.72788e-14
1.62793e-14
1.96968e-14
1.89555e-14
3.12651e-14
2.45157e-14
6.20439e-14
5.75306e-13
3.87957e-13
2.12485e-14
1.43182e-14
3.38542e-16
3.08212e-16
1.68324e-15
4.58895e-15
5.93128e-15
5.26989e-15
7.38169e-16
3.60478e-14
1.45544e-14
4.36287e-14
1.39758e-14
2.79771e-16
3.57688e-17
1.50417e-19
1.75062e-17
7.13065e-17
5.68112e-17
6.80362e-17
1.05733e-16
6.98084e-16
4.3027e-16
6.79769e-14
4.10441e-14
8.0521e-15
3.56147e-15
2.29528e-15
4.89222e-16
2.7985e-16
1.87848e-16
9.26712e-17
3.95595e-17
8.81614e-17
1.03772e-16
5.38999e-16
5.3912e-15
7.44516e-15
4.05765e-15
3.2497e-15
1.71423e-15
2.27543e-15
1.69246e-15
2.42583e-15
1.37165e-15
1.79906e-15
1.33309e-15
2.06551e-15
1.48797e-15
2.82704e-15
5.96788e-18
8.66171e-18
9.75712e-18
1.40969e-17
1.54989e-17
2.35339e-17
2.05902e-17
2.97421e-17
2.3448e-17
3.79593e-17
3.07168e-17
5.41313e-17
4.2982e-17
7.42507e-17
5.95726e-17
1.62169e-08
8.91273e-09
2.20093e-08
2.19875e-11
1.10375e-08
1.0806e-08
1.69633e-10
1.88103e-11
7.90271e-09
7.27532e-09
4.02884e-11
3.81615e-11
2.47556e-10
4.01607e-09
3.97195e-09
2.3842e-12
1.12238e-12
1.04049e-10
1.36996e-10
2.14197e-09
3.94611e-09
1.68997e-12
3.26239e-12
9.7362e-12
1.88737e-11
6.0394e-11
1.57149e-09
9.64378e-10
2.57532e-12
4.72789e-13
2.97127e-12
7.85735e-13
4.09514e-12
2.37847e-11
4.71151e-10
3.12198e-10
1.59038e-12
3.49353e-14
3.62924e-13
5.1798e-14
7.86008e-13
3.1466e-13
4.69477e-12
8.68192e-11
8.21319e-11
2.70022e-13
3.74313e-14
4.89002e-14
9.98013e-14
7.48312e-14
9.64619e-14
8.75614e-14
4.64843e-13
7.67784e-12
7.454e-12
3.77925e-14
5.14757e-14
1.57e-14
1.20805e-14
1.71984e-14
3.49994e-14
3.16999e-14
2.43964e-14
1.13225e-14
5.80596e-13
5.14114e-13
3.05471e-14
9.55061e-15
3.08551e-16
1.61884e-16
1.51148e-15
3.02384e-15
6.62794e-15
5.26237e-15
5.75476e-16
1.7462e-15
3.06759e-14
1.56348e-14
6.11172e-14
1.63454e-14
1.36483e-16
3.36283e-17
1.20734e-20
1.06326e-17
4.69155e-17
4.85192e-17
1.0343e-16
1.33046e-16
3.26572e-17
6.06162e-16
6.26626e-16
6.49603e-14
5.35345e-14
1.0809e-14
5.61427e-15
1.50465e-15
7.30204e-16
1.97711e-16
2.60453e-16
7.43009e-17
6.29716e-17
6.96021e-17
8.58722e-17
1.60458e-16
1.14218e-15
5.81628e-15
7.89999e-15
4.48117e-15
4.21058e-15
2.20681e-15
2.29188e-15
1.66152e-15
2.25034e-15
1.30488e-15
1.69825e-15
1.23889e-15
1.84403e-15
1.4321e-15
2.40385e-15
2.2785e-15
8.20561e-18
1.00232e-17
1.24515e-17
1.3441e-17
1.84742e-17
1.72653e-17
2.55463e-17
2.04343e-17
2.98428e-17
2.3617e-17
3.90038e-17
3.23413e-17
5.88667e-17
4.70852e-17
7.92395e-17
6.52028e-17
2.45395e-08
1.71175e-08
4.71142e-08
7.22273e-11
2.2475e-08
2.31227e-08
4.10436e-10
1.84704e-11
1.52117e-08
1.90944e-08
1.19609e-10
7.70282e-11
2.98219e-10
7.88451e-09
1.14733e-08
5.81357e-12
4.84062e-12
2.41296e-10
1.75938e-10
4.51757e-09
1.80868e-08
2.16521e-12
1.58617e-11
3.48802e-11
5.56166e-11
1.15771e-10
5.54413e-09
3.588e-09
3.7331e-12
5.74944e-12
2.14303e-11
7.44879e-12
7.80932e-12
1.04433e-10
1.89161e-09
1.57069e-09
3.42168e-12
3.00212e-13
2.90729e-12
1.18871e-12
3.938e-12
1.73e-12
2.74073e-11
5.4275e-10
6.31318e-10
1.19404e-12
4.23388e-14
2.60976e-13
1.56743e-13
6.50236e-13
5.87815e-13
6.34659e-13
3.78002e-12
1.03214e-10
1.25758e-10
1.86788e-13
3.70597e-14
3.69243e-14
8.94435e-14
9.34234e-14
1.36359e-13
1.11556e-13
1.59106e-13
1.46059e-13
8.25136e-12
1.16097e-11
5.0412e-14
4.56411e-14
1.71215e-14
5.95358e-15
1.61734e-14
2.37765e-14
4.36226e-14
2.51832e-14
4.07246e-15
2.67311e-15
6.70216e-13
3.5119e-13
3.94968e-14
7.84413e-15
2.34031e-16
1.48475e-16
1.22605e-15
2.38306e-15
5.69106e-15
4.84516e-15
8.14672e-16
1.58013e-15
2.18282e-15
2.31151e-14
1.75286e-14
6.06053e-14
2.47892e-14
4.68566e-16
5.2275e-17
1.40203e-19
9.05013e-18
2.7439e-17
4.81149e-17
7.60414e-17
1.85225e-16
5.8494e-17
2.34141e-17
5.60577e-16
1.21603e-15
6.33051e-14
4.97338e-14
1.25454e-14
7.76813e-15
1.9827e-15
8.01897e-16
2.06953e-16
2.51681e-16
8.25323e-17
7.14364e-17
8.14948e-17
9.92107e-17
1.07332e-16
4.41283e-16
1.87939e-15
6.07827e-15
6.99965e-15
5.28447e-15
3.78934e-15
3.44074e-15
2.07643e-15
2.45122e-15
1.49609e-15
1.82829e-15
1.12154e-15
1.68505e-15
1.16551e-15
1.87773e-15
1.53815e-15
2.86363e-15
2.71722e-15
1.13191e-17
1.24511e-17
1.44277e-17
1.4986e-17
1.97904e-17
1.69234e-17
2.33211e-17
1.84936e-17
2.6692e-17
2.09023e-17
3.35101e-17
2.78228e-17
5.07318e-17
4.31805e-17
7.43488e-17
5.3344e-17
9.43471e-17
3.01456e-08
3.13658e-08
7.73682e-08
1.94339e-10
3.30179e-08
6.81968e-08
9.65465e-10
1.04448e-11
2.15816e-08
6.69033e-08
4.06333e-10
1.13066e-10
1.89981e-10
2.05826e-08
2.36423e-08
2.70102e-11
6.70342e-12
4.53317e-10
1.39681e-10
1.03559e-08
4.65882e-08
5.64184e-12
3.00725e-11
9.74758e-11
8.18614e-11
1.64971e-10
1.21061e-08
1.43635e-08
4.57277e-12
3.72224e-11
6.00933e-11
2.2778e-11
1.23916e-11
3.73214e-10
4.41745e-09
8.12304e-09
4.6884e-12
4.66405e-12
1.48832e-11
1.68561e-11
7.69913e-12
1.25429e-11
7.05466e-11
2.53752e-09
2.66062e-09
3.83362e-12
2.32689e-13
3.14517e-12
1.23098e-12
4.51238e-12
3.652e-12
4.69505e-12
1.4277e-11
7.92034e-10
9.01676e-10
1.10123e-12
3.6996e-14
3.44304e-13
2.11487e-13
1.31321e-12
5.48845e-13
1.30683e-12
1.03164e-12
1.77356e-12
1.12619e-10
1.23884e-10
1.5427e-13
5.62638e-14
2.83781e-14
6.29014e-14
7.99963e-14
1.60052e-13
1.51365e-13
2.11889e-13
6.32508e-14
1.74906e-14
1.20113e-11
6.7779e-12
4.34799e-14
7.8918e-14
9.86862e-15
5.77759e-15
8.99584e-15
2.26688e-14
2.9002e-14
3.42273e-14
5.64012e-15
1.93535e-15
4.371e-15
3.5237e-13
4.06255e-13
4.74958e-14
7.87605e-15
2.45828e-16
1.74472e-16
1.13322e-15
1.97077e-15
4.74554e-15
3.87986e-15
1.02478e-15
2.61072e-15
1.88742e-15
3.75699e-16
2.27903e-14
1.82012e-14
5.88193e-14
1.88521e-14
1.12948e-15
1.51513e-16
6.68176e-18
1.21795e-17
2.62857e-17
4.72878e-17
7.06255e-17
1.48052e-16
6.99079e-17
5.27697e-17
1.43052e-17
6.15322e-16
3.69796e-15
4.85072e-14
4.13292e-14
1.18206e-14
7.48169e-15
2.62973e-15
1.11112e-15
2.60533e-16
2.81467e-16
9.72958e-17
8.12952e-17
9.00106e-17
1.17532e-16
1.28047e-16
3.65493e-16
8.63047e-16
5.79659e-15
3.57003e-15
6.90751e-15
4.60462e-15
4.40294e-15
2.88419e-15
2.94606e-15
2.1091e-15
2.25322e-15
1.30871e-15
1.60279e-15
1.10025e-15
1.59721e-15
1.18799e-15
2.01949e-15
1.80875e-15
3.42817e-15
2.87739e-15
1.6042e-17
1.70148e-17
1.7068e-17
1.64738e-17
2.12452e-17
1.76127e-17
2.28384e-17
1.67803e-17
2.32e-17
1.80656e-17
2.84055e-17
2.3412e-17
4.27267e-17
3.64318e-17
6.74519e-17
5.00281e-17
7.59201e-17
5.42697e-17
5.06467e-08
3.61897e-08
2.0654e-07
2.53798e-10
8.41529e-08
1.09064e-07
1.88591e-09
2.63649e-12
5.52183e-08
1.18034e-07
1.25358e-09
1.20647e-10
1.05813e-10
3.42453e-08
8.34642e-08
1.35371e-10
9.08574e-12
4.46362e-10
1.10162e-10
1.69447e-08
1.77398e-07
1.42595e-11
4.01424e-11
7.37735e-11
1.41326e-10
1.8692e-10
4.05899e-08
3.3123e-08
1.37301e-11
8.77046e-11
1.40367e-10
2.05353e-11
3.02938e-11
7.4397e-10
1.07929e-08
2.0908e-08
1.19274e-11
2.28453e-11
7.50476e-11
4.0315e-11
2.41241e-11
2.03203e-11
1.88782e-10
6.31497e-09
1.36143e-08
6.90775e-12
3.47276e-12
1.33782e-11
1.5157e-11
8.18233e-12
3.16356e-11
8.47305e-12
6.74784e-11
2.98161e-09
6.02591e-09
2.78088e-12
3.99558e-13
2.48674e-12
2.6303e-12
4.27325e-12
4.90403e-12
6.97151e-12
6.70132e-12
7.2202e-12
9.56001e-10
8.46864e-10
7.49135e-13
9.53998e-14
3.01203e-13
2.25647e-13
1.62118e-12
9.27799e-13
1.81164e-12
1.36436e-12
1.13989e-12
1.1022e-13
1.06776e-10
1.17795e-10
1.98335e-13
9.00082e-14
3.876e-14
3.76068e-14
7.695e-14
1.13469e-13
2.39184e-13
1.89115e-13
1.33884e-13
1.58116e-15
6.3874e-14
5.15443e-12
9.92572e-12
6.19824e-14
1.02843e-13
1.20759e-14
4.98502e-15
7.42698e-15
1.75831e-14
2.25396e-14
3.04444e-14
4.84735e-15
4.95972e-15
1.72612e-15
3.63443e-15
3.40237e-13
4.48577e-13
3.44697e-14
1.0509e-14
2.76989e-16
3.71697e-16
7.73779e-16
2.51749e-15
2.98616e-15
3.15891e-15
2.03693e-15
2.20118e-15
2.37861e-15
4.12653e-16
3.70815e-16
2.21548e-14
2.62499e-14
3.71193e-14
1.39346e-14
1.28368e-15
2.42342e-16
3.14325e-17
2.44466e-17
3.89948e-17
5.7536e-17
8.26099e-17
1.15292e-16
6.50184e-17
6.52633e-17
4.54661e-17
2.27436e-17
1.2488e-15
1.00156e-14
3.76708e-14
2.46504e-14
1.0045e-14
5.59647e-15
2.71976e-15
9.81205e-16
4.02516e-16
2.8503e-16
1.59452e-16
7.18965e-17
1.2971e-16
9.44864e-17
2.01369e-16
2.95481e-16
1.0641e-15
2.01631e-15
8.68642e-15
1.70141e-15
4.15725e-15
3.55743e-15
3.99987e-15
2.79695e-15
2.76061e-15
2.06848e-15
2.37816e-15
1.47465e-15
1.69855e-15
1.08027e-15
1.53729e-15
1.11266e-15
1.88979e-15
1.61103e-15
3.17102e-15
2.47574e-15
3.87503e-15
2.40274e-17
2.62421e-17
2.10105e-17
2.14515e-17
1.87895e-17
2.2908e-17
1.76873e-17
2.20759e-17
1.57518e-17
2.18703e-17
1.66441e-17
2.78452e-17
2.41333e-17
4.43663e-17
3.85046e-17
6.99287e-17
4.75828e-17
6.76887e-17
4.53988e-17
7.02046e-08
4.68945e-08
3.68621e-07
2.65694e-10
1.19556e-07
2.70313e-07
2.58393e-09
1.14083e-11
8.13547e-08
3.0199e-07
2.69633e-09
1.63105e-10
2.05436e-11
1.00175e-07
1.3727e-07
5.71139e-10
9.20501e-12
6.13335e-10
9.14914e-11
5.08969e-08
2.66596e-07
7.35872e-11
2.40428e-11
6.93989e-11
2.38295e-10
3.33049e-10
6.85003e-08
1.15187e-07
3.21155e-11
1.92268e-10
1.55477e-10
2.44486e-11
6.40466e-11
2.1082e-09
1.74272e-08
8.57586e-08
2.70705e-11
9.10067e-11
1.17736e-10
1.08786e-10
8.00116e-11
9.29676e-11
4.86521e-10
1.72667e-08
3.18786e-08
2.16752e-11
1.52697e-11
6.45719e-11
2.49804e-11
3.70406e-11
1.18846e-10
1.835e-11
1.76336e-10
1.03619e-08
1.73651e-08
1.03585e-11
2.71933e-12
2.34571e-11
1.38974e-11
9.45964e-12
1.86506e-11
3.69486e-11
1.66584e-11
4.6043e-11
3.6419e-09
5.94115e-09
2.33273e-12
8.04829e-13
2.54055e-12
3.56404e-12
7.23079e-12
7.36727e-12
5.29135e-12
1.11127e-11
6.57214e-12
2.20871e-12
6.57185e-10
1.56495e-09
5.10543e-13
4.66861e-13
2.01183e-13
3.16351e-13
1.30339e-12
1.47669e-12
2.04303e-12
2.63691e-12
1.09065e-12
2.00613e-13
1.09341e-12
1.07571e-10
1.46957e-10
2.13161e-13
2.97359e-13
7.58265e-14
4.35826e-14
6.18132e-14
9.60674e-14
2.56917e-13
2.17069e-13
1.64946e-13
1.6377e-15
3.30466e-14
1.05517e-13
4.9134e-12
8.11054e-12
1.0614e-13
6.13366e-14
2.28707e-14
4.39633e-15
1.11316e-14
1.1165e-14
2.55464e-14
1.957e-14
3.74969e-15
6.56062e-15
3.72377e-15
3.85969e-16
1.05502e-15
3.12471e-13
5.0995e-13
1.88183e-14
8.92478e-15
3.60073e-16
5.82789e-16
8.00304e-16
2.41816e-15
2.75452e-15
1.98086e-15
3.04593e-15
1.39466e-15
2.76157e-15
5.51937e-16
3.78188e-16
2.40309e-16
2.20573e-14
6.27315e-14
2.62393e-14
9.39975e-15
1.0722e-15
3.3476e-16
6.74761e-17
3.45051e-17
7.58975e-17
8.62327e-17
1.04108e-16
1.05641e-16
6.79325e-17
6.00627e-17
5.29256e-17
7.22888e-17
1.99828e-16
4.46398e-15
2.47525e-14
1.53892e-14
1.00317e-14
5.10112e-15
3.86293e-15
2.20072e-15
8.02799e-16
2.90182e-16
2.86376e-16
1.52501e-16
8.23073e-17
1.3507e-16
9.85536e-17
2.09748e-16
3.23437e-16
1.16983e-15
1.81123e-15
4.47907e-15
5.47588e-15
1.19657e-15
1.6393e-15
2.39361e-15
2.79333e-15
2.59672e-15
2.02341e-15
2.3619e-15
1.58269e-15
1.8583e-15
1.23237e-15
1.599e-15
1.06839e-15
1.56243e-15
1.2017e-15
2.24146e-15
1.91253e-15
3.3748e-15
2.25604e-15
3.13133e-15
3.56689e-17
3.70319e-17
3.00557e-17
2.69845e-17
2.0544e-17
2.35734e-17
1.79461e-17
2.20646e-17
1.54424e-17
2.03578e-17
1.47141e-17
2.29773e-17
1.95188e-17
3.59886e-17
3.1907e-17
6.14475e-17
4.47931e-17
6.33088e-17
3.96254e-17
5.87212e-17
7.40744e-08
7.63658e-08
4.27283e-07
1.9178e-10
2.08309e-07
4.37863e-07
2.83607e-09
1.06607e-10
1.4884e-07
4.80822e-07
4.04927e-09
4.26878e-10
7.80191e-12
1.95292e-07
2.4703e-07
1.31692e-09
4.79057e-11
1.07711e-09
2.32819e-10
1.07225e-07
4.4546e-07
2.68914e-10
1.08209e-11
4.39438e-11
9.80795e-10
8.51162e-10
1.23182e-07
2.49743e-07
1.22199e-10
2.61212e-10
1.88269e-10
4.87693e-11
4.00371e-10
7.73084e-09
3.63593e-08
2.12527e-07
1.04724e-10
1.75388e-10
2.18921e-10
3.51755e-10
2.55905e-10
7.52167e-10
2.27766e-09
4.29711e-08
8.9735e-08
7.39224e-11
4.87917e-11
1.0754e-10
6.48298e-11
2.62752e-10
4.69165e-10
1.0192e-10
1.01635e-09
2.42822e-08
5.00637e-08
3.22382e-11
1.48198e-11
7.66741e-11
2.57317e-11
1.46797e-11
1.27795e-10
2.31346e-10
6.80532e-11
2.35479e-10
1.08887e-08
2.50668e-08
8.66581e-12
5.25974e-12
1.81012e-11
2.78803e-11
1.44362e-11
2.30495e-11
1.27569e-11
4.6172e-11
3.41407e-11
3.41677e-11
2.60971e-09
9.05506e-09
2.12716e-12
2.0138e-12
2.47162e-12
4.11015e-12
9.26021e-12
1.11761e-11
7.918e-12
8.7783e-12
8.7086e-12
3.81831e-12
7.16655e-12
1.08819e-09
1.24703e-09
8.44598e-13
1.02122e-12
5.02454e-13
2.23188e-13
1.50437e-12
1.21051e-12
3.22577e-12
2.66269e-12
2.33349e-12
1.56074e-13
2.42865e-12
1.65471e-12
8.41913e-11
1.0683e-10
2.17624e-13
7.51333e-13
1.43106e-13
5.3953e-14
6.18482e-14
8.61296e-14
2.80401e-13
2.39108e-13
1.78474e-13
1.64565e-14
7.20475e-14
5.62404e-14
2.78752e-14
3.80092e-12
8.53018e-12
6.06435e-14
5.69484e-14
2.281e-14
8.60089e-15
9.35442e-15
1.75447e-14
1.55159e-14
2.18713e-14
2.48427e-15
9.28415e-15
3.29421e-15
1.14065e-15
6.22018e-17
1.09821e-15
3.26477e-13
7.17806e-13
1.44927e-14
5.62218e-15
3.59692e-16
5.76245e-16
7.68169e-16
2.15732e-15
2.50241e-15
1.33904e-15
3.14053e-15
1.42811e-15
2.5653e-15
5.21888e-16
4.93291e-16
2.19777e-16
1.62233e-16
3.31495e-14
1.41481e-13
1.56644e-14
3.65695e-15
1.19585e-15
3.35616e-16
1.40391e-16
6.51727e-17
1.20409e-16
1.51795e-16
9.6943e-17
1.12471e-16
7.073e-17
5.99084e-17
5.00954e-17
7.54499e-17
4.09896e-16
1.74603e-15
1.34528e-14
3.52043e-14
4.35943e-15
4.4228e-15
1.5873e-15
1.25001e-15
1.13739e-15
7.0354e-16
2.08204e-16
2.06504e-16
1.08762e-16
7.63442e-17
1.29655e-16
9.83546e-17
2.03046e-16
3.25978e-16
1.23979e-15
1.9783e-15
4.28702e-15
2.85148e-15
4.66433e-15
7.88453e-16
1.44218e-15
8.96414e-16
2.02256e-15
1.66109e-15
1.94249e-15
1.53302e-15
1.80494e-15
1.13535e-15
1.4522e-15
1.001e-15
1.52217e-15
1.09388e-15
1.70601e-15
1.42874e-15
2.65797e-15
2.03521e-15
3.06164e-15
1.7341e-15
2.2871e-15
4.9472e-17
4.60973e-17
3.78379e-17
3.46136e-17
2.42094e-17
2.48828e-17
1.81851e-17
2.17814e-17
1.50417e-17
1.9006e-17
1.34836e-17
2.02666e-17
1.63831e-17
2.87909e-17
2.5855e-17
5.15093e-17
4.09643e-17
5.799e-17
3.72107e-17
5.01083e-17
3.30436e-17
9.24389e-08
9.68324e-08
6.23094e-07
1.47242e-10
3.34948e-07
6.57023e-07
3.00939e-09
5.21552e-10
2.47101e-07
7.18897e-07
5.12757e-09
1.35709e-09
2.43005e-11
3.35785e-07
5.02324e-07
2.01616e-09
4.3851e-10
2.73834e-09
6.58601e-10
2.02284e-07
1.02869e-06
4.62941e-10
3.65029e-11
1.00644e-10
5.37835e-09
1.8286e-09
2.69652e-07
3.93245e-07
3.20361e-10
3.44226e-10
2.48479e-10
1.78374e-10
3.48087e-09
1.54051e-08
9.23511e-08
3.3485e-07
4.28036e-10
1.87393e-10
4.79838e-10
1.1954e-09
5.66406e-10
3.4307e-09
1.01294e-08
6.57535e-08
2.75651e-07
2.76115e-10
8.6445e-11
9.7841e-11
3.3129e-10
1.49055e-09
1.47769e-09
2.76803e-10
7.86536e-09
4.95691e-08
1.82091e-07
1.16562e-10
5.55363e-11
8.71559e-11
3.32814e-11
9.02536e-11
8.94319e-10
1.38246e-09
2.24637e-10
1.55598e-09
3.33835e-08
6.22168e-08
3.90708e-11
1.56915e-11
9.17968e-11
5.12918e-11
1.84231e-11
3.58341e-11
1.08859e-10
4.71797e-10
1.57122e-10
3.30387e-10
1.12765e-08
2.75408e-08
9.66946e-12
5.5232e-12
2.36707e-11
2.43025e-11
2.9427e-11
2.92716e-11
9.76311e-12
1.22373e-11
7.67485e-11
5.20457e-11
5.32546e-11
5.26918e-09
6.64809e-09
2.02137e-12
4.36856e-12
2.20153e-12
3.43763e-12
9.69357e-12
1.35244e-11
1.23611e-11
1.01013e-11
5.31514e-12
3.50096e-12
2.09978e-11
9.50445e-12
8.66591e-10
8.4804e-10
7.38188e-13
2.44057e-12
5.74232e-13
4.48564e-13
7.66161e-13
1.64451e-12
2.55711e-12
4.78889e-12
2.5819e-12
2.33662e-13
1.78765e-12
2.67379e-12
9.05014e-14
7.16055e-11
9.43777e-11
2.39446e-13
1.46988e-12
3.06282e-13
8.09954e-14
8.11787e-14
8.93759e-14
2.96204e-13
2.74369e-13
1.87686e-13
6.28714e-14
1.71392e-13
6.57483e-14
4.05989e-15
2.63224e-14
4.0984e-12
8.99264e-12
3.76007e-14
2.03136e-14
1.86274e-14
1.33159e-14
1.25227e-14
2.00533e-14
1.57576e-14
1.3675e-14
6.26927e-15
8.34012e-15
4.38717e-15
9.1636e-16
5.59968e-17
5.56781e-17
8.1737e-16
4.13237e-13
1.21818e-12
1.18185e-14
1.26541e-15
7.03524e-16
3.40126e-16
6.25742e-16
1.90262e-15
1.43404e-15
1.44638e-15
2.69748e-15
1.81444e-15
1.6525e-15
5.24723e-16
5.19526e-16
2.50114e-16
2.11447e-16
1.86615e-15
7.36378e-14
3.37329e-13
1.54008e-15
1.95787e-15
1.38041e-17
9.7359e-18
9.51418e-17
1.14446e-16
2.38311e-16
8.94438e-17
6.03301e-17
1.34945e-16
7.62812e-17
6.48797e-17
5.15673e-17
7.07478e-17
4.17333e-16
2.24989e-15
1.02357e-14
1.68499e-14
2.70939e-14
4.4175e-15
4.21109e-15
5.56026e-16
7.41814e-16
6.1369e-16
1.05287e-16
1.24568e-16
1.64177e-16
7.56015e-17
6.76776e-17
1.01967e-16
8.55687e-17
1.81954e-16
3.04228e-16
1.2195e-15
2.06175e-15
4.58934e-15
2.61019e-15
2.06118e-15
1.98562e-15
8.06711e-16
1.50144e-15
7.20461e-16
1.07263e-15
1.0362e-15
1.61132e-15
1.17614e-15
1.45278e-15
9.51014e-16
1.21008e-15
8.25105e-16
1.22989e-15
9.85042e-16
1.71185e-15
1.39809e-15
2.49624e-15
1.91174e-15
2.75672e-15
1.56424e-15
1.93701e-15
1.19865e-15
6.59569e-17
5.45067e-17
4.24538e-17
3.92067e-17
2.8211e-17
2.65938e-17
1.89121e-17
2.11308e-17
1.43238e-17
1.76245e-17
1.23836e-17
1.79846e-17
1.43429e-17
2.41958e-17
2.09117e-17
4.17744e-17
3.60364e-17
5.24268e-17
3.39542e-17
4.72933e-17
2.89295e-17
4.23306e-17
1.13199e-07
1.1934e-07
8.7212e-07
1.26581e-10
4.95492e-07
9.61109e-07
3.62089e-09
1.50392e-09
3.86092e-07
1.06669e-06
6.65507e-09
4.89644e-09
9.01767e-11
5.36542e-07
1.18361e-06
2.70359e-09
2.27888e-09
6.95585e-09
1.21999e-09
3.58052e-07
1.41087e-06
5.68205e-10
2.62509e-10
8.71425e-10
1.334e-08
4.6221e-09
3.297e-07
1.12692e-06
3.91271e-10
8.68271e-10
4.53736e-10
7.0497e-10
1.5077e-08
2.58496e-08
1.83935e-07
6.88026e-07
7.83191e-10
3.61899e-10
1.20975e-09
3.15065e-09
1.05346e-09
1.34543e-08
2.54947e-08
1.12777e-07
5.78793e-07
8.85865e-10
7.61157e-11
1.74278e-10
1.83386e-09
4.57214e-09
3.03656e-09
1.61461e-09
2.87743e-08
8.26949e-08
4.03376e-07
5.17606e-10
5.74579e-11
7.51282e-11
6.11966e-11
8.61786e-10
4.2289e-09
2.77149e-09
4.41047e-10
1.17376e-08
8.43776e-08
1.80949e-07
1.84105e-10
2.99148e-11
1.71619e-10
4.61001e-11
1.07781e-11
1.73042e-10
1.38732e-09
1.96843e-09
2.08197e-10
2.8775e-09
3.6774e-08
8.74027e-08
3.51818e-11
1.51652e-11
9.36257e-11
7.56703e-11
4.44369e-11
2.60931e-11
8.50885e-12
1.85153e-10
6.39666e-10
2.92064e-10
3.69453e-10
2.0655e-08
3.01697e-08
6.02317e-12
1.0891e-11
1.33848e-11
2.38732e-11
3.33068e-11
5.10858e-11
1.20017e-11
7.36104e-12
2.15277e-11
7.71318e-11
1.60833e-10
5.73188e-11
4.29981e-09
4.19444e-09
1.90806e-12
8.67272e-12
2.22666e-12
2.58558e-12
8.80191e-12
1.30959e-11
1.47358e-11
1.541e-11
5.20039e-12
9.09414e-13
1.37308e-11
1.17752e-11
1.31426e-12
7.29965e-10
7.71576e-10
1.08733e-12
6.03448e-12
9.75052e-13
6.65659e-13
6.35249e-13
1.60891e-12
2.64477e-12
5.02962e-12
3.85023e-12
3.4634e-13
1.94091e-12
2.54347e-12
3.19666e-13
2.34342e-13
6.44153e-11
9.99114e-11
2.64359e-13
1.10072e-12
3.7423e-13
1.73841e-13
1.35697e-13
1.12551e-13
3.22e-13
3.23844e-13
2.05111e-13
1.52342e-13
2.31121e-13
6.56022e-14
5.90241e-17
4.50219e-15
3.68702e-14
4.45283e-12
1.15915e-11
1.99819e-14
2.54762e-15
1.00248e-14
8.83872e-15
1.47079e-14
2.17197e-14
1.62697e-14
1.17555e-14
1.3734e-14
1.20799e-14
5.6621e-15
5.16546e-16
8.26554e-17
1.85519e-17
1.67442e-16
5.46374e-15
6.88345e-13
2.78556e-12
1.65072e-15
8.30764e-17
3.1033e-15
2.57797e-15
1.90732e-15
1.12393e-15
1.29491e-15
2.59954e-15
1.15784e-15
2.39325e-15
1.02122e-15
5.15336e-16
5.46699e-16
2.77433e-16
2.08343e-16
2.41034e-15
1.46991e-14
1.66477e-13
3.09639e-13
7.92757e-15
1.82917e-14
1.23001e-15
3.99866e-16
3.13614e-17
1.07933e-17
2.01418e-16
4.89878e-17
8.33737e-17
1.60983e-16
8.5421e-17
7.67545e-17
5.70971e-17
7.40911e-17
3.33279e-16
3.0601e-15
8.31941e-15
1.70719e-14
1.24289e-14
1.64377e-14
1.56085e-14
1.43416e-14
1.9327e-15
2.69987e-16
4.2244e-16
7.24934e-17
4.58754e-17
8.44082e-17
7.4872e-17
5.98365e-17
7.57955e-17
6.57322e-17
1.41539e-16
2.60113e-16
1.10385e-15
2.01928e-15
4.76691e-15
2.83876e-15
1.92907e-15
5.20364e-16
5.40947e-16
1.35525e-15
1.43451e-15
1.18146e-15
7.26317e-16
7.96481e-16
9.1392e-16
1.27124e-15
8.43682e-16
1.00885e-15
6.98829e-16
9.13351e-16
6.8142e-16
1.10127e-15
9.75516e-16
1.94243e-15
1.66862e-15
2.67029e-15
1.73799e-15
2.12461e-15
1.16625e-15
1.42189e-15
1.37794e-15
8.77887e-17
6.41063e-17
4.72314e-17
4.16981e-17
3.02857e-17
2.70196e-17
1.89303e-17
2.11221e-17
1.39903e-17
1.64332e-17
1.138e-17
1.59372e-17
1.25675e-17
2.07183e-17
1.79414e-17
3.43897e-17
2.95414e-17
4.54517e-17
2.86983e-17
4.33692e-17
2.7389e-17
2.45648e-17
3.56826e-17
1.37538e-07
1.43579e-07
1.20206e-06
1.20966e-10
6.97587e-07
1.35111e-06
4.74269e-09
3.10997e-09
5.67014e-07
1.56778e-06
9.65553e-09
1.08996e-08
2.37165e-10
8.38181e-07
1.97848e-06
4.04777e-09
7.4048e-09
1.46016e-08
1.66541e-09
7.91417e-07
2.19983e-06
6.92992e-10
1.94727e-09
2.97928e-09
3.54209e-08
5.10303e-09
8.66189e-07
1.5645e-06
3.31001e-10
2.90566e-09
1.03442e-09
3.39517e-09
4.14822e-08
3.5588e-08
4.13878e-07
1.30386e-06
8.96553e-10
1.32058e-09
3.24522e-09
6.36013e-09
1.82524e-09
4.57963e-08
3.74787e-08
2.79847e-07
8.8815e-07
1.76918e-09
8.8e-11
5.94869e-10
6.57834e-09
8.75193e-09
3.62567e-09
1.17709e-08
5.90928e-08
1.67912e-07
6.0203e-07
1.60693e-09
4.02302e-11
6.0756e-11
4.75556e-10
4.98232e-09
1.24199e-08
2.64976e-09
2.55986e-09
5.29099e-08
1.06574e-07
5.7477e-07
7.15864e-10
6.26803e-11
1.74056e-10
2.48489e-11
8.04817e-11
1.65215e-09
5.25207e-09
2.55503e-09
1.39652e-10
1.83348e-08
7.71675e-08
3.39953e-07
1.48681e-10
3.28317e-11
1.81211e-10
1.34832e-10
1.3619e-11
9.8684e-12
3.19106e-10
1.58991e-09
1.80343e-09
2.63711e-10
2.67202e-09
8.63303e-08
1.01941e-07
3.23465e-11
1.51755e-11
8.06898e-11
8.84838e-11
7.30048e-11
5.59919e-11
4.15751e-13
1.99718e-11
2.69053e-10
6.79749e-10
8.37958e-10
4.31967e-10
1.79099e-08
1.66063e-08
8.66904e-12
1.49256e-11
1.57405e-11
1.30252e-11
4.12482e-11
4.74224e-11
2.54138e-11
4.82827e-12
7.82984e-12
1.42023e-11
1.42492e-10
4.892e-11
2.90649e-11
3.75013e-09
3.19632e-09
3.52033e-12
1.71098e-11
4.06916e-12
1.59856e-12
9.22671e-12
8.8563e-12
1.58347e-11
1.57193e-11
9.49065e-12
2.81034e-13
8.28642e-12
5.66607e-12
8.55598e-12
9.62699e-12
6.09053e-10
8.04102e-10
2.43556e-12
7.43485e-12
1.91631e-12
1.09363e-12
1.06327e-12
1.08444e-12
3.4082e-12
3.33447e-12
4.93037e-12
6.04507e-13
3.68893e-12
2.13785e-12
1.52928e-13
3.48156e-13
2.22945e-13
7.48371e-11