/*--------------------------------*- C++ -*----------------------------------*\
| =========                 |                                                 |
| \\      /  F ield         | OpenFOAM: The Open Source CFD Toolbox           |
|  \\    /   O peration     | Version:  v2012                                 |
|   \\  /    A nd           | Website:  www.openfoam.com                      |
|    \\/     M anipulation  |                                                 |
\*---------------------------------------------------------------------------*/
FoamFile
{
    version     2.0;
    format      ascii;
    class       volScalarField;
    location    "15001";
    object      k;
}
// * * * * * * * * * * * * * * * * * * * * * * * * * * * * * * * * * * * * * //

dimensions      [0 2 -2 0 0 0 0];


internalField   nonuniform List<scalar> 
294912
(
0.24285
0.0369961
0.242469
0.240151
0.0143964
0.0368152
0.0362398
0.24218
0.2398
0.237892
0.00862881
0.0142881
0.0141271
0.0366522
0.0360793
0.0356294
0.241954
0.239524
0.23757
0.235989
0.00649053
0.00856101
0.00867329
0.0141888
0.0140344
0.0140028
0.0364572
0.0359379
0.0354869
0.0351425
0.241677
0.239167
0.237315
0.235714
0.234398
0.00552685
0.00644891
0.00674955
0.00849901
0.00861931
0.00888283
0.0140664
0.0139522
0.013925
0.0140354
0.0361984
0.0357411
0.0353665
0.03502
0.0347811
0.241264
0.238484
0.236865
0.235526
0.234179
0.233068
0.00503251
0.00550198
0.00591952
0.00641101
0.00671913
0.00716176
0.0084244
0.00857165
0.00884129
0.0092555
0.0139054
0.0138438
0.0138595
0.0139722
0.014235
0.035895
0.0354364
0.0351803
0.0349267
0.0346786
0.0345542
0.240634
0.237434
0.235918
0.235114
0.234083
0.232907
0.231976
0.00475178
0.00501818
0.00550383
0.00547949
0.00590298
0.00644092
0.00636673
0.0066925
0.00714048
0.0077091
0.00832943
0.00851233
0.00880654
0.00922478
0.00977685
0.013722
0.0136889
0.0137697
0.0139234
0.0141855
0.0145982
0.0355375
0.0350505
0.0348621
0.03477
0.0346133
0.0344707
0.0344726
0.239713
0.235985
0.234451
0.234109
0.233785
0.232918
0.231875
0.231071
0.004578
0.00474407
0.00526768
0.00500537
0.0054954
0.00608044
0.00545379
0.00588876
0.00643061
0.00706674
0.00631213
0.00666066
0.00712313
0.00769499
0.00836458
0.00822351
0.00843246
0.00876274
0.00920149
0.00975515
0.0104185
0.0135167
0.0135038
0.0136326
0.0138562
0.0141522
0.014561
0.0151043
0.0351188
0.0345816
0.0344404
0.0344747
0.0344978
0.0344323
0.0344068
0.0345405
0.23845
0.234102
0.232445
0.232497
0.232849
0.232761
0.231988
0.231027
0.230328
0.00446233
0.00457452
0.00511807
0.00473736
0.00526409
0.00587027
0.00499092
0.00548846
0.00607617
0.00673816
0.00542285
0.00587214
0.00642274
0.00706096
0.007769
0.00625235
0.00661952
0.0071022
0.00768514
0.00835587
0.00909488
0.00810858
0.00834048
0.00870081
0.00917264
0.00974158
0.0104041
0.0111424
0.0132893
0.0132912
0.013463
0.0137466
0.0141089
0.0145417
0.0150778
0.015717
0.0346333
0.0340308
0.0339186
0.0340662
0.0342507
0.0343652
0.0343936
0.0344914
0.0347455
0.236792
0.231773
0.229904
0.230272
0.23126
0.231992
0.232005
0.231225
0.230319
0.229761
0.00438085
0.00446166
0.00501455
0.00457175
0.00511751
0.00573078
0.00472978
0.00526154
0.0058695
0.00653758
0.00497371
0.00548038
0.00607355
0.0067368
0.00745198
0.00538942
0.00585108
0.00641337
0.00705798
0.00776647
0.00851816
0.00618905
0.00657334
0.00707374
0.00767346
0.00835203
0.00909021
0.0098644
0.00798554
0.0082388
0.00862766
0.00912946
0.00972612
0.0103987
0.0111337
0.0119059
0.0130404
0.0130532
0.0132645
0.0136064
0.0140319
0.0145217
0.0150709
0.0156999
0.0163899
0.0340779
0.0334005
0.0333029
0.0335507
0.0338903
0.0341864
0.0343803
0.0344998
0.0347117
0.0350605
0.234711
0.229
0.226852
0.227452
0.229029
0.230563
0.231453
0.231417
0.230616
0.229801
0.229432
0.0043213
0.00438215
0.00493838
0.00446151
0.00501601
0.00562878
0.00456849
0.00511773
0.00573222
0.00639649
0.00472067
0.00525843
0.00586998
0.00653883
0.00724787
0.00495525
0.00547
0.00607031
0.00673751
0.00745276
0.00819702
0.00535466
0.00582777
0.00640052
0.00705439
0.00776737
0.00851803
0.00928499
0.00612302
0.0065238
0.00704109
0.00765616
0.00834798
0.0090913
0.00986277
0.0106383
0.00785526
0.00812899
0.00854568
0.00907712
0.00970055
0.0103948
0.0111352
0.0119018
0.0126672
0.0127707
0.0127924
0.0130405
0.0134389
0.0139283
0.0144786
0.0150727
0.0157036
0.0163806
0.0170747
0.0334519
0.0326968
0.0326019
0.0329369
0.0334238
0.0339014
0.0342836
0.0345426
0.0347396
0.0350397
0.0354434
0.232186
0.225819
0.223326
0.224078
0.226179
0.228477
0.230253
0.231144
0.231044
0.230161
0.229495
0.229377
0.00427706
0.00432402
0.00488049
0.00438385
0.00494126
0.00554972
0.00446111
0.00501811
0.00563171
0.0062872
0.00456435
0.00511771
0.00573467
0.0063994
0.00709573
0.0047109
0.00525405
0.00587025
0.00654174
0.0072507
0.00797951
0.00493629
0.00545853
0.00606526
0.00673813
0.00745625
0.0081995
0.00894906
0.00531915
0.0058033
0.00638589
0.00704817
0.00776852
0.00852225
0.00928673
0.0100418
0.0060549
0.00647186
0.00700581
0.00763578
0.00834003
0.00909362
0.00986807
0.0106389
0.0113847
0.00771883
0.00801258
0.00845662
0.00901762
0.00966821
0.0103847
0.0111412
0.0119091
0.0126665
0.01339
0.0124818
0.0125124
0.0127949
0.0132478
0.0138012
0.0144144
0.015062
0.0157247
0.0163938
0.0170718
0.0177286
0.0327571
0.0319273
0.0318269
0.0322367
0.0328606
0.0335157
0.0340941
0.0345393
0.0348385
0.0350843
0.0354333
0.0358471
0.229201
0.222254
0.219379
0.220206
0.222763
0.225763
0.22841
0.230259
0.231101
0.230833
0.229915
0.229468
0.22966
0.00424436
0.00428084
0.00483636
0.0043271
0.00488444
0.00548721
0.00438546
0.00494475
0.00555373
0.0061985
0.00446019
0.00502017
0.00563556
0.00629126
0.0069717
0.00455982
0.00511695
0.00573717
0.00640377
0.00709988
0.00780882
0.00470093
0.00524906
0.00586949
0.00654482
0.0072558
0.00798373
0.00871126
0.00491724
0.00544663
0.00605931
0.00673731
0.00746019
0.00820555
0.00895298
0.00968489
0.00528327
0.00577827
0.00637049
0.00704069
0.00776772
0.0085275
0.00929394
0.010045
0.0107633
0.00598534
0.00641828
0.00696878
0.00761369
0.00833007
0.0090934
0.00987584
0.0106479
0.011387
0.0120773
0.00757741
0.00789126
0.00836212
0.00895254
0.00963074
0.0103702
0.0111442
0.0119234
0.012679
0.0133919
0.0140467
0.0121763
0.0122169
0.0125324
0.0130375
0.0136535
0.0143311
0.0150363
0.0157437
0.0164315
0.017093
0.0177306
0.0183206
0.0319969
0.0311025
0.0309903
0.0314647
0.0322137
0.033039
0.0338148
0.0344595
0.0349327
0.0352361
0.0354917
0.035847
0.0362348
0.225755
0.218336
0.215086
0.215915
0.218837
0.222476
0.225947
0.22875
0.230596
0.23133
0.230872
0.229914
0.229739
0.230251
0.00422087
0.00424893
0.00480354
0.004285
0.00484109
0.00543848
0.00433021
0.00488901
0.00549202
0.00612636
0.00438677
0.00494836
0.00555866
0.00620335
0.00686754
0.00445903
0.00502183
0.00563965
0.00629669
0.00697672
0.00766394
0.00455521
0.00511583
0.00573907
0.00640852
0.00710611
0.00781415
0.00851628
0.00469105
0.0052439
0.0058682
0.00654706
0.00726152
0.00799102
0.00871676
0.00942273
0.00489833
0.00543473
0.00605315
0.00673581
0.00746298
0.00821261
0.0089615
0.00969005
0.010383
0.00524737
0.00575307
0.00635487
0.0070329
0.00776609
0.0085313
0.00930294
0.010055
0.0107677
0.0114283
0.00591493
0.00636382
0.0069307
0.00759062
0.00831938
0.00909215
0.00988214
0.0106605
0.0113992
0.0120808
0.012697
0.0074323
0.00776671
0.00826392
0.00888333
0.00958936
0.0103528
0.0111451
0.0119375
0.0127003
0.0134085
0.0140502
0.0146204
0.0118573
0.0119101
0.0122576
0.0128126
0.0134893
0.014231
0.0149965
0.0157531
0.0164756
0.0171443
0.0177586
0.018326
0.0188344
0.0311761
0.0302337
0.0301089
0.0306371
0.0314981
0.0324837
0.0334524
0.0343034
0.0349697
0.0354244
0.035689
0.0359168
0.0362404
0.0365821
0.221842
0.214115
0.210517
0.211297
0.214499
0.218688
0.222938
0.226657
0.229533
0.231342
0.231911
0.231182
0.230214
0.230331
0.231027
0.00420496
0.00422598
0.00478052
0.00425393
0.00480879
0.00540221
0.0042893
0.00484655
0.00544382
0.00606971
0.00433321
0.0048939
0.00549784
0.00613174
0.00678174
0.00438795
0.00495183
0.00556406
0.00620964
0.00687307
0.0075397
0.00445783
0.00502327
0.00564346
0.00630273
0.00698375
0.00766985
0.00834569
0.00455071
0.00511462
0.00574064
0.0064128
0.00711313
0.0078223
0.00852268
0.0091997
0.00468141
0.00523886
0.00586684
0.00654886
0.00726654
0.00799942
0.00872631
0.00942939
0.010095
0.00487974
0.00542302
0.00604713
0.00673431
0.00746526
0.00821873
0.00897163
0.00970099
0.0103893
0.0110248
0.00521171
0.00572804
0.00633935
0.00702529
0.00776466
0.00853469
0.00931088
0.0100675
0.0107802
0.0114335
0.012021
0.00584429
0.00630913
0.00689221
0.00756714
0.00830854
0.00909114
0.00988826
0.0106724
0.0114161
0.0120958
0.0127012
0.0132328
0.00728523
0.00764058
0.00816375
0.00881147
0.00954512
0.010333
0.011145
0.0119512
0.0127234
0.0134358
0.0140703
0.0146247
0.0151051
0.0115286
0.0115971
0.0119757
0.0125781
0.0133127
0.0141173
0.0149438
0.0157533
0.0165153
0.0172086
0.0178204
0.0183593
0.0188418
0.0192671
0.0303009
0.0293341
0.0292
0.0297708
0.0307321
0.031865
0.0330183
0.0340752
0.0349457
0.0355752
0.0359601
0.0361492
0.0363201
0.0365927
0.0368841
0.217471
0.209648
0.205763
0.206454
0.209852
0.214508
0.219445
0.224031
0.227924
0.230845
0.232566
0.232856
0.231812
0.230804
0.231099
0.231829
0.00419537
0.00421036
0.00476614
0.00423161
0.004786
0.00537765
0.0042592
0.00481494
0.00540781
0.00602844
0.00429366
0.00485254
0.00545038
0.00607535
0.00671515
0.00433617
0.00489887
0.00550441
0.00613874
0.00678747
0.00743765
0.00438911
0.00495519
0.00556945
0.00621684
0.00688071
0.00754578
0.00819812
0.00445672
0.00502466
0.00564707
0.00630861
0.00699185
0.00767856
0.00835234
0.00900027
0.00454642
0.00511353
0.00574217
0.00641679
0.00711979
0.00783174
0.00853288
0.00920703
0.00984238
0.00467208
0.00523407
0.00586567
0.0065507
0.00727117
0.00800722
0.00873748
0.0094412
0.0101027
0.0107114
0.00486156
0.00541168
0.00604147
0.0067332
0.0074678
0.00822449
0.00898098
0.00971414
0.0104025
0.0110319
0.0115962
0.00517651
0.0057034
0.00632419
0.00701812
0.00776385
0.00853876
0.00931875
0.0100793
0.010796
0.0114482
0.0120268
0.0125327
0.00577408
0.00625484
0.00685388
0.00754362
0.00829785
0.00909081
0.00989556
0.0106849
0.0114329
0.0121163
0.0127184
0.0132372
0.0136823
0.00713788
0.00751478
0.00806324
0.00873832
0.00949899
0.0103116
0.0111442
0.0119659
0.0127478
0.0134662
0.0141022
0.0146474
0.0151095
0.0155043
0.0111938
0.0112829
0.0116922
0.0123388
0.0131282
0.0139931
0.0148802
0.0157445
0.0165502
0.0172728
0.0178998
0.018429
0.018879
0.0192753
0.0196277
0.0293801
0.028417
0.0282806
0.0288871
0.0299332
0.0311997
0.0325256
0.0337824
0.0348608
0.0356806
0.0362118
0.036484
0.0365773
0.036679
0.0368971
0.0371503
0.212662
0.204977
0.200907
0.201494
0.205017
0.210036
0.215554
0.220932
0.225782
0.229836
0.232783
0.234285
0.234119
0.232648
0.231576
0.231893
0.232534
0.00419097
0.00420081
0.00475939
0.00421643
0.00477156
0.00536411
0.00423767
0.00479263
0.00538317
0.00600259
0.00426472
0.00482189
0.00541492
0.00603402
0.00666904
0.00429808
0.00485887
0.00545804
0.00608291
0.00672078
0.0073609
0.00433913
0.00490388
0.00551128
0.00614705
0.00679559
0.00744355
0.00807891
0.00439034
0.00495854
0.00557479
0.0062242
0.00688982
0.0075548
0.00820446
0.00882789
0.00445577
0.00502615
0.00565069
0.00631435
0.0069999
0.00768884
0.00836277
0.00900745
0.00961325
0.00454238
0.00511265
0.00574387
0.0064208
0.00712617
0.00784091
0.00854486
0.00921926
0.00985045
0.0104299
0.00466313
0.0052296
0.00586485
0.00655286
0.00727597
0.00801468
0.00874814
0.00945517
0.0101167
0.01072
0.0112592
0.00484388
0.00540077
0.00603624
0.00673262
0.00747097
0.00823076
0.00899008
0.00972664
0.0104185
0.0110472
0.011604
0.0120889
0.00514202
0.00567936
0.00630951
0.00701146
0.00776381
0.00854394
0.00932781
0.0100912
0.0108112
0.0114669
0.0120433
0.0125386
0.0129612
0.00570497
0.00620152
0.00681612
0.00752042
0.00828751
0.00909122
0.00990437
0.0106995
0.0114509
0.0121373
0.012742
0.0132561
0.0136865
0.0140498
0.00699201
0.00739108
0.00796401
0.00866518
0.00945201
0.010289
0.0111429
0.0119813
0.0127748
0.0134993
0.0141384
0.0146829
0.0151339
0.0155083
0.0158289
0.0108574
0.0109723
0.0114123
0.0120999
0.01294
0.013862
0.0148079
0.0157274
0.0165797
0.0173362
0.0179827
0.0185191
0.0189538
0.019315
0.0196357
0.0199323
0.0284237
0.027496
0.0273683
0.0280055
0.0291219
0.0305047
0.031989
0.0334355
0.0347201
0.0357375
0.0364331
0.0368151
0.0369544
0.0369492
0.0369881
0.0371641
0.0373981
0.207425
0.200151
0.196037
0.196534
0.200106
0.205382
0.211389
0.21746
0.223201
0.228363
0.232585
0.235398
0.236345
0.235517
0.23355
0.232357
0.232555
0.233135
0.00419078
0.00419624
0.00475927
0.0042071
0.00476444
0.0053608
0.00422311
0.00477844
0.00536919
0.00599191
0.00424419
0.00480041
0.00539063
0.0060077
0.00664419
0.00427042
0.0048295
0.00542361
0.006042
0.00667421
0.00731212
0.00430252
0.00486539
0.00546638
0.00609235
0.00672927
0.0073663
0.00799361
0.00434212
0.0049089
0.00551828
0.00615594
0.00680571
0.00745273
0.00808455
0.00869235
0.00439167
0.00496197
0.00558018
0.0062316
0.00689927
0.00756587
0.0082148
0.00883417
0.00941667
0.004455
0.00502781
0.00565445
0.00632015
0.00700787
0.00769922
0.00837533
0.00901951
0.00962062
0.0101725
0.00453861
0.00511203
0.00574586
0.00642507
0.00713267
0.00784983
0.00855667
0.00923381
0.00986463
0.0104386
0.0109508
0.00465454
0.00522549
0.00586438
0.00655548
0.00728124
0.00802241
0.00875846
0.0094687
0.0101334
0.010736
0.0112685
0.0117305
0.00482673
0.00539033
0.00603148
0.00673259
0.00747489
0.00823795
0.00899995
0.00973895
0.010434
0.0110659
0.011621
0.0120971
0.0125009
0.00510845
0.00565604
0.00629538
0.00700537
0.00776452
0.00855022
0.00933847
0.0101049
0.010827
0.0114852
0.0120644
0.0125565
0.0129669
0.0133108
0.00563762
0.00614977
0.00677939
0.00749776
0.00827759
0.00909236
0.0099145
0.0107163
0.0114719
0.0121601
0.0127664
0.013282
0.0137063
0.0140534
0.0143453
0.00684941
0.00727114
0.00786757
0.00859334
0.00940501
0.0102658
0.0111411
0.0119973
0.012804
0.0135364
0.0141784
0.0147234
0.015172
0.0155336
0.015832
0.0160941
0.0105241
0.0106701
0.0111409
0.0118662
0.0127524
0.0137274
0.0147294
0.0157034
0.0166037
0.0173973
0.0180681
0.0186151
0.0190506
0.0193929
0.0196766
0.0199393
0.0202011
0.0274438
0.0265851
0.02648
0.027144
0.0283179
0.0297997
0.0314245
0.033048
0.0345308
0.0357478
0.0366184
0.0371293
0.0373383
0.0373481
0.037263
0.0372575
0.0374107
0.0376501
0.201763
0.195216
0.191239
0.191685
0.195237
0.200676
0.207055
0.213713
0.220268
0.226462
0.231935
0.236111
0.238347
0.238415
0.236742
0.23433
0.233003
0.233144
0.233559
0.00419387
0.00419567
0.00476473
0.00420254
0.00476367
0.00536675
0.00421423
0.00477132
0.00536506
0.00599574
0.00423049
0.00478688
0.00537674
0.00599611
0.00664064
0.00425104
0.0048092
0.00540023
0.00601589
0.00664846
0.00729263
0.00427617
0.00483749
0.00543342
0.00605252
0.00668297
0.00731665
0.00794601
0.00430698
0.00487199
0.00547508
0.00610283
0.00674046
0.00737561
0.00799827
0.00860143
0.00434518
0.004914
0.0055254
0.0061651
0.00681667
0.00746457
0.00809463
0.00869733
0.00926728
0.00439313
0.00496555
0.00558574
0.00623916
0.00690888
0.00757749
0.00822781
0.00884564
0.00942244
0.00995433
0.0044544
0.00502966
0.00565845
0.0063262
0.007016
0.00770959
0.0083881
0.00903426
0.00963415
0.0101798
0.0106681
0.00453509
0.00511166
0.00574812
0.00642969
0.00713953
0.00785893
0.00856824
0.00924827
0.0098816
0.0104545
0.01096
0.0113979
0.0046463
0.00522169
0.00586428
0.00655853
0.00728707
0.00803077
0.00876917
0.00948186
0.0101496
0.0107552
0.0112863
0.0117404
0.0121232
0.00481016
0.00538034
0.00602713
0.00673307
0.0074795
0.00824608
0.00901101
0.00975228
0.0104493
0.011084
0.011642
0.0121155
0.0125092
0.0128362
0.005076
0.0056336
0.00628188
0.00699976
0.00776583
0.0085575
0.00935059
0.0101207
0.0108449
0.0115043
0.0120854
0.0125795
0.0129857
0.013316
0.0135903
0.0055727
0.00610005
0.00674399
0.00747586
0.00826811
0.00909403
0.00992575
0.0107351
0.0114959
0.0121867
0.0127932
0.0133092
0.0137339
0.0140737
0.014348
0.0145821
0.00671186
0.00715644
0.00777518
0.00852381
0.00935873
0.0102424
0.0111389
0.0120136
0.0128347
0.013577
0.0142237
0.0147687
0.0152155
0.0155732
0.0158576
0.0160959
0.0163169
0.0101988
0.0103808
0.0108823
0.0116418
0.0125694
0.0135925
0.0146469
0.0156738
0.0166225
0.0174556
0.018154
0.0187162
0.0191552
0.0194932
0.0197559
0.0199806
0.0202065
0.0204544
0.0264488
0.0256986
0.0256309
0.0263203
0.0275387
0.0291015
0.0308491
0.0326323
0.0343014
0.0357141
0.0367648
0.0374178
0.0377163
0.0377605
0.037667
0.0375304
0.0375055
0.0376615
0.0379291
0.195687
0.1902
0.186576
0.187031
0.190541
0.196044
0.202681
0.209788
0.217056
0.224205
0.230875
0.236434
0.240058
0.241187
0.240053
0.237605
0.234954
0.233581
0.23357
0.233873
0.00419943
0.00419822
0.00477474
0.00420178
0.00476824
0.00538078
0.00420994
0.00477029
0.00536987
0.00601299
0.00422231
0.00478024
0.00537244
0.00599861
0.00665764
0.00423835
0.00479673
0.0053871
0.0060043
0.00664353
0.00730239
0.00425798
0.00481863
0.00541147
0.00602748
0.00665741
0.0072958
0.0079374
0.00428191
0.00484563
0.00544388
0.0060647
0.0066953
0.00732613
0.00794938
0.00855951
0.00431146
0.00487866
0.00548399
0.00611391
0.00675308
0.00738833
0.00800824
0.00860495
0.00917448
0.00434832
0.00491923
0.00553273
0.00617455
0.00682812
0.00747755
0.00810803
0.00870805
0.00927109
0.00979481
0.00439469
0.00496928
0.00559152
0.00624702
0.0069188
0.00758944
0.00824154
0.00886032
0.00943476
0.00995924
0.0104323
0.00445395
0.00503168
0.00566267
0.00633256
0.00702448
0.00772021
0.00840094
0.00904935
0.0096508
0.0101946
0.0106752
0.0110935
0.00453176
0.00511148
0.00575064
0.00643465
0.0071468
0.00786848
0.00858004
0.00926247
0.00989857
0.0104737
0.0109774
0.0114076
0.0117691
0.00463838
0.00521815
0.00586446
0.00656196
0.00729343
0.00803981
0.00878063
0.0094955
0.0101655
0.010774
0.0113077
0.0117596
0.0121336
0.0124413
0.0047942
0.00537081
0.00602313
0.00673391
0.00748465
0.00825506
0.00902324
0.00976707
0.0104659
0.011102
0.0116624
0.0121382
0.0125286
0.0128443
0.013103
0.0050449
0.00561212
0.00626897
0.00699458
0.0077676
0.00856549
0.00936397
0.0101383
0.0108654
0.011526
0.0121072
0.0126024
0.01301
0.0133351
0.0135948
0.0138113
0.00551083
0.00605277
0.00671022
0.00745477
0.00825901
0.00909602
0.00993771
0.0107554
0.0115225
0.012217
0.0128245
0.0133391
0.0137629
0.0141022
0.0143683
0.0145836
0.0147745
0.00658114
0.00704827
0.00768789
0.00845739
0.00931376
0.010219
0.0111363
0.0120298
0.0128665
0.0136202
0.0142736
0.0148203
0.0152644
0.0156185
0.0158978
0.0161211
0.0163172
0.0165142
0.00988582
0.0101082
0.01064
0.0114302
0.0123939
0.0134601
0.0145629
0.01564
0.0166364
0.0175104
0.0182392
0.0188203
0.0192668
0.0196026
0.0198576
0.0200599
0.0202473
0.0204579
0.0207117
0.0254473
0.0248436
0.0248353
0.0255482
0.0268009
0.0284269
0.0302772
0.032201
0.0340421
0.0356421
0.0368737
0.0376772
0.0380785
0.0381737
0.0380876
0.0379275
0.0377723
0.037756
0.0379387
0.0382568
0.189199
0.185131
0.182089
0.182646
0.186105
0.191605
0.198376
0.205824
0.213671
0.221669
0.229485
0.236387
0.241446
0.243735
0.243325
0.241062
0.238139
0.235401
0.234014
0.233866
0.234123
0.0042067
0.00420311
0.00478824
0.00420399
0.00477717
0.0054016
0.00420931
0.00477438
0.0053825
0.00604223
0.00421858
0.00477947
0.00537681
0.0060142
0.00669382
0.00423106
0.004791
0.00538339
0.0060066
0.00665875
0.00734037
0.00424638
0.00480753
0.00539968
0.00601686
0.00665261
0.00730379
0.0079674
0.00426489
0.0048283
0.00542373
0.00604135
0.00667095
0.00730564
0.0079391
0.00856735
0.00428764
0.00485386
0.0054547
0.00607784
0.00670972
0.00733997
0.00795958
0.00856139
0.00914255
0.00431599
0.00488546
0.00549319
0.00612547
0.00676659
0.00740285
0.00802222
0.00861533
0.00917638
0.00970402
0.00435151
0.00492459
0.00554032
0.00618443
0.00684012
0.00749131
0.00812277
0.00872252
0.00928211
0.00979701
0.0102669
0.00439632
0.00497312
0.00559752
0.00625523
0.00692921
0.00760188
0.00825577
0.00887593
0.00945069
0.00997212
0.0104361
0.0108446
0.00445359
0.00503382
0.00566709
0.00633919
0.00703336
0.0077313
0.00841414
0.00906457
0.00966796
0.0102128
0.010691
0.0111008
0.0114462
0.00452858
0.00511143
0.00575332
0.00643988
0.00715446
0.00787852
0.00859235
0.00927693
0.00991521
0.0104929
0.0109985
0.0114263
0.0117794
0.0120678
0.00463076
0.00521481
0.00586483
0.00656565
0.00730019
0.00804946
0.00879291
0.00951002
0.0101819
0.0107922
0.0113286
0.0117828
0.0121538
0.0124519
0.0126928
0.00477891
0.0053617
0.00601938
0.00673499
0.00749016
0.00826464
0.00903646
0.00978327
0.0104842
0.0111215
0.0116826
0.0121604
0.0125525
0.0128641
0.0131105
0.0133119
0.00501532
0.00559167
0.00625668
0.0069897
0.00776959
0.00857388
0.00937817
0.0101574
0.0108881
0.0115507
0.0121322
0.0126265
0.0130343
0.0133602
0.0136138
0.0138148
0.0139866
0.00545261
0.00600833
0.00667825
0.00743457
0.00825016
0.00909807
0.00994991
0.0107766
0.011551
0.0122505
0.0128602
0.0133741
0.0137951
0.0141324
0.0143972
0.0146034
0.0147747
0.0149369
0.00645879
0.00694774
0.00760643
0.00839467
0.00927041
0.0101958
0.0111331
0.0120454
0.0128986
0.0136651
0.0143269
0.0148774
0.0153206
0.0156697
0.0159438
0.0161614
0.0163418
0.0165128
0.0167012
0.00958874
0.00985519
0.0104167
0.0112336
0.0122285
0.0133323
0.0144788
0.015603
0.0166458
0.0175611
0.0183228
0.0189256
0.0193831
0.0197203
0.0199687
0.0201609
0.0203257
0.0204979
0.0207132
0.0209893
0.0244473
0.0240274
0.0240986
0.0248406
0.0261156
0.0277888
0.029721
0.0317661
0.0337624
0.0355392
0.0369478
0.0379053
0.0384191
0.0385784
0.0385127
0.038342
0.0381565
0.0380153
0.038033
0.0382641
0.0386528
0.182294
0.180002
0.177801
0.178592
0.182018
0.187461
0.194246
0.20192
0.21022
0.218947
0.227783
0.235976
0.242455
0.246017
0.246468
0.244533
0.241451
0.238319
0.235696
0.234306
0.234107
0.234315
0.00421505
0.00420963
0.00480424
0.0042084
0.00478945
0.00542783
0.00421149
0.00478262
0.00540174
0.00608182
0.00421834
0.00478363
0.0053888
0.00604155
0.00674749
0.00422809
0.00479097
0.00538814
0.00602183
0.00669293
0.00740498
0.00424008
0.00480305
0.00539715
0.00602004
0.00666799
0.00733973
0.00803465
0.00425437
0.0048187
0.00541369
0.00603239
0.00666746
0.0073143
0.00796715
0.00862404
0.00427174
0.00483806
0.0054365
0.00605663
0.00668728
0.00732094
0.00795017
0.00856736
0.00917145
0.00429338
0.0048622
0.00546587
0.00609169
0.00672548
0.00735626
0.00797465
0.00857225
0.00914254
0.00968572
0.00432053
0.00489238
0.00550271
0.00613764
0.00678096
0.00741864
0.00803815
0.00862998
0.00918687
0.00970384
0.0101817
0.00435472
0.00493005
0.00554816
0.00619478
0.00685285
0.0075059
0.00813855
0.00873853
0.00929702
0.00980794
0.0102672
0.0106777
0.00439796
0.00497702
0.00560368
0.00626374
0.00694013
0.007615
0.0082707
0.0088922
0.00946775
0.00998886
0.0104493
0.0108477
0.0111874
0.00445326
0.00503599
0.00567159
0.00634603
0.00704257
0.00774286
0.0084279
0.00908022
0.00968527
0.0102317
0.0107105
0.0111173
0.0114539
0.0117283
0.0045255
0.00511145
0.00575609
0.00644526
0.00716239
0.00788898
0.00860522
0.00929195
0.00993211
0.0105117
0.0110196
0.011449
0.011799
0.0120786
0.0123016
0.00462341
0.00521162
0.00586528
0.00656943
0.00730719
0.00805951
0.00880582
0.00952541
0.0101992
0.010811
0.0113488
0.0118054
0.0121783
0.0124727
0.012703
0.0128879
0.00476431
0.00535297
0.00601583
0.00673618
0.0074958
0.00827456
0.00905035
0.00980055
0.010504
0.0111429
0.0117045
0.0121823
0.0125759
0.0128888
0.0131304
0.0133186
0.0134745
0.00498749
0.00557236
0.00624494
0.00698496
0.00777159
0.00858235
0.00939274
0.0101774
0.0109125
0.011578
0.0121604
0.0126539
0.0130598
0.0133853
0.0136391
0.0138335
0.0139891
0.014129
0.00539861
0.00596702
0.00664819
0.0074152
0.00824137
0.0090998
0.00996187
0.0107981
0.0115805
0.0122862
0.0128994
0.013414
0.0138328
0.0141658
0.0144277
0.0146322
0.0147939
0.0149358
0.0150822
0.00634611
0.00685566
0.00753137
0.00833596
0.00922889
0.0101726
0.0111289
0.0120599
0.01293
0.0137105
0.0143825
0.0149386
0.0153829
0.0157288
0.0159961
0.0162074
0.0163815
0.0165365
0.0166982
0.0168907
0.00931034
0.00962379
0.0102141
0.0110538
0.0120743
0.0132103
0.0143956
0.0155633
0.0166508
0.0176075
0.0184034
0.0190307
0.0195021
0.0198439
0.020089
0.0202718
0.0204249
0.0205749
0.020752
0.0209884
0.0212998
0.023455
0.0232529
0.023425
0.0242015
0.0254936
0.0271964
0.029191
0.0313371
0.0334708
0.0354106
0.0369893
0.0381005
0.0387338
0.0389675
0.0389326
0.0387621
0.0385565
0.0383828
0.038284
0.0383582
0.0386585
0.0391375
0.174938
0.174786
0.173715
0.174894
0.178346
0.183669
0.190394
0.198164
0.206781
0.216109
0.225846
0.235279
0.243125
0.248019
0.249439
0.247948
0.244823
0.241392
0.238312
0.235887
0.234532
0.234303
0.23455
0.00422393
0.00421718
0.00482181
0.00421435
0.00480415
0.00545808
0.00421574
0.00479407
0.00542626
0.00612996
0.00422078
0.00479175
0.0054072
0.00607912
0.00681668
0.00422848
0.00479567
0.0054003
0.00604871
0.00674451
0.0074943
0.00423799
0.00480411
0.00540288
0.00603605
0.00670244
0.00740227
0.00813743
0.00424906
0.00481563
0.00541278
0.00603709
0.00668429
0.0073514
0.00803243
0.00872803
0.00426225
0.00482998
0.0054284
0.00604977
0.00668577
0.00733151
0.00798002
0.00862215
0.00925975
0.00427857
0.00484795
0.00544973
0.00607288
0.0067054
0.0073393
0.0079671
0.00858004
0.0091695
0.00973893
0.00429909
0.00487068
0.00547746
0.00610637
0.00674244
0.0073743
0.0079922
0.00858804
0.00915404
0.00968342
0.01018
0.00432503
0.0048994
0.00551254
0.00615046
0.00679639
0.00743569
0.00805568
0.00864667
0.00920153
0.00971419
0.0101793
0.0106015
0.00435786
0.00493552
0.00555617
0.00620556
0.00686633
0.00752157
0.00815551
0.00875588
0.00931369
0.00982276
0.0102778
0.0106765
0.0110221
0.00439954
0.00498089
0.00560988
0.00627248
0.00695146
0.00762881
0.00828652
0.00890934
0.00948559
0.0100069
0.0104664
0.0108609
0.0111905
0.0114615
0.0044529
0.00503813
0.0056761
0.00635296
0.00705202
0.00775482
0.00844223
0.00909653
0.00970305
0.0102507
0.0107307
0.0111378
0.0114708
0.0117369
0.0119467
0.00452247
0.00511145
0.00575882
0.00645064
0.00717045
0.0078997
0.00861851
0.00930756
0.0099496
0.0105307
0.0110402
0.0114717
0.0118228
0.0120988
0.0123124
0.0124814
0.00461631
0.00520852
0.00586573
0.00657322
0.0073142
0.00806976
0.00881917
0.00954149
0.0102175
0.0108308
0.0113696
0.0118272
0.0122022
0.012498
0.0127241
0.0128976
0.0130378
0.00475047
0.00534463
0.00601236
0.00673725
0.00750135
0.00828451
0.00906454
0.00981859
0.0105251
0.011166
0.0117284
0.012206
0.012599
0.0129129
0.0131554
0.0133382
0.0134804
0.0136027
0.00496161
0.00555425
0.0062337
0.00698022
0.00777329
0.00859048
0.0094072
0.0101978
0.0109379
0.0116072
0.0121915
0.0126849
0.013089
0.0134117
0.0136645
0.0138587
0.0140071
0.0141303
0.0142499
0.00534929
0.00592908
0.00662015
0.00739665
0.00823243
0.00910082
0.00997298
0.010819
0.0116103
0.0123231
0.0129412
0.0134579
0.0138758
0.0142053
0.0144618
0.0146627
0.0148222
0.0149541
0.0150797
0.0152211
0.00624388
0.00677251
0.00746296
0.00828131
0.00918906
0.0101492
0.0111233
0.0120724
0.0129599
0.0137555
0.0144391
0.0150026
0.0154499
0.0157945
0.0160566
0.0162598
0.0164268
0.0165754
0.0167208
0.016886
0.0170922
0.00905166
0.00941427
0.0100323
0.0108914
0.0119321
0.0130945
0.0143136
0.0155209
0.0166509
0.0176488
0.01848
0.019134
0.0196222
0.0199714
0.0202159
0.0203922
0.0205341
0.0206716
0.0208272
0.0210261
0.0212969
0.0216526
0.0224704
0.0225186
0.0228141
0.023632
0.0249368
0.026657
0.0286933
0.0309208
0.0331728
0.0352604
0.0370004
0.0382644
0.0390201
0.0393358
0.0393413
0.039179
0.0389606
0.0387636
0.0386342
0.0386031
0.0387534
0.0391406
0.0397253
0.16709
0.169428
0.16977
0.171528
0.175072
0.180279
0.186889
0.194643
0.203452
0.213225
0.223757
0.234304
0.243471
0.249696
0.25215
0.251181
0.248142
0.244462
0.241047
0.238259
0.23604
0.23478
0.234562
0.234842
0.00423292
0.00422526
0.00484014
0.00422127
0.00482038
0.00549101
0.00422144
0.00480782
0.00545473
0.00618475
0.00422517
0.00480292
0.00543074
0.00612517
0.0068992
0.0042314
0.00480412
0.00541868
0.00608572
0.00681165
0.00760621
0.00423913
0.0048097
0.00541578
0.00606362
0.00675444
0.00748978
0.00827396
0.00424784
0.00481797
0.00541993
0.00605446
0.00672038
0.00741571
0.00813365
0.00887776
0.00425788
0.00482835
0.00542933
0.00605644
0.00670464
0.00737112
0.00804833
0.00872463
0.00940599
0.00427007
0.00484137
0.00544369
0.00606841
0.00670629
0.0073523
0.00799984
0.00863846
0.00925621
0.00986203
0.00428534
0.00485799
0.00546347
0.00609019
0.00672508
0.00735981
0.00798695
0.00859839
0.00918418
0.00973471
0.0102596
0.00430472
0.00487925
0.00548945
0.00612194
0.00676086
0.00739409
0.00801181
0.00860619
0.00917005
0.0096955
0.0101752
0.0106184
0.0043294
0.0049064
0.00552261
0.0061639
0.00681295
0.00745436
0.00807496
0.00866528
0.00921829
0.00972833
0.0101893
0.0105969
0.010957
0.00436086
0.00494091
0.00556422
0.00621663
0.00688047
0.00753835
0.00817395
0.00877473
0.00933194
0.00983955
0.0102921
0.0106865
0.0110202
0.0112988
0.004401
0.00498465
0.00561604
0.00628128
0.0069631
0.00764319
0.00830323
0.00892756
0.00950443
0.0100258
0.0104851
0.0108783
0.0112035
0.0114655
0.0116717
0.00445245
0.00504015
0.0056805
0.00635984
0.00706154
0.00776703
0.00845699
0.00911348
0.00972157
0.0102702
0.010751
0.0111591
0.0114921
0.0117542
0.0119557
0.0121129
0.00451944
0.00511137
0.00576145
0.00645594
0.00717844
0.0079105
0.00863207
0.0093236
0.0099677
0.0105503
0.0110609
0.0114936
0.0118466
0.0121234
0.0123328
0.0124917
0.0126179
0.00460948
0.00520544
0.00586603
0.00657678
0.00732106
0.00807995
0.00883263
0.00955801
0.0102365
0.0108516
0.0113915
0.0118495
0.012225
0.0125226
0.0127498
0.0129185
0.0130467
0.0131532
0.00473747
0.00533667
0.00600888
0.00673808
0.00750652
0.00829412
0.00907859
0.00983684
0.010547
0.0111905
0.0117542
0.0122319
0.0126239
0.0129366
0.0131797
0.0133631
0.0134995
0.0136075
0.0137068
0.00493786
0.00553743
0.00622299
0.00697539
0.00777444
0.00859792
0.00942106
0.0102179
0.0109637
0.0116375
0.0122247
0.0127191
0.013122
0.0134418
0.0136911
0.0138839
0.0140319
0.0141476
0.01425
0.0143591
0.0053049
0.00589468
0.00659416
0.00737877
0.00822311
0.00910076
0.0099827
0.0108386
0.0116393
0.0123602
0.0129844
0.0135046
0.0139231
0.0142503
0.014502
0.0146966
0.0148521
0.0149818
0.0150972
0.0152173
0.0153619