/*--------------------------------*- C++ -*----------------------------------*\
| =========                 |                                                 |
| \\      /  F ield         | OpenFOAM: The Open Source CFD Toolbox           |
|  \\    /   O peration     | Version:  v2012                                 |
|   \\  /    A nd           | Website:  www.openfoam.com                      |
|    \\/     M anipulation  |                                                 |
\*---------------------------------------------------------------------------*/
FoamFile
{
    version     2.0;
    format      ascii;
    class       volScalarField;
    location    "15001";
    object      lamda1;
}
// * * * * * * * * * * * * * * * * * * * * * * * * * * * * * * * * * * * * * //

dimensions      [0 0 0 0 0 0 0];


internalField   nonuniform List<scalar> 
294912
(
7.61142e-09
1.00499e-06
8.05921e-09
9.61762e-09
1.69982e-05
1.01623e-06
1.42276e-06
8.81524e-09
1.02414e-08
1.04397e-08
0.000104169
1.7203e-05
2.31611e-05
1.01263e-06
1.43022e-06
1.6443e-06
9.45551e-09
1.11959e-08
1.11795e-08
1.26975e-08
0.000385651
0.000106299
0.000142094
1.70661e-05
2.33464e-05
2.68431e-05
9.99871e-07
1.40757e-06
1.65207e-06
1.90721e-06
9.83916e-09
1.19168e-08
1.22658e-08
1.35312e-08
1.54002e-08
0.00109345
0.000396859
0.000531823
0.000106763
0.00014441
0.000162891
1.68037e-05
2.30606e-05
2.70476e-05
3.07713e-05
9.90021e-07
1.37522e-06
1.61663e-06
1.91429e-06
2.1477e-06
1.01926e-08
1.22335e-08
1.30381e-08
1.47165e-08
1.62662e-08
1.8328e-08
0.00260808
0.00113218
0.00152951
0.0004032
0.000544104
0.000605415
0.000106964
0.000144861
0.000165367
0.000182351
1.66579e-05
2.26176e-05
2.66148e-05
3.09805e-05
3.36051e-05
9.83326e-07
1.35047e-06
1.57373e-06
1.86432e-06
2.15434e-06
2.33983e-06
1.052e-08
1.25626e-08
1.33004e-08
1.54873e-08
1.7482e-08
1.91719e-08
2.14421e-08
0.0054477
0.00271162
0.00369948
0.00115909
0.00157425
0.00174774
0.000409698
0.000551693
0.0006186
0.000672608
0.000107585
0.000144623
0.00016536
0.00018481
0.000193242
1.66142e-05
2.23418e-05
2.59985e-05
3.03669e-05
3.38223e-05
3.49098e-05
9.8249e-07
1.33361e-06
1.54189e-06
1.80947e-06
2.09053e-06
2.34615e-06
2.43998e-06
1.08242e-08
1.28921e-08
1.36234e-08
1.56311e-08
1.81615e-08
2.03406e-08
2.21735e-08
2.45566e-08
0.0101856
0.00568087
0.00780256
0.00278976
0.00382727
0.0042599
0.00118721
0.00160637
0.00179624
0.00196416
0.000416761
0.000558313
0.000625149
0.000686331
0.000712486
0.000108667
0.000144601
0.00016421
0.000184058
0.000195755
0.000197071
1.66881e-05
2.22214e-05
2.55715e-05
2.95595e-05
3.30283e-05
3.51327e-05
3.47418e-05
9.88306e-07
1.32723e-06
1.52214e-06
1.76648e-06
2.02432e-06
2.26931e-06
2.44603e-06
2.47962e-06
1.13863e-08
1.32291e-08
1.39848e-08
1.5883e-08
1.81331e-08
2.08499e-08
2.32526e-08
2.51938e-08
2.74027e-08
0.0172965
0.0106381
0.0146203
0.0058583
0.00810001
0.00904263
0.00286677
0.00392044
0.00440059
0.00484034
0.00121691
0.00163874
0.00182777
0.00201495
0.0021064
0.000424366
0.000563431
0.000628935
0.00069122
0.000726533
0.000732774
0.000110246
0.000145098
0.000163107
0.000181798
0.000194119
0.000199679
0.00019466
1.69154e-05
2.22635e-05
2.53241e-05
2.89223e-05
3.20481e-05
3.41771e-05
3.49719e-05
3.34005e-05
9.89745e-07
1.33318e-06
1.51629e-06
1.73871e-06
1.96624e-06
2.19049e-06
2.36113e-06
2.48624e-06
2.48842e-06
1.2517e-08
1.36118e-08
1.44008e-08
1.61899e-08
1.82675e-08
2.06073e-08
2.35375e-08
2.61793e-08
2.80187e-08
2.93969e-08
0.0269924
0.0180665
0.0246945
0.0109774
0.0152003
0.0169684
0.00602548
0.00831719
0.00936986
0.0103346
0.00294931
0.00401556
0.00449793
0.00498749
0.00526591
0.00124585
0.00166543
0.00185502
0.00204462
0.00215913
0.00219868
0.000432675
0.000568539
0.00062998
0.00069119
0.000729218
0.000747254
0.000732776
0.000112518
0.000146172
0.000162512
0.000179392
0.000190758
0.000197196
0.000197332
0.000186483
1.72078e-05
2.25018e-05
2.52526e-05
2.84544e-05
3.11969e-05
3.30491e-05
3.39269e-05
3.36053e-05
3.16112e-05
9.92151e-07
1.34855e-06
1.5255e-06
1.72618e-06
1.923e-06
2.11491e-06
2.275e-06
2.39729e-06
2.50098e-06
2.45308e-06
1.37036e-08
1.46774e-08
1.48195e-08
1.65863e-08
1.84639e-08
2.05622e-08
2.30479e-08
2.62002e-08
2.88343e-08
2.98732e-08
3.07552e-08
0.0391322
0.0281521
0.0380582
0.018627
0.0256398
0.0285285
0.0112869
0.0156282
0.0176049
0.0194115
0.00620576
0.00853299
0.00960562
0.0106883
0.01134
0.00303003
0.00410131
0.00458946
0.00508821
0.00542494
0.00556419
0.00127374
0.00168806
0.00187204
0.00206416
0.00218551
0.00225348
0.00224278
0.000442374
0.000574381
0.000630953
0.000687473
0.000725408
0.000747481
0.00074775
0.000714165
0.000115424
0.000147939
0.000162413
0.000177409
0.000187112
0.000192991
0.000194189
0.000188968
0.000175637
1.73e-05
2.29508e-05
2.53737e-05
2.8149e-05
3.048e-05
3.19731e-05
3.27251e-05
3.25037e-05
3.18622e-05
2.96884e-05
1.02841e-06
1.34554e-06
1.55027e-06
1.72949e-06
1.89802e-06
2.05333e-06
2.18698e-06
2.30494e-06
2.40948e-06
2.46396e-06
2.39271e-06
1.47661e-08
1.63611e-08
1.57876e-08
1.70126e-08
1.87544e-08
2.06036e-08
2.27723e-08
2.54415e-08
2.85339e-08
3.05543e-08
3.1248e-08
3.13755e-08
0.0532401
0.0406908
0.0541822
0.0289679
0.0393842
0.0435087
0.0191273
0.0263625
0.0295517
0.0324137
0.0116143
0.0160327
0.0180744
0.0200881
0.0212679
0.00638323
0.00874368
0.00983332
0.0109413
0.011715
0.0120459
0.0031038
0.00417254
0.0046595
0.00517454
0.00552418
0.00573016
0.00575248
0.00130302
0.00170959
0.00188475
0.00206923
0.00219704
0.00227493
0.00230042
0.0022356
0.000453762
0.000581467
0.000632539
0.000683869
0.000717444
0.000740482
0.000745489
0.000729717
0.000678597
0.000117888
0.00015049
0.000162853
0.000175759
0.000183875
0.000188318
0.000189417
0.000185475
0.000178153
0.000164154
1.73288e-05
2.32722e-05
2.57179e-05
2.80135e-05
2.98868e-05
3.10003e-05
3.1506e-05
3.12742e-05
3.07935e-05
3.00214e-05
2.77361e-05
1.09703e-06
1.36337e-06
1.55931e-06
1.74991e-06
1.88948e-06
2.00782e-06
2.11289e-06
2.20381e-06
2.30832e-06
2.36835e-06
2.39884e-06
2.33363e-06
1.60035e-08
1.77751e-08
1.75491e-08
1.76909e-08
1.90925e-08
2.07407e-08
2.25901e-08
2.49104e-08
2.74925e-08
3.00158e-08
3.18297e-08
3.19388e-08
3.14027e-08
0.0686005
0.0551217
0.0721124
0.041774
0.0558078
0.0610255
0.0296805
0.0404498
0.0449037
0.0487679
0.0196467
0.0270171
0.030337
0.0334687
0.035184
0.0119423
0.0164535
0.0185286
0.0206038
0.0219634
0.0225628
0.00654183
0.00892142
0.0100331
0.0111774
0.0119864
0.0124434
0.0125047
0.00317621
0.00423509
0.00471121
0.0052269
0.00559718
0.00582629
0.00592807
0.00582084
0.00133493
0.00173247
0.00189712
0.00207043
0.00219133
0.00227855
0.00231565
0.00229645
0.00216471
0.000465625
0.000589867
0.000634962
0.000680598
0.000710013
0.000729007
0.000736089
0.000725553
0.000693922
0.000638459
0.000119078
0.000153191
0.000163848
0.000174466
0.000180762
0.000183963
0.000183928
0.000180485
0.000174465
0.000167076
0.000152081
1.76259e-05
2.31703e-05
2.60409e-05
2.80609e-05
2.94355e-05
3.01278e-05
3.03548e-05
2.99637e-05
2.95807e-05
2.89376e-05
2.80174e-05
2.61184e-05
1.18367e-06
1.43872e-06
1.56808e-06
1.77335e-06
1.89686e-06
1.97959e-06
2.05355e-06
2.1142e-06
2.194e-06
2.26199e-06
2.30575e-06
2.34188e-06
2.2749e-06
1.74761e-08
1.9296e-08
1.92699e-08
1.91489e-08
1.96034e-08
2.09374e-08
2.25231e-08
2.4487e-08
2.66895e-08
2.87462e-08
3.10359e-08
3.24589e-08
3.19967e-08
3.12565e-08
0.0844436
0.070654
0.0907171
0.056463
0.0738659
0.0797718
0.0426658
0.0571975
0.0626578
0.067137
0.0304213
0.0413906
0.0460321
0.0501529
0.0521293
0.0201757
0.0277329
0.0311104
0.0343291
0.0362613
0.0369625
0.0122327
0.0168219
0.018967
0.0211181
0.0225275
0.0233111
0.0233295
0.00668936
0.00906815
0.0101885
0.0113593
0.0122277
0.0127265
0.0129285
0.0127375
0.00325055
0.00429768
0.00475587
0.00526121
0.00562759
0.00588909
0.00601652
0.00600736
0.00573601
0.00136919
0.00175668
0.00191064
0.00207126
0.00218371
0.00226404
0.00231177
0.00230736
0.0022274
0.00204776
0.000475012
0.000599168
0.00063772
0.000677594
0.000702585
0.000718153
0.000722068
0.000714626
0.000688885
0.000654482
0.000592899
0.000119983
0.000154078
0.00016508
0.000173494
0.000177842
0.000179591
0.000178571
0.000174685
0.00016937
0.00016349
0.00015489
0.000142559
1.82049e-05
2.32716e-05
2.58896e-05
2.81889e-05
2.91176e-05
2.93913e-05
2.92552e-05
2.87048e-05
2.82479e-05
2.77118e-05
2.69955e-05
2.64213e-05
2.47472e-05
1.28321e-06
1.54358e-06
1.63695e-06
1.77559e-06
1.91289e-06
1.96752e-06
2.00872e-06
2.03678e-06
2.09035e-06
2.13679e-06
2.19844e-06
2.2505e-06
2.27973e-06
2.22117e-06
1.9289e-08
2.10887e-08
2.09188e-08
2.10163e-08
2.08332e-08
2.13141e-08
2.25424e-08
2.41868e-08
2.6003e-08
2.77083e-08
2.95236e-08
3.14188e-08
3.2469e-08
3.16106e-08
3.08414e-08
0.100177
0.086509
0.108939
0.0721999
0.0923714
0.0984211
0.0574664
0.0754809
0.0814158
0.085875
0.0436342
0.0584158
0.0640774
0.0686662
0.0703221
0.0311836
0.0424659
0.0471815
0.0513663
0.0534891
0.0538123
0.0206427
0.0283868
0.0319185
0.0352541
0.0372088
0.0380703
0.0377765
0.0124905
0.0171188
0.0193254
0.0215771
0.0231016
0.0239272
0.0240858
0.0236918
0.00683468
0.00920738
0.0103165
0.0114935
0.0123911
0.0129697
0.0132179
0.0131785
0.0127044
0.0033293
0.00436095
0.00480264
0.0052912
0.00564688
0.00590428
0.00606588
0.00609049
0.00593432
0.00550253
0.00140154
0.00178225
0.00192344
0.0020728
0.00217631
0.00224929
0.00229026
0.00229831
0.00223627
0.0021105
0.00192027
0.00048134
0.000606329
0.000640645
0.000674437
0.000695002
0.000706826
0.000708535
0.000698984
0.000677314
0.000649136
0.000610314
0.000550802
0.000121414
0.000153803
0.000164947
0.000172659
0.000175064
0.000175305
0.000173071
0.000169034
0.000163151
0.000158493
0.000151301
0.000145194
0.000134957
1.89861e-05
2.37476e-05
2.57384e-05
2.79542e-05
2.88494e-05
2.87791e-05
2.82296e-05
2.74957e-05
2.69483e-05
2.63334e-05
2.58322e-05
2.54417e-05
2.50453e-05
2.35944e-05
1.39172e-06
1.66173e-06
1.74893e-06
1.81893e-06
1.9072e-06
1.96324e-06
1.97715e-06
1.97194e-06
1.99737e-06
2.02146e-06
2.06906e-06
2.14006e-06
2.19113e-06
2.22509e-06
2.1733e-06
2.13475e-08
2.32984e-08
2.28618e-08
2.25472e-08
2.24554e-08
2.22802e-08
2.28167e-08
2.40037e-08
2.54598e-08
2.68239e-08
2.82394e-08
2.96688e-08
3.12423e-08
3.20709e-08
3.12878e-08
3.02483e-08
0.115135
0.102046
0.126004
0.0881904
0.110265
0.115953
0.0732611
0.0940421
0.099795
0.103623
0.0586354
0.0769226
0.0829836
0.0872642
0.0879796
0.0446443
0.0598741
0.065605
0.0701292
0.0717374
0.0710819
0.0318544
0.0434963
0.0484725
0.0528007
0.0548119
0.0551752
0.0541262
0.0210396
0.0289076
0.032613
0.0361736
0.0382953
0.0391189
0.0388476
0.0379206
0.0127346
0.0173863
0.0196165
0.0219345
0.0235733
0.0245496
0.0247371
0.0244761
0.0236964
0.0069844
0.00934912
0.0104442
0.0116148
0.0125136
0.0131161
0.0134553
0.0134684
0.013169
0.0123645
0.00341029
0.00442478
0.00485135
0.0053233
0.00566832
0.00591465
0.00606924
0.00613085
0.00601756
0.00571109
0.00523361
0.00142838
0.00180719
0.00193466
0.00207393
0.00216853
0.00223369
0.00226957
0.00227244
0.00222471
0.0021193
0.00199853
0.00175357
0.000486524
0.000609449
0.000642188
0.000670919
0.000686884
0.000694999
0.000694159
0.000683475
0.000661055
0.000637379
0.00060518
0.000565601
0.00051834
0.000123597
0.000153927
0.000163354
0.000171035
0.000172231
0.000171032
0.000167618
0.000163156
0.000156911
0.000152529
0.000146392
0.000141753
0.000137445
0.000128884
1.99075e-05
2.44618e-05
2.5991e-05
2.7493e-05
2.83404e-05
2.8178e-05
2.7264e-05
2.63649e-05
2.56536e-05
2.49862e-05
2.44934e-05
2.43117e-05
2.41092e-05
2.38962e-05
2.25924e-05
1.52546e-06
1.79409e-06
1.87189e-06
1.92062e-06
1.92888e-06
1.94746e-06
1.94616e-06
1.91681e-06
1.915e-06
1.91492e-06
1.94824e-06
2.0062e-06
2.08023e-06
2.13916e-06
2.17519e-06
2.13433e-06
2.36852e-08
2.58107e-08
2.52363e-08
2.43575e-08
2.37204e-08
2.33786e-08
2.35222e-08
2.41587e-08
2.51014e-08
2.61058e-08
2.71495e-08
2.81579e-08
2.93145e-08
3.07972e-08
3.17528e-08
3.13866e-08
3.07301e-08
0.128862
0.116655
0.141466
0.103649
0.126822
0.131821
0.0892815
0.111805
0.116813
0.119663
0.0746081
0.0956087
0.101318
0.104561
0.10401
0.0598932
0.0787495
0.0848207
0.0887922
0.0891184
0.0870882
0.0455355
0.061347
0.0674489
0.0720993
0.0732927
0.0724056
0.0701728
0.0323979
0.0443215
0.0496464
0.0543643
0.0565582
0.0566329
0.0553303
0.0534586
0.0213974
0.0293515
0.0331683
0.0369345
0.0393198
0.0403602
0.0399875
0.0390365
0.0377273
0.0129796
0.0176522
0.0198966
0.0222443
0.0239489
0.0250346
0.0253992
0.0251529
0.0244884
0.0233135
0.00714223
0.00949338
0.0105769
0.0117443
0.0126359
0.0132401
0.0135859
0.0136992
0.0134711
0.0128451
0.0119058
0.00348739
0.00448965
0.00489892
0.00535549
0.00569141
0.00592667
0.00607688
0.006127
0.00605257
0.00579988
0.00543622
0.00469405
0.00145048
0.00182741
0.00194491
0.00207337
0.00215838
0.00221673
0.00224683
0.00224768
0.00219782
0.00210653
0.00201069
0.00182073
0.00162464
0.000492216
0.000610623
0.000640482
0.000666454
0.00067797
0.000682423
0.000679197
0.000666516
0.000644502
0.000621065
0.00059362
0.000560497
0.000532334
0.000493522
0.000126468
0.000154901
0.000162043
0.000168158
0.000168892
0.000166603
0.000162163
0.000157192
0.000150647
0.000146549
0.000140385
0.000137038
0.000134086
0.00013123
0.000123883
2.10369e-05
2.52838e-05
2.64351e-05
2.74199e-05
2.76686e-05
2.74087e-05
2.63137e-05
2.52667e-05
2.43887e-05
2.36414e-05
2.3173e-05
2.30054e-05
2.30215e-05
2.29989e-05
2.28857e-05
2.16984e-05
1.72568e-06
1.96921e-06
2.01265e-06
2.03344e-06
1.99993e-06
1.95502e-06
1.91336e-06
1.86109e-06
1.837e-06
1.81554e-06
1.83329e-06
1.87893e-06
1.94528e-06
2.02901e-06
2.0914e-06
2.13613e-06
2.11179e-06
2.57996e-08
2.80183e-08
2.77784e-08
2.65243e-08
2.52068e-08
2.42379e-08
2.40731e-08
2.4535e-08
2.50845e-08
2.56315e-08
2.62572e-08
2.68524e-08
2.76026e-08
2.88296e-08
3.04554e-08
3.18248e-08
3.23495e-08
3.30787e-08
0.141165
0.129914
0.155157
0.117982
0.141655
0.145828
0.104664
0.128043
0.131979
0.133765
0.0907406
0.113389
0.118077
0.119861
0.11809
0.0761381
0.0977689
0.103359
0.105921
0.104503
0.101223
0.061032
0.0807118
0.0872356
0.0912525
0.0906949
0.0879715
0.0844953
0.0462292
0.062552
0.0692331
0.0744486
0.0757552
0.0741105
0.0711438
0.068006
0.032854
0.0449917
0.050589
0.0557373
0.0584024
0.0586786
0.0569348
0.0546551
0.052527
0.0217446
0.0297777
0.0336799
0.0375868
0.0401785
0.0414893
0.0413731
0.0402589
0.0387689
0.0372732
0.0132343
0.0179231
0.0201872
0.0225668
0.0243157
0.0254539
0.0259017
0.0258371
0.0251971
0.024099
0.022739
0.0073027
0.00963941
0.0107105
0.0118791
0.0127706
0.0133785
0.0137213
0.0138348
0.0137044
0.0131696
0.0123219
0.0107316
0.00355671
0.00455234
0.00494418
0.00538393
0.00570991
0.00593815
0.00608556
0.00613141
0.00604694
0.00583398
0.00553667
0.00493631
0.00425872
0.00147056
0.00184215
0.00195201
0.00207049
0.00214538
0.00219751
0.00222231
0.00221946
0.00217243
0.00207969
0.00199772
0.00183132
0.00168757
0.00152546
0.000499158
0.000612219
0.000637219
0.000660195
0.000668316
0.000668978
0.000663492
0.000648765
0.000626531
0.000604714
0.000577699
0.000549469
0.000527229
0.0005063
0.000474587
0.000129969
0.00015639
0.000161471
0.00016555
0.000164983
0.00016188
0.000156731
0.000151117
0.000144516
0.000140085
0.000134289
0.000131256
0.000129526
0.000127952
0.000126062
0.000119592
2.24986e-05
2.65269e-05
2.70571e-05
2.74717e-05
2.72773e-05
2.65907e-05
2.53351e-05
2.41635e-05
2.31503e-05
2.23295e-05
2.18482e-05
2.17132e-05
2.17564e-05
2.1952e-05
2.20275e-05
2.19778e-05
2.08967e-05
1.98504e-06
2.20109e-06
2.19974e-06
2.17623e-06
2.07537e-06
1.99812e-06
1.90176e-06
1.81307e-06
1.75932e-06
1.71923e-06
1.72497e-06
1.7562e-06
1.81592e-06
1.89469e-06
1.9828e-06
2.05531e-06
2.10814e-06
2.09422e-06
2.74882e-08
2.91377e-08
2.95229e-08
2.86541e-08
2.69585e-08
2.52509e-08
2.4521e-08
2.4546e-08
2.48436e-08
2.52598e-08
2.56011e-08
2.57854e-08
2.60972e-08
2.69934e-08
2.83448e-08
3.01997e-08
3.27479e-08
3.36214e-08
3.47968e-08
0.152015
0.14162
0.16706
0.130824
0.15465
0.157969
0.118816
0.142403
0.145188
0.14593
0.106158
0.129526
0.132776
0.133019
0.130192
0.0924692
0.115829
0.12017
0.120782
0.117617
0.113427
0.0775842
0.100261
0.106317
0.108762
0.105803
0.101211
0.0968893
0.0619109
0.0823789
0.0897518
0.0944563
0.0938328
0.0896343
0.0848047
0.0807017
0.0467659
0.0634956
0.0706977
0.0766557
0.0786333
0.0770444
0.073025
0.0688606
0.0660207
0.0332739
0.0456075
0.0514273
0.0569184
0.0600386
0.0607836
0.0593208
0.056371
0.0535672
0.0518916
0.0220965
0.0302083
0.0342034
0.0382477
0.0409938
0.0425015
0.0425776
0.0417454
0.0400126
0.0382444
0.0368491
0.0134981
0.018197
0.0204854
0.022909
0.0247212
0.0259006
0.0263946
0.0263669
0.0258989
0.0248407
0.0234231
0.0210388
0.00745835
0.00978628
0.0108388
0.0120107
0.0129072
0.0135332
0.0138828
0.013995
0.0138496
0.0134077
0.012658
0.0112975
0.0096242
0.00361931
0.00460779
0.00498694
0.00540754
0.00572151
0.0059437
0.00609011
0.00613671
0.00605137
0.00582701
0.00557119
0.00504404
0.00448862
0.00389535
0.00149075
0.00185504
0.00195537
0.00206519
0.00213009
0.0021757
0.00219616
0.00218807
0.00214181
0.00205551
0.00197222
0.00182151
0.00169808
0.00158283
0.00145382
0.000507395
0.000614637
0.000634281
0.000653057
0.000657877
0.000655056
0.000646939
0.000630453
0.000608093
0.000587624
0.000560647
0.000534078
0.000516634
0.000501033
0.000486267
0.000459288
0.00013384
0.000158467
0.00016117
0.000163234
0.000161335
0.000157044
0.000151363
0.000144864
0.000138398
0.000133363
0.00012803
0.000125369
0.00012391
0.000123563
0.000122893
0.000121534
0.000115806
2.43899e-05
2.81102e-05
2.81284e-05
2.79263e-05
2.69897e-05
2.59206e-05
2.44497e-05
2.31013e-05
2.19777e-05
2.10491e-05
2.05546e-05
2.04095e-05
2.05033e-05
2.07286e-05
2.10249e-05
2.11614e-05
2.11721e-05
2.02015e-05
2.23792e-06
2.48989e-06
2.42902e-06
2.32811e-06
2.20133e-06
2.05308e-06
1.90453e-06
1.78802e-06
1.69785e-06
1.63552e-06
1.62015e-06
1.63921e-06
1.69065e-06
1.76479e-06
1.85057e-06
1.94805e-06
2.02902e-06
2.09843e-06
2.09093e-06
2.96639e-08
3.03968e-08
3.01633e-08
2.97938e-08
2.85591e-08
2.63586e-08
2.50262e-08
2.44553e-08
2.43245e-08
2.44838e-08
2.4709e-08
2.47851e-08
2.48226e-08
2.53276e-08
2.63725e-08
2.7824e-08
3.10076e-08
3.39389e-08
3.53336e-08
3.64466e-08
0.16147
0.151834
0.177268
0.142083
0.16588
0.168317
0.131397
0.154818
0.15654
0.156224
0.120261
0.143687
0.145345
0.144186
0.14039
0.108023
0.132171
0.134759
0.133254
0.128564
0.123681
0.0941679
0.118845
0.1236
0.123833
0.118281
0.112118
0.107331
0.0786661
0.102484
0.10964
0.112797
0.109488
0.102426
0.0960256
0.091765
0.0625472
0.0836654
0.0918972
0.0976754
0.0978655
0.0934492
0.0866234
0.0806913
0.0778747
0.0472356
0.0643143
0.0719737
0.0786008
0.0813477
0.0804203
0.076548
0.0708916
0.0665891
0.0652067
0.0336789
0.0462193
0.0522651
0.0580868
0.0615909
0.0627618
0.0616369
0.058933
0.0553427
0.0526877
0.0517461
0.0224585
0.0306436
0.0347407
0.0389559
0.0418781
0.0435592
0.0437673
0.0430088
0.041538
0.0395423
0.037622
0.0353348
0.0137655
0.0184687
0.0207804
0.0232526
0.0251564
0.0264025
0.0269465
0.0269662
0.0264534
0.0255467
0.0241807
0.0219639
0.0190453
0.00760421
0.00992902
0.0109616
0.012133
0.0130326
0.0136851
0.0140689
0.0141801
0.0140328
0.0135723
0.0128875
0.0117176
0.0101773
0.00856476
0.00367891
0.00465738
0.00502493
0.00542607
0.00572571
0.00594305
0.00608357
0.00613877
0.00605683
0.00582772
0.00558211
0.00508942
0.00459624
0.00411371
0.00362493
0.00151288
0.00186845
0.00195692
0.00205714
0.00211323
0.00215098
0.0021674
0.00215388
0.0021042
0.00202929
0.00194034
0.00179896
0.00168968
0.00159186
0.00150512
0.00140139
0.000514779
0.000615491
0.00063086
0.000645955
0.000647176
0.000641073
0.000629854
0.000611457
0.000589615
0.000569368
0.000541958
0.000517963
0.000501868
0.000490767
0.000480827
0.000469665
0.000446256
0.000138774
0.000162116
0.000162484
0.000161681
0.000157986
0.000152327
0.000146402
0.000138629
0.000132566
0.000126702
0.000121773
0.000119282
0.00011819
0.000118124
0.000118666
0.000118503
0.000117534
0.000112501
2.68267e-05
3.00821e-05
2.92032e-05
2.85787e-05
2.72824e-05
2.54636e-05
2.36807e-05
2.21838e-05
2.08736e-05
1.98265e-05
1.9292e-05
1.91349e-05
1.92392e-05
1.95184e-05
1.98455e-05
2.02043e-05
2.03981e-05
2.04899e-05
1.962e-05
2.43909e-06
2.70728e-06
2.6935e-06
2.49663e-06
2.3007e-06
2.14065e-06
1.92641e-06
1.76647e-06
1.65148e-06
1.57089e-06
1.53091e-06
1.52971e-06
1.56978e-06
1.6372e-06
1.72197e-06
1.81647e-06
1.92408e-06
2.02169e-06
2.09114e-06
2.07561e-06
3.27883e-08
3.28689e-08
3.14978e-08
3.01525e-08
2.92326e-08
2.718e-08
2.55159e-08
2.44152e-08
2.39046e-08
2.3735e-08
2.36237e-08
2.34512e-08
2.34007e-08
2.38432e-08
2.46059e-08
2.57477e-08
2.79466e-08
3.23387e-08
3.54375e-08
3.70983e-08
3.82202e-08
0.169609
0.160684
0.185937
0.151846
0.175487
0.177046
0.142441
0.165404
0.166197
0.164786
0.132819
0.15582
0.155943
0.153567
0.148728
0.122194
0.146467
0.147051
0.143543
0.13759
0.132012
0.109929
0.135695
0.138562
0.136296
0.128294
0.120943
0.115871
0.0954431
0.121683
0.127767
0.12859
0.122269
0.112501
0.104956
0.100875
0.0793404
0.104206
0.1126
0.117129
0.114656
0.106905
0.097277
0.0902732
0.088115
0.0630617
0.0847506
0.0937633
0.100604
0.101895
0.0982307
0.0911787
0.0826124
0.0772979
0.0767402
0.0476579
0.0651053
0.0732192
0.0804947
0.0839556
0.0837401
0.0803392
0.0746894
0.0688015
0.0653166
0.0654718
0.0340851
0.0468306
0.0531221
0.0593278
0.063239
0.0647975
0.0639236
0.0613973
0.0580127
0.054558
0.0523174
0.0516114
0.02283
0.0310726
0.0352763
0.0396817
0.0428417
0.0447398
0.0451081
0.0444003
0.0428861
0.0410708
0.0389246
0.0363387
0.0328468
0.014024
0.0187352
0.0210596
0.0235817
0.0255832
0.0269369
0.0275608
0.0276394
0.0271222
0.0261287
0.0248711
0.0229522
0.0199252
0.016835
0.00774234
0.0100614
0.0110784
0.0122394
0.0131401
0.0138181
0.0142483
0.0143912
0.0142428
0.0137835
0.0130556
0.0119872
0.0106381
0.00912647
0.00769582
0.00374225
0.0047106
0.00505728
0.00543932
0.00572419
0.00593512
0.00607066
0.006128
0.00605853
0.00582738
0.00560512
0.00510689
0.00464808
0.00421933
0.00382072
0.00343599
0.00153139
0.00187262
0.0019555
0.00204785
0.00209537
0.00212444
0.00213448
0.00211778
0.00205977
0.00200247
0.00190438
0.0017753
0.00166934
0.0015842
0.00151234
0.00144658
0.00136143
0.000522045
0.000620085
0.000629499
0.000638113
0.000635502
0.000626799
0.000612997
0.000591351
0.000571612
0.000549407
0.000522488
0.000500663
0.00048629
0.000476456
0.000470892
0.000464125
0.000455261
0.000434826
0.00014573
0.000166523
0.000165019
0.000162787
0.000156448
0.000148119
0.000141472
0.000133204
0.000127176
0.000120179
0.00011556
0.000113166
0.000112285
0.000112587
0.000113389
0.000114436
0.000114641
0.000114151
0.000109685
2.96257e-05
3.28675e-05
3.09679e-05
2.88393e-05
2.72948e-05
2.54796e-05
2.32409e-05
2.12773e-05
1.98512e-05
1.87153e-05
1.81079e-05
1.79013e-05
1.80019e-05
1.82948e-05
1.86796e-05
1.90725e-05
1.94845e-05
1.97613e-05
1.99403e-05
1.91045e-05
2.55879e-06
2.77008e-06
2.85022e-06
2.71982e-06
2.39649e-06
2.16203e-06
1.95673e-06
1.76817e-06
1.60579e-06
1.50832e-06
1.4552e-06
1.4419e-06
1.46165e-06
1.51473e-06
1.59439e-06
1.68927e-06
1.79866e-06
1.91887e-06
2.01763e-06
2.08212e-06
2.052e-06
3.6811e-08
3.61445e-08
3.4046e-08
3.13445e-08
2.93756e-08
2.76414e-08
2.56823e-08
2.44367e-08
2.36008e-08
2.30517e-08
2.25937e-08
2.21598e-08
2.18328e-08
2.21256e-08
2.29159e-08
2.39152e-08
2.55227e-08
2.97641e-08
3.39334e-08
3.70341e-08
3.86142e-08
3.97317e-08
0.176558
0.168287
0.193256
0.160247
0.183616
0.184341
0.152004
0.174351
0.174315
0.171847
0.143859
0.166069
0.164815
0.161331
0.155549
0.134888
0.158675
0.157221
0.151961
0.144902
0.138768
0.124375
0.150456
0.1511
0.146345
0.136194
0.127947
0.122663
0.111399
0.139197
0.143544
0.141598
0.132292
0.12013
0.111871
0.108273
0.0961508
0.123922
0.131641
0.134048
0.128393
0.117304
0.105105
0.0976789
0.0961459
0.0798323
0.105627
0.115213
0.121221
0.120107
0.11302
0.10251
0.0913792
0.085827
0.0862022
0.0634637
0.0857704
0.0955498
0.103445
0.105838
0.103155
0.0965691
0.0875222
0.0792443
0.075581
0.0778241
0.0480626
0.0658926
0.0744811
0.0824746
0.0866925
0.0871414
0.0841576
0.0787402
0.0727381
0.0675008
0.0652675
0.067958
0.0344937
0.0474256
0.0539858
0.0606163
0.0650348
0.0670575
0.0664756
0.0640549
0.0605775
0.0571856
0.05422
0.0522571
0.0497478
0.0231898
0.0314928
0.035786
0.0403873
0.0438264
0.0460212
0.0466118
0.0460431
0.0444722
0.042459
0.0404072
0.0380299
0.033744
0.0297476
0.0142721
0.0189849
0.0213189
0.0238859
0.0259695
0.0274577
0.0282191
0.0283599
0.0278971
0.0268779
0.0254437
0.0237382
0.0210535
0.0178809
0.0147412
0.00789259
0.0101968
0.0111882
0.0123286
0.0132311
0.0139267
0.0143947
0.0145964
0.0144665
0.0140135
0.013306
0.0122138
0.010911
0.00961349
0.00822543
0.00708231
0.00379411
0.00474202
0.00507775
0.00545114
0.00571797
0.00591794
0.00605179
0.00610546
0.00604982
0.00582185
0.00561479
0.00512775
0.00467486
0.00427653
0.00391905
0.00360939
0.00330262
0.00154396
0.00187585
0.00195217
0.00203075
0.00207423
0.00209674
0.00209922
0.0020783
0.00201576
0.00197456
0.00186814
0.00174746
0.00164767
0.00156522
0.00150501
0.00145167
0.00139982
0.00132952
0.000533428
0.000628477
0.000632546
0.000635393
0.000624389
0.000613285
0.000594509
0.000572773
0.000555182
0.000528453
0.000502742
0.000482644
0.000469441
0.000461419
0.000456963
0.000454592
0.000449704
0.000442752
0.000425212
0.000154565
0.000172699
0.000166441
0.000162569
0.000156042
0.000147072
0.000137427
0.000128443
0.000121447
0.000113942
0.000109513
0.000107095
0.000106361
0.00010687
0.000108033
0.000109324
0.00011075
0.0001114
0.000111421
0.000107287
3.25482e-05
3.58187e-05
3.33645e-05
2.99499e-05
2.69335e-05
2.50506e-05
2.2899e-05
2.07544e-05
1.89026e-05
1.77237e-05
1.70269e-05
1.67603e-05
1.68145e-05
1.70961e-05
1.74984e-05
1.79521e-05
1.84007e-05
1.88851e-05
1.92514e-05
1.94569e-05
1.85709e-05
2.62967e-06
2.77833e-06
2.86046e-06
2.82429e-06
2.57389e-06
2.20088e-06
1.92854e-06
1.76506e-06
1.58495e-06
1.45273e-06
1.38679e-06
1.36243e-06
1.3715e-06
1.41065e-06
1.47368e-06
1.56346e-06
1.67303e-06
1.78998e-06
1.9141e-06
2.01082e-06
2.06028e-06
2.0138e-06
4.17251e-08
3.98289e-08
3.68925e-08
3.3291e-08
2.99996e-08
2.79149e-08
2.59513e-08
2.40817e-08
2.31146e-08
2.23102e-08
2.16117e-08
2.09494e-08
2.03744e-08
2.04064e-08
2.09547e-08
2.20243e-08
2.36973e-08
2.72806e-08
3.17489e-08
3.55076e-08
3.83838e-08
4.03852e-08
4.15356e-08
0.182447
0.174771
0.199391
0.167411
0.190433
0.190419
0.16018
0.181862
0.181065
0.177606
0.153413
0.17465
0.172188
0.167685
0.161086
0.146064
0.168935
0.165543
0.1588
0.150785
0.144145
0.137383
0.163057
0.16138
0.154315
0.14234
0.133464
0.128023
0.126181
0.154619
0.15682
0.151967
0.139906
0.125752
0.117143
0.114073
0.112245
0.142023
0.148365
0.148081
0.139096
0.124902
0.110552
0.103374
0.102167
0.0966198
0.125774
0.135124
0.139412
0.135207
0.124466
0.110605
0.097498
0.0919839
0.0937036
0.0801608
0.10694
0.117693
0.125221
0.125577
0.119598
0.109307
0.0969026
0.0867331
0.0832049
0.0881329
0.0637908
0.08676
0.0973469
0.106375
0.10997
0.108264
0.102169
0.0931619
0.0842111
0.0774951
0.076108
0.0834181
0.0484534
0.0666492
0.0757678
0.0845245
0.0896573
0.0908873
0.0883674
0.0831093
0.0768286
0.0712929
0.0675151
0.0674291
0.0683903
0.0348634
0.0480017
0.0548056
0.0619093
0.066897
0.0695396
0.0694083
0.0671512
0.063592
0.059773
0.0567978
0.0546362
0.0503129
0.0475721
0.0235384
0.0318737
0.0362619
0.0410383
0.0447783
0.0473159
0.0482312
0.0478971
0.0463392
0.0441888
0.041767
0.0396072
0.0356529
0.0311969
0.0263467
0.0145484
0.0192365
0.0215551
0.0241604
0.0263088
0.0279316
0.0288612
0.0291212
0.0287508
0.0277572
0.0262056
0.0244625
0.0218251
0.0190894
0.0157977
0.0131671
0.00802552
0.0103004
0.0112844
0.0124072
0.0133003
0.0140069
0.0145051
0.0147641
0.0146802
0.0142228
0.0135798
0.012496
0.0111582
0.00991557
0.00867302
0.00758
0.00664606
0.00382769
0.00475814
0.00508668
0.00544282
0.00570264
0.00589635
0.00602066
0.00607752
0.00601494
0.00582887
0.00562333
0.00514804
0.00471131
0.00430976
0.00397709
0.00369995
0.00345211
0.00320655
0.00156335
0.00189295
0.00195836
0.00201805
0.00204793
0.00205905
0.0020596
0.00202881
0.00198178
0.00193783
0.00182845
0.00171622
0.00162164
0.00154505
0.00148679
0.00144457
0.00140289
0.00136151
0.00130377
0.000547376
0.000635299
0.000634545
0.000639327
0.000626924
0.000602735
0.000577691
0.000560002
0.000536749
0.000507761
0.000482725
0.000463982
0.000451874
0.000445209
0.000442436
0.000441018
0.000440568
0.000437262
0.000432642
0.000417418
0.000164145
0.000182181
0.000171103
0.000161897
0.000153133
0.000145783
0.000135243
0.00012464
0.000115589
0.000108321
0.000103759
0.000101202
0.000100503
0.000101137
0.000102497
0.00010415
0.000105813
0.000107666
0.000108824
0.000109184
0.000105008
3.45832e-05
3.6706e-05
3.45543e-05
3.16441e-05
2.76585e-05
2.42617e-05
2.22294e-05
2.01401e-05
1.83019e-05
1.68224e-05
1.60542e-05
1.57126e-05
1.57144e-05
1.59561e-05
1.63426e-05
1.68152e-05
1.73276e-05
1.78457e-05
1.8404e-05
1.88097e-05
1.89428e-05
1.79729e-05
2.7096e-06
2.84385e-06
2.90163e-06
2.83457e-06
2.65945e-06
2.3319e-06
1.93299e-06
1.70593e-06
1.55759e-06
1.41685e-06
1.32258e-06
1.28588e-06
1.28691e-06
1.31854e-06
1.3736e-06
1.44721e-06
1.54811e-06
1.66583e-06
1.79159e-06
1.9084e-06
1.99189e-06
2.02102e-06
1.95902e-06
4.77754e-08
4.38233e-08
3.97641e-08
3.53162e-08
3.12469e-08
2.78311e-08
2.61584e-08
2.41482e-08
2.2381e-08
2.15293e-08
2.06405e-08
1.98203e-08
1.90414e-08
1.88029e-08
1.91054e-08
1.99464e-08
2.181e-08
2.5208e-08
2.95492e-08
3.28976e-08
3.65457e-08
3.98982e-08
4.19968e-08
4.3101e-08
0.187416
0.180266
0.204535
0.173481
0.196111
0.195441
0.16711
0.188126
0.186639
0.182265
0.161561
0.181799
0.178261
0.172834
0.165472
0.155713
0.17747
0.172313
0.164309
0.155465
0.148224
0.148851
0.173626
0.169692
0.160577
0.147088
0.137739
0.132145
0.139562
0.167844
0.16773
0.160032
0.145551
0.129829
0.121359
0.118241
0.127253
0.158061
0.162565
0.159305
0.147088
0.13017
0.114246
0.107544
0.106673
0.112833
0.144392
0.152793
0.15471
0.147054
0.132783
0.115964
0.101612
0.0958386
0.0996117
0.0969214
0.127487
0.138431
0.144723
0.14227
0.132527
0.118446
0.10318
0.0915004
0.0883903
0.0962698
0.0803958
0.108196
0.12017
0.12933
0.131331
0.126576
0.116656
0.103905
0.0923071
0.0840896
0.0842636