/*--------------------------------*- C++ -*----------------------------------*\
| =========                 |                                                 |
| \\      /  F ield         | OpenFOAM: The Open Source CFD Toolbox           |
|  \\    /   O peration     | Version:  v2012                                 |
|   \\  /    A nd           | Website:  www.openfoam.com                      |
|    \\/     M anipulation  |                                                 |
\*---------------------------------------------------------------------------*/
FoamFile
{
    version     2.0;
    format      ascii;
    class       volScalarField;
    location    "15001";
    object      lamda2;
}
// * * * * * * * * * * * * * * * * * * * * * * * * * * * * * * * * * * * * * //

dimensions      [0 0 0 0 0 0 0];


internalField   nonuniform List<scalar> 
294912
(
1.11042e-10
5.18632e-08
3.69102e-10
9.47505e-10
3.29767e-07
5.97793e-08
1.02359e-07
7.96345e-10
1.15285e-09
2.28654e-09
5.16347e-07
3.66989e-07
4.35643e-07
6.7138e-08
1.0756e-07
8.18864e-08
1.17366e-09
1.6051e-09
2.40126e-09
4.29748e-09
5.54847e-07
6.03773e-07
4.45179e-07
3.80919e-07
4.58144e-07
1.87115e-07
6.72486e-08
1.11077e-07
8.48438e-08
8.94079e-08
1.46221e-09
2.02009e-09
2.82848e-09
4.28462e-09
6.34533e-09
5.30171e-07
7.21571e-07
3.14805e-07
6.25997e-07
5.10363e-07
6.48126e-08
3.51521e-07
4.52602e-07
1.99604e-07
1.62232e-07
6.55667e-08
1.08364e-07
8.7894e-08
9.04567e-08
8.99459e-08
1.7698e-09
2.33928e-09
3.20284e-09
4.62938e-09
6.20694e-09
8.25258e-09
7.97654e-07
8.34865e-07
2.6421e-07
8.51598e-07
5.22869e-07
7.56404e-08
5.28179e-07
4.84535e-07
1.23856e-07
4.40605e-08
3.23259e-07
4.21027e-07
1.96257e-07
1.67943e-07
1.05304e-07
6.57362e-08
1.04586e-07
8.56852e-08
9.202e-08
8.89693e-08
9.57103e-08
2.09891e-09
2.67697e-09
3.472e-09
4.89792e-09
6.46041e-09
8.00058e-09
9.88313e-09
1.68378e-06
1.2268e-06
4.25286e-07
1.2263e-06
7.44513e-07
2.91973e-07
6.80313e-07
5.35679e-07
3.30794e-07
9.33944e-08
4.52696e-07
4.04734e-07
9.217e-08
9.54541e-08
2.13813e-08
3.06111e-07
3.95329e-07
1.78507e-07
1.63528e-07
1.06298e-07
5.88288e-08
6.62673e-08
1.0289e-07
8.27873e-08
8.88831e-08
8.93107e-08
9.31483e-08
9.84099e-08
2.44105e-09
3.03527e-09
3.75663e-09
5.06837e-09
6.61401e-09
8.15452e-09
9.5589e-09
1.09641e-08
3.77034e-06
2.14294e-06
1.36319e-06
1.88284e-06
1.25235e-06
8.62701e-07
1.11781e-06
9.39235e-07
1.01637e-06
4.095e-07
5.14334e-07
3.3598e-07
2.52892e-07
3.58514e-07
1.36958e-07
4.09944e-07
3.62163e-07
4.91349e-08
5.5926e-08
6.64397e-08
2.22056e-08
2.92622e-07
3.7813e-07
1.66714e-07
1.50755e-07
1.03355e-07
5.75606e-08
3.47553e-08
6.6781e-08
1.01929e-07
8.18233e-08
8.55921e-08
8.54799e-08
9.29404e-08
9.55477e-08
9.84566e-08
2.59219e-09
3.41462e-09
4.06831e-09
5.24916e-09
6.67533e-09
8.18532e-09
9.59038e-09
1.05486e-08
1.17667e-08
8.66858e-06
3.9949e-06
4.62482e-06
2.53066e-06
2.40458e-06
2.60107e-06
2.39443e-06
1.60169e-06
2.37667e-06
1.0361e-06
7.00585e-07
4.7877e-07
8.95585e-07
1.25934e-06
4.83081e-07
4.37232e-07
2.65715e-07
8.57617e-08
2.04848e-07
3.86869e-07
1.71715e-07
3.79059e-07
3.34668e-07
3.72694e-08
2.60472e-08
2.80818e-08
6.21857e-08
2.36459e-08
2.79947e-07
3.63381e-07
1.60077e-07
1.42937e-07
9.46586e-08
5.49803e-08
3.36118e-08
3.67568e-08
7.18224e-08
1.01179e-07
8.14388e-08
8.43589e-08
8.2141e-08
8.86708e-08
9.5278e-08
9.69064e-08
8.8301e-08
2.48819e-09
3.7772e-09
4.40368e-09
5.46287e-09
6.73629e-09
8.11896e-09
9.46838e-09
1.0473e-08
1.12256e-08
1.24589e-08
1.89502e-05
7.98353e-06
1.35143e-05
2.83509e-06
5.38272e-06
7.7066e-06
4.3038e-06
2.16639e-06
5.31957e-06
2.90238e-06
1.46183e-06
9.03025e-07
2.06154e-06
3.0144e-06
1.43904e-06
5.34937e-07
2.44955e-07
3.74057e-07
8.36359e-07
1.35822e-06
6.22292e-07
3.90181e-07
2.43435e-07
5.36418e-08
6.44125e-08
1.89596e-07
3.94625e-07
1.92649e-07
3.54909e-07
3.11636e-07
3.2495e-08
1.99132e-08
8.09688e-09
2.6655e-08
5.74213e-08
2.30411e-08
2.73598e-07
3.49667e-07
1.5412e-07
1.37184e-07
8.98056e-08
4.93889e-08
3.08006e-08
3.57686e-08
2.54487e-08
8.4043e-08
1.01029e-07
8.1284e-08
8.36429e-08
8.04422e-08
8.5238e-08
9.06989e-08
9.61368e-08
8.27599e-08
8.17725e-08
2.51266e-09
3.79753e-09
4.76329e-09
5.70237e-09
6.82766e-09
8.04631e-09
9.24579e-09
1.02428e-08
1.10734e-08
1.18352e-08
1.30287e-08
3.8078e-05
1.64138e-05
3.15784e-05
2.74979e-06
1.32409e-05
2.07608e-05
6.19657e-06
2.39073e-06
1.20751e-05
1.01063e-05
2.77701e-06
1.56517e-06
3.85536e-06
6.8481e-06
5.25112e-06
9.85376e-07
2.13743e-07
9.45287e-07
1.83022e-06
3.80243e-06
1.83516e-06
4.87062e-07
2.20868e-07
2.22727e-07
3.25411e-07
6.62031e-07
1.45601e-06
7.29973e-07
3.48532e-07
2.25231e-07
5.17248e-08
4.8691e-08
8.67827e-08
1.78564e-07
3.93561e-07
1.90107e-07
3.37221e-07
2.92906e-07
2.88171e-08
1.69631e-08
4.84799e-09
1.32578e-08
2.50655e-08
4.74897e-08
2.93088e-08
2.83998e-07
3.36882e-07
1.48548e-07
1.31596e-07
8.62366e-08
4.73021e-08
2.74328e-08
3.13952e-08
2.02035e-08
2.23796e-08
9.79642e-08
1.07889e-07
8.08971e-08
8.30924e-08
7.92273e-08
8.30258e-08
8.71261e-08
9.1011e-08
8.21212e-08
7.44518e-08
8.27565e-08
2.75768e-09
3.71624e-09
4.84282e-09
5.96316e-09
6.94426e-09
8.00755e-09
9.01538e-09
9.89504e-09
1.07617e-08
1.16196e-08
1.23203e-08
1.36466e-08
6.7748e-05
3.27625e-05
6.08229e-05
2.42661e-06
3.01892e-05
4.46101e-05
7.86937e-06
2.68885e-06
2.73853e-05
2.5799e-05
4.20823e-06
2.35373e-06
6.54132e-06
1.70762e-05
1.33768e-05
1.65349e-06
1.2452e-07
2.1215e-06
3.29004e-06
1.02183e-05
6.01977e-06
9.22685e-07
2.05479e-07
4.34522e-07
5.75711e-07
1.76487e-06
4.17418e-06
2.30657e-06
4.5565e-07
2.19533e-07
2.25301e-07
2.49659e-07
2.40626e-07
5.87572e-07
1.47451e-06
7.83658e-07
3.1422e-07
2.07953e-07
4.94642e-08
4.62101e-08
8.46129e-08
1.07994e-07
1.73526e-07
3.61579e-07
1.6389e-07
3.01944e-07
2.82817e-07
2.66518e-08
1.42264e-08
3.10376e-09
1.1413e-08
1.68586e-08
1.35314e-08
4.83464e-08
3.0295e-08
3.32643e-07
3.18435e-07
1.44061e-07
1.26219e-07
8.32575e-08
4.59691e-08
2.692e-08
2.81278e-08
1.52845e-08
1.45557e-08
2.65827e-08
1.07701e-07
1.22857e-07
8.65474e-08
8.26125e-08
7.82921e-08
8.09908e-08
8.43745e-08
8.7012e-08
7.8089e-08
7.4681e-08
7.75329e-08
8.1078e-08
3.08241e-09
3.93741e-09
4.7856e-09
6.11939e-09
7.08e-09
7.98117e-09
8.81777e-09
9.53628e-09
1.03043e-08
1.1232e-08
1.20414e-08
1.27976e-08
1.43238e-08
0.00010614
6.07278e-05
9.97986e-05
2.56105e-06
5.96254e-05
7.78521e-05
9.90589e-06
3.89743e-06
5.39252e-05
5.17934e-05
5.48918e-06
3.56067e-06
1.17223e-05
3.70883e-05
2.91567e-05
2.12159e-06
8.71487e-08
4.34506e-06
6.7907e-06
2.28732e-05
1.78692e-05
1.56315e-06
2.12664e-07
1.03482e-06
8.5122e-07
4.47448e-06
1.14547e-05
8.25005e-06
9.6077e-07
2.7302e-07
4.27384e-07
3.30786e-07
5.27664e-07
1.45239e-06
4.49709e-06
2.79865e-06
4.05984e-07
2.48998e-07
2.43603e-07
2.55581e-07
2.21265e-07
2.70582e-07
5.14878e-07
1.40423e-06
8.10406e-07
2.91208e-07
1.86088e-07
4.53956e-08
3.78776e-08
8.18424e-08
1.14002e-07
1.2662e-07
1.44266e-07
2.714e-07
2.02595e-07
2.83189e-07
2.62015e-07
2.75876e-08
1.22607e-08
1.63065e-09
9.17543e-09
1.58591e-08
1.1902e-08
1.27114e-08
5.11266e-08
3.08043e-08
3.86342e-07
3.25029e-07
1.39676e-07
1.21637e-07
8.04313e-08
4.46847e-08
2.70119e-08
2.77494e-08
1.45965e-08
1.16657e-08
1.88408e-08
2.90326e-08
1.15626e-07
1.3258e-07
9.80813e-08
8.44065e-08
7.75743e-08
7.90956e-08
8.1879e-08
8.35436e-08
7.5571e-08
7.10653e-08
7.68298e-08
7.52015e-08
8.22114e-08
3.49262e-09
4.2895e-09
4.90672e-09
6.05846e-09
7.15941e-09
7.9547e-09
8.63747e-09
9.20265e-09
9.82687e-09
1.06593e-08
1.16029e-08
1.2477e-08
1.34066e-08
1.48438e-08
0.000150217
0.000101235
0.000149209
4.13759e-06
0.00010144
0.00011762
1.40023e-05
5.90921e-06
9.03471e-05
8.72931e-05
6.96263e-06
6.15348e-06
1.90044e-05
6.71279e-05
5.594e-05
2.31175e-06
4.54817e-07
9.50779e-06
1.29556e-05
4.4515e-05
4.31484e-05
1.96996e-06
8.32572e-07
2.43219e-06
2.55091e-06
8.36684e-06
2.89062e-05
2.31351e-05
1.72397e-06
3.21419e-07
1.01019e-06
3.51987e-07
1.6548e-06
3.47407e-06
1.34766e-05
1.07756e-05
9.65403e-07
2.87017e-07
4.56168e-07
3.87137e-07
4.21083e-07
4.91605e-07
1.26178e-06
4.68544e-06
3.19928e-06
3.53935e-07
3.09463e-07
2.29034e-07
2.27091e-07
2.41645e-07
2.87301e-07
2.96691e-07
3.91998e-07
1.24025e-06
9.58628e-07
2.61913e-07
1.78299e-07
3.56664e-08
2.85274e-08
7.20722e-08
1.09149e-07
1.36889e-07
1.18074e-07
4.49485e-08
3.08003e-07
1.97058e-07
3.32409e-07
2.21427e-07
2.69113e-08
1.1452e-08
6.06972e-10
7.09731e-09
1.33589e-08
1.2391e-08
1.3309e-08
1.7498e-08
4.23491e-08
3.40341e-08
4.2094e-07
3.59378e-07
1.45202e-07
1.17856e-07
7.77948e-08
4.35606e-08
2.72693e-08
2.7053e-08
1.57202e-08
1.18585e-08
1.53266e-08
1.83447e-08
3.7639e-08
1.2198e-07
1.38304e-07
1.09634e-07
9.20475e-08
7.80981e-08
7.74392e-08
7.99443e-08
8.02407e-08
7.31453e-08
6.92349e-08
7.24064e-08
7.42112e-08
7.65619e-08
8.6787e-08
3.98928e-09
4.72391e-09
5.24424e-09
6.02459e-09
6.97465e-09
7.85349e-09
8.45504e-09
8.87879e-09
9.35796e-09
1.00584e-08
1.09223e-08
1.20081e-08
1.30413e-08
1.40691e-08
1.5433e-08
0.00019551
0.000154378
0.000216151
7.89021e-06
0.000153097
0.000169759
2.12646e-05
7.59461e-06
0.000132975
0.000139339
1.034e-05
1.03026e-05
2.54186e-05
0.000104254
9.16343e-05
2.52343e-06
1.72972e-06
1.80565e-05
1.86782e-05
7.58738e-05
9.043e-05
2.1398e-06
2.82778e-06
6.11892e-06
6.89231e-06
1.29137e-05
6.15621e-05
5.07749e-05
2.31934e-06
1.14697e-06
2.81094e-06
1.71597e-06
3.21408e-06
8.19401e-06
3.43387e-05
2.8935e-05
1.84649e-06
3.11893e-07
9.75227e-07
4.52578e-07
1.44625e-06
1.09637e-06
3.33697e-06
1.53117e-05
1.34585e-05
8.52211e-07
2.74434e-07
4.02616e-07
4.8689e-07
5.04079e-07
5.06283e-07
5.86048e-07
1.05916e-06
4.53875e-06
4.14915e-06
3.24456e-07
3.21396e-07
2.23231e-07
1.78145e-07
2.32449e-07
3.02908e-07
3.29175e-07
2.54511e-07
1.80282e-07
1.22746e-06
1.17106e-06
2.61879e-07
1.66338e-07
2.8509e-08
2.36368e-08
6.26824e-08
9.86598e-08
1.31417e-07
1.29012e-07
3.89588e-08
7.27262e-08
2.84711e-07
2.04295e-07
3.93577e-07
2.26734e-07
1.86323e-08
1.08588e-08
1.78354e-10
5.57674e-09
1.088e-08
1.14406e-08
1.62298e-08
1.92086e-08
8.87082e-09
4.02306e-08
3.90755e-08
4.2921e-07
3.69404e-07
1.81272e-07
1.20985e-07
7.64044e-08
4.33103e-08
2.76148e-08
2.63395e-08
1.6476e-08
1.29531e-08
1.58032e-08
1.51314e-08
2.31777e-08
5.49457e-08
1.26451e-07
1.4197e-07
1.14275e-07
1.04542e-07
8.56669e-08
7.75059e-08
7.86443e-08
7.71433e-08
7.10586e-08
6.72096e-08
6.9767e-08
7.01041e-08
7.49849e-08
8.00073e-08
9.53746e-08
4.67748e-09
5.20399e-09
5.64194e-09
6.30719e-09
6.89675e-09
7.52749e-09
8.18152e-09
8.53344e-09
8.89253e-09
9.45074e-09
1.01954e-08
1.1237e-08
1.25231e-08
1.36584e-08
1.45345e-08
1.61457e-08
0.000238175
0.000213972
0.00031616
1.43723e-05
0.000215419
0.000248979
3.30642e-05
7.45237e-06
0.000180277
0.000227114
1.7858e-05
1.45931e-05
2.79825e-05
0.000145902
0.000153754
3.94551e-06
3.59242e-06
2.72519e-05
2.12284e-05
0.000110309
0.000191525
2.4035e-06
6.31311e-06
1.16135e-05
1.17825e-05
1.78309e-05
0.000112396
9.78348e-05
2.75284e-06
4.01447e-06
7.55796e-06
5.22882e-06
4.40233e-06
1.72742e-05
6.71639e-05
6.47465e-05
2.6835e-06
9.40686e-07
2.77712e-06
2.10691e-06
3.24054e-06
2.57194e-06
8.03191e-06
3.82655e-05
3.67994e-05
1.78766e-06
2.97528e-07
9.69392e-07
6.45968e-07
1.5962e-06
1.2516e-06
1.56928e-06
2.99894e-06
1.66553e-05
1.68589e-05
7.07194e-07
2.7232e-07
3.54675e-07
4.64446e-07
5.51834e-07
5.97664e-07
6.57013e-07
6.51074e-07
6.79768e-07
4.57913e-06
5.56485e-06
3.20541e-07
3.4894e-07
2.01052e-07
1.41968e-07
2.05438e-07
2.80114e-07
3.38438e-07
2.94341e-07
1.04099e-07
8.63884e-08
1.32816e-06
9.69004e-07
2.95962e-07
1.47762e-07
2.49243e-08
2.37169e-08
5.65984e-08
8.95268e-08
1.21705e-07
1.24268e-07
4.64274e-08
6.91874e-08
7.24201e-08
2.48598e-07
2.05829e-07
4.10048e-07
2.42957e-07
3.60951e-08
1.12984e-08
6.11457e-10
4.87973e-09
8.92327e-09
1.11102e-08
1.42803e-08
2.17059e-08
1.25286e-08
7.36654e-09
3.86705e-08
5.5419e-08
4.22166e-07
3.54727e-07
1.91098e-07
1.42151e-07
8.38624e-08
4.51655e-08
2.79816e-08
2.58703e-08
1.72773e-08
1.37735e-08
1.71828e-08
1.62327e-08
2.00664e-08
3.41102e-08
8.5095e-08
1.25486e-07
1.41648e-07
1.16687e-07
1.06482e-07
9.44934e-08
8.42905e-08
8.01413e-08
7.48773e-08
6.95352e-08
6.57415e-08
6.69439e-08
6.76786e-08
7.07296e-08
7.7766e-08
8.73177e-08
1.0416e-07
5.49339e-09
5.79166e-09
6.04862e-09
6.61409e-09
7.10352e-09
7.4307e-09
7.7846e-09
8.07286e-09
8.38715e-09
8.8388e-09
9.43904e-09
1.039e-08
1.16312e-08
1.30463e-08
1.40729e-08
1.4584e-08
1.58616e-08
0.000283795
0.000265999
0.000467707
2.23463e-05
0.000296742
0.000374968
5.08771e-05
5.03969e-06
0.000241372
0.000372795
3.29705e-05
1.71987e-05
2.4746e-05
0.000204921
0.000254274
8.3333e-06
4.88104e-06
3.36266e-05
1.98134e-05
0.000147421
0.000355986
3.45114e-06
9.36495e-06
1.58974e-05
1.54586e-05
2.01206e-05
0.000181115
0.000171752
3.50561e-06
9.54181e-06
1.43434e-05
7.78878e-06
6.26064e-06
2.94474e-05
0.000108834
0.000128864
3.53591e-06
3.34667e-06
7.46041e-06
6.66949e-06
4.97564e-06
5.63836e-06
1.41702e-05
7.69682e-05
8.42317e-05
2.85225e-06
8.56128e-07
2.87103e-06
2.20358e-06
3.46309e-06
3.59619e-06
3.52617e-06
6.59437e-06
4.37234e-05
4.92245e-05
1.50838e-06
3.26335e-07
9.32246e-07
8.38306e-07
1.86126e-06
1.44105e-06
1.865e-06
1.96781e-06
2.03821e-06
1.73299e-05
1.66914e-05
6.41491e-07
3.3569e-07
3.23382e-07
3.98463e-07
5.15305e-07
6.40001e-07
7.41656e-07
7.51406e-07
4.99975e-07
1.95352e-07
5.66217e-06
4.03653e-06
3.41226e-07
3.97502e-07
1.86366e-07
1.24035e-07
1.80017e-07
2.43168e-07
3.16746e-07
2.99838e-07
1.31933e-07
6.98426e-08
1.14821e-07
9.59759e-07
1.04346e-06
3.2366e-07
1.45514e-07
2.55796e-08
2.62161e-08
5.4571e-08
8.32601e-08
1.11245e-07
1.11354e-07
5.17574e-08
8.74459e-08
7.03456e-08
3.24541e-08
2.43988e-07
2.20884e-07
3.84932e-07
2.29348e-07
5.44024e-08
2.03402e-08
4.21373e-09
5.81567e-09
8.37006e-09
1.12409e-08
1.35573e-08
2.01126e-08
1.36015e-08
1.18654e-08
5.79202e-09
4.05154e-08
9.81027e-08
3.70646e-07
3.22309e-07
1.83673e-07
1.39308e-07
9.1093e-08
5.31613e-08
3.05337e-08
2.73332e-08
1.84679e-08
1.46541e-08
1.79659e-08
1.76787e-08
2.1555e-08
3.1195e-08
5.59173e-08
1.24169e-07
9.96469e-08
1.31641e-07
1.14938e-07
1.05925e-07
9.39637e-08
8.74331e-08
8.55789e-08
7.68093e-08
7.01518e-08
6.50876e-08
6.51897e-08
6.51545e-08
6.83328e-08
7.33278e-08
8.43826e-08
9.55329e-08
1.07189e-07
6.53938e-09
6.76003e-09
6.56247e-09
6.89065e-09
7.31611e-09
7.51575e-09
7.66579e-09
7.65091e-09
7.79208e-09
8.17125e-09
8.67343e-09
9.48949e-09
1.06699e-08
1.1967e-08
1.34069e-08
1.40911e-08
1.42269e-08
1.47308e-08
0.000335707
0.000311003
0.000669016
2.68937e-05
0.000411681
0.000551725
7.08199e-05
2.65342e-06
0.000333253
0.000576685
5.76898e-05
1.79531e-05
1.64676e-05
0.000302292
0.00041672
1.90982e-05
4.88517e-06
3.562e-05
1.59932e-05
0.000212831
0.000604515
6.36756e-06
1.00724e-05
1.64566e-05
1.78747e-05
2.25293e-05
0.000286666
0.000302317
5.40743e-06
1.58007e-05
1.93428e-05
8.08085e-06
8.14501e-06
4.52529e-05
0.000150979
0.000237738
5.00751e-06
8.34659e-06
1.41431e-05
1.12496e-05
8.02022e-06
8.1789e-06
1.99989e-05
0.000130126
0.000166326
4.29501e-06
2.91837e-06
7.29152e-06
6.33359e-06
5.29993e-06
9.11857e-06
5.19435e-06
1.21311e-05
8.94959e-05
0.00011251
2.7232e-06
9.69913e-07
3.04927e-06
2.64718e-06
4.0139e-06
3.60572e-06
4.91005e-06
4.2264e-06
4.70496e-06
4.75492e-05
4.75624e-05
1.22986e-06
5.22981e-07
8.69322e-07
8.80414e-07
2.05439e-06
1.78137e-06
2.1972e-06
2.31604e-06
1.73287e-06
5.45519e-07
1.65072e-05
1.77318e-05
6.30483e-07
4.90886e-07
3.18196e-07
3.76817e-07
4.45911e-07
6.23684e-07
7.84337e-07
8.38319e-07
5.97504e-07
6.55868e-08
3.7275e-07
3.71676e-06
4.93735e-06
4.06699e-07
4.55155e-07
2.04697e-07
1.15141e-07
1.68393e-07
2.14115e-07
2.85398e-07
2.82643e-07
1.22611e-07
1.14184e-07
7.86774e-08
8.78389e-08
9.52597e-07
1.04448e-06
3.04208e-07
1.45297e-07
3.2427e-08
3.14399e-08
5.44265e-08
8.11069e-08
1.03431e-07
9.10731e-08
7.52476e-08
7.51575e-08
8.35784e-08
3.31724e-08
3.22977e-08
2.40034e-07
2.67613e-07
3.05566e-07
1.95633e-07
5.82043e-08
2.54495e-08
9.15386e-09
8.14907e-09
1.0129e-08
1.23889e-08
1.47584e-08
1.77463e-08
1.31505e-08
1.31935e-08
1.10022e-08
7.99728e-09
5.68334e-08
1.85264e-07
3.1171e-07
2.69474e-07
1.61946e-07
1.27529e-07
8.29011e-08
5.47655e-08
3.233e-08
3.09971e-08
2.03877e-08
1.55504e-08
1.8509e-08
1.83244e-08
2.30974e-08
3.30794e-08
5.31714e-08
8.64859e-08
1.5208e-07
6.96725e-08
1.00319e-07
1.01092e-07
1.00454e-07
9.18449e-08
8.43112e-08
8.32415e-08
7.86659e-08
7.33736e-08
6.68565e-08
6.4122e-08
6.38241e-08
6.58428e-08
7.08836e-08
7.96771e-08
9.1896e-08
9.88562e-08
1.01624e-07
8.00458e-09
8.20488e-09
7.56703e-09
7.29891e-09
7.49238e-09
7.58769e-09
7.63119e-09
7.53325e-09
7.4741e-09
7.56461e-09
7.8859e-09
8.58523e-09
9.66208e-09
1.08714e-08
1.23178e-08
1.36514e-08
1.3745e-08
1.34344e-08
1.34723e-08
0.00039287
0.000353829
0.000896852
2.56497e-05
0.000567528
0.000752372
8.32458e-05
5.10186e-06
0.000465781
0.000795193
8.49296e-05
2.02775e-05
7.88111e-06
0.000447659
0.000621858
3.90243e-05
4.95822e-06
3.71044e-05
1.5622e-05
0.000319183
0.000861129
1.35397e-05
8.27016e-06
1.27663e-05
2.52113e-05
2.68125e-05
0.000427418
0.000487899
9.58649e-06
2.15071e-05
2.17532e-05
7.74238e-06
1.30975e-05
6.55184e-05
0.000215573
0.000418463
8.66224e-06
1.48346e-05
1.98853e-05
1.68948e-05
1.46417e-05
1.36859e-05
3.61172e-05
0.000190311
0.000293341
6.90434e-06
7.24701e-06
1.31207e-05
9.54216e-06
9.76142e-06
1.81099e-05
6.45074e-06
2.17356e-05
0.000149503
0.000217716
4.72126e-06
3.09353e-06
7.85948e-06
7.1711e-06
4.9768e-06
8.15318e-06
9.77268e-06
6.82617e-06
9.84227e-06
9.85487e-05
0.000110064
2.49804e-06
1.38222e-06
3.09184e-06
3.08193e-06
4.98333e-06
4.43236e-06
4.5743e-06
5.35341e-06
4.42856e-06
2.10876e-06
4.207e-05
5.8675e-05
1.16919e-06
1.01024e-06
8.82685e-07
9.17693e-07
2.13292e-06
1.9655e-06
2.68357e-06
2.65159e-06
2.05043e-06
6.4548e-07
1.8825e-06
1.67944e-05
1.98232e-05
6.56501e-07
8.96116e-07
4.46843e-07
4.08527e-07
4.00076e-07
5.88871e-07
8.12691e-07
8.94591e-07
6.60376e-07
6.62981e-08
2.96207e-07
5.70133e-07
3.57482e-06
4.66933e-06
4.66315e-07
4.07931e-07
2.40772e-07
1.25618e-07
1.69455e-07
2.06581e-07
2.58399e-07
2.67458e-07
9.99489e-08
1.43473e-07
9.91088e-08
3.70601e-08
4.59784e-08
9.12968e-07
1.11977e-06
2.24217e-07
1.3463e-07
3.73977e-08
3.93383e-08
5.63392e-08
7.97483e-08
1.01145e-07
7.22957e-08
9.33716e-08
5.98943e-08
9.02286e-08
3.80758e-08
3.2359e-08
2.29296e-08
2.42533e-07
4.01981e-07
2.67616e-07
1.49638e-07
5.34766e-08
2.95782e-08
1.34304e-08
9.52497e-09
1.48052e-08
1.51632e-08
1.68368e-08
1.67542e-08
1.34659e-08
1.26411e-08
1.188e-08
1.37551e-08
2.60807e-08
1.08093e-07
2.97648e-07
1.93221e-07
1.72127e-07
1.14443e-07
1.06284e-07
7.40088e-08
4.85405e-08
2.73575e-08
3.00765e-08
1.97957e-08
1.62249e-08
1.88126e-08
1.8507e-08
2.34754e-08
3.45986e-08
5.54433e-08
8.39811e-08
1.08971e-07
1.4611e-07
5.40308e-08
7.08252e-08
7.63499e-08
9.01622e-08
8.11209e-08
7.9299e-08
7.77232e-08
7.37432e-08
6.95273e-08
6.70521e-08
6.48409e-08
6.36779e-08
6.4299e-08
6.8381e-08
7.71367e-08
8.6808e-08
9.47957e-08
9.43793e-08
9.13513e-08
9.75282e-09
9.74955e-09
9.01513e-09
8.16836e-09
7.7705e-09
7.65098e-09
7.60854e-09
7.48633e-09
7.32982e-09
7.26622e-09
7.36505e-09
7.77562e-09
8.64749e-09
9.77577e-09
1.11845e-08
1.28005e-08
1.3313e-08
1.29874e-08
1.25716e-08
1.25136e-08
0.000450426
0.00039837
0.00113098
2.12722e-05
0.000751805
0.000959225
8.71601e-05
1.6392e-05
0.000630178
0.00100224
0.000104039
3.2494e-05
4.5665e-06
0.000625397
0.000833935
5.92364e-05
1.14955e-05
4.79584e-05
2.52448e-05
0.000463106
0.00111329
2.63825e-05
5.37593e-06
9.47963e-06
5.16003e-05
4.24623e-05
0.000574024
0.000717591
1.85447e-05
2.48122e-05
2.28234e-05
1.06495e-05
3.29483e-05
0.000127375
0.000311377
0.000658688
1.70829e-05
2.02951e-05
2.56639e-05
3.03969e-05
2.6123e-05
3.96402e-05
7.85839e-05
0.000296338
0.000493311
1.31143e-05
1.29272e-05
1.69242e-05
1.39677e-05
2.61067e-05
3.53761e-05
1.5111e-05
5.21692e-05
0.000225652
0.000370555
8.53887e-06
7.40797e-06
1.42666e-05
9.82619e-06
6.1229e-06
1.92873e-05
2.45427e-05
1.34716e-05
2.17335e-05
0.000170411
0.000224733
4.84105e-06
3.63253e-06
8.18281e-06
8.61971e-06
6.84663e-06
7.8295e-06
6.51225e-06
1.07882e-05
9.58436e-06
8.38297e-06
8.37178e-05
0.000138014
2.40345e-06
2.18962e-06
3.08564e-06
3.30718e-06
5.54123e-06
5.45216e-06
5.40345e-06
4.80716e-06
5.26664e-06
2.96715e-06
4.62992e-06
5.26884e-05
5.7742e-05
1.31006e-06
1.685e-06
1.1574e-06
9.29649e-07
1.97727e-06
2.048e-06
2.92135e-06
3.15703e-06
2.48839e-06
6.64007e-07
2.50141e-06
2.34553e-06
1.48029e-05
1.6888e-05
6.68245e-07
1.43107e-06
6.04319e-07
4.33068e-07
4.0067e-07
5.72473e-07
8.53054e-07
9.48808e-07
6.83558e-07
2.19121e-07
4.3752e-07
4.45443e-07
2.4233e-07
3.18368e-06
4.58392e-06
4.10481e-07
3.46632e-07
2.66805e-07
1.50765e-07
1.81169e-07
2.10723e-07
2.43069e-07
2.3971e-07
8.87096e-08
1.57249e-07
1.10245e-07
5.34323e-08
1.3153e-08
4.68891e-08
9.33083e-07
1.34372e-06
1.96663e-07
1.07893e-07
3.59455e-08
3.91981e-08
5.51127e-08
7.54603e-08
9.71448e-08
5.96237e-08
9.63852e-08
6.09144e-08
8.61088e-08
3.71653e-08
3.67924e-08
2.41109e-08
2.10069e-08
2.92531e-07
6.63853e-07
2.01061e-07
1.00022e-07
5.45267e-08
2.99517e-08
1.93348e-08
1.34546e-08
1.73005e-08
2.0121e-08
1.59962e-08
1.7504e-08
1.37331e-08
1.26409e-08
1.15425e-08
1.42865e-08
3.25328e-08
8.06339e-08
1.88227e-07
3.57223e-07
9.7538e-08
1.12234e-07
6.00031e-08
6.03103e-08
5.22002e-08
4.51773e-08
2.30334e-08
2.50817e-08
1.66098e-08
1.52783e-08
1.83379e-08
1.82033e-08
2.29812e-08
3.44642e-08
5.68913e-08
8.66583e-08
1.0659e-07
1.03359e-07
1.11453e-07
4.85988e-08
5.83962e-08
5.31496e-08
6.99511e-08
7.02456e-08
6.98582e-08
7.03362e-08
6.79135e-08
6.29051e-08
6.14395e-08
6.04687e-08
6.3216e-08
6.43898e-08
6.7103e-08
7.4498e-08
8.39343e-08
8.95513e-08
9.02978e-08
8.27625e-08
7.80646e-08
1.14859e-08
1.08839e-08
1.00933e-08
9.23668e-09
8.33778e-09
7.81937e-09
7.58506e-09
7.39113e-09
7.15977e-09
6.98304e-09
6.98986e-09
7.27552e-09
7.87488e-09
8.72145e-09
1.00295e-08
1.17111e-08
1.27216e-08
1.24302e-08
1.21593e-08
1.1559e-08
1.14935e-08
0.000505953
0.000445097
0.00137158
1.80872e-05
0.000955999
0.00117664
8.96758e-05
3.68673e-05
0.000812622
0.00122691
0.000115688
6.32737e-05
8.37486e-06
0.000820503
0.00121035
7.31717e-05
3.68307e-05
7.6735e-05
4.33027e-05
0.000636236
0.00146519
3.54267e-05
9.60095e-06
1.68025e-05
0.000109566
7.04354e-05
0.000735361
0.00104877
2.81087e-05
3.03074e-05
2.56906e-05
2.33423e-05
8.71268e-05
0.000206798
0.0004299
0.000960193
3.22623e-05
2.2827e-05
3.55892e-05
5.64606e-05
3.79441e-05
0.000101482
0.00014736
0.000418995
0.000747777
2.75051e-05
1.43786e-05
1.87709e-05
2.88902e-05
6.3046e-05
6.20756e-05
2.99182e-05
0.000128551
0.000364035
0.000609138
1.78565e-05
1.1803e-05
1.81242e-05
9.28991e-06
1.57829e-05
4.7502e-05
6.07421e-05
2.30019e-05
6.46343e-05
0.00026536
0.000408847
9.45565e-06
7.69864e-06
1.55401e-05
1.28337e-05
6.92766e-06
1.13541e-05
1.66191e-05
3.54708e-05
2.04097e-05
3.05531e-05
0.000153968
0.000271304
4.54068e-06
4.33201e-06
7.8507e-06
8.9074e-06
8.85759e-06
9.86111e-06
5.08593e-06
6.21004e-06
1.37703e-05
1.17927e-05
1.03793e-05
0.000118679
0.000120981
2.37386e-06
3.24737e-06
2.88829e-06
3.02323e-06
5.62459e-06
5.99123e-06
6.44624e-06
5.18483e-06
4.45243e-06
2.73181e-06
7.59737e-06
4.58005e-06
4.80762e-05
4.54559e-05
1.43208e-06
2.37574e-06
1.3614e-06
1.05391e-06
1.70662e-06
2.08112e-06
3.06062e-06
3.5706e-06
3.13574e-06
7.28981e-07
2.49313e-06
2.6435e-06
4.91286e-07
1.36107e-05
1.58763e-05
7.0847e-07
1.99689e-06
8.56827e-07
5.01486e-07
4.59365e-07
5.89941e-07
8.80758e-07
1.02612e-06
7.02633e-07
4.50949e-07
6.70409e-07
5.03364e-07
9.5218e-08
2.70334e-07
3.24099e-06
4.73e-06
3.25212e-07
2.08234e-07
2.40435e-07
1.87339e-07
2.02502e-07
2.23797e-07
2.39138e-07
1.86532e-07
1.37468e-07
1.4913e-07
1.25514e-07
4.75068e-08
1.23407e-08
1.08005e-08
4.84403e-08
1.02568e-06
1.87576e-06
1.77669e-07
5.30719e-08
4.41036e-08
2.92177e-08
4.92178e-08
7.05837e-08
7.24101e-08
6.20737e-08
9.14363e-08
6.89352e-08
6.85081e-08
3.7318e-08
3.77824e-08
2.57609e-08
2.37762e-08
7.01079e-08
4.51334e-07
9.44524e-07
5.64095e-08
7.24319e-08
6.06719e-09
5.09852e-09
1.4482e-08
1.75515e-08
2.45869e-08
1.54774e-08
1.2549e-08
1.91711e-08
1.42552e-08
1.31581e-08
1.1662e-08
1.38189e-08
3.26966e-08
8.82344e-08
1.64931e-07
2.34982e-07
3.11647e-07
1.00861e-07
1.07767e-07
3.42591e-08
4.51987e-08
3.61678e-08
1.78745e-08
1.78497e-08
2.18526e-08
1.3764e-08
1.42184e-08
1.61668e-08
1.66768e-08
2.16043e-08
3.29155e-08
5.59982e-08
8.80177e-08
1.09567e-07
1.0098e-07
7.39297e-08
7.26954e-08
4.90424e-08
5.9344e-08
4.83023e-08
5.08017e-08
5.61408e-08
6.29042e-08
6.11531e-08
6.05125e-08
5.69823e-08
5.58765e-08
5.45462e-08
5.66507e-08
6.06131e-08
6.70324e-08
7.31697e-08
8.11414e-08
8.65603e-08
8.56048e-08
7.85739e-08
7.18226e-08
6.9174e-08
1.32622e-08
1.1851e-08
1.06777e-08
9.82022e-09
8.90073e-09
8.03986e-09
7.64592e-09
7.23133e-09
6.92044e-09
6.68132e-09
6.63321e-09
6.82247e-09
7.31264e-09
7.96672e-09
8.97275e-09
1.0527e-08
1.19083e-08
1.18238e-08
1.15956e-08
1.12258e-08
1.07434e-08
1.06244e-08
0.000563315
0.000491991
0.0016286
1.63218e-05
0.00116493
0.00142824
9.82843e-05
6.29893e-05
0.00101637
0.00149802
0.000133232
0.000110415
1.65046e-05
0.00103766
0.00187957
8.44912e-05
8.62935e-05
0.000123433
5.93364e-05
0.000846904
0.0020025
3.87852e-05
3.03264e-05
4.46907e-05
0.000193263
9.8608e-05
0.000938277
0.00153301
3.13099e-05
4.82408e-05
3.4761e-05
5.06106e-05
0.000183861
0.000266781
0.000606843
0.00138101
4.4098e-05
3.1122e-05
5.63258e-05
9.18257e-05
5.17345e-05
0.000198853
0.000232727
0.00054872
0.00108653
4.90209e-05
1.31505e-05
2.2596e-05
6.80397e-05
0.000110463
8.92623e-05
7.0065e-05
0.000247776
0.00047032
0.000905052
3.75019e-05
1.19075e-05
1.70539e-05
1.23414e-05
4.79421e-05
0.000103216
8.65079e-05
3.17291e-05
0.000177164
0.000415929
0.000698852
2.11618e-05
1.05354e-05
2.13087e-05
1.21835e-05
5.27125e-06
2.1575e-05
5.99318e-05
7.2502e-05
2.30919e-05
8.84943e-05
0.000276213
0.000483753
8.95834e-06
7.57215e-06
1.55928e-05
1.5028e-05
1.08416e-05
9.87171e-06
4.6838e-06
2.22272e-05
4.01793e-05
2.81191e-05
2.74812e-05
0.000234842
0.000250786
4.14718e-06
5.26204e-06
7.08746e-06
7.93401e-06
9.91079e-06
1.1645e-05
6.30804e-06
4.41374e-06
7.85824e-06
1.34141e-05
2.07102e-05
1.07354e-05
0.0001071
0.000100151
2.33605e-06
4.61265e-06
2.77817e-06
2.62581e-06
5.3894e-06
5.88983e-06
6.89885e-06
6.41026e-06
4.50124e-06
1.39987e-06
6.28272e-06
5.52631e-06
1.87214e-06
4.38981e-05
4.54248e-05
1.73794e-06
3.80034e-06
1.69137e-06
1.29007e-06
1.58692e-06
2.06249e-06
3.12344e-06
3.65547e-06
3.7893e-06
9.20284e-07
2.68757e-06
2.58324e-06
9.28611e-07
6.87428e-07
1.31087e-05
1.57317e-05
7.49765e-07
1.73602e-06
9.46449e-07
7.10475e-07
5.96193e-07
6.59679e-07
9.20823e-07
1.12114e-06
7.378e-07
7.2384e-07
7.75051e-07
4.93491e-07
1.23641e-08
1.09729e-07
2.81529e-07
3.44616e-06
5.42341e-06
2.3466e-07
7.46159e-08
1.74774e-07
1.51105e-07
2.17346e-07
2.30928e-07
2.37919e-07
1.67549e-07
2.0959e-07
1.79315e-07
1.42598e-07
3.5785e-08
1.52234e-08
7.03217e-09
2.16191e-08
1.16742e-07
1.36295e-06
2.70204e-06
6.64447e-08
1.30665e-08
9.09725e-08
7.18121e-08
7.17831e-08
5.27803e-08
6.56512e-08
8.29951e-08
6.52597e-08
7.91245e-08
5.36833e-08
3.70239e-08
3.87601e-08
2.71925e-08
2.36e-08
7.78477e-08
2.33204e-07
6.59983e-07
1.00871e-06
1.4616e-07
1.97151e-07
6.38334e-08
3.08936e-08
9.82467e-09
5.30236e-09
2.31996e-08
1.12703e-08
1.52339e-08
2.07173e-08
1.50966e-08
1.42698e-08
1.23402e-08
1.3505e-08
3.17129e-08
8.82568e-08
1.73674e-07
2.12973e-07
1.99874e-07
2.08772e-07
1.98096e-07
1.96144e-07
6.9454e-08
2.78504e-08
2.9524e-08
1.40608e-08
1.01751e-08
1.54829e-08
1.37167e-08
1.32465e-08
1.38667e-08
1.43736e-08
1.88975e-08
2.9993e-08
5.27929e-08
8.61332e-08
1.11045e-07
1.03966e-07
7.15288e-08
4.33837e-08
4.52126e-08
5.69925e-08
6.55354e-08
5.28443e-08
4.86261e-08
4.40125e-08
5.28331e-08
5.56486e-08
5.23528e-08
5.0343e-08
4.91773e-08
4.8481e-08
4.97595e-08
5.35237e-08
6.02902e-08
7.12342e-08
7.98369e-08
8.38841e-08
8.25655e-08
7.51813e-08
6.78581e-08
6.15421e-08
6.05877e-08
1.53005e-08
1.28689e-08
1.1252e-08
1.0123e-08
9.16213e-09
8.06794e-09
7.58652e-09
7.1832e-09
6.76977e-09
6.41026e-09
6.29138e-09
6.38599e-09
6.786e-09
7.33816e-09
8.25461e-09
9.52378e-09
1.07449e-08
1.10006e-08
1.06459e-08
1.07502e-08
1.04372e-08
9.90311e-09
9.75446e-09
0.000625033
0.00053854
0.00192179
1.57048e-05
0.00138346
0.00169668
0.000112461
9.0811e-05
0.00123198
0.00182331
0.000160462
0.00016454
2.64694e-05
0.00129767
0.00242105
0.000103104
0.000156716
0.000179534
6.89989e-05
0.00126018
0.00249042
4.29352e-05
7.17885e-05
9.63098e-05
0.000283426
0.000117992
0.00131693
0.00209549
3.00376e-05
8.45103e-05
5.40744e-05
9.31589e-05
0.000305953
0.000310792
0.000911131
0.00190186
4.93615e-05
5.49926e-05
9.30379e-05
0.000129143
8.12159e-05
0.000322406
0.000316557
0.000748616
0.00156237
6.70437e-05
1.55575e-05
3.91992e-05
0.000132547
0.000152404
0.00011135
0.000164385
0.000397757
0.000580211
0.0012792
6.40287e-05
1.13773e-05
1.27198e-05
3.564e-05
0.000113085
0.000184218
8.40171e-05
8.74219e-05
0.000336495
0.000533779
0.00108076
4.40445e-05
1.26294e-05
2.33579e-05
8.04673e-06
1.46632e-05
6.58121e-05
0.000118863
8.16457e-05
2.15461e-05
0.000196213
0.000453762
0.00082661
2.02888e-05
9.28752e-06
2.36383e-05
1.89614e-05
6.40952e-06
5.1211e-06
2.91918e-05
6.35433e-05
6.94733e-05
2.62885e-05
8.5843e-05
0.000440921
0.000523591
8.59748e-06
7.39788e-06
1.4348e-05
1.60662e-05
1.39463e-05
1.30828e-05
1.05282e-06
7.30937e-06
2.59958e-05
4.27222e-05
4.72073e-05
3.40534e-05
0.000205155
0.000211078
4.35152e-06
6.66788e-06
6.34216e-06
6.54871e-06
1.04129e-05
1.17628e-05
8.21279e-06
4.25559e-06
4.50498e-06
6.15432e-06
1.86745e-05
1.14218e-05
7.65353e-06
0.000100003
9.27045e-05
2.76099e-06
6.85582e-06
3.27273e-06
2.52659e-06
4.85016e-06
5.35371e-06
6.44583e-06
7.1268e-06
5.02549e-06
9.51661e-07
4.54709e-06
4.11404e-06
4.59755e-06
5.06721e-06
3.98143e-05
4.64171e-05
2.31835e-06
4.51465e-06
2.24902e-06
1.85848e-06
1.68352e-06
2.05426e-06
3.00361e-06
3.52145e-06
3.62497e-06
1.37264e-06
3.11091e-06
2.89877e-06
5.8691e-07
9.67519e-07
6.76846e-07
1.36006e-05
1.57187e-05
6.33087e-07
1.18102e-06