/*--------------------------------*- C++ -*----------------------------------*\
| =========                 |                                                 |
| \\      /  F ield         | OpenFOAM: The Open Source CFD Toolbox           |
|  \\    /   O peration     | Version:  v2012                                 |
|   \\  /    A nd           | Website:  www.openfoam.com                      |
|    \\/     M anipulation  |                                                 |
\*---------------------------------------------------------------------------*/
FoamFile
{
    version     2.0;
    format      ascii;
    class       volScalarField;
    location    "15001";
    object      Mg;
}
// * * * * * * * * * * * * * * * * * * * * * * * * * * * * * * * * * * * * * //

dimensions      [0 0 0 0 0 0 0];


internalField   nonuniform List<scalar> 
294912
(
1.56883e-08
7.047e-08
1.61357e-08
1.75759e-08
1.81831e-07
7.07117e-08
8.30213e-08
1.68666e-08
1.81248e-08
1.82473e-08
3.50991e-07
1.82265e-07
2.10433e-07
7.04362e-08
8.30726e-08
8.85124e-08
1.74561e-08
1.8939e-08
1.88688e-08
2.00567e-08
5.91451e-07
3.53227e-07
4.1168e-07
1.80903e-07
2.10607e-07
2.25597e-07
6.97953e-08
8.22601e-08
8.85624e-08
9.46598e-08
1.7791e-08
1.95207e-08
1.97533e-08
2.06908e-08
2.20168e-08
9.31779e-07
5.98238e-07
7.1072e-07
3.52722e-07
4.13792e-07
4.46414e-07
1.78709e-07
2.08702e-07
2.25863e-07
2.41773e-07
6.9197e-08
8.10812e-08
8.7471e-08
9.46892e-08
9.9936e-08
1.80907e-08
1.97459e-08
2.0345e-08
2.15688e-08
2.26145e-08
2.3953e-08
1.39921e-06
9.46524e-07
1.14764e-06
6.0132e-07
7.17477e-07
7.82302e-07
3.51495e-07
4.13306e-07
4.48818e-07
4.82366e-07
1.76898e-07
2.05864e-07
2.23524e-07
2.42097e-07
2.54326e-07
6.86726e-08
8.00023e-08
8.60704e-08
9.33379e-08
9.99625e-08
1.03933e-07
1.83537e-08
1.99652e-08
2.05068e-08
2.21062e-08
2.3439e-08
2.44875e-08
2.58476e-08
2.01324e-06
1.42606e-06
1.76084e-06
9.56154e-07
1.16339e-06
1.28322e-06
6.04149e-07
7.21153e-07
7.89857e-07
8.56538e-07
3.50528e-07
4.11525e-07
4.47939e-07
4.849e-07
5.10275e-07
1.75489e-07
2.03449e-07
2.20183e-07
2.39277e-07
2.54763e-07
2.62361e-07
6.83039e-08
7.90712e-08
8.48087e-08
9.17448e-08
9.8403e-08
1.03965e-07
1.05977e-07
1.85811e-08
2.01653e-08
2.06916e-08
2.2161e-08
2.3874e-08
2.52229e-08
2.62803e-08
2.75945e-08
2.78352e-06
2.05746e-06
2.57725e-06
1.44578e-06
1.79164e-06
1.9954e-06
9.65829e-07
1.17427e-06
1.3007e-06
1.42851e-06
6.06823e-07
7.2384e-07
7.93176e-07
8.64749e-07
9.1864e-07
3.50054e-07
4.09556e-07
4.45238e-07
4.83311e-07
5.13151e-07
5.31615e-07
1.74555e-07
2.01522e-07
2.17271e-07
2.35477e-07
2.51476e-07
2.62931e-07
2.66077e-07
6.81054e-08
7.83609e-08
8.3758e-08
9.0264e-08
9.66731e-08
1.02226e-07
1.06017e-07
1.06959e-07
1.9007e-08
2.0348e-08
2.08765e-08
2.22632e-08
2.38073e-08
2.55276e-08
2.69188e-08
2.79559e-08
2.90785e-08
3.7073e-06
2.85033e-06
3.60634e-06
2.09055e-06
2.6299e-06
2.95068e-06
1.46462e-06
1.81362e-06
2.02978e-06
2.24927e-06
9.75497e-07
1.18487e-06
1.31177e-06
1.44724e-06
1.5533e-06
6.09544e-07
7.2498e-07
7.94461e-07
8.67373e-07
9.27563e-07
9.71154e-07
3.50139e-07
4.08024e-07
4.42148e-07
4.79529e-07
5.10663e-07
5.34932e-07
5.45827e-07
1.74254e-07
2.00123e-07
2.14868e-07
2.31995e-07
2.47307e-07
2.5919e-07
2.66802e-07
2.65931e-07
6.76847e-08
7.79183e-08
8.29701e-08
8.90272e-08
9.49418e-08
1.00344e-07
1.04181e-07
1.07019e-07
1.07548e-07
1.98585e-08
2.05398e-08
2.1071e-08
2.23713e-08
2.38146e-08
2.53367e-08
2.70841e-08
2.8511e-08
2.94162e-08
3.00558e-08
4.76876e-06
3.80091e-06
4.83874e-06
2.89988e-06
3.68706e-06
4.15518e-06
2.121e-06
2.6678e-06
3.00923e-06
3.35304e-06
1.48421e-06
1.83562e-06
2.05327e-06
2.28573e-06
2.47477e-06
9.84409e-07
1.19274e-06
1.32099e-06
1.45807e-06
1.57353e-06
1.66256e-06
6.12483e-07
7.25793e-07
7.9354e-07
8.66683e-07
9.29164e-07
9.80954e-07
1.01043e-06
3.5107e-07
4.07047e-07
4.39474e-07
4.7518e-07
5.05741e-07
5.31484e-07
5.49569e-07
5.51613e-07
1.74106e-07
1.99389e-07
2.12984e-07
2.28935e-07
2.43329e-07
2.54674e-07
2.62766e-07
2.66686e-07
2.6401e-07
6.72346e-08
7.76471e-08
8.24734e-08
8.80454e-08
9.34084e-08
9.83548e-08
1.02251e-07
1.0514e-07
1.07757e-07
1.07349e-07
2.06897e-08
2.12007e-08
2.12354e-08
2.25059e-08
2.38277e-08
2.52316e-08
2.6769e-08
2.8535e-08
2.98636e-08
3.03175e-08
3.06841e-08
5.941e-06
4.89077e-06
6.24223e-06
3.86867e-06
4.94889e-06
5.5879e-06
2.9443e-06
3.74604e-06
4.24501e-06
4.74453e-06
2.15314e-06
2.70488e-06
3.05106e-06
3.41709e-06
3.71773e-06
1.50278e-06
1.85469e-06
2.07501e-06
2.31059e-06
2.51526e-06
2.6728e-06
9.92562e-07
1.19877e-06
1.32597e-06
1.46497e-06
1.58372e-06
1.68455e-06
1.75241e-06
6.16142e-07
7.2685e-07
7.92334e-07
8.63309e-07
9.26425e-07
9.81282e-07
1.02123e-06
1.03461e-06
3.5271e-07
4.06793e-07
4.37249e-07
4.7116e-07
5.00165e-07
5.25589e-07
5.45266e-07
5.55441e-07
5.5147e-07
1.72762e-07
1.9936e-07
2.11694e-07
2.26306e-07
2.3963e-07
2.50126e-07
2.5806e-07
2.62366e-07
2.6507e-07
2.61036e-07
6.78452e-08
7.67445e-08
8.22729e-08
8.73369e-08
9.21711e-08
9.65256e-08
1.00129e-07
1.03163e-07
1.05844e-07
1.07546e-07
1.06664e-07
2.13606e-08
2.22294e-08
2.17483e-08
2.26251e-08
2.38657e-08
2.51433e-08
2.65396e-08
2.8102e-08
2.97369e-08
3.06874e-08
3.09604e-08
3.09192e-08
7.1891e-06
6.08908e-06
7.76811e-06
4.97664e-06
6.37888e-06
7.19583e-06
3.92845e-06
5.03263e-06
5.70972e-06
6.38026e-06
2.99049e-06
3.80119e-06
4.31088e-06
4.84154e-06
5.26991e-06
2.18413e-06
2.74035e-06
3.09104e-06
3.46276e-06
3.78733e-06
4.03401e-06
1.51915e-06
1.86987e-06
2.09107e-06
2.33172e-06
2.54063e-06
2.71662e-06
2.84119e-06
1.001e-06
1.20418e-06
1.32915e-06
1.4662e-06
1.5882e-06
1.6935e-06
1.77668e-06
1.81749e-06
6.2071e-07
7.28512e-07
7.91366e-07
8.59837e-07
9.20747e-07
9.76651e-07
1.02012e-06
1.04654e-06
1.04183e-06
3.53386e-07
4.07381e-07
4.35565e-07
4.67404e-07
4.94948e-07
5.18864e-07
5.38561e-07
5.50532e-07
5.5565e-07
5.47756e-07
1.70947e-07
1.98558e-07
2.11123e-07
2.24161e-07
2.36212e-07
2.45753e-07
2.53128e-07
2.57505e-07
2.60757e-07
2.62579e-07
2.57035e-07
6.93651e-08
7.63675e-08
8.15359e-08
8.69294e-08
9.11981e-08
9.49268e-08
9.81643e-08
1.00885e-07
1.03748e-07
1.05536e-07
1.06772e-07
1.05994e-07
2.20936e-08
2.2986e-08
2.2725e-08
2.28727e-08
2.38988e-08
2.50773e-08
2.63274e-08
2.77534e-08
2.91922e-08
3.04636e-08
3.12779e-08
3.12577e-08
3.08844e-08
8.47268e-06
7.35628e-06
9.35754e-06
6.19263e-06
7.92311e-06
8.90687e-06
5.05111e-06
6.48847e-06
7.3442e-06
8.17766e-06
3.9897e-06
5.10799e-06
5.80296e-06
6.50895e-06
7.06415e-06
3.03612e-06
3.85775e-06
4.37414e-06
4.9153e-06
5.37249e-06
5.72218e-06
2.21117e-06
2.76964e-06
3.12556e-06
3.50515e-06
3.83766e-06
4.11022e-06
4.30152e-06
1.53487e-06
1.88275e-06
2.10246e-06
2.34426e-06
2.55939e-06
2.74231e-06
2.88941e-06
2.97137e-06
1.01023e-06
1.20995e-06
1.33209e-06
1.46587e-06
1.58594e-06
1.69542e-06
1.78382e-06
1.84435e-06
1.84886e-06
6.25325e-07
7.30843e-07
7.90823e-07
8.56486e-07
9.15299e-07
9.68851e-07
1.01387e-06
1.0442e-06
1.05441e-06
1.03938e-06
3.51915e-07
4.07947e-07
4.34466e-07
4.63982e-07
4.89751e-07
5.12414e-07
5.30715e-07
5.43286e-07
5.50258e-07
5.52934e-07
5.39577e-07
1.70302e-07
1.95777e-07
2.10271e-07
2.22577e-07
2.33178e-07
2.41581e-07
2.48262e-07
2.52216e-07
2.55842e-07
2.58017e-07
2.58446e-07
2.53532e-07
7.12379e-08
7.74603e-08
8.07162e-08
8.64705e-08
9.04866e-08
9.36045e-08
9.6401e-08
9.87151e-08
1.01296e-07
1.03362e-07
1.04793e-07
1.06164e-07
1.05252e-07
2.29123e-08
2.37355e-08
2.35787e-08
2.35634e-08
2.40035e-08
2.50129e-08
2.61464e-08
2.74256e-08
2.87305e-08
2.98427e-08
3.09561e-08
3.15472e-08
3.12438e-08
3.08186e-08
9.75311e-06
8.6481e-06
1.09488e-05
7.47675e-06
9.51787e-06
1.06386e-05
6.27779e-06
8.05575e-06
9.06928e-06
1.0032e-05
5.12782e-06
6.58506e-06
7.46427e-06
8.33017e-06
8.98512e-06
4.05143e-06
5.1895e-06
5.89433e-06
6.61383e-06
7.20014e-06
7.63404e-06
3.07587e-06
3.90668e-06
4.43454e-06
4.98848e-06
5.45554e-06
5.83626e-06
6.09113e-06
2.23585e-06
2.79335e-06
3.15202e-06
3.53755e-06
3.88242e-06
4.16461e-06
4.38585e-06
4.51534e-06
1.55083e-06
1.89552e-06
2.11206e-06
2.35228e-06
2.56737e-06
2.75948e-06
2.91441e-06
3.02471e-06
3.04948e-06
1.02013e-06
1.21608e-06
1.33541e-06
1.46538e-06
1.58289e-06
1.69014e-06
1.78311e-06
1.8503e-06
1.87801e-06
1.84939e-06
6.28007e-07
7.33595e-07
7.90417e-07
8.53253e-07
9.098e-07
9.6138e-07
1.00428e-06
1.03669e-06
1.05137e-06
1.05334e-06
1.0258e-06
3.49869e-07
4.05902e-07
4.33554e-07
4.60887e-07
4.84699e-07
5.05809e-07
5.22911e-07
5.34733e-07
5.42511e-07
5.47428e-07
5.44918e-07
5.32654e-07
1.7082e-07
1.93745e-07
2.07357e-07
2.21168e-07
2.30536e-07
2.37787e-07
2.43421e-07
2.46948e-07
2.50364e-07
2.52845e-07
2.53952e-07
2.55136e-07
2.50182e-07
7.32431e-08
7.91351e-08
8.1325e-08
8.53998e-08
8.98663e-08
9.25487e-08
9.48507e-08
9.66908e-08
9.89392e-08
1.00737e-07
1.02607e-07
1.04196e-07
1.05357e-07
1.04501e-07
2.38596e-08
2.45687e-08
2.43028e-08
2.44204e-08
2.44992e-08
2.50221e-08
2.5983e-08
2.71316e-08
2.8292e-08
2.92991e-08
3.02577e-08
3.1128e-08
3.15172e-08
3.10478e-08
3.06378e-08
1.10049e-05
9.92639e-06
1.24852e-05
8.7821e-06
1.1098e-05
1.23145e-05
7.56758e-06
9.66604e-06
1.07971e-05
1.18358e-05
6.36962e-06
8.17238e-06
9.21095e-06
1.01912e-05
1.08912e-05
5.20614e-06
6.69445e-06
7.58625e-06
8.46397e-06
9.14118e-06
9.60938e-06
4.10539e-06
5.26342e-06
5.98897e-06
6.72603e-06
7.3196e-06
7.7793e-06
8.07078e-06
3.11068e-06
3.94572e-06
4.48359e-06
5.05338e-06
5.53975e-06
5.93007e-06
6.21112e-06
6.38154e-06
2.25989e-06
2.81563e-06
3.17364e-06
3.56137e-06
3.91287e-06
4.21158e-06
4.44381e-06
4.60654e-06
4.66105e-06
1.56768e-06
1.90835e-06
2.12214e-06
2.35924e-06
2.57253e-06
2.76438e-06
2.92906e-06
3.04967e-06
3.10866e-06
3.07041e-06
1.02906e-06
1.22262e-06
1.33844e-06
1.46516e-06
1.57994e-06
1.68472e-06
1.77521e-06
1.84765e-06
1.88354e-06
1.88023e-06
1.83413e-06
6.28481e-07
7.349e-07
7.90074e-07
8.49897e-07
9.0417e-07
9.53552e-07
9.94952e-07
1.02566e-06
1.04303e-06
1.04995e-06
1.04196e-06
1.00808e-06
3.48475e-07
4.02233e-07
4.30747e-07
4.57906e-07
4.79756e-07
4.9921e-07
5.14757e-07
5.26255e-07
5.32905e-07
5.3943e-07
5.39075e-07
5.37961e-07
5.26467e-07
1.72043e-07
1.93154e-07
2.04373e-07
2.18233e-07
2.27987e-07
2.34361e-07
2.38715e-07
2.41716e-07
2.44851e-07
2.46955e-07
2.48822e-07
2.50647e-07
2.51842e-07
2.46987e-07
7.52284e-08
8.0906e-08
8.28148e-08
8.52444e-08
8.86464e-08
9.15768e-08
9.35078e-08
9.484e-08
9.6695e-08
9.81953e-08
9.99245e-08
1.01932e-07
1.03423e-07
1.04603e-07
1.03762e-07
2.48505e-08
2.55492e-08
2.51136e-08
2.5001e-08
2.51583e-08
2.5338e-08
2.59351e-08
2.6871e-08
2.7896e-08
2.87969e-08
2.96338e-08
3.03513e-08
3.10252e-08
3.13214e-08
3.0924e-08
3.03718e-08
1.21912e-05
1.11615e-05
1.39253e-05
1.00698e-05
1.26064e-05
1.3878e-05
8.87582e-06
1.12494e-05
1.24469e-05
1.3509e-05
7.67262e-06
9.79923e-06
1.09491e-05
1.19775e-05
1.26642e-05
6.46486e-06
8.31083e-06
9.36327e-06
1.0344e-05
1.10458e-05
1.1488e-05
5.27473e-06
6.79878e-06
7.7222e-06
8.62134e-06
9.29301e-06
9.77265e-06
1.00543e-05
4.15089e-06
5.32207e-06
6.07001e-06
6.83686e-06
7.45586e-06
7.91647e-06
8.21749e-06
8.39239e-06
3.14334e-06
3.98067e-06
4.52332e-06
5.10392e-06
5.60888e-06
6.02466e-06
6.31423e-06
6.51096e-06
6.5915e-06
2.2845e-06
2.83823e-06
3.19512e-06
3.58288e-06
3.93586e-06
4.24044e-06
4.49179e-06
4.66729e-06
4.76064e-06
4.72411e-06
1.58486e-06
1.92124e-06
2.13268e-06
2.36676e-06
2.57825e-06
2.76803e-06
2.93157e-06
3.0628e-06
3.13502e-06
3.13544e-06
3.06619e-06
1.03574e-06
1.22888e-06
1.34092e-06
1.46483e-06
1.5769e-06
1.67903e-06
1.76763e-06
1.83795e-06
1.87984e-06
1.88612e-06
1.87446e-06
1.78581e-06
6.28125e-07
7.33659e-07
7.88849e-07
8.46306e-07
8.98169e-07
9.45351e-07
9.84993e-07
1.01465e-06
1.031e-06
1.04105e-06
1.03851e-06
1.02275e-06
9.93314e-07
3.48058e-07
3.99077e-07
4.25993e-07
4.53833e-07
4.74674e-07
4.92528e-07
5.06522e-07
5.17294e-07
5.23086e-07
5.29757e-07
5.30748e-07
5.32086e-07
5.31743e-07
5.209e-07
1.73625e-07
1.93394e-07
2.02953e-07
2.14367e-07
2.24413e-07
2.3088e-07
2.34117e-07
2.3665e-07
2.39176e-07
2.41024e-07
2.4284e-07
2.45446e-07
2.47389e-07
2.48737e-07
2.43775e-07
7.75788e-08
8.27699e-08
8.43477e-08
8.63194e-08
8.80191e-08
9.02621e-08
9.20879e-08
9.31158e-08
9.45762e-08
9.57189e-08
9.73037e-08
9.91513e-08
1.01124e-07
1.02704e-07
1.03832e-07
1.03144e-07
2.58944e-08
2.65871e-08
2.60686e-08
2.5668e-08
2.55563e-08
2.5683e-08
2.60985e-08
2.67697e-08
2.75674e-08
2.83462e-08
2.90685e-08
2.96563e-08
3.01899e-08
3.08159e-08
3.12019e-08
3.10857e-08
3.07619e-08
1.3286e-05
1.23204e-05
1.52444e-05
1.12987e-05
1.4004e-05
1.5302e-05
1.01658e-05
1.27471e-05
1.39641e-05
1.50178e-05
8.99348e-06
1.13927e-05
1.2594e-05
1.36063e-05
1.4247e-05
7.7851e-06
9.96655e-06
1.1127e-05
1.21338e-05
1.27871e-05
1.31621e-05
6.54882e-06
8.45022e-06
9.54576e-06
1.05484e-05
1.12158e-05
1.16397e-05
1.18647e-05
5.33021e-06
6.88244e-06
7.84559e-06
8.79183e-06
9.49204e-06
9.94689e-06
1.02056e-05
1.03397e-05
4.19167e-06
5.37201e-06
6.13491e-06
6.92859e-06
7.58387e-06
8.07797e-06
8.37264e-06
8.55154e-06
8.63129e-06
3.17594e-06
4.01531e-06
4.56148e-06
5.14776e-06
5.66411e-06
6.09866e-06
6.41886e-06
6.62263e-06
6.72697e-06
6.71161e-06
2.31035e-06
2.86118e-06
3.21746e-06
3.60584e-06
3.95881e-06
4.26509e-06
4.51932e-06
4.7162e-06
4.82666e-06
4.83104e-06
4.74361e-06
1.60088e-06
1.93433e-06
2.14297e-06
2.37437e-06
2.58449e-06
2.77219e-06
2.93522e-06
3.06399e-06
3.14748e-06
3.1648e-06
3.13209e-06
2.95379e-06
1.04055e-06
1.23343e-06
1.34307e-06
1.46393e-06
1.57304e-06
1.67289e-06
1.75929e-06
1.82873e-06
1.86944e-06
1.88177e-06
1.88217e-06
1.82291e-06
1.7449e-06
6.28079e-07
7.31249e-07
7.85602e-07
8.42118e-07
8.91625e-07
9.36593e-07
9.7456e-07
1.0025e-06
1.01863e-06
1.0284e-06
1.02929e-06
1.01911e-06
1.00794e-06
9.81102e-07
3.4851e-07
3.97052e-07
4.21647e-07
4.48069e-07
4.68848e-07
4.8553e-07
4.98131e-07
5.08038e-07
5.13078e-07
5.19898e-07
5.20383e-07
5.23685e-07
5.25753e-07
5.26102e-07
5.1557e-07
1.75817e-07
1.93923e-07
2.02243e-07
2.12027e-07
2.20155e-07
2.26646e-07
2.29458e-07
2.31568e-07
2.33442e-07
2.34904e-07
2.36765e-07
2.39349e-07
2.4218e-07
2.44326e-07
2.45549e-07
2.40552e-07
8.1152e-08
8.53107e-08
8.60674e-08
8.74839e-08
8.84376e-08
8.94593e-08
9.05661e-08
9.12842e-08
9.24472e-08
9.32783e-08
9.46774e-08
9.63884e-08
9.8294e-08
1.00388e-07
1.0196e-07
1.03216e-07
1.02886e-07
2.67224e-08
2.73772e-08
2.70148e-08
2.64503e-08
2.60251e-08
2.58581e-08
2.61464e-08
2.6766e-08
2.74004e-08
2.79962e-08
2.85745e-08
2.90214e-08
2.94284e-08
2.99857e-08
3.06807e-08
3.13573e-08
3.15138e-08
3.17351e-08
1.42783e-05
1.33785e-05
1.64331e-05
1.24364e-05
1.52696e-05
1.65789e-05
1.13893e-05
1.4119e-05
1.53247e-05
1.63596e-05
1.02921e-05
1.28932e-05
1.40887e-05
1.50443e-05
1.56406e-05
9.12637e-06
1.15881e-05
1.27902e-05
1.37461e-05
1.43037e-05
1.46215e-05
7.88713e-06
1.01458e-05
1.13589e-05
1.23826e-05
1.29564e-05
1.32631e-05
1.34224e-05
6.61452e-06
8.56477e-06
9.72219e-06
1.07907e-05
1.14822e-05
1.18341e-05
1.19822e-05
1.20378e-05
5.37678e-06
6.95067e-06
7.9451e-06
8.94163e-06
9.70121e-06
1.01895e-05
1.04054e-05
1.04963e-05
1.05387e-05
4.2311e-06
5.41989e-06
6.19472e-06
7.00741e-06
7.69132e-06
8.22457e-06
8.56003e-06
8.72478e-06
8.78552e-06
8.79686e-06
3.20968e-06
4.0505e-06
4.60096e-06
5.19325e-06
5.71794e-06
6.16277e-06
6.49892e-06
6.73518e-06
6.84864e-06
6.85042e-06
6.77693e-06
2.33643e-06
2.88436e-06
3.23994e-06
3.62973e-06
3.984e-06
4.29238e-06
4.54765e-06
4.74642e-06
4.87825e-06
4.90462e-06
4.83944e-06
4.57219e-06
1.61486e-06
1.94689e-06
2.15275e-06
2.38117e-06
2.58972e-06
2.77638e-06
2.9393e-06
3.06745e-06
3.14866e-06
3.17776e-06
3.1662e-06
3.03742e-06
2.85206e-06
1.04459e-06
1.23607e-06
1.34413e-06
1.46223e-06
1.56815e-06
1.66592e-06
1.75031e-06
1.81815e-06
1.85975e-06
1.87099e-06
1.87758e-06
1.83024e-06
1.78172e-06
1.71039e-06
6.2885e-07
7.2917e-07
7.81436e-07
8.3679e-07
8.84569e-07
9.27177e-07
9.63512e-07
9.89653e-07
1.00506e-06
1.01564e-06
1.01624e-06
1.00983e-06
1.00409e-06
9.95103e-07
9.71044e-07
3.49737e-07
3.95735e-07
4.18345e-07
4.427e-07
4.62182e-07
4.78007e-07
4.89618e-07
4.98419e-07
5.0311e-07
5.08992e-07
5.09665e-07
5.13196e-07
5.17266e-07
5.20041e-07
5.20622e-07
5.10229e-07
1.79024e-07
1.95898e-07
2.02189e-07
2.10201e-07
2.17028e-07
2.22167e-07
2.24572e-07
2.26311e-07
2.27633e-07
2.28723e-07
2.30468e-07
2.33141e-07
2.36031e-07
2.3913e-07
2.41203e-07
2.42312e-07
2.37537e-07
8.55461e-08
8.87243e-08
8.85213e-08
8.91172e-08
8.8871e-08
8.94238e-08
8.95251e-08
8.95987e-08
9.02267e-08
9.07775e-08
9.20666e-08
9.35832e-08
9.54599e-08
9.75316e-08
9.96413e-08
1.01398e-07
1.02832e-07
1.02804e-07
2.72319e-08
2.75885e-08
2.75091e-08
2.71492e-08
2.65823e-08
2.60871e-08
2.61166e-08
2.65432e-08
2.70948e-08
2.76813e-08
2.81772e-08
2.84826e-08
2.87344e-08
2.9186e-08
2.97764e-08
3.06564e-08
3.17391e-08
3.21651e-08
3.26304e-08
1.51665e-05
1.43232e-05
1.74895e-05
1.34622e-05
1.63975e-05
1.77112e-05
1.25141e-05
1.53455e-05
1.65278e-05
1.75426e-05
1.15196e-05
1.4259e-05
1.54082e-05
1.62947e-05
1.68595e-05
1.04408e-05
1.31144e-05
1.42917e-05
1.5143e-05
1.55994e-05
1.58918e-05
9.2523e-06
1.18126e-05
1.30717e-05
1.40316e-05
1.44445e-05
1.46265e-05
1.47596e-05
7.96671e-06
1.0299e-05
1.16004e-05
1.27047e-05
1.32878e-05
1.34495e-05
1.34627e-05
1.34716e-05
6.66583e-06
8.65536e-06
9.86796e-06
1.10185e-05
1.17921e-05
1.2165e-05
1.22056e-05
1.21458e-05
1.21619e-05
5.41966e-06
7.0135e-06
8.03392e-06
9.07097e-06
9.88694e-06
1.04381e-05
1.06996e-05
1.07188e-05
1.06802e-05
1.07268e-05
4.27092e-06
5.46817e-06
6.25579e-06
7.08709e-06
7.79327e-06
8.35595e-06
8.72293e-06
8.93374e-06
8.96917e-06
8.94506e-06
8.93773e-06
3.24446e-06
4.086e-06
4.64139e-06
5.24138e-06
5.7771e-06
6.23068e-06
6.57713e-06
6.82323e-06
6.96847e-06
6.98243e-06
6.90025e-06
6.61241e-06
2.36145e-06
2.9076e-06
3.2615e-06
3.65309e-06
4.00961e-06
4.32271e-06
4.58094e-06
4.78135e-06
4.91222e-06
4.95944e-06
4.91836e-06
4.70883e-06
4.37878e-06
1.62711e-06
1.95775e-06
2.16196e-06
2.38689e-06
2.59338e-06
2.77921e-06
2.94249e-06
3.07138e-06
3.15274e-06
3.17896e-06
3.17992e-06
3.07579e-06
2.93625e-06
2.75543e-06
1.04868e-06
1.23812e-06
1.3439e-06
1.45969e-06
1.56243e-06
1.65798e-06
1.74072e-06
1.80628e-06
1.84785e-06
1.86155e-06
1.86706e-06
1.82696e-06
1.78932e-06
1.74575e-06
1.6843e-06
6.30476e-07
7.27689e-07
7.77553e-07
8.30925e-07
8.76962e-07
9.17349e-07
9.51725e-07
9.76235e-07
9.90996e-07
1.00222e-06
1.00207e-06
9.96508e-07
9.94766e-07
9.90911e-07
9.84405e-07
9.61852e-07
3.51388e-07
3.95237e-07
4.15497e-07
4.37785e-07
4.5587e-07
4.70231e-07
4.81048e-07
4.88292e-07
4.92941e-07
4.97357e-07
4.98442e-07
5.02311e-07
5.06619e-07
5.11563e-07
5.14575e-07
5.14951e-07
5.04996e-07
1.83563e-07
1.98943e-07
2.03756e-07
2.09933e-07
2.14357e-07
2.18303e-07
2.20017e-07
2.2111e-07
2.21957e-07
2.22472e-07
2.24099e-07
2.26665e-07
2.29764e-07
2.32966e-07
2.36061e-07
2.38062e-07
2.39315e-07
2.35081e-07
8.91535e-08
9.27895e-08
9.15525e-08
9.07887e-08
9.0272e-08
8.96029e-08
8.8802e-08
8.84558e-08
8.83697e-08
8.85089e-08
8.9398e-08
9.0755e-08
9.25703e-08
9.46446e-08
9.67834e-08
9.90754e-08
1.01042e-07
1.02936e-07
1.03154e-07
2.78749e-08
2.78311e-08
2.74735e-08
2.73456e-08
2.7027e-08
2.63424e-08
2.6103e-08
2.62521e-08
2.66205e-08
2.7124e-08
2.7629e-08
2.79546e-08
2.81265e-08
2.84355e-08
2.89069e-08
2.95327e-08
3.10037e-08
3.2335e-08
3.3006e-08
3.35245e-08
1.59535e-05
1.51594e-05
1.8418e-05
1.43716e-05
1.73927e-05
1.87035e-05
1.35203e-05
1.64237e-05
1.75849e-05
1.85749e-05
1.26424e-05
1.54711e-05
1.65538e-05
1.73791e-05
1.79184e-05
1.16806e-05
1.45014e-05
1.56044e-05
1.63285e-05
1.66999e-05
1.69872e-05
1.05873e-05
1.33864e-05
1.46193e-05
1.54511e-05
1.56768e-05
1.57588e-05
1.59041e-05
9.34808e-06
1.20143e-05
1.33878e-05
1.44345e-05
1.4831e-05
1.47645e-05
1.46689e-05
1.47197e-05
8.0255e-06
1.04189e-05
1.18078e-05
1.30289e-05
1.37119e-05
1.38695e-05
1.36746e-05
1.3475e-05
1.35491e-05
6.71102e-06
8.73456e-06
9.9958e-06
1.12202e-05
1.20847e-05
1.25442e-05
1.26189e-05
1.23967e-05
1.2237e-05
1.23681e-05
5.46097e-06
7.07589e-06
8.12265e-06
9.19888e-06
1.00632e-05
1.06716e-05
1.09844e-05
1.10475e-05
1.09199e-05
1.08387e-05
1.09404e-05
4.31172e-06
5.51687e-06
6.31832e-06
7.1721e-06
7.90325e-06
8.49256e-06
8.88315e-06
9.11154e-06
9.19159e-06
9.1435e-06
9.05611e-06
8.89048e-06
3.27951e-06
4.1211e-06
4.68133e-06
5.28964e-06
5.84029e-06
6.30637e-06
6.66392e-06
6.92162e-06
7.06441e-06
7.10735e-06
7.03902e-06
6.78448e-06
6.35039e-06
2.38459e-06
2.93007e-06
3.28213e-06
3.6749e-06
4.03333e-06
4.35263e-06
4.61892e-06
4.82116e-06
4.95378e-06
4.99921e-06
4.97347e-06
4.81068e-06
4.52028e-06
4.16115e-06
1.63859e-06
1.96729e-06
2.17009e-06
2.39145e-06
2.59532e-06
2.78061e-06
2.94294e-06
3.07466e-06
3.15739e-06
3.18255e-06
3.18673e-06
3.09384e-06
2.97657e-06
2.83992e-06
2.67819e-06
1.0535e-06
1.24042e-06
1.34307e-06
1.45617e-06
1.55612e-06
1.64888e-06
1.73009e-06
1.7932e-06
1.83287e-06
1.8513e-06
1.85337e-06
1.81722e-06
1.78657e-06
1.7528e-06
1.71745e-06
1.66421e-06
6.3162e-07
7.25382e-07
7.7346e-07
8.25116e-07
8.69146e-07
9.07389e-07
9.39393e-07
9.62086e-07
9.7677e-07
9.87686e-07
9.86321e-07
9.82399e-07
9.81396e-07
9.81512e-07
9.79875e-07
9.74265e-07
9.53001e-07
3.54374e-07
3.9678e-07
4.14855e-07
4.33982e-07
4.49995e-07
4.62547e-07
4.72961e-07
4.7796e-07
4.83051e-07
4.85539e-07
4.86965e-07
4.90822e-07
4.95563e-07
5.00865e-07
5.06142e-07
5.09002e-07
5.09391e-07
5.00434e-07
1.89656e-07
2.03183e-07
2.05357e-07
2.10471e-07
2.13978e-07
2.15318e-07
2.15944e-07
2.16483e-07
2.16441e-07
2.16291e-07
2.1765e-07
2.20107e-07
2.23231e-07
2.26696e-07
2.29926e-07
2.33003e-07
2.35177e-07
2.3695e-07
2.33349e-07
9.12691e-08
9.51111e-08
9.49048e-08
9.26654e-08
9.10799e-08
9.04489e-08
8.85009e-08
8.73739e-08
8.6854e-08
8.6681e-08
8.705e-08
8.79774e-08
8.96173e-08
9.16521e-08
9.38778e-08
9.61858e-08
9.87423e-08
1.01196e-07
1.03172e-07
1.03278e-07
2.88243e-08
2.85569e-08
2.77424e-08
2.71911e-08
2.70232e-08
2.64431e-08
2.60746e-08
2.59827e-08
2.61887e-08
2.65635e-08
2.69432e-08
2.72086e-08
2.74107e-08
2.7741e-08
2.81055e-08
2.85743e-08
2.97152e-08
3.17113e-08
3.31034e-08
3.38269e-08
3.43205e-08
1.6643e-05
1.58956e-05
1.92273e-05
1.51712e-05
1.82644e-05
1.95679e-05
1.44136e-05
1.7362e-05
1.85088e-05
1.94674e-05
1.36492e-05
1.65272e-05
1.75408e-05
1.83179e-05
1.88229e-05
1.28113e-05
1.573e-05
1.67279e-05
1.73281e-05
1.76364e-05
1.79176e-05
1.18455e-05
1.48222e-05
1.59713e-05
1.66397e-05
1.66838e-05
1.67012e-05
1.68772e-05
1.06996e-05
1.36442e-05
1.50166e-05
1.59278e-05
1.60961e-05
1.58096e-05
1.56458e-05
1.57741e-05
9.41019e-06
1.21732e-05
1.36717e-05
1.48682e-05
1.53706e-05
1.52535e-05
1.48166e-05
1.45511e-05
1.47535e-05
8.07385e-06
1.05213e-05
1.19899e-05
1.33256e-05
1.41366e-05
1.43942e-05
1.4196e-05
1.37076e-05
1.34817e-05
1.37548e-05
6.75189e-06
8.81129e-06
1.01209e-05
1.14171e-05
1.23663e-05
1.2917e-05
1.30621e-05
1.286e-05
1.25212e-05
1.23842e-05
1.26582e-05
5.50232e-06
7.13819e-06
8.21327e-06
9.33429e-06
1.02497e-05
1.09111e-05
1.12649e-05
1.13626e-05
1.1275e-05
1.11004e-05
1.10173e-05
1.11443e-05
4.35341e-06
5.56477e-06
6.38055e-06
7.25898e-06
8.02239e-06
8.64392e-06
9.06217e-06
9.30559e-06
9.3884e-06
9.3737e-06
9.2605e-06
9.04601e-06
8.65377e-06
3.31311e-06
4.1554e-06
4.7191e-06
5.33588e-06
5.90222e-06
6.38653e-06
6.75967e-06
7.03101e-06
7.17809e-06
7.21177e-06
7.16494e-06
6.96927e-06
6.52242e-06
5.99282e-06
2.40625e-06
2.95076e-06
3.30174e-06
3.69404e-06
4.05398e-06
4.37925e-06
4.65574e-06
4.86611e-06
5.00086e-06
5.04859e-06
5.01564e-06
4.87768e-06
4.63691e-06
4.31308e-06
3.96358e-06
1.65091e-06
1.97764e-06
2.17692e-06
2.3948e-06
2.59591e-06
2.78025e-06
2.94185e-06
3.07466e-06
3.1612e-06
3.18612e-06
3.19747e-06
3.10308e-06
2.99771e-06
2.88145e-06
2.75786e-06
2.6219e-06
1.05708e-06
1.23961e-06
1.34125e-06
1.45222e-06
1.54942e-06
1.63902e-06
1.71766e-06
1.77925e-06
1.81476e-06
1.8409e-06
1.83778e-06
1.80696e-06
1.77745e-06
1.75026e-06
1.72366e-06
1.69477e-06
1.64775e-06
6.32795e-07
7.25477e-07
7.70765e-07
8.18858e-07
8.60629e-07
8.97092e-07
9.27065e-07
9.46798e-07
9.62777e-07
9.71407e-07
9.69664e-07
9.67073e-07
9.67109e-07
9.68048e-07
9.70467e-07
9.69488e-07
9.64296e-07
9.44738e-07
3.59882e-07
3.9935e-07
4.15903e-07
4.33843e-07
4.46702e-07
4.55555e-07
4.64804e-07
4.68806e-07
4.73734e-07
4.7364e-07
4.75268e-07
4.78994e-07
4.83911e-07
4.89765e-07
4.9544e-07
5.00653e-07
5.03564e-07
5.04712e-07
4.97e-07
1.96352e-07
2.09762e-07
2.09296e-07
2.09677e-07
2.12677e-07
2.14406e-07
2.13292e-07
2.118e-07
2.1117e-07
2.10486e-07
2.11385e-07
2.13518e-07
2.16605e-07
2.20145e-07
2.23689e-07
2.26938e-07
2.30212e-07
2.32958e-07
2.35405e-07
2.32066e-07
9.16465e-08
9.46252e-08
9.61612e-08
9.53739e-08
9.18008e-08
8.99058e-08
8.83998e-08
8.68387e-08
8.53164e-08
8.48406e-08
8.49765e-08
8.56908e-08
8.68732e-08
8.86176e-08
9.08317e-08
9.32638e-08
9.59651e-08
9.892e-08
1.01499e-07
1.0345e-07
1.03278e-07
2.99839e-08
2.95292e-08
2.8502e-08
2.74171e-08
2.67947e-08
2.63784e-08
2.58839e-08
2.57468e-08
2.58143e-08
2.60241e-08
2.62625e-08
2.64451e-08
2.65552e-08
2.68744e-08
2.73112e-08
2.77321e-08
2.85656e-08
3.05262e-08
3.24673e-08
3.38429e-08
3.46789e-08
3.51634e-08
1.7242e-05
1.65387e-05
1.99291e-05
1.587e-05
1.90207e-05
2.03162e-05
1.51977e-05
1.81734e-05
1.931e-05
2.02381e-05
1.45446e-05
1.74377e-05
1.83898e-05
1.91257e-05
1.96055e-05
1.38322e-05
1.67979e-05
1.76782e-05
1.8172e-05
1.84306e-05
1.87207e-05
1.30012e-05
1.60978e-05
1.71239e-05
1.76202e-05
1.75062e-05
1.74865e-05
1.77021e-05
1.19754e-05
1.51429e-05
1.64508e-05
1.71757e-05
1.71083e-05
1.66265e-05
1.64375e-05
1.66768e-05
1.07658e-05
1.38512e-05
1.53895e-05
1.64765e-05
1.67371e-05
1.63345e-05
1.56728e-05
1.54089e-05
1.57343e-05
9.45726e-06
1.23063e-05
1.39248e-05
1.52807e-05
1.59423e-05
1.59194e-05
1.54102e-05
1.4688e-05
1.44807e-05
1.49064e-05
8.11258e-06
1.06181e-05
1.21651e-05
1.36147e-05
1.45539e-05
1.49355e-05
1.48114e-05
1.42918e-05
1.37278e-05
1.36091e-05
1.41676e-05
6.79112e-06
8.8877e-06
1.02476e-05
1.16227e-05
1.26616e-05
1.32987e-05
1.35079e-05
1.33519e-05
1.30186e-05
1.26765e-05
1.26251e-05
1.32377e-05
5.54378e-06
7.19882e-06
8.30449e-06
9.47454e-06
1.04521e-05
1.11755e-05
1.15759e-05
1.17002e-05
1.1615e-05
1.14609e-05
1.12904e-05
1.12286e-05
1.10814e-05
4.39356e-06
5.61158e-06
6.43976e-06
7.34339e-06
8.14374e-06
8.80717e-06
9.26125e-06
9.53214e-06
9.61706e-06
9.58324e-06
9.48919e-06
9.31468e-06
8.79766e-06
8.25443e-06
3.3451e-06
4.18742e-06
4.75416e-06
5.37871e-06
5.95849e-06
6.46457e-06
6.86161e-06
7.14714e-06
7.30821e-06
7.34316e-06
7.27118e-06
7.11669e-06
6.73987e-06
6.20736e-06
5.60733e-06
2.42981e-06
2.97187e-06
3.32011e-06
3.71022e-06
4.07177e-06
4.40152e-06
4.6865e-06
4.91002e-06
5.05069e-06
5.10217e-06
5.07563e-06
4.93505e-06
4.70801e-06
4.44261e-06
4.11436e-06
3.81594e-06
1.66051e-06
1.9831e-06
2.18102e-06
2.39782e-06
2.59537e-06
2.77758e-06
2.93927e-06
3.07156e-06
3.16227e-06
3.18837e-06
3.20443e-06
3.11356e-06
3.01041e-06
2.90542e-06
2.79828e-06
2.69578e-06
2.5804e-06
1.05863e-06
1.23859e-06
1.3388e-06
1.44538e-06
1.54141e-06
1.62861e-06
1.70414e-06
1.76375e-06
1.79666e-06
1.83009e-06
1.82209e-06
1.79466e-06
1.76766e-06
1.74145e-06
1.72113e-06
1.69986e-06
1.67507e-06
1.63375e-06
6.36641e-07
7.27973e-07
7.70925e-07
8.15981e-07
8.52433e-07
8.87237e-07
9.13286e-07
9.32448e-07
9.49937e-07
9.53894e-07
9.52479e-07
9.50857e-07
9.51456e-07
9.5372e-07
9.56948e-07
9.60183e-07
9.59356e-07
9.55099e-07
9.38173e-07
3.67539e-07
4.04099e-07
4.15688e-07
4.32097e-07
4.45191e-07
4.53334e-07
4.57945e-07
4.60639e-07
4.63492e-07
4.61947e-07
4.63565e-07
4.66927e-07
4.71931e-07
4.78067e-07
4.84367e-07
4.90007e-07
4.95364e-07
4.99042e-07
5.01455e-07
4.94665e-07
2.02831e-07
2.16429e-07
2.15157e-07
2.11987e-07
2.0997e-07
2.11732e-07
2.11195e-07
2.08888e-07
2.06126e-07
2.05144e-07
2.05463e-07
2.07207e-07
2.10008e-07
2.13498e-07
2.17166e-07
2.20769e-07
2.24244e-07
2.28079e-07
2.31543e-07
2.34305e-07
2.30714e-07
9.1037e-08
9.32425e-08
9.49852e-08
9.59256e-08
9.39981e-08
8.97654e-08
8.70228e-08
8.62017e-08
8.44037e-08
8.31305e-08
8.30197e-08
8.35248e-08
8.45092e-08
8.59665e-08
8.7806e-08
9.02097e-08
9.30419e-08
9.60083e-08
9.91777e-08
1.01814e-07
1.03481e-07
1.02985e-07
3.12788e-08
3.05502e-08
2.93275e-08
2.79615e-08
2.68062e-08
2.62397e-08
2.57607e-08
2.53193e-08
2.5339e-08
2.54423e-08
2.55849e-08
2.56903e-08
2.57083e-08
2.59335e-08
2.62946e-08
2.68147e-08
2.76947e-08
2.94158e-08
3.14838e-08
3.3178e-08
3.46144e-08
3.54576e-08
3.5925e-08
1.77584e-05
1.70964e-05
2.05335e-05
1.64756e-05
1.96716e-05
2.09636e-05
1.58784e-05
1.88713e-05
1.99999e-05
2.09015e-05
1.53302e-05
1.82175e-05
1.91179e-05
1.98189e-05
2.02862e-05
1.4742e-05
1.77142e-05
1.84778e-05
1.88865e-05
1.91095e-05
1.94157e-05
1.40511e-05
1.72079e-05
1.80911e-05
1.84245e-05
1.81804e-05
1.81514e-05
1.84145e-05
1.31611e-05
1.6484e-05
1.76811e-05
1.81953e-05
1.79064e-05
1.72663e-05
1.70897e-05
1.74475e-05
1.2055e-05
1.54065e-05
1.69196e-05
1.78336e-05
1.78255e-05
1.71524e-05
1.63042e-05
1.61139e-05
1.65292e-05
1.08127e-05
1.40253e-05
1.57287e-05
1.70205e-05
1.74543e-05
1.71153e-05
1.62972e-05
1.53993e-05
1.52372e-05
1.58673e-05
9.49085e-06
1.24306e-05
1.41668e-05
1.56869e-05
1.65194e-05
1.66383e-05
1.61795e-05
1.53392e-05
1.46004e-05
1.45323e-05
1.54494e-05
8.14486e-06
1.07124e-05
1.23417e-05
1.39134e-05
1.49922e-05
1.54983e-05
1.54511e-05
1.49602e-05
1.43401e-05
1.38622e-05
1.39387e-05
1.51598e-05
6.82897e-06
8.96128e-06
1.03767e-05
1.18355e-05
1.2981e-05
1.37183e-05
1.3998e-05
1.38804e-05
1.35334e-05
1.31707e-05
1.29346e-05
1.31529e-05
1.35394e-05
5.58123e-06
7.25746e-06
8.39116e-06
9.6151e-06
1.06613e-05
1.14645e-05
1.19307e-05
1.20904e-05
1.20108e-05
1.18147e-05
1.16513e-05
1.15735e-05
1.11518e-05
1.0916e-05
4.43223e-06
5.65396e-06
6.49506e-06
7.42138e-06
8.26091e-06
8.97148e-06
9.47415e-06
9.78535e-06
9.88301e-06
9.84016e-06
9.70003e-06
9.56281e-06
9.10471e-06
8.49939e-06
7.73569e-06
3.3806e-06
4.21953e-06
4.78608e-06
5.41747e-06
6.00821e-06
6.53579e-06
6.96077e-06
7.26893e-06
7.45014e-06
7.49529e-06
7.40919e-06
7.25325e-06
6.89082e-06
6.45218e-06
5.83368e-06
5.29732e-06
2.4503e-06
2.98774e-06
3.33617e-06
3.7246e-06
4.08578e-06
4.41872e-06
4.71064e-06
4.94677e-06
5.09848e-06
5.15163e-06
5.14071e-06
5.00481e-06
4.77274e-06
4.52447e-06
4.23967e-06