/*--------------------------------*- C++ -*----------------------------------*\
| =========                 |                                                 |
| \\      /  F ield         | OpenFOAM: The Open Source CFD Toolbox           |
|  \\    /   O peration     | Version:  v2012                                 |
|   \\  /    A nd           | Website:  www.openfoam.com                      |
|    \\/     M anipulation  |                                                 |
\*---------------------------------------------------------------------------*/
FoamFile
{
    version     2.0;
    format      ascii;
    class       volScalarField;
    location    "15001";
    object      nk;
}
// * * * * * * * * * * * * * * * * * * * * * * * * * * * * * * * * * * * * * //

dimensions      [0 0 0 0 0 0 0];


internalField   nonuniform List<scalar> 
294912
(
5.68741e-06
8.66645e-07
5.6785e-06
5.62667e-06
3.37359e-07
8.62407e-07
8.4939e-07
5.67175e-06
5.61838e-06
5.57554e-06
2.02244e-07
3.34821e-07
3.3122e-07
8.58591e-07
8.45622e-07
8.35441e-07
5.66654e-06
5.61195e-06
5.5679e-06
5.5325e-06
1.52148e-07
2.00655e-07
2.03371e-07
3.32495e-07
3.29046e-07
3.28431e-07
8.5403e-07
8.42306e-07
8.32088e-07
8.24362e-07
5.66012e-06
5.60362e-06
5.56192e-06
5.52594e-06
5.49659e-06
1.29568e-07
1.51172e-07
1.58261e-07
1.99202e-07
2.02104e-07
2.08348e-07
3.29628e-07
3.27119e-07
3.26603e-07
3.29329e-07
8.47974e-07
8.37694e-07
8.29258e-07
8.21469e-07
8.16208e-07
5.65051e-06
5.58768e-06
5.55138e-06
5.5215e-06
5.4913e-06
5.46658e-06
1.17986e-07
1.28984e-07
1.3879e-07
1.50283e-07
1.57546e-07
1.67964e-07
1.97454e-07
2.00986e-07
2.07372e-07
2.17171e-07
3.25856e-07
3.24577e-07
3.25064e-07
3.27841e-07
3.34166e-07
8.4087e-07
8.30552e-07
8.24888e-07
8.19268e-07
8.13779e-07
8.11184e-07
5.63582e-06
5.56311e-06
5.5292e-06
5.51182e-06
5.48901e-06
5.46266e-06
5.44191e-06
1.11413e-07
1.17649e-07
1.29033e-07
1.28457e-07
1.384e-07
1.51035e-07
1.49245e-07
1.56922e-07
1.67463e-07
1.80861e-07
1.95227e-07
1.99595e-07
2.06556e-07
2.16446e-07
2.29512e-07
3.21559e-07
3.20944e-07
3.22955e-07
3.26691e-07
3.32993e-07
3.42858e-07
8.32499e-07
8.21507e-07
8.17418e-07
8.15582e-07
8.12229e-07
8.09192e-07
8.0955e-07
5.61434e-06
5.5292e-06
5.49484e-06
5.4882e-06
5.48193e-06
5.46282e-06
5.43941e-06
5.42136e-06
1.07346e-07
1.1123e-07
1.23483e-07
1.17349e-07
1.28832e-07
1.42566e-07
1.27855e-07
1.38067e-07
1.50791e-07
1.65763e-07
1.47965e-07
1.56174e-07
1.67056e-07
1.80527e-07
1.96336e-07
1.92743e-07
1.9772e-07
2.05527e-07
2.15898e-07
2.28996e-07
2.4472e-07
3.16747e-07
3.16602e-07
3.19736e-07
3.2511e-07
3.32206e-07
3.41971e-07
3.54914e-07
8.22695e-07
8.10514e-07
8.07524e-07
8.08642e-07
8.09499e-07
8.08268e-07
8.07966e-07
8.11382e-07
5.58482e-06
5.48512e-06
5.44782e-06
5.45037e-06
5.45991e-06
5.45904e-06
5.44194e-06
5.42017e-06
5.40437e-06
1.04642e-07
1.07263e-07
1.19963e-07
1.11073e-07
1.23394e-07
1.37621e-07
1.1701e-07
1.28669e-07
1.42461e-07
1.58026e-07
1.27129e-07
1.37677e-07
1.50606e-07
1.65623e-07
1.82328e-07
1.46562e-07
1.55208e-07
1.66564e-07
1.80295e-07
1.96125e-07
2.13631e-07
1.90047e-07
1.9556e-07
2.04071e-07
2.15218e-07
2.28673e-07
2.44371e-07
2.619e-07
3.11418e-07
3.11614e-07
3.15753e-07
3.22533e-07
3.3118e-07
3.41509e-07
3.54273e-07
3.69472e-07
8.11326e-07
7.97604e-07
7.95279e-07
7.99045e-07
8.03678e-07
8.06664e-07
8.07625e-07
8.10183e-07
8.16391e-07
5.54606e-06
5.43058e-06
5.38825e-06
5.39817e-06
5.42256e-06
5.44089e-06
5.4422e-06
5.42469e-06
5.40402e-06
5.39135e-06
1.02738e-07
1.04623e-07
1.17522e-07
1.07197e-07
1.19942e-07
1.34335e-07
1.10895e-07
1.23334e-07
1.37595e-07
1.53301e-07
1.16606e-07
1.2848e-07
1.42401e-07
1.57987e-07
1.74861e-07
1.26343e-07
1.37181e-07
1.50386e-07
1.65553e-07
1.82261e-07
2.00072e-07
1.45075e-07
1.54122e-07
1.65894e-07
1.80019e-07
1.96033e-07
2.1351e-07
2.31922e-07
1.87161e-07
1.93173e-07
2.02351e-07
2.142e-07
2.28304e-07
2.44237e-07
2.61681e-07
2.80047e-07
3.05582e-07
3.06029e-07
3.11093e-07
3.19235e-07
3.29363e-07
3.41025e-07
3.54096e-07
3.69047e-07
3.85439e-07
7.98322e-07
7.82828e-07
7.80834e-07
7.86939e-07
7.95199e-07
8.02436e-07
8.07278e-07
8.10348e-07
8.15553e-07
8.2394e-07
5.49736e-06
5.36565e-06
5.31671e-06
5.332e-06
5.37015e-06
5.40724e-06
5.42908e-06
5.42902e-06
5.41086e-06
5.39215e-06
5.3838e-06
1.01345e-07
1.02762e-07
1.15719e-07
1.04618e-07
1.17544e-07
1.31926e-07
1.07121e-07
1.19947e-07
1.34356e-07
1.49976e-07
1.10681e-07
1.23262e-07
1.37607e-07
1.5332e-07
1.70043e-07
1.16172e-07
1.28236e-07
1.42325e-07
1.58004e-07
1.74868e-07
1.92508e-07
1.25526e-07
1.36632e-07
1.50082e-07
1.65468e-07
1.82281e-07
2.00054e-07
2.18338e-07
1.43525e-07
1.52958e-07
1.65125e-07
1.79609e-07
1.95934e-07
2.13531e-07
2.31865e-07
2.5038e-07
1.84105e-07
1.90595e-07
2.00424e-07
2.12966e-07
2.27697e-07
2.44135e-07
2.61704e-07
2.79928e-07
2.98151e-07
2.99262e-07
2.99912e-07
3.05833e-07
3.15298e-07
3.2692e-07
3.39997e-07
3.54117e-07
3.69116e-07
3.85194e-07
4.01671e-07
7.83665e-07
7.66334e-07
7.64387e-07
7.72525e-07
7.84227e-07
7.95715e-07
8.04967e-07
8.11309e-07
8.1617e-07
8.23404e-07
8.33049e-07
5.43825e-06
5.29112e-06
5.23408e-06
5.25284e-06
5.30322e-06
5.35817e-06
5.40078e-06
5.42245e-06
5.42069e-06
5.40045e-06
5.38516e-06
5.38263e-06
1.00308e-07
1.014e-07
1.14342e-07
1.028e-07
1.15768e-07
1.3005e-07
1.04609e-07
1.17592e-07
1.31975e-07
1.47385e-07
1.07023e-07
1.19947e-07
1.34414e-07
1.50024e-07
1.66432e-07
1.1045e-07
1.23158e-07
1.37614e-07
1.53389e-07
1.70088e-07
1.87373e-07
1.15724e-07
1.27964e-07
1.42204e-07
1.58018e-07
1.7495e-07
1.92547e-07
2.10459e-07
1.2469e-07
1.36055e-07
1.49735e-07
1.65318e-07
1.82305e-07
2.00151e-07
2.18355e-07
2.36481e-07
1.41925e-07
1.51736e-07
1.64294e-07
1.79126e-07
1.95741e-07
2.13576e-07
2.3198e-07
2.5037e-07
2.68226e-07
1.80905e-07
1.87861e-07
1.9833e-07
2.11564e-07
2.26929e-07
2.43887e-07
2.61828e-07
2.80085e-07
2.98106e-07
3.15349e-07
2.92491e-07
2.93342e-07
3.00068e-07
3.10805e-07
3.23923e-07
3.38473e-07
3.53847e-07
3.69586e-07
3.8548e-07
4.01573e-07
4.17162e-07
7.67394e-07
7.48297e-07
7.46206e-07
7.56082e-07
7.70984e-07
7.86628e-07
8.00474e-07
8.11183e-07
8.18442e-07
8.2441e-07
8.32763e-07
8.42618e-07
5.36839e-06
5.20758e-06
5.14154e-06
5.16202e-06
5.22301e-06
5.29437e-06
5.35736e-06
5.4015e-06
5.42185e-06
5.41603e-06
5.39486e-06
5.38465e-06
5.38933e-06
9.95394e-08
1.00385e-07
1.13287e-07
1.0147e-07
1.1441e-07
1.28562e-07
1.02838e-07
1.15848e-07
1.30116e-07
1.45276e-07
1.04586e-07
1.1764e-07
1.32064e-07
1.4745e-07
1.63487e-07
1.06915e-07
1.19928e-07
1.34473e-07
1.50127e-07
1.66501e-07
1.83331e-07
1.10213e-07
1.23038e-07
1.37594e-07
1.53461e-07
1.7021e-07
1.87441e-07
2.04867e-07
1.15275e-07
1.27681e-07
1.42061e-07
1.57995e-07
1.7504e-07
1.92688e-07
2.10519e-07
2.28199e-07
1.23846e-07
1.35465e-07
1.4937e-07
1.65138e-07
1.82279e-07
2.00265e-07
2.18517e-07
2.36522e-07
2.53873e-07
1.40291e-07
1.50476e-07
1.63421e-07
1.78602e-07
1.955e-07
2.13561e-07
2.32147e-07
2.50565e-07
2.68249e-07
2.8481e-07
1.77587e-07
1.85012e-07
1.96109e-07
2.1003e-07
2.26041e-07
2.43534e-07
2.61884e-07
2.80398e-07
2.98377e-07
3.1536e-07
3.30972e-07
2.8533e-07
2.86409e-07
2.93904e-07
3.05861e-07
3.20444e-07
3.36498e-07
3.5322e-07
3.70003e-07
3.86334e-07
4.02046e-07
4.17176e-07
4.31178e-07
7.49588e-07
7.28966e-07
7.26581e-07
7.37958e-07
7.55777e-07
7.75404e-07
7.93872e-07
8.09258e-07
8.20599e-07
8.27921e-07
8.34092e-07
8.42568e-07
8.51789e-07
5.2877e-06
5.11577e-06
5.04088e-06
5.06136e-06
5.13085e-06
5.21713e-06
5.29941e-06
5.36588e-06
5.40977e-06
5.42747e-06
5.41712e-06
5.39493e-06
5.39107e-06
5.40322e-06
9.89854e-08
9.96315e-08
1.12499e-07
1.00478e-07
1.13365e-07
1.27398e-07
1.01542e-07
1.14513e-07
1.28636e-07
1.43558e-07
1.02868e-07
1.15932e-07
1.30229e-07
1.45347e-07
1.61012e-07
1.04557e-07
1.17678e-07
1.32161e-07
1.47577e-07
1.63564e-07
1.79888e-07
1.06803e-07
1.19898e-07
1.34516e-07
1.50239e-07
1.66648e-07
1.83407e-07
2.00253e-07
1.09978e-07
1.22913e-07
1.37559e-07
1.53509e-07
1.70343e-07
1.87613e-07
2.04944e-07
2.22113e-07
1.14828e-07
1.27398e-07
1.41911e-07
1.57954e-07
1.75098e-07
1.92846e-07
2.10713e-07
2.28272e-07
2.45196e-07
1.23001e-07
1.3487e-07
1.48999e-07
1.6495e-07
1.82233e-07
2.00343e-07
2.18712e-07
2.36741e-07
2.53932e-07
2.69938e-07
1.38637e-07
1.49195e-07
1.62523e-07
1.78055e-07
1.95241e-07
2.1352e-07
2.32278e-07
2.50835e-07
2.68513e-07
2.84854e-07
2.99659e-07
1.74183e-07
1.82086e-07
1.93799e-07
2.08399e-07
2.25059e-07
2.43111e-07
2.61886e-07
2.80703e-07
2.98848e-07
3.15725e-07
3.31017e-07
3.4462e-07
2.77856e-07
2.79213e-07
2.87451e-07
3.00574e-07
3.16575e-07
3.3413e-07
3.52259e-07
3.70196e-07
3.87337e-07
4.03214e-07
4.17804e-07
4.31269e-07
4.43335e-07
7.30366e-07
7.08604e-07
7.05907e-07
7.18526e-07
7.3896e-07
7.62332e-07
7.85318e-07
8.05538e-07
8.21412e-07
8.32286e-07
8.38668e-07
8.44162e-07
8.51873e-07
8.59997e-07
5.19609e-06
5.01685e-06
4.93376e-06
4.95301e-06
5.02904e-06
5.12814e-06
5.22862e-06
5.31656e-06
5.3846e-06
5.42751e-06
5.44125e-06
5.42449e-06
5.40204e-06
5.40498e-06
5.42144e-06
9.86092e-08
9.90864e-08
1.11945e-07
9.97434e-08
1.12581e-07
1.26533e-07
1.00578e-07
1.13487e-07
1.27474e-07
1.4221e-07
1.0161e-07
1.14626e-07
1.28768e-07
1.43627e-07
1.58973e-07
1.02892e-07
1.16012e-07
1.30356e-07
1.45491e-07
1.61085e-07
1.76931e-07
1.04525e-07
1.17708e-07
1.32248e-07
1.4772e-07
1.63728e-07
1.79953e-07
1.96202e-07
1.06693e-07
1.19865e-07
1.34547e-07
1.50334e-07
1.66812e-07
1.836e-07
2.00329e-07
2.16896e-07
1.09748e-07
1.2279e-07
1.37522e-07
1.53544e-07
1.70453e-07
1.87803e-07
2.05165e-07
2.2219e-07
2.3867e-07
1.14388e-07
1.27119e-07
1.41764e-07
1.57915e-07
1.75143e-07
1.92976e-07
2.10934e-07
2.28515e-07
2.45278e-07
2.60908e-07
1.22161e-07
1.34278e-07
1.48631e-07
1.64766e-07
1.82192e-07
2.00411e-07
2.18879e-07
2.37007e-07
2.54202e-07
2.70008e-07
2.84289e-07
1.36978e-07
1.47908e-07
1.61615e-07
1.77498e-07
1.94978e-07
2.13483e-07
2.32403e-07
2.51089e-07
2.68873e-07
2.85176e-07
2.99714e-07
3.12502e-07
1.70734e-07
1.79124e-07
1.91444e-07
2.06705e-07
2.2401e-07
2.42632e-07
2.61863e-07
2.80998e-07
2.99358e-07
3.16326e-07
3.31459e-07
3.44682e-07
3.5615e-07
2.70151e-07
2.71871e-07
2.80832e-07
2.95061e-07
3.12415e-07
3.31438e-07
3.50994e-07
3.70168e-07
3.88234e-07
4.04685e-07
4.19215e-07
4.3202e-07
4.43475e-07
4.53572e-07
7.09866e-07
6.87514e-07
6.84589e-07
6.98191e-07
7.20959e-07
7.47773e-07
7.75078e-07
8.00124e-07
8.20784e-07
8.35764e-07
8.44972e-07
8.49559e-07
8.53699e-07
8.60197e-07
8.67129e-07
5.09371e-06
4.91214e-06
4.82229e-06
4.8394e-06
4.91995e-06
5.02997e-06
5.14651e-06
5.25473e-06
5.3466e-06
5.41559e-06
5.45637e-06
5.46354e-06
5.43933e-06
5.41591e-06
5.42304e-06
5.44026e-06
9.8382e-08
9.87129e-08
1.116e-07
9.9212e-08
1.12022e-07
1.2595e-07
9.98646e-08
1.12717e-07
1.266e-07
1.41234e-07
1.00678e-07
1.13626e-07
1.27621e-07
1.42266e-07
1.57393e-07
1.01677e-07
1.14741e-07
1.28922e-07
1.43785e-07
1.59031e-07
1.74507e-07
1.02915e-07
1.16086e-07
1.3048e-07
1.45661e-07
1.6126e-07
1.76964e-07
1.92698e-07
1.04494e-07
1.17734e-07
1.32326e-07
1.47851e-07
1.63918e-07
1.80158e-07
1.96252e-07
2.12208e-07
1.06588e-07
1.19834e-07
1.34576e-07
1.50418e-07
1.66958e-07
1.83817e-07
2.00566e-07
2.16954e-07
2.32915e-07
1.09525e-07
1.22674e-07
1.3749e-07
1.53579e-07
1.7055e-07
1.8797e-07
2.05409e-07
2.22455e-07
2.38742e-07
2.54035e-07
1.13957e-07
1.26849e-07
1.41626e-07
1.57885e-07
1.75193e-07
1.93097e-07
2.1113e-07
2.28792e-07
2.45566e-07
2.60997e-07
2.74949e-07
1.21332e-07
1.33695e-07
1.48272e-07
1.64591e-07
1.82164e-07
2.00493e-07
2.19043e-07
2.37252e-07
2.5453e-07
2.70323e-07
2.84367e-07
2.96662e-07
1.35328e-07
1.4663e-07
1.6071e-07
1.76939e-07
1.94717e-07
2.13462e-07
2.32554e-07
2.51353e-07
2.6923e-07
2.85612e-07
3.00082e-07
3.12556e-07
3.23275e-07
1.67277e-07
1.7617e-07
1.8908e-07
2.0498e-07
2.22916e-07
2.42112e-07
2.61822e-07
2.81311e-07
2.99896e-07
3.17e-07
3.32164e-07
3.45179e-07
3.56213e-07
3.65648e-07
2.62304e-07
2.645e-07
2.74175e-07
2.89435e-07
3.08069e-07
3.285e-07
3.49473e-07
3.69926e-07
3.89014e-07
4.06152e-07
4.21037e-07
4.33612e-07
4.44312e-07
4.53729e-07
4.62099e-07
6.88298e-07
6.66017e-07
6.63022e-07
6.77449e-07
7.02188e-07
7.32121e-07
7.63463e-07
7.93189e-07
8.18724e-07
8.38171e-07
8.50818e-07
8.57359e-07
8.59677e-07
8.62177e-07
8.67386e-07
8.73412e-07
4.9811e-06
4.80265e-06
4.70839e-06
4.72304e-06
4.80646e-06
4.92492e-06
5.05505e-06
5.1818e-06
5.2961e-06
5.39165e-06
5.46121e-06
5.4968e-06
5.49322e-06
5.45898e-06
5.43405e-06
5.44166e-06
5.4568e-06
9.82784e-08
9.8482e-08
1.1144e-07
9.88473e-08
1.11662e-07
1.25634e-07
9.93509e-08
1.12167e-07
1.25997e-07
1.40632e-07
9.9992e-08
1.12877e-07
1.26758e-07
1.41264e-07
1.56308e-07
1.00778e-07
1.13773e-07
1.278e-07
1.42436e-07
1.5742e-07
1.72703e-07
1.0174e-07
1.14853e-07
1.29081e-07
1.43981e-07
1.59214e-07
1.74484e-07
1.89883e-07
1.02938e-07
1.16157e-07
1.30597e-07
1.45827e-07
1.61474e-07
1.77176e-07
1.92702e-07
2.08151e-07
1.04466e-07
1.17762e-07
1.32401e-07
1.47974e-07
1.64095e-07
1.80398e-07
1.96495e-07
2.12216e-07
2.27664e-07
1.06489e-07
1.19808e-07
1.34609e-07
1.50502e-07
1.67093e-07
1.84011e-07
2.0083e-07
2.17231e-07
2.32946e-07
2.47876e-07
1.0931e-07
1.22565e-07
1.37465e-07
1.53623e-07
1.70651e-07
1.88127e-07
2.05631e-07
2.22747e-07
2.39048e-07
2.54112e-07
2.67783e-07
1.13538e-07
1.26589e-07
1.41498e-07
1.57866e-07
1.75258e-07
1.93231e-07
2.1132e-07
2.29047e-07
2.45893e-07
2.61325e-07
2.75052e-07
2.87007e-07
1.20519e-07
1.33125e-07
1.47923e-07
1.64428e-07
1.82154e-07
2.00601e-07
2.19234e-07
2.375e-07
2.54842e-07
2.70705e-07
2.84717e-07
2.9674e-07
3.0702e-07
1.33704e-07
1.45375e-07
1.59818e-07
1.76387e-07
1.94465e-07
2.13457e-07
2.32739e-07
2.51664e-07
2.69611e-07
2.86056e-07
3.0058e-07
3.12957e-07
3.23318e-07
3.32087e-07
1.63856e-07
1.73265e-07
1.86746e-07
2.03255e-07
2.21801e-07
2.41565e-07
2.61767e-07
2.81642e-07
3.0049e-07
3.17732e-07
3.32964e-07
3.45963e-07
3.56747e-07
3.65698e-07
3.7337e-07
2.54421e-07
2.57213e-07
2.67605e-07
2.8382e-07
3.03636e-07
3.25399e-07
3.47747e-07
3.69489e-07
3.89666e-07
4.07594e-07
4.22937e-07
4.3568e-07
4.46023e-07
4.54624e-07
4.62252e-07
4.69303e-07
6.65899e-07
6.44425e-07
6.41622e-07
6.56753e-07
6.8313e-07
7.15777e-07
7.5082e-07
7.84986e-07
8.15353e-07
8.39434e-07
8.55942e-07
8.65066e-07
8.68469e-07
8.6846e-07
8.69475e-07
8.73689e-07
8.79261e-07
4.85844e-06
4.68954e-06
4.59418e-06
4.60667e-06
4.6912e-06
4.81563e-06
4.95717e-06
5.10013e-06
5.23528e-06
5.35681e-06
5.45626e-06
5.52264e-06
5.54518e-06
5.52606e-06
5.48017e-06
5.45238e-06
5.45723e-06
5.47093e-06
9.82754e-08
9.83686e-08
1.1144e-07
9.86199e-08
1.11478e-07
1.25565e-07
9.9e-08
1.11811e-07
1.2565e-07
1.40394e-07
9.95016e-08
1.12347e-07
1.26162e-07
1.40621e-07
1.55735e-07
1.00122e-07
1.13055e-07
1.26961e-07
1.41442e-07
1.56292e-07
1.71579e-07
1.00876e-07
1.1392e-07
1.27994e-07
1.42659e-07
1.57614e-07
1.72617e-07
1.87891e-07
1.01803e-07
1.14962e-07
1.29236e-07
1.44184e-07
1.59453e-07
1.74704e-07
1.89831e-07
2.04977e-07
1.02962e-07
1.16229e-07
1.30712e-07
1.45987e-07
1.61684e-07
1.7744e-07
1.92943e-07
2.08083e-07
2.2314e-07
1.04442e-07
1.17795e-07
1.32481e-07
1.48096e-07
1.64263e-07
1.80617e-07
1.96776e-07
2.1249e-07
2.27608e-07
2.42231e-07
1.06395e-07
1.19789e-07
1.34649e-07
1.50592e-07
1.6723e-07
1.84196e-07
2.01071e-07
2.17533e-07
2.33256e-07
2.47879e-07
2.61315e-07
1.09104e-07
1.22464e-07
1.37449e-07
1.53676e-07
1.70764e-07
1.88291e-07
2.05843e-07
2.23016e-07
2.39378e-07
2.54457e-07
2.67869e-07
2.79526e-07
1.13131e-07
1.26339e-07
1.4138e-07
1.57858e-07
1.7534e-07
1.93386e-07
2.11528e-07
2.29298e-07
2.46198e-07
2.61694e-07
2.75414e-07
2.87119e-07
2.97052e-07
1.19728e-07
1.32573e-07
1.47586e-07
1.64277e-07
1.8216e-07
2.00733e-07
2.19461e-07
2.37787e-07
2.55162e-07
2.71074e-07
2.85143e-07
2.97116e-07
3.07087e-07
3.15472e-07
1.32122e-07
1.44156e-07
1.58951e-07
1.75847e-07
1.94221e-07
2.13468e-07
2.32953e-07
2.52027e-07
2.70059e-07
2.86538e-07
3.01093e-07
3.13502e-07
3.23739e-07
3.32111e-07
3.39174e-07
1.60511e-07
1.70448e-07
1.84478e-07
2.0156e-07
2.20685e-07
2.41002e-07
2.61701e-07
2.81984e-07
3.01135e-07
3.18555e-07
3.3385e-07
3.46858e-07
3.57585e-07
3.66251e-07
3.73398e-07
3.79679e-07
2.46609e-07
2.50125e-07
2.61234e-07
2.78328e-07
2.99218e-07
3.22216e-07
3.45873e-07
3.68888e-07
3.90185e-07
4.0898e-07
4.24889e-07
4.37884e-07
4.48245e-07
4.56403e-07
4.63176e-07
4.69433e-07
4.75658e-07
6.42936e-07
6.2307e-07
6.20785e-07
6.36529e-07
6.64241e-07
6.99196e-07
7.37522e-07
7.75832e-07
8.10842e-07
8.39602e-07
8.60219e-07
8.72371e-07
8.77416e-07
8.77764e-07
8.75867e-07
8.75834e-07
8.79509e-07
8.8521e-07
4.72583e-06
4.57385e-06
4.48165e-06
4.49289e-06
4.57691e-06
4.7051e-06
4.85532e-06
5.01201e-06
5.16624e-06
5.31193e-06
5.44072e-06
5.53905e-06
5.59187e-06
5.59377e-06
5.5548e-06
5.49847e-06
5.46756e-06
5.47102e-06
5.48078e-06
9.8351e-08
9.83504e-08
1.11575e-07
9.8505e-08
1.11447e-07
1.25715e-07
9.87826e-08
1.11625e-07
1.25538e-07
1.405e-07
9.91706e-08
1.12007e-07
1.25814e-07
1.40329e-07
1.55668e-07
9.96581e-08
1.12553e-07
1.26387e-07
1.40802e-07
1.55659e-07
1.7115e-07
1.0025e-07
1.13237e-07
1.27191e-07
1.41694e-07
1.56489e-07
1.71416e-07
1.86798e-07
1.00973e-07
1.14065e-07
1.28189e-07
1.42901e-07
1.57881e-07
1.72837e-07
1.87765e-07
2.02866e-07
1.01868e-07
1.15072e-07
1.2939e-07
1.44384e-07
1.597e-07
1.75001e-07
1.9007e-07
2.04814e-07
2.19714e-07
1.0299e-07
1.16305e-07
1.30831e-07
1.46147e-07
1.61888e-07
1.77687e-07
1.93243e-07
2.08346e-07
2.22968e-07
2.37439e-07
1.04422e-07
1.17833e-07
1.32566e-07
1.48225e-07
1.64433e-07
1.8083e-07
1.97034e-07
2.128e-07
2.27902e-07
2.42112e-07
2.55446e-07
1.06307e-07
1.19775e-07
1.34696e-07
1.50691e-07
1.67375e-07
1.84387e-07
2.01304e-07
2.17811e-07
2.33582e-07
2.48222e-07
2.61309e-07
2.72786e-07
1.08906e-07
1.2237e-07
1.37441e-07
1.53739e-07
1.7089e-07
1.8847e-07
2.06065e-07
2.23275e-07
2.39685e-07
2.54818e-07
2.68249e-07
2.79642e-07
2.89211e-07
1.12738e-07
1.261e-07
1.41272e-07
1.57862e-07
1.75437e-07
1.93561e-07
2.11764e-07
2.29572e-07
2.46499e-07
2.62043e-07
2.75817e-07
2.87509e-07
2.97165e-07
3.05207e-07
1.18962e-07
1.32041e-07
1.47264e-07
1.64137e-07
1.8218e-07
2.00888e-07
2.19721e-07
2.38119e-07
2.5553e-07
2.71456e-07
2.85556e-07
2.97572e-07
3.07478e-07
3.15519e-07
3.22232e-07
1.30596e-07
1.42986e-07
1.58114e-07
1.75325e-07
1.93987e-07
2.13491e-07
2.33193e-07
2.52434e-07
2.70575e-07
2.87105e-07
3.01655e-07
3.14067e-07
3.24314e-07
3.32539e-07
3.39174e-07
3.44853e-07
1.57284e-07
1.67755e-07
1.82304e-07
1.9992e-07
2.19586e-07
2.40434e-07
2.61624e-07
2.82332e-07
3.01815e-07
3.19456e-07
3.34856e-07
3.47859e-07
3.58545e-07
3.6712e-07
3.73953e-07
3.79674e-07
3.84979e-07
2.38986e-07
2.43337e-07
2.55163e-07
2.73051e-07
2.94905e-07
3.19027e-07
3.43907e-07
3.68155e-07
3.90581e-07
4.10297e-07
4.26851e-07
4.40201e-07
4.50647e-07
4.58707e-07
4.64986e-07
4.70362e-07
4.7575e-07
4.81647e-07
6.19617e-07
6.02274e-07
6.0086e-07
6.17191e-07
6.45936e-07
6.82775e-07
7.23968e-07
7.66012e-07
8.05387e-07
8.38737e-07
8.63579e-07
8.79069e-07
8.86215e-07
8.87378e-07
8.85289e-07
8.82179e-07
8.81687e-07
8.8543e-07
8.91792e-07
4.58351e-06
4.45627e-06
4.37228e-06
4.38368e-06
4.46666e-06
4.59632e-06
4.75254e-06
4.91973e-06
5.09064e-06
5.25872e-06
5.41556e-06
5.54633e-06
5.63168e-06
5.6585e-06
5.63222e-06
5.57507e-06
5.51314e-06
5.48108e-06
5.48102e-06
5.48817e-06
9.84851e-08
9.84065e-08
1.11817e-07
9.84807e-08
1.11545e-07
1.26056e-07
9.86736e-08
1.11586e-07
1.2564e-07
1.40919e-07
9.89696e-08
1.11833e-07
1.25697e-07
1.40373e-07
1.56083e-07
9.9351e-08
1.12239e-07
1.2606e-07
1.4051e-07
1.55521e-07
1.71408e-07
9.98138e-08
1.12768e-07
1.26653e-07
1.41084e-07
1.5586e-07
1.70908e-07
1.8662e-07
1.00376e-07
1.13417e-07
1.27428e-07
1.41978e-07
1.5679e-07
1.71649e-07
1.86582e-07
2.01913e-07
1.01069e-07
1.1421e-07
1.28384e-07
1.43145e-07
1.58169e-07
1.73173e-07
1.8801e-07
2.02596e-07
2.17605e-07
1.01933e-07
1.15185e-07
1.29548e-07
1.44585e-07
1.59946e-07
1.75281e-07
1.90388e-07
2.05072e-07
2.19417e-07
2.33967e-07
1.0302e-07
1.16385e-07
1.30956e-07
1.46314e-07
1.62096e-07
1.77931e-07
1.93521e-07
2.08663e-07
2.23239e-07
2.37158e-07
2.5061e-07
1.04405e-07
1.17874e-07
1.32657e-07
1.48361e-07
1.64612e-07
1.81049e-07
1.97288e-07
2.13083e-07
2.2822e-07
2.42426e-07
2.55276e-07
2.66844e-07
1.06224e-07
1.19766e-07
1.34748e-07
1.50797e-07
1.67531e-07
1.84588e-07
2.01543e-07
2.18081e-07
2.33886e-07
2.48568e-07
2.61682e-07
2.72821e-07
2.82136e-07
1.08715e-07
1.22281e-07
1.37437e-07
1.5381e-07
1.71027e-07
1.88664e-07
2.06305e-07
2.23545e-07
2.3998e-07
2.55156e-07
2.68639e-07
2.80054e-07
2.89355e-07
2.9697e-07
1.12359e-07
1.2587e-07
1.41171e-07
1.57873e-07
1.75547e-07
1.93756e-07
2.12025e-07
2.29878e-07
2.46827e-07
2.62384e-07
2.76196e-07
2.87938e-07
2.97572e-07
3.05308e-07
3.1169e-07
1.18228e-07
1.31532e-07
1.46955e-07
1.64008e-07
1.82211e-07
2.01059e-07
2.2001e-07
2.38494e-07
2.55955e-07
2.71894e-07
2.85982e-07
2.98016e-07
3.07953e-07
3.15914e-07
3.22254e-07
3.27582e-07
1.29142e-07
1.41872e-07
1.57315e-07
1.74822e-07
1.93761e-07
2.1352e-07
2.33448e-07
2.52875e-07
2.7115e-07
2.87755e-07
3.02316e-07
3.14689e-07
3.24914e-07
3.3313e-07
3.39598e-07
3.44823e-07
3.49472e-07
1.54218e-07
1.65215e-07
1.80251e-07
1.98352e-07
2.18518e-07
2.39866e-07
2.61535e-07
2.82678e-07
3.02516e-07
3.20416e-07
3.35965e-07
3.49005e-07
3.59626e-07
3.68118e-07
3.74835e-07
3.80221e-07
3.84938e-07
3.89672e-07
2.31643e-07
2.36937e-07
2.4947e-07
2.68077e-07
2.9077e-07
3.15895e-07
3.41903e-07
3.67322e-07
3.9086e-07
4.11531e-07
4.28795e-07
4.42585e-07
4.53206e-07
4.61218e-07
4.67318e-07
4.72172e-07
4.76669e-07
4.81693e-07
4.87727e-07
5.96152e-07
5.82221e-07
5.82184e-07
5.99056e-07
6.28597e-07
6.66906e-07
7.10497e-07
7.55828e-07
7.99227e-07
8.36969e-07
8.66053e-07
8.85077e-07
8.94641e-07
8.97004e-07
8.95094e-07
8.91438e-07
8.8789e-07
8.876e-07
8.9197e-07
8.99521e-07
4.43155e-06
4.33743e-06
4.26702e-06
4.28079e-06
4.36254e-06
4.49205e-06
4.6514e-06
4.82655e-06
5.01102e-06
5.19898e-06
5.38266e-06
5.54492e-06
5.66393e-06
5.71797e-06
5.70868e-06
5.65589e-06
5.5876e-06
5.52359e-06
5.49125e-06
5.4879e-06
5.49393e-06
9.86598e-08
9.85185e-08
1.12141e-07
9.85272e-08
1.11747e-07
1.26556e-07
9.86516e-08
1.11671e-07
1.25927e-07
1.41617e-07
9.88739e-08
1.11802e-07
1.25788e-07
1.40727e-07
1.56948e-07
9.9171e-08
1.12089e-07
1.2596e-07
1.40549e-07
1.55859e-07
1.72325e-07
9.95318e-08
1.12488e-07
1.2636e-07
1.40821e-07
1.55725e-07
1.71081e-07
1.87352e-07
9.99661e-08
1.12985e-07
1.26931e-07
1.41411e-07
1.56198e-07
1.71157e-07
1.86305e-07
2.0213e-07
1.005e-07
1.13598e-07
1.27665e-07
1.42269e-07
1.57124e-07
1.72024e-07
1.86841e-07
2.01527e-07
2.16918e-07
1.01166e-07
1.14359e-07
1.28583e-07
1.43392e-07
1.5846e-07
1.73492e-07
1.88351e-07
2.02858e-07
2.17172e-07
2.3205e-07
1.02e-07
1.15302e-07
1.29713e-07
1.44796e-07
1.60195e-07
1.75553e-07
1.90688e-07
2.05396e-07
2.19674e-07
2.33513e-07
2.47335e-07
1.03051e-07
1.16469e-07
1.31087e-07
1.46491e-07
1.62316e-07
1.78185e-07
1.938e-07
2.08953e-07
2.23545e-07
2.37435e-07
2.50218e-07
2.62226e-07
1.04391e-07
1.17918e-07
1.32752e-07
1.48505e-07
1.64801e-07
1.81282e-07
1.97552e-07
2.13363e-07
2.28509e-07
2.42743e-07
2.55605e-07
2.66705e-07
2.7607e-07
1.06143e-07
1.19759e-07
1.34803e-07
1.50907e-07
1.67698e-07
1.84802e-07
2.01795e-07
2.18358e-07
2.34178e-07
2.4889e-07
2.62043e-07
2.73228e-07
2.82238e-07
2.89422e-07
1.0853e-07
1.22197e-07
1.37437e-07
1.53888e-07
1.71174e-07
1.88871e-07
2.06561e-07
2.23835e-07
2.40285e-07
2.55472e-07
2.69001e-07
2.80469e-07
2.89787e-07
2.97124e-07
3.03052e-07
1.11995e-07
1.25649e-07
1.41077e-07
1.5789e-07
1.75664e-07
1.93963e-07
2.12308e-07
2.30215e-07
2.47192e-07
2.62756e-07
2.76562e-07
2.88338e-07
2.98016e-07
3.05722e-07
3.11768e-07
3.1677e-07
1.17529e-07
1.31047e-07
1.4666e-07
1.63885e-07
1.82247e-07
2.01241e-07
2.20318e-07
2.38903e-07
2.56432e-07
2.72397e-07
2.86473e-07
2.98474e-07
3.08416e-07
3.16396e-07
3.22643e-07
3.27575e-07
3.3183e-07
1.27774e-07
1.40826e-07
1.5656e-07
1.74339e-07
1.93541e-07
2.13551e-07
2.33708e-07
2.53336e-07
2.71768e-07
2.88474e-07
3.03075e-07
3.15424e-07
3.25578e-07
3.33749e-07
3.40192e-07
3.45236e-07
3.49409e-07
3.5337e-07
1.51348e-07
1.62854e-07
1.78337e-07
1.96874e-07
2.17487e-07
2.39301e-07
2.61432e-07
2.8301e-07
3.03221e-07
3.21412e-07
3.37151e-07
3.50274e-07
3.60871e-07
3.69248e-07
3.75846e-07
3.81101e-07
3.85469e-07
3.89593e-07
3.94122e-07
2.24675e-07
2.30994e-07
2.44221e-07
2.63449e-07
2.86869e-07
3.12874e-07
3.39894e-07
3.66413e-07
3.91032e-07
4.12667e-07
4.30696e-07
4.44994e-07
4.55872e-07
4.63917e-07
4.69867e-07
4.74488e-07
4.78456e-07
4.82592e-07
4.87726e-07
4.94285e-07
5.72717e-07
5.63079e-07
5.64895e-07
5.82434e-07
6.12483e-07
6.51892e-07
6.9739e-07
7.45556e-07
7.9259e-07
8.34472e-07
8.6771e-07
8.90348e-07
9.02556e-07
9.06427e-07
9.05001e-07
9.01099e-07
8.96842e-07
8.93622e-07
8.94136e-07
8.99645e-07
9.08857e-07
4.26982e-06
4.2172e-06
4.16642e-06
4.18562e-06
4.26656e-06
4.39473e-06
4.55433e-06
4.73478e-06
4.92982e-06
5.13488e-06
5.34246e-06
5.53499e-06
5.68729e-06
5.77118e-06
5.7821e-06
5.73703e-06
5.66502e-06
5.59185e-06
5.53054e-06
5.49803e-06
5.49354e-06
5.49843e-06
9.88598e-08
9.86699e-08
1.12525e-07
9.86265e-08
1.12029e-07
1.27182e-07
9.8697e-08
1.11855e-07
1.26371e-07
1.4256e-07
9.8862e-08
1.1189e-07
1.26059e-07
1.41357e-07
1.58245e-07
9.90934e-08
1.12078e-07
1.26062e-07
1.40894e-07
1.56643e-07
1.73883e-07
9.93748e-08
1.12368e-07
1.2629e-07
1.40887e-07
1.56069e-07
1.71908e-07
1.88971e-07
9.97086e-08
1.12739e-07
1.26679e-07
1.41191e-07
1.56103e-07
1.71351e-07
1.86927e-07
2.03508e-07
1.00115e-07
1.132e-07
1.27212e-07
1.4175e-07
1.5658e-07
1.71575e-07
1.86591e-07
2.01625e-07
2.17659e-07
1.00624e-07
1.13782e-07
1.27908e-07
1.42565e-07
1.57465e-07
1.72388e-07
1.8722e-07
2.01813e-07
2.16347e-07
2.31796e-07
1.01263e-07
1.14512e-07
1.28791e-07
1.43652e-07
1.58758e-07
1.73802e-07
1.8868e-07
2.03203e-07
2.17431e-07
2.31413e-07
2.4583e-07
1.02068e-07
1.15423e-07
1.29885e-07
1.4502e-07
1.60464e-07
1.75851e-07
1.90995e-07
2.05693e-07
2.19966e-07
2.33759e-07
2.46711e-07
2.59475e-07
1.03082e-07
1.16554e-07
1.31222e-07
1.46677e-07
1.62548e-07
1.78459e-07
1.94095e-07
2.09244e-07
2.23818e-07
2.37715e-07
2.50487e-07
2.61824e-07
2.71684e-07
1.04376e-07
1.17963e-07
1.3285e-07
1.48654e-07
1.65e-07
1.81527e-07
1.97831e-07
2.13657e-07
2.28798e-07
2.43031e-07
2.55914e-07
2.67068e-07
2.76027e-07
2.83042e-07
1.06064e-07
1.19753e-07
1.3486e-07
1.51021e-07
1.67873e-07
1.85024e-07
2.0206e-07
2.18648e-07
2.34476e-07
2.49195e-07
2.62379e-07
2.73616e-07
2.82665e-07
2.89589e-07
2.94975e-07
1.08352e-07
1.22116e-07
1.37439e-07
1.5397e-07
1.71324e-07
1.89087e-07
2.06833e-07
2.24143e-07
2.4061e-07
2.55796e-07
2.69334e-07
2.80847e-07
2.9022e-07
2.97574e-07
3.0319e-07
3.07763e-07
1.11647e-07
1.25438e-07
1.40989e-07
1.5791e-07
1.75784e-07
1.94178e-07
2.12606e-07
2.30576e-07
2.4759e-07
2.63167e-07
2.76959e-07
2.8872e-07
2.98427e-07
3.0617e-07
3.1218e-07
3.1682e-07
3.20731e-07
1.16872e-07
1.30591e-07
1.46379e-07
1.63766e-07
1.82283e-07
2.01423e-07
2.20636e-07
2.39335e-07
2.56947e-07
2.72958e-07
2.87037e-07
2.99003e-07
3.08892e-07
3.16866e-07
3.23124e-07
3.27952e-07
3.31792e-07
3.35282e-07
1.26506e-07
1.39855e-07
1.55851e-07
1.73878e-07
1.93323e-07
2.13574e-07
2.33963e-07
2.538e-07
2.72409e-07
2.89244e-07
3.03914e-07
3.16268e-07
3.26365e-07
3.34435e-07
3.40815e-07
3.45822e-07
3.49804e-07
3.53273e-07
3.56859e-07
1.48702e-07
1.60686e-07
1.76567e-07
1.95486e-07
2.16502e-07
2.38739e-07
2.61304e-07
2.83315e-07
3.03912e-07
3.22421e-07
3.38389e-07
3.51637e-07
3.62256e-07
3.70556e-07
3.76997e-07
3.82109e-07
3.86334e-07
3.90101e-07
3.94002e-07
3.98629e-07
2.18146e-07
2.25562e-07
2.39457e-07
2.59214e-07
2.83227e-07
3.09982e-07
3.37909e-07
3.65439e-07
3.91098e-07
4.13699e-07
4.32527e-07
4.47396e-07
4.58599e-07
4.66752e-07
4.72625e-07
4.77028e-07
4.80727e-07
4.84344e-07
4.88598e-07
4.9423e-07
5.01622e-07
5.49465e-07
5.44913e-07
5.49082e-07
5.6742e-07
5.9786e-07
6.37944e-07
6.84897e-07
7.35421e-07
7.8567e-07
8.31372e-07
8.68595e-07
8.94842e-07
9.09855e-07
9.15476e-07
9.14779e-07
9.10886e-07
9.06162e-07
9.02185e-07
8.99964e-07
9.01806e-07
9.08944e-07
9.2028e-07
4.09753e-06
4.09494e-06
4.07057e-06
4.09883e-06
4.18033e-06
4.30566e-06
4.46382e-06
4.64647e-06
4.84894e-06
5.06806e-06
5.29676e-06
5.51835e-06
5.7027e-06
5.81784e-06
5.85146e-06
5.81681e-06
5.74383e-06
5.66367e-06
5.59161e-06
5.53493e-06
5.50332e-06
5.49811e-06
5.50387e-06
9.90723e-08
9.8846e-08
1.12944e-07
9.8763e-08
1.12369e-07
1.27904e-07
9.87927e-08
1.12116e-07
1.2694e-07
1.43703e-07
9.89144e-08
1.12073e-07
1.26482e-07
1.42228e-07
1.59904e-07
9.90965e-08
1.12182e-07
1.2634e-07
1.41513e-07
1.57837e-07
1.76017e-07
9.93178e-08
1.12383e-07
1.26419e-07
1.41256e-07
1.56861e-07
1.73355e-07
1.91429e-07
9.95743e-08
1.12651e-07
1.26647e-07
1.41296e-07
1.56489e-07
1.72208e-07
1.88423e-07
2.06007e-07
9.98814e-08
1.12988e-07
1.27003e-07
1.41576e-07
1.56538e-07
1.71824e-07
1.87262e-07
2.02876e-07
2.19818e-07
1.00264e-07
1.13419e-07
1.275e-07
1.42099e-07
1.56975e-07
1.71992e-07
1.87032e-07
2.01967e-07
2.16953e-07
2.33205e-07
1.00748e-07
1.13971e-07
1.28162e-07
1.42879e-07
1.57822e-07
1.72743e-07
1.87591e-07
2.02208e-07
2.16645e-07
2.30988e-07
2.46218e-07
1.0136e-07
1.14669e-07
1.29008e-07
1.4393e-07
1.59084e-07
1.74151e-07
1.89023e-07
2.03518e-07
2.17737e-07
2.31654e-07
2.44973e-07
2.58708e-07
1.02133e-07
1.15545e-07
1.30063e-07
1.45257e-07
1.60754e-07
1.7618e-07
1.91329e-07
2.05997e-07
2.20221e-07
2.34001e-07
2.4693e-07
2.58771e-07
2.69569e-07
1.03112e-07
1.16639e-07
1.3136e-07
1.46869e-07
1.62792e-07
1.78754e-07
1.94416e-07
2.09559e-07
2.24099e-07
2.37961e-07
2.50731e-07
2.62114e-07
2.71368e-07
2.78747e-07
1.04361e-07
1.18008e-07
1.32948e-07
1.48806e-07
1.65205e-07
1.81782e-07
1.98124e-07
2.13967e-07
2.29098e-07
2.43313e-07
2.56194e-07
2.67395e-07
2.764e-07
2.83152e-07
2.8814e-07
1.05987e-07
1.19747e-07
1.34916e-07
1.51136e-07
1.6805e-07
1.85254e-07
2.02337e-07
2.18953e-07
2.34787e-07
2.49502e-07
2.6269e-07
2.73965e-07
2.83071e-07
2.90064e-07
2.9515e-07
2.99202e-07
1.08179e-07
1.22037e-07
1.37441e-07
1.5405e-07
1.71474e-07
1.89307e-07
2.07114e-07
2.24469e-07
2.40956e-07
2.56142e-07
2.6967e-07
2.81186e-07
2.90603e-07
2.98015e-07
3.03647e-07
3.07872e-07
3.11382e-07