/*--------------------------------*- C++ -*----------------------------------*\
| =========                 |                                                 |
| \\      /  F ield         | OpenFOAM: The Open Source CFD Toolbox           |
|  \\    /   O peration     | Version:  v2012                                 |
|   \\  /    A nd           | Website:  www.openfoam.com                      |
|    \\/     M anipulation  |                                                 |
\*---------------------------------------------------------------------------*/
FoamFile
{
    version     2.0;
    format      ascii;
    class       volScalarField;
    location    "15001";
    object      nut;
}
// * * * * * * * * * * * * * * * * * * * * * * * * * * * * * * * * * * * * * //

dimensions      [0 2 -1 0 0 0 0];


internalField   nonuniform List<scalar> 
294912
(
1.81087e-05
1.69308e-05
1.81086e-05
1.8108e-05
1.60063e-05
1.69293e-05
1.69163e-05
1.81086e-05
1.8108e-05
1.81076e-05
1.5206e-05
1.5998e-05
1.59053e-05
1.69277e-05
1.69145e-05
1.68941e-05
1.81088e-05
1.8108e-05
1.81075e-05
1.81073e-05
1.45913e-05
1.51904e-05
1.5041e-05
1.59899e-05
1.58964e-05
1.57869e-05
1.69261e-05
1.69125e-05
1.68919e-05
1.68615e-05
1.81092e-05
1.8108e-05
1.81074e-05
1.81072e-05
1.8107e-05
1.41762e-05
1.45742e-05
1.44479e-05
1.51754e-05
1.50271e-05
1.4896e-05
1.59799e-05
1.58879e-05
1.57781e-05
1.56622e-05
1.69249e-05
1.69099e-05
1.68895e-05
1.6859e-05
1.68177e-05
1.81099e-05
1.81083e-05
1.81073e-05
1.8107e-05
1.81069e-05
1.81067e-05
1.39117e-05
1.41621e-05
1.40926e-05
1.4558e-05
1.44352e-05
1.43593e-05
1.51575e-05
1.50141e-05
1.48849e-05
1.47879e-05
1.59675e-05
1.58766e-05
1.57699e-05
1.56543e-05
1.5545e-05
1.69243e-05
1.69066e-05
1.68857e-05
1.68565e-05
1.68152e-05
1.6764e-05
1.81107e-05
1.81087e-05
1.81073e-05
1.81067e-05
1.81066e-05
1.81066e-05
1.81064e-05
1.37447e-05
1.39017e-05
1.38857e-05
1.41488e-05
1.40839e-05
1.40703e-05
1.45393e-05
1.44236e-05
1.43512e-05
1.43249e-05
1.51352e-05
1.49979e-05
1.48748e-05
1.47802e-05
1.47235e-05
1.59539e-05
1.58612e-05
1.57585e-05
1.56472e-05
1.55386e-05
1.54473e-05
1.69242e-05
1.69032e-05
1.68802e-05
1.68519e-05
1.68127e-05
1.67615e-05
1.67038e-05
1.81117e-05
1.81092e-05
1.81073e-05
1.81064e-05
1.81062e-05
1.81063e-05
1.81062e-05
1.81056e-05
1.36382e-05
1.37384e-05
1.37623e-05
1.38924e-05
1.38806e-05
1.39116e-05
1.41339e-05
1.40759e-05
1.40658e-05
1.40939e-05
1.45168e-05
1.44098e-05
1.4344e-05
1.43206e-05
1.43337e-05
1.51105e-05
1.49768e-05
1.48621e-05
1.47734e-05
1.47189e-05
1.46993e-05
1.59389e-05
1.58431e-05
1.57418e-05
1.56372e-05
1.55332e-05
1.54427e-05
1.53755e-05
1.69242e-05
1.68994e-05
1.68736e-05
1.68446e-05
1.68078e-05
1.67593e-05
1.67016e-05
1.66424e-05
1.81128e-05
1.81099e-05
1.81073e-05
1.81061e-05
1.81056e-05
1.81057e-05
1.81059e-05
1.81055e-05
1.8104e-05
1.35701e-05
1.36347e-05
1.36864e-05
1.37325e-05
1.37598e-05
1.38191e-05
1.38821e-05
1.38759e-05
1.39098e-05
1.39698e-05
1.41165e-05
1.40666e-05
1.40619e-05
1.40925e-05
1.41464e-05
1.44923e-05
1.43925e-05
1.43352e-05
1.4317e-05
1.43322e-05
1.43713e-05
1.50833e-05
1.49526e-05
1.48446e-05
1.47647e-05
1.47152e-05
1.46973e-05
1.47061e-05
1.5922e-05
1.58222e-05
1.57214e-05
1.56216e-05
1.55256e-05
1.54392e-05
1.53727e-05
1.53303e-05
1.69242e-05
1.68951e-05
1.68658e-05
1.68353e-05
1.67993e-05
1.67547e-05
1.66999e-05
1.66406e-05
1.65847e-05
1.81139e-05
1.81106e-05
1.81074e-05
1.81057e-05
1.81049e-05
1.81048e-05
1.81051e-05
1.81052e-05
1.81038e-05
1.81011e-05
1.35278e-05
1.35689e-05
1.36396e-05
1.36316e-05
1.36859e-05
1.37625e-05
1.37261e-05
1.37577e-05
1.3819e-05
1.38965e-05
1.38704e-05
1.38706e-05
1.39084e-05
1.39701e-05
1.40443e-05
1.4098e-05
1.40554e-05
1.40572e-05
1.40914e-05
1.41469e-05
1.42138e-05
1.44662e-05
1.43733e-05
1.43237e-05
1.43124e-05
1.43312e-05
1.43718e-05
1.44251e-05
1.50537e-05
1.49255e-05
1.48242e-05
1.47524e-05
1.47104e-05
1.4696e-05
1.4706e-05
1.47328e-05
1.5903e-05
1.57982e-05
1.56974e-05
1.5602e-05
1.55132e-05
1.54345e-05
1.5371e-05
1.53291e-05
1.53076e-05
1.69239e-05
1.68901e-05
1.68566e-05
1.68239e-05
1.67881e-05
1.6746e-05
1.66962e-05
1.66394e-05
1.65834e-05
1.65346e-05
1.81151e-05
1.81113e-05
1.81075e-05
1.81053e-05
1.81041e-05
1.81037e-05
1.81036e-05
1.81039e-05
1.81036e-05
1.8101e-05
1.80971e-05
1.35042e-05
1.35283e-05
1.36129e-05
1.35679e-05
1.36406e-05
1.37282e-05
1.36282e-05
1.36856e-05
1.37636e-05
1.38509e-05
1.37189e-05
1.37552e-05
1.38192e-05
1.38979e-05
1.39821e-05
1.38582e-05
1.38643e-05
1.39065e-05
1.39707e-05
1.40459e-05
1.41249e-05
1.40788e-05
1.40433e-05
1.40511e-05
1.40898e-05
1.41477e-05
1.42156e-05
1.42866e-05
1.44386e-05
1.43526e-05
1.43107e-05
1.4306e-05
1.43297e-05
1.43726e-05
1.44268e-05
1.44852e-05
1.50213e-05
1.48955e-05
1.48009e-05
1.47375e-05
1.47031e-05
1.46944e-05
1.47065e-05
1.47342e-05
1.47702e-05
1.58814e-05
1.5771e-05
1.56695e-05
1.55784e-05
1.54969e-05
1.54264e-05
1.53694e-05
1.53289e-05
1.53078e-05
1.53014e-05
1.6923e-05
1.68842e-05
1.68459e-05
1.68105e-05
1.67742e-05
1.67341e-05
1.66885e-05
1.66373e-05
1.65829e-05
1.6534e-05
1.64941e-05
1.81162e-05
1.81121e-05
1.81077e-05
1.81049e-05
1.81032e-05
1.81023e-05
1.81019e-05
1.81017e-05
1.81019e-05
1.81008e-05
1.80971e-05
1.80927e-05
1.34952e-05
1.35062e-05
1.36014e-05
1.3529e-05
1.3615e-05
1.37102e-05
1.35667e-05
1.36417e-05
1.37303e-05
1.38233e-05
1.36243e-05
1.36851e-05
1.3765e-05
1.3853e-05
1.39421e-05
1.37115e-05
1.37521e-05
1.38192e-05
1.38995e-05
1.39843e-05
1.40684e-05
1.38457e-05
1.38575e-05
1.39038e-05
1.39709e-05
1.40478e-05
1.41273e-05
1.42052e-05
1.4059e-05
1.40307e-05
1.40444e-05
1.40874e-05
1.41482e-05
1.42176e-05
1.42891e-05
1.43586e-05
1.44095e-05
1.43306e-05
1.42966e-05
1.42986e-05
1.43272e-05
1.43733e-05
1.44289e-05
1.44877e-05
1.4545e-05
1.49863e-05
1.4863e-05
1.47752e-05
1.47204e-05
1.4694e-05
1.46914e-05
1.47072e-05
1.47359e-05
1.47724e-05
1.48108e-05
1.58569e-05
1.57405e-05
1.5638e-05
1.55509e-05
1.54768e-05
1.54149e-05
1.53658e-05
1.533e-05
1.53089e-05
1.53028e-05
1.53057e-05
1.69213e-05
1.68771e-05
1.68335e-05
1.67948e-05
1.67576e-05
1.67191e-05
1.66776e-05
1.6632e-05
1.65828e-05
1.6534e-05
1.64939e-05
1.64627e-05
1.81171e-05
1.81129e-05
1.81078e-05
1.81043e-05
1.81022e-05
1.81008e-05
1.80998e-05
1.8099e-05
1.80987e-05
1.80988e-05
1.8097e-05
1.80929e-05
1.80893e-05
1.3498e-05
1.34982e-05
1.36029e-05
1.35082e-05
1.36045e-05
1.37057e-05
1.35296e-05
1.36173e-05
1.37131e-05
1.38099e-05
1.35652e-05
1.36427e-05
1.37327e-05
1.3826e-05
1.39175e-05
1.36203e-05
1.36842e-05
1.37663e-05
1.38554e-05
1.39447e-05
1.40307e-05
1.37041e-05
1.37489e-05
1.38187e-05
1.39009e-05
1.39868e-05
1.40711e-05
1.41515e-05
1.38332e-05
1.38506e-05
1.39009e-05
1.39707e-05
1.40494e-05
1.41299e-05
1.4208e-05
1.42816e-05
1.40389e-05
1.40176e-05
1.40373e-05
1.40845e-05
1.41481e-05
1.42194e-05
1.42919e-05
1.43615e-05
1.44258e-05
1.43791e-05
1.43075e-05
1.42815e-05
1.42904e-05
1.4324e-05
1.43733e-05
1.44309e-05
1.44906e-05
1.45481e-05
1.46004e-05
1.49486e-05
1.48279e-05
1.47472e-05
1.47012e-05
1.46832e-05
1.46872e-05
1.47074e-05
1.47383e-05
1.47751e-05
1.48138e-05
1.48501e-05
1.58292e-05
1.57065e-05
1.5603e-05
1.55199e-05
1.54532e-05
1.54002e-05
1.53596e-05
1.53305e-05
1.53121e-05
1.53048e-05
1.53079e-05
1.53154e-05
1.69185e-05
1.68687e-05
1.68193e-05
1.67767e-05
1.67382e-05
1.67011e-05
1.66633e-05
1.66235e-05
1.6581e-05
1.65362e-05
1.64945e-05
1.64631e-05
1.64393e-05
1.8118e-05
1.81136e-05
1.81078e-05
1.81037e-05
1.8101e-05
1.8099e-05
1.80973e-05
1.80958e-05
1.80947e-05
1.80947e-05
1.80949e-05
1.80928e-05
1.80894e-05
1.80877e-05
1.35108e-05
1.35019e-05
1.36155e-05
1.35015e-05
1.36067e-05
1.37134e-05
1.35103e-05
1.3608e-05
1.37093e-05
1.38094e-05
1.353e-05
1.36197e-05
1.37165e-05
1.38132e-05
1.39061e-05
1.35637e-05
1.36436e-05
1.37351e-05
1.38292e-05
1.39205e-05
1.4007e-05
1.36164e-05
1.36833e-05
1.37672e-05
1.38577e-05
1.39477e-05
1.40336e-05
1.41144e-05
1.36969e-05
1.37456e-05
1.3818e-05
1.3902e-05
1.39891e-05
1.40742e-05
1.41545e-05
1.42294e-05
1.38208e-05
1.38437e-05
1.3898e-05
1.39703e-05
1.40506e-05
1.41324e-05
1.42112e-05
1.42847e-05
1.43518e-05
1.40184e-05
1.40043e-05
1.403e-05
1.40815e-05
1.41479e-05
1.42209e-05
1.42946e-05
1.43649e-05
1.4429e-05
1.44859e-05
1.43477e-05
1.42836e-05
1.42656e-05
1.42816e-05
1.43203e-05
1.4373e-05
1.44326e-05
1.44935e-05
1.45515e-05
1.46038e-05
1.46492e-05
1.49082e-05
1.47908e-05
1.47173e-05
1.46803e-05
1.46709e-05
1.46818e-05
1.47069e-05
1.47407e-05
1.47785e-05
1.4817e-05
1.48535e-05
1.48854e-05
1.57981e-05
1.56691e-05
1.55646e-05
1.54857e-05
1.54264e-05
1.53825e-05
1.53509e-05
1.53293e-05
1.5316e-05
1.53096e-05
1.53107e-05
1.53182e-05
1.53271e-05
1.69142e-05
1.68587e-05
1.6803e-05
1.67563e-05
1.67162e-05
1.66801e-05
1.66459e-05
1.66119e-05
1.65764e-05
1.65385e-05
1.64989e-05
1.64642e-05
1.644e-05
1.64217e-05
1.81185e-05
1.81142e-05
1.81078e-05
1.8103e-05
1.80996e-05
1.8097e-05
1.80946e-05
1.80921e-05
1.80902e-05
1.80897e-05
1.80907e-05
1.80913e-05
1.80894e-05
1.80879e-05
1.80878e-05
1.35319e-05
1.35151e-05
1.36383e-05
1.35061e-05
1.36197e-05
1.37325e-05
1.35048e-05
1.36111e-05
1.37174e-05
1.38214e-05
1.35123e-05
1.36116e-05
1.37136e-05
1.38131e-05
1.39077e-05
1.35304e-05
1.3622e-05
1.37199e-05
1.38172e-05
1.39094e-05
1.39961e-05
1.35623e-05
1.36443e-05
1.37373e-05
1.38324e-05
1.39241e-05
1.40101e-05
1.40901e-05
1.36127e-05
1.36824e-05
1.37681e-05
1.38598e-05
1.39507e-05
1.40371e-05
1.41174e-05
1.4192e-05
1.36898e-05
1.37425e-05
1.38174e-05
1.3903e-05
1.39912e-05
1.40771e-05
1.41579e-05
1.42324e-05
1.43006e-05
1.38084e-05
1.38368e-05
1.38951e-05
1.39699e-05
1.40518e-05
1.41346e-05
1.42143e-05
1.42883e-05
1.43551e-05
1.44142e-05
1.39978e-05
1.39909e-05
1.40225e-05
1.40784e-05
1.41476e-05
1.42223e-05
1.42971e-05
1.43681e-05
1.44328e-05
1.44894e-05
1.45378e-05
1.43153e-05
1.4259e-05
1.42492e-05
1.42722e-05
1.43163e-05
1.43725e-05
1.44343e-05
1.44964e-05
1.4555e-05
1.46076e-05
1.46529e-05
1.46907e-05
1.48655e-05
1.47518e-05
1.4686e-05
1.46582e-05
1.46573e-05
1.46753e-05
1.47056e-05
1.47427e-05
1.47823e-05
1.48212e-05
1.48572e-05
1.4889e-05
1.49155e-05
1.57634e-05
1.56285e-05
1.55232e-05
1.54487e-05
1.53971e-05
1.53623e-05
1.53397e-05
1.53261e-05
1.53187e-05
1.53159e-05
1.53165e-05
1.53215e-05
1.53302e-05
1.53387e-05
1.6908e-05
1.68468e-05
1.67848e-05
1.67336e-05
1.66916e-05
1.66564e-05
1.66256e-05
1.65973e-05
1.6569e-05
1.65386e-05
1.65052e-05
1.64704e-05
1.64415e-05
1.64228e-05
1.64083e-05
1.81188e-05
1.81146e-05
1.81077e-05
1.81022e-05
1.80981e-05
1.80948e-05
1.80915e-05
1.8088e-05
1.8085e-05
1.80838e-05
1.80853e-05
1.8088e-05
1.8089e-05
1.80878e-05
1.8088e-05
1.80889e-05
1.35597e-05
1.35362e-05
1.36699e-05
1.35201e-05
1.36423e-05
1.37626e-05
1.35106e-05
1.3625e-05
1.37365e-05
1.3846e-05
1.35082e-05
1.36159e-05
1.37225e-05
1.38251e-05
1.39229e-05
1.35143e-05
1.36152e-05
1.37182e-05
1.3818e-05
1.39112e-05
1.3999e-05
1.35309e-05
1.36242e-05
1.37233e-05
1.38214e-05
1.39138e-05
1.39993e-05
1.4079e-05
1.3561e-05
1.36451e-05
1.37394e-05
1.38354e-05
1.39279e-05
1.40141e-05
1.40932e-05
1.41668e-05
1.36092e-05
1.36816e-05
1.3769e-05
1.38617e-05
1.39535e-05
1.40406e-05
1.41212e-05
1.41949e-05
1.42631e-05
1.36829e-05
1.37395e-05
1.3817e-05
1.3904e-05
1.39932e-05
1.40798e-05
1.41613e-05
1.42362e-05
1.43037e-05
1.43641e-05
1.37963e-05
1.38301e-05
1.38922e-05
1.39696e-05
1.4053e-05
1.41368e-05
1.42171e-05
1.42917e-05
1.43589e-05
1.44175e-05
1.44679e-05
1.39771e-05
1.39775e-05
1.40151e-05
1.40753e-05
1.41473e-05
1.42237e-05
1.42995e-05
1.43712e-05
1.44364e-05
1.44933e-05
1.45414e-05
1.45813e-05
1.42823e-05
1.42342e-05
1.42326e-05
1.42626e-05
1.4312e-05
1.43718e-05
1.44359e-05
1.44992e-05
1.45585e-05
1.46115e-05
1.46569e-05
1.46944e-05
1.47248e-05
1.48207e-05
1.47116e-05
1.46538e-05
1.46352e-05
1.46429e-05
1.4668e-05
1.47036e-05
1.47443e-05
1.4786e-05
1.48259e-05
1.48618e-05
1.4893e-05
1.49192e-05
1.49404e-05
1.57251e-05
1.55849e-05
1.54794e-05
1.54095e-05
1.53657e-05
1.534e-05
1.53266e-05
1.5321e-05
1.532e-05
1.53215e-05
1.53243e-05
1.5328e-05
1.53339e-05
1.53421e-05
1.53496e-05
1.68997e-05
1.6833e-05
1.67646e-05
1.67086e-05
1.66646e-05
1.66302e-05
1.66028e-05
1.658e-05
1.65589e-05
1.65362e-05
1.651e-05
1.64801e-05
1.64491e-05
1.64246e-05
1.64096e-05
1.63977e-05
1.81188e-05
1.81147e-05
1.81074e-05
1.81013e-05
1.80964e-05
1.80923e-05
1.80881e-05
1.80835e-05
1.80792e-05
1.80772e-05
1.8079e-05
1.80837e-05
1.80878e-05
1.80886e-05
1.8088e-05
1.80891e-05
1.80901e-05
1.35929e-05
1.35636e-05
1.37094e-05
1.35415e-05
1.36733e-05
1.38032e-05
1.35254e-05
1.36481e-05
1.3766e-05
1.38837e-05
1.35153e-05
1.36309e-05
1.37424e-05
1.38494e-05
1.39532e-05
1.35117e-05
1.3621e-05
1.37285e-05
1.38309e-05
1.39262e-05
1.40177e-05
1.35163e-05
1.36189e-05
1.3723e-05
1.38234e-05
1.39164e-05
1.40022e-05
1.40832e-05
1.35314e-05
1.36264e-05
1.37267e-05
1.38256e-05
1.39186e-05
1.40041e-05
1.4082e-05
1.41554e-05
1.35599e-05
1.3646e-05
1.37415e-05
1.38384e-05
1.39315e-05
1.40182e-05
1.40974e-05
1.41696e-05
1.42373e-05
1.36059e-05
1.3681e-05
1.37701e-05
1.38638e-05
1.39562e-05
1.40438e-05
1.41249e-05
1.41989e-05
1.42658e-05
1.43268e-05
1.36763e-05
1.37366e-05
1.38166e-05
1.39052e-05
1.39953e-05
1.40825e-05
1.41645e-05
1.42398e-05
1.43077e-05
1.43672e-05
1.44188e-05
1.37844e-05
1.38235e-05
1.38895e-05
1.39694e-05
1.40544e-05
1.41391e-05
1.422e-05
1.4295e-05
1.43627e-05
1.44216e-05
1.44713e-05
1.45125e-05
1.39566e-05
1.39643e-05
1.40077e-05
1.40722e-05
1.4147e-05
1.42253e-05
1.43021e-05
1.43744e-05
1.444e-05
1.44973e-05
1.45456e-05
1.4585e-05
1.46168e-05
1.42491e-05
1.42093e-05
1.4216e-05
1.42529e-05
1.43075e-05
1.4371e-05
1.44374e-05
1.45022e-05
1.45622e-05
1.46155e-05
1.46611e-05
1.46986e-05
1.47286e-05
1.47523e-05
1.47743e-05
1.46707e-05
1.46213e-05
1.46118e-05
1.4628e-05
1.46601e-05
1.4701e-05
1.47454e-05
1.47895e-05
1.48306e-05
1.4867e-05
1.48979e-05
1.49234e-05
1.49442e-05
1.49607e-05
1.56833e-05
1.55389e-05
1.54338e-05
1.53689e-05
1.53328e-05
1.53162e-05
1.53118e-05
1.53143e-05
1.53198e-05
1.53261e-05
1.53318e-05
1.53366e-05
1.53407e-05
1.53461e-05
1.5353e-05
1.53594e-05
1.68889e-05
1.68172e-05
1.67424e-05
1.66818e-05
1.66356e-05
1.66018e-05
1.65777e-05
1.65604e-05
1.65464e-05
1.65315e-05
1.65127e-05
1.64887e-05
1.6461e-05
1.64329e-05
1.64116e-05
1.63991e-05
1.63888e-05
1.81183e-05
1.81146e-05
1.8107e-05
1.81002e-05
1.80946e-05
1.80897e-05
1.80845e-05
1.80786e-05
1.8073e-05
1.807e-05
1.8072e-05
1.80786e-05
1.80859e-05
1.809e-05
1.80897e-05
1.8089e-05
1.80901e-05
1.8091e-05
1.36299e-05
1.35958e-05
1.37554e-05
1.35689e-05
1.37115e-05
1.38538e-05
1.35476e-05
1.36792e-05
1.38054e-05
1.39349e-05
1.35312e-05
1.36551e-05
1.37723e-05
1.3886e-05
1.4e-05
1.352e-05
1.36375e-05
1.37497e-05
1.38558e-05
1.39557e-05
1.4055e-05
1.3515e-05
1.36261e-05
1.37349e-05
1.38378e-05
1.39324e-05
1.40205e-05
1.41063e-05
1.35183e-05
1.36225e-05
1.37278e-05
1.38291e-05
1.39225e-05
1.40078e-05
1.40859e-05
1.41613e-05
1.3532e-05
1.36287e-05
1.373e-05
1.38297e-05
1.39233e-05
1.40092e-05
1.40869e-05
1.41579e-05
1.4226e-05
1.3559e-05
1.36471e-05
1.37438e-05
1.38414e-05
1.3935e-05
1.40222e-05
1.41018e-05
1.4174e-05
1.42397e-05
1.43012e-05
1.36028e-05
1.36806e-05
1.37713e-05
1.3866e-05
1.3959e-05
1.4047e-05
1.41285e-05
1.42028e-05
1.42699e-05
1.43294e-05
1.43822e-05
1.367e-05
1.3734e-05
1.38164e-05
1.39066e-05
1.39976e-05
1.40854e-05
1.41677e-05
1.42433e-05
1.43115e-05
1.43713e-05
1.44219e-05
1.44642e-05
1.37727e-05
1.38172e-05
1.38869e-05
1.39693e-05
1.40559e-05
1.41416e-05
1.4223e-05
1.42984e-05
1.43663e-05
1.44255e-05
1.44755e-05
1.45161e-05
1.45486e-05
1.39365e-05
1.39513e-05
1.40005e-05
1.40691e-05
1.41468e-05
1.42269e-05
1.43049e-05
1.43778e-05
1.44436e-05
1.45011e-05
1.45497e-05
1.45893e-05
1.46204e-05
1.46451e-05
1.42159e-05
1.41848e-05
1.41997e-05
1.42433e-05
1.43029e-05
1.43701e-05
1.44389e-05
1.45052e-05
1.4566e-05
1.46197e-05
1.46655e-05
1.47031e-05
1.47329e-05
1.4756e-05
1.47741e-05
1.47268e-05
1.46297e-05
1.45889e-05
1.45885e-05
1.4613e-05
1.46518e-05
1.46979e-05
1.47461e-05
1.47928e-05
1.48353e-05
1.48724e-05
1.49034e-05
1.49284e-05
1.49484e-05
1.49644e-05
1.49772e-05
1.56384e-05
1.54912e-05
1.53874e-05
1.53277e-05
1.52993e-05
1.52915e-05
1.52959e-05
1.53063e-05
1.53185e-05
1.53296e-05
1.53386e-05
1.53453e-05
1.53498e-05
1.5353e-05
1.53571e-05
1.53629e-05
1.53687e-05
1.68756e-05
1.67993e-05
1.67187e-05
1.66535e-05
1.66051e-05
1.65719e-05
1.65509e-05
1.65389e-05
1.65318e-05
1.65247e-05
1.65135e-05
1.64959e-05
1.64724e-05
1.64461e-05
1.64202e-05
1.64013e-05
1.63903e-05
1.63811e-05
1.81172e-05
1.8114e-05
1.81062e-05
1.80989e-05
1.80926e-05
1.80868e-05
1.80805e-05
1.80733e-05
1.80663e-05
1.80623e-05
1.80642e-05
1.80725e-05
1.80833e-05
1.80912e-05
1.80932e-05
1.8091e-05
1.80899e-05
1.80909e-05
1.80908e-05
1.36695e-05
1.36315e-05
1.38067e-05
1.36008e-05
1.37557e-05
1.39134e-05
1.35754e-05
1.37171e-05
1.38539e-05
1.39996e-05
1.35544e-05
1.36871e-05
1.38117e-05
1.39352e-05
1.40647e-05
1.35373e-05
1.36631e-05
1.37809e-05
1.38929e-05
1.40009e-05
1.41134e-05
1.35246e-05
1.36442e-05
1.37578e-05
1.38644e-05
1.39627e-05
1.40565e-05
1.41523e-05
1.35183e-05
1.36311e-05
1.37413e-05
1.38453e-05
1.39401e-05
1.40271e-05
1.41082e-05
1.41898e-05
1.35203e-05
1.3626e-05
1.37325e-05
1.38347e-05
1.39288e-05
1.40143e-05
1.40917e-05
1.41634e-05
1.42346e-05
1.35328e-05
1.36311e-05
1.37335e-05
1.3834e-05
1.3928e-05
1.40142e-05
1.40922e-05
1.41628e-05
1.42279e-05
1.42911e-05
1.35582e-05
1.36483e-05
1.37462e-05
1.38446e-05
1.39387e-05
1.40262e-05
1.4106e-05
1.41784e-05
1.42441e-05
1.43032e-05
1.43575e-05
1.35999e-05
1.36803e-05
1.37727e-05
1.38684e-05
1.3962e-05
1.40504e-05
1.41321e-05
1.42066e-05
1.42739e-05
1.43336e-05
1.43847e-05
1.44282e-05
1.36639e-05
1.37315e-05
1.38163e-05
1.3908e-05
1.4e-05
1.40884e-05
1.4171e-05
1.42469e-05
1.43152e-05
1.43752e-05
1.44261e-05
1.44674e-05
1.45004e-05
1.37615e-05
1.38111e-05
1.38845e-05
1.39693e-05
1.40575e-05
1.41442e-05
1.42263e-05
1.43019e-05
1.43699e-05
1.44294e-05
1.44796e-05
1.45203e-05
1.45522e-05
1.45773e-05
1.39168e-05
1.39387e-05
1.39936e-05
1.40662e-05
1.41467e-05
1.42286e-05
1.43077e-05
1.43813e-05
1.44475e-05
1.45051e-05
1.45538e-05
1.45935e-05
1.46248e-05
1.46487e-05
1.46674e-05
1.41833e-05
1.4161e-05
1.41838e-05
1.4234e-05
1.42985e-05
1.43691e-05
1.44403e-05
1.45082e-05
1.457e-05
1.46242e-05
1.467e-05
1.47076e-05
1.47374e-05
1.47604e-05
1.47778e-05
1.47914e-05
1.46791e-05
1.45893e-05
1.45573e-05
1.45657e-05
1.45981e-05
1.46435e-05
1.46947e-05
1.47466e-05
1.47958e-05
1.484e-05
1.48779e-05
1.49092e-05
1.49341e-05
1.49535e-05
1.49687e-05
1.49809e-05
1.49911e-05
1.5591e-05
1.54426e-05
1.5341e-05
1.52867e-05
1.5266e-05
1.52666e-05
1.52794e-05
1.52975e-05
1.53161e-05
1.53322e-05
1.53447e-05
1.53534e-05
1.5359e-05
1.53621e-05
1.5364e-05
1.5367e-05
1.53722e-05
1.5378e-05
1.68593e-05
1.67795e-05
1.66938e-05
1.66244e-05
1.65738e-05
1.6541e-05
1.65229e-05
1.6516e-05
1.65156e-05
1.65161e-05
1.65124e-05
1.65013e-05
1.64827e-05
1.64591e-05
1.64338e-05
1.64098e-05
1.63926e-05
1.63826e-05
1.63741e-05
1.81155e-05
1.81128e-05
1.81052e-05
1.80975e-05
1.80906e-05
1.80838e-05
1.80764e-05
1.80678e-05
1.80592e-05
1.8054e-05
1.80559e-05
1.80658e-05
1.808e-05
1.80918e-05
1.80968e-05
1.80957e-05
1.80921e-05
1.80906e-05
1.80908e-05
1.80897e-05
1.37103e-05
1.36694e-05
1.3862e-05
1.36357e-05
1.38048e-05
1.3981e-05
1.36074e-05
1.37606e-05
1.39109e-05
1.40775e-05
1.3583e-05
1.37256e-05
1.38599e-05
1.39973e-05
1.41479e-05
1.35616e-05
1.36964e-05
1.38214e-05
1.39423e-05
1.40631e-05
1.41953e-05
1.35431e-05
1.36714e-05
1.37908e-05
1.39031e-05
1.40086e-05
1.41129e-05
1.4225e-05
1.35291e-05
1.36507e-05
1.37661e-05
1.38739e-05
1.39723e-05
1.40642e-05
1.41528e-05
1.42463e-05
1.35215e-05
1.3636e-05
1.37477e-05
1.38528e-05
1.39483e-05
1.40353e-05
1.41152e-05
1.41909e-05
1.42696e-05
1.35224e-05
1.36297e-05
1.37374e-05
1.38405e-05
1.39351e-05
1.40208e-05
1.40983e-05
1.41693e-05
1.42359e-05
1.43036e-05
1.35337e-05
1.36336e-05
1.37372e-05
1.38384e-05
1.3933e-05
1.40194e-05
1.40973e-05
1.4168e-05
1.42328e-05
1.42924e-05
1.43496e-05
1.35576e-05
1.36496e-05
1.37488e-05
1.38481e-05
1.39427e-05
1.40304e-05
1.41103e-05
1.41827e-05
1.42483e-05
1.43075e-05
1.43592e-05
1.44049e-05
1.35972e-05
1.36801e-05
1.37741e-05
1.38709e-05
1.39652e-05
1.4054e-05
1.41359e-05
1.42105e-05
1.42778e-05
1.43375e-05
1.43889e-05
1.44309e-05
1.44646e-05
1.3658e-05
1.37292e-05
1.38164e-05
1.39096e-05
1.40025e-05
1.40915e-05
1.41746e-05
1.42506e-05
1.43189e-05
1.4379e-05
1.44302e-05
1.44717e-05
1.45038e-05
1.45287e-05
1.37507e-05
1.38052e-05
1.38822e-05
1.39694e-05
1.40592e-05
1.41469e-05
1.42297e-05
1.43057e-05
1.43738e-05
1.44332e-05
1.44835e-05
1.45245e-05
1.45565e-05
1.45808e-05
1.45996e-05
1.38978e-05
1.39267e-05
1.39869e-05
1.40635e-05
1.41466e-05
1.42304e-05
1.43107e-05
1.43851e-05
1.44516e-05
1.45094e-05
1.4558e-05
1.45977e-05
1.46291e-05
1.46531e-05
1.4671e-05
1.46849e-05
1.41516e-05
1.41381e-05
1.41687e-05
1.4225e-05
1.42942e-05
1.43682e-05
1.44418e-05
1.45113e-05
1.45741e-05
1.46288e-05
1.46749e-05
1.47123e-05
1.4742e-05
1.47649e-05
1.47821e-05
1.4795e-05
1.48054e-05
1.4632e-05
1.45501e-05
1.4527e-05
1.45438e-05
1.45837e-05
1.46353e-05
1.46913e-05
1.47469e-05
1.47986e-05
1.48445e-05
1.48834e-05
1.49151e-05
1.49401e-05
1.49592e-05
1.49737e-05
1.49851e-05
1.49947e-05
1.50035e-05
1.55419e-05
1.53942e-05
1.52956e-05
1.5247e-05
1.52334e-05
1.52421e-05
1.52628e-05
1.52882e-05
1.5313e-05
1.53341e-05
1.53501e-05
1.53611e-05
1.53679e-05
1.53715e-05
1.53731e-05
1.53738e-05
1.53763e-05
1.53814e-05
1.53879e-05
1.68399e-05
1.6758e-05
1.66685e-05
1.65952e-05
1.65426e-05
1.651e-05
1.64946e-05
1.64924e-05
1.64982e-05
1.65059e-05
1.65096e-05
1.65052e-05
1.64916e-05
1.64711e-05
1.64473e-05
1.64232e-05
1.64009e-05
1.6385e-05
1.63757e-05
1.63676e-05
1.8113e-05
1.81112e-05
1.81037e-05
1.80959e-05
1.80884e-05
1.80808e-05
1.80722e-05
1.8062e-05
1.80519e-05
1.80455e-05
1.80472e-05
1.80586e-05
1.80761e-05
1.80918e-05
1.81003e-05
1.81008e-05
1.8097e-05
1.80924e-05
1.80905e-05
1.80896e-05
1.80876e-05
1.37512e-05
1.37082e-05
1.39196e-05
1.36725e-05
1.38573e-05
1.40551e-05
1.36422e-05
1.38085e-05
1.39754e-05
1.41675e-05
1.36156e-05
1.37693e-05
1.39161e-05
1.40718e-05
1.42497e-05
1.35912e-05
1.3736e-05
1.38705e-05
1.40042e-05
1.41431e-05
1.43018e-05
1.35685e-05
1.37064e-05
1.38332e-05
1.39541e-05
1.40715e-05
1.4192e-05
1.43274e-05
1.35486e-05
1.36796e-05
1.38013e-05
1.39149e-05
1.40203e-05
1.41219e-05
1.42232e-05
1.43353e-05
1.35333e-05
1.36571e-05
1.37744e-05
1.38837e-05
1.39829e-05
1.40745e-05
1.41613e-05
1.42457e-05
1.43377e-05
1.35247e-05
1.3641e-05
1.37542e-05
1.38605e-05
1.39568e-05
1.40438e-05
1.41236e-05
1.41982e-05
1.42698e-05
1.4346e-05
1.35246e-05
1.36335e-05
1.37424e-05
1.38465e-05
1.39418e-05
1.40277e-05
1.41049e-05
1.41757e-05
1.42418e-05
1.4304e-05
1.43669e-05
1.35347e-05
1.36362e-05
1.3741e-05
1.38431e-05
1.39383e-05
1.40249e-05
1.41027e-05
1.41731e-05
1.42376e-05
1.42971e-05
1.43504e-05
1.44003e-05
1.35571e-05
1.3651e-05
1.37515e-05
1.38516e-05
1.39468e-05
1.40349e-05
1.41149e-05
1.41871e-05
1.42525e-05
1.43116e-05
1.43634e-05
1.44067e-05
1.44425e-05
1.35947e-05
1.36801e-05
1.37757e-05
1.38735e-05
1.39685e-05
1.40578e-05
1.41399e-05
1.42145e-05
1.42817e-05
1.43414e-05
1.43928e-05
1.44351e-05
1.44676e-05
1.44922e-05
1.36525e-05
1.37271e-05
1.38165e-05
1.39112e-05
1.40052e-05
1.40948e-05
1.41783e-05
1.42545e-05
1.43228e-05
1.43829e-05
1.44341e-05
1.44758e-05
1.45081e-05
1.45321e-05
1.45503e-05
1.37403e-05
1.37997e-05
1.38801e-05
1.39697e-05
1.4061e-05
1.41498e-05
1.42332e-05
1.43096e-05
1.43779e-05
1.44373e-05
1.44875e-05
1.45285e-05
1.45608e-05
1.45851e-05
1.46031e-05
1.46169e-05
1.38797e-05
1.39153e-05
1.39807e-05
1.40609e-05
1.41467e-05
1.42322e-05
1.43138e-05
1.4389e-05
1.4456e-05
1.45139e-05
1.45625e-05
1.4602e-05
1.46334e-05
1.46574e-05
1.46753e-05
1.46883e-05
1.46986e-05
1.41214e-05
1.41165e-05
1.41544e-05
1.42165e-05
1.42901e-05
1.43674e-05
1.44433e-05
1.45143e-05
1.45782e-05
1.46336e-05
1.468e-05
1.47175e-05
1.47469e-05
1.47696e-05
1.47866e-05
1.47993e-05
1.48089e-05
1.48171e-05
1.45864e-05
1.4513e-05
1.44984e-05
1.45233e-05
1.457e-05
1.46274e-05
1.4688e-05
1.4747e-05
1.48013e-05
1.48489e-05
1.48889e-05
1.49212e-05
1.49463e-05
1.49653e-05
1.49794e-05
1.49901e-05
1.49989e-05
1.50069e-05
1.50152e-05
1.54921e-05
1.5347e-05
1.52523e-05
1.52092e-05
1.52025e-05
1.52185e-05
1.52466e-05
1.52788e-05
1.53095e-05
1.53354e-05
1.53549e-05
1.53683e-05
1.53764e-05
1.53807e-05
1.53824e-05
1.53827e-05
1.53829e-05
1.53854e-05
1.53912e-05
1.5399e-05
1.68173e-05
1.67351e-05
1.66432e-05
1.65669e-05
1.65122e-05
1.64796e-05
1.64665e-05
1.64686e-05
1.64802e-05
1.64948e-05
1.65055e-05
1.65075e-05
1.64992e-05
1.64821e-05
1.646e-05
1.64364e-05
1.64137e-05
1.63929e-05
1.63781e-05
1.63691e-05
1.63616e-05
1.81096e-05
1.81088e-05
1.81019e-05
1.80941e-05
1.80862e-05
1.80778e-05
1.8068e-05
1.80564e-05
1.80446e-05
1.80368e-05
1.80381e-05
1.80508e-05
1.80715e-05
1.80913e-05
1.81034e-05
1.81061e-05
1.81023e-05
1.80966e-05
1.80918e-05
1.80892e-05
1.80874e-05
1.80841e-05
1.37911e-05
1.37469e-05
1.39783e-05
1.37099e-05
1.3912e-05
1.41342e-05
1.36785e-05
1.38594e-05
1.4046e-05
1.42682e-05
1.36506e-05
1.3817e-05
1.39794e-05
1.41581e-05
1.43693e-05
1.36245e-05
1.37806e-05
1.39273e-05
1.40783e-05
1.42412e-05
1.44335e-05
1.35992e-05
1.37475e-05
1.38838e-05
1.40175e-05
1.41521e-05
1.42951e-05
1.44613e-05
1.35751e-05
1.37162e-05
1.38458e-05
1.39682e-05
1.40854e-05
1.42024e-05
1.43227e-05
1.44604e-05
1.35538e-05
1.36875e-05
1.38118e-05
1.39273e-05
1.40335e-05
1.41348e-05
1.42338e-05
1.43324e-05
1.4444e-05
1.35375e-05
1.36634e-05
1.37829e-05
1.38938e-05
1.39939e-05
1.40856e-05
1.41721e-05
1.42552e-05
1.43361e-05
1.44262e-05
1.3528e-05
1.36461e-05
1.37609e-05
1.38687e-05
1.39657e-05
1.40529e-05
1.41321e-05
1.42064e-05
1.42774e-05
1.43452e-05
1.44176e-05
1.35268e-05
1.36373e-05
1.37477e-05
1.3853e-05
1.3949e-05
1.4035e-05
1.41119e-05
1.41819e-05
1.42476e-05
1.43098e-05
1.43666e-05
1.44234e-05
1.35358e-05
1.36389e-05
1.37449e-05
1.3848e-05
1.39439e-05
1.40309e-05
1.41086e-05
1.41785e-05
1.42424e-05
1.43015e-05
1.4355e-05
1.44009e-05
1.4441e-05
1.35568e-05
1.36525e-05
1.37542e-05
1.38553e-05
1.39512e-05
1.40397e-05
1.41198e-05
1.41918e-05
1.42569e-05
1.43156e-05
1.43673e-05
1.44109e-05
1.44447e-05
1.44702e-05
1.35924e-05
1.36801e-05
1.37773e-05
1.38762e-05
1.39719e-05
1.40617e-05
1.41441e-05
1.42188e-05
1.42859e-05
1.43453e-05
1.43967e-05
1.4439e-05
1.44718e-05
1.44955e-05
1.45125e-05
1.36473e-05
1.37251e-05
1.38168e-05
1.39129e-05
1.40079e-05
1.40982e-05
1.41821e-05
1.42585e-05
1.43269e-05
1.43869e-05
1.44379e-05
1.44797e-05
1.45123e-05
1.45365e-05
1.45537e-05
1.45668e-05
1.37306e-05
1.37946e-05
1.38782e-05
1.39699e-05
1.40628e-05
1.41527e-05
1.42369e-05
1.43137e-05
1.43822e-05
1.44417e-05
1.44917e-05
1.45326e-05
1.45648e-05
1.45894e-05
1.46074e-05
1.46203e-05
1.46303e-05
1.38627e-05
1.39047e-05
1.39748e-05
1.40585e-05
1.41468e-05
1.42341e-05
1.43169e-05
1.43929e-05
1.44605e-05
1.45187e-05
1.45673e-05
1.46067e-05
1.46377e-05
1.46617e-05
1.46796e-05
1.46926e-05
1.4702e-05
1.47098e-05
1.4093e-05
1.40964e-05
1.41412e-05
1.42086e-05
1.42863e-05
1.43666e-05
1.44448e-05
1.45174e-05
1.45824e-05
1.46385e-05
1.46853e-05
1.47229e-05
1.47522e-05
1.47745e-05
1.47913e-05
1.48038e-05
1.48131e-05
1.48205e-05
1.48277e-05
1.45432e-05
1.44786e-05
1.44721e-05
1.45042e-05
1.45573e-05
1.46199e-05
1.46848e-05
1.47472e-05
1.48039e-05
1.48532e-05
1.48944e-05
1.49273e-05
1.49527e-05
1.49717e-05
1.49855e-05
1.49957e-05
1.50038e-05
1.5011e-05
1.50185e-05
1.50271e-05
1.54423e-05
1.5302e-05
1.52121e-05
1.51743e-05
1.51736e-05
1.51963e-05
1.5231e-05
1.52695e-05
1.53058e-05
1.53362e-05
1.53592e-05
1.5375e-05
1.53846e-05
1.53896e-05
1.53916e-05
1.53918e-05
1.53914e-05
1.53918e-05
1.53951e-05
1.54022e-05
1.54118e-05
1.67916e-05
1.67111e-05
1.66185e-05
1.65403e-05
1.64839e-05
1.64509e-05
1.64395e-05
1.64452e-05
1.64622e-05
1.6483e-05
1.65003e-05
1.65086e-05
1.65054e-05
1.64919e-05
1.64718e-05
1.6449e-05
1.64263e-05
1.6405e-05
1.63856e-05
1.63716e-05
1.63632e-05
1.63565e-05
1.81051e-05
1.81058e-05
1.80997e-05
1.80922e-05
1.80841e-05
1.80751e-05
1.80641e-05
1.80509e-05
1.80373e-05
1.80281e-05
1.80289e-05
1.80429e-05
1.80665e-05
1.80904e-05
1.81063e-05
1.81113e-05
1.8108e-05
1.81015e-05
1.8095e-05
1.80901e-05
1.80868e-05
1.80838e-05
1.80793e-05
1.38294e-05
1.37847e-05
1.40367e-05
1.37471e-05
1.39675e-05
1.42164e-05
1.37153e-05
1.39123e-05
1.41214e-05
1.43779e-05
1.3687e-05
1.38675e-05
1.40485e-05
1.42548e-05
1.45055e-05
1.36602e-05
1.38289e-05
1.39909e-05
1.41639e-05
1.43569e-05
1.45901e-05
1.36334e-05
1.37934e-05
1.3942e-05
1.40931e-05
1.42509e-05
1.44232e-05
1.46278e-05
1.36066e-05
1.3759e-05
1.38985e-05
1.40338e-05
1.41685e-05
1.43076e-05
1.44534e-05
1.46243e-05
1.35811e-05
1.37257e-05
1.38584e-05
1.39832e-05
1.41014e-05
1.42184e-05
1.43362e-05
1.44547e-05
1.45928e-05
1.35589e-05
1.36953e-05
1.38223e-05
1.39401e-05
1.40474e-05
1.41488e-05
1.42477e-05
1.4345e-05
1.44401e-05
1.45499e-05
1.35416e-05
1.36698e-05
1.37916e-05
1.39045e-05
1.40056e-05
1.40973e-05
1.41831e-05
1.42659e-05
1.43465e-05
1.44236e-05
1.45102e-05
1.35311e-05
1.36512e-05
1.37679e-05
1.38774e-05
1.39754e-05
1.40627e-05
1.41412e-05
1.42144e-05
1.42849e-05
1.4353e-05
1.44158e-05
1.44828e-05
1.3529e-05
1.36412e-05
1.3753e-05
1.38597e-05
1.39567e-05
1.40432e-05
1.41197e-05
1.41888e-05
1.42533e-05
1.43149e-05
1.43722e-05
1.44227e-05
1.44701e-05
1.35369e-05
1.36416e-05
1.37488e-05
1.38531e-05
1.39498e-05
1.40373e-05
1.41151e-05
1.41845e-05
1.42475e-05
1.43058e-05
1.43589e-05
1.44054e-05
1.44421e-05
1.4471e-05
1.35565e-05
1.3654e-05
1.37569e-05
1.38589e-05
1.39556e-05
1.40446e-05
1.4125e-05
1.4197e-05
1.42616e-05
1.43198e-05
1.43711e-05
1.44146e-05
1.44489e-05
1.44731e-05
1.44892e-05
1.35903e-05
1.36802e-05
1.37789e-05
1.38789e-05
1.39754e-05
1.40657e-05
1.41485e-05
1.42233e-05
1.42902e-05
1.43495e-05
1.44005e-05
1.44428e-05
1.44758e-05
1.44999e-05
1.45158e-05
1.45274e-05
1.36424e-05
1.37233e-05
1.3817e-05
1.39146e-05
1.40106e-05
1.41017e-05
1.41861e-05
1.42628e-05
1.43313e-05
1.43911e-05
1.44419e-05
1.44836e-05
1.45162e-05
1.45406e-05
1.4558e-05
1.45701e-05