/*--------------------------------*- C++ -*----------------------------------*\
| =========                 |                                                 |
| \\      /  F ield         | OpenFOAM: The Open Source CFD Toolbox           |
|  \\    /   O peration     | Version:  v2012                                 |
|   \\  /    A nd           | Website:  www.openfoam.com                      |
|    \\/     M anipulation  |                                                 |
\*---------------------------------------------------------------------------*/
FoamFile
{
    version     2.0;
    format      ascii;
    class       volScalarField;
    location    "15001";
    object      omega;
}
// * * * * * * * * * * * * * * * * * * * * * * * * * * * * * * * * * * * * * //

dimensions      [0 0 -1 0 0 0 0];


internalField   nonuniform List<scalar> 
294912
(
13410.7
2185.13
13389.7
13262.1
899.422
2174.64
2142.3
13373.7
13242.7
13137.7
567.461
893.115
888.199
2165.22
2133.05
2108.99
13361.2
13227.6
13119.9
13032.8
444.822
563.582
576.642
887.362
882.866
886.993
2153.9
2124.93
2100.83
2084.19
13345.6
13207.8
13105.9
13017.7
12945.2
389.867
442.488
467.166
560.052
573.585
596.325
880.254
878.168
882.554
896.132
2138.77
2113.62
2094
2077.22
2068.12
13322.2
13169.9
13081.2
13007.5
12933.1
12871.9
361.746
388.501
420.044
440.376
465.467
498.753
555.792
570.909
593.977
625.883
870.855
871.965
878.857
892.547
915.726
2120.91
2096.01
2083.44
2072
2062.34
2061.22
13286.8
13111.6
13028.9
12984.9
12928.1
12863.1
12811.8
345.717
360.976
396.366
387.275
419.13
457.768
437.896
463.998
497.551
538.161
550.335
567.567
592.044
624.132
664.03
860.104
863.046
873.794
889.83
912.914
945.031
2099.81
2073.6
2065.26
2063.26
2058.77
2056.54
2063.76
13235.3
13031.2
12947.9
12929.6
12911.8
12863.9
12806.4
12762.4
335.675
345.316
382.761
360.296
395.905
437.076
385.865
418.359
457.179
501.406
434.814
462.232
496.594
537.336
583.562
544.226
563.035
589.605
622.842
662.763
708.775
848.033
852.35
866.011
886.106
911.091
942.903
982.362
2075.06
2046.32
2041.08
2046.63
2052.49
2054.52
2060.09
2075.46
13164.7
12926.7
12837.1
12840.8
12860.6
12855.7
12812.8
12760.1
12722.5
328.835
335.505
373.953
344.974
382.569
424.794
359.521
395.538
436.825
482.339
384.148
417.452
456.747
501.045
549.187
431.425
459.928
495.439
536.785
583.013
632.848
537.586
557.796
586.125
621.253
662.01
707.891
757.673
834.651
840.038
856.345
879.976
908.747
941.872
980.816
1025.23
2046.38
2014.24
2011.09
2023.5
2038.82
2051.08
2059.51
2072.72
2095.03
13072.4
12797.6
12696.7
12718.2
12773.3
12813.9
12814.4
12771.2
12722.1
12693.2
323.841
328.816
367.646
335.378
373.927
416.406
344.582
382.443
424.74
470.447
358.584
395.106
436.683
482.231
530.604
382.282
416.285
456.234
500.871
548.987
599.286
427.828
457.329
493.849
536.141
582.785
632.502
683.836
530.472
551.997
582.001
618.846
661.174
707.587
757.088
808.119
819.993
826.243
845.013
872.093
904.514
940.857
980.477
1024.19
1070.71
2013.6
1977.52
1975.66
1994.22
2018.71
2041.47
2059.18
2073.38
2093.15
2120.43
12956.7
12644
12528
12562.7
12650.7
12735.7
12784.9
12782.7
12738.7
12695.5
12677.8
319.996
323.924
362.773
328.829
367.728
410.015
335.223
373.951
416.475
461.811
344.099
382.286
424.769
470.49
518.368
357.569
394.539
436.51
482.262
530.599
580.323
380.335
414.985
455.517
500.672
549.02
599.203
649.907
424.074
454.537
492.016
535.171
582.563
632.542
683.64
734.424
522.94
545.733
577.375
615.919
659.761
707.399
757.164
807.765
857.624
804.128
811.133
832.217
862.664
898.782
938.561
980.693
1024.44
1070.08
1115.89
1976.71
1936.54
1935.3
1959.31
1992.58
2025.89
2054.32
2076.22
2094.91
2119.26
2148.86
12816.5
12467.9
12333.2
12376.7
12493.9
12621.4
12719.9
12769.2
12763.5
12715.5
12681.3
12677.8
316.932
320.152
358.822
324.033
362.929
404.787
328.829
367.851
410.166
454.826
335.015
373.963
416.611
461.95
508.944
343.572
382.053
424.791
470.645
518.489
567.193
356.521
393.904
436.229
482.297
530.778
580.402
629.983
378.343
413.615
454.693
500.318
549.081
599.415
649.915
699.359
420.202
451.61
490.035
534.023
582.113
632.675
683.911
734.34
782.723
515.058
539.097
572.354
612.594
657.969
706.856
757.531
808.168
857.444
904.071
787.15
794.918
818.194
851.898
891.734
935.092
980.233
1025.75
1070.87
1115.6
1158.3
1935.85
1891.75
1890.69
1919.45
1960.94
2004.64
2044.31
2076.68
2100.88
2121.94
2148.27
2177.47
12651.1
12270.5
12115.2
12163.2
12305.9
12472.5
12619.5
12722.2
12769
12754.1
12704.6
12682.8
12695.9
314.443
317.141
355.54
320.331
359.031
400.36
324.138
363.122
404.994
448.843
328.796
367.974
410.374
455.029
500.932
334.78
373.931
416.755
462.185
509.146
556.552
343.03
381.781
424.751
470.82
518.762
567.385
615.57
355.466
393.242
435.892
482.247
530.998
580.722
630.135
678.135
376.332
412.214
453.826
499.888
549.027
599.707
650.293
699.438
746.118
416.252
448.595
487.96
532.784
581.547
632.658
684.354
734.815
782.718
827.189
506.898
532.188
567.033
608.967
655.902
706.073
757.732
809.01
858.131
904.016
945.899
769.226
777.821
803.208
840.052
883.542
930.575
978.95
1026.95
1073.1
1116.84
1158.26
1196.22
1891.24
1843.8
1842.55
1875.5
1924.56
1978.26
2029.3
2072.93
2106.79
2130.84
2151.73
2177.42
2204.16
12460.3
12053.7
11878.1
11926.5
12089.8
12292.2
12485.1
12641.1
12743.8
12784.4
12758.9
12707.5
12700.2
12729.7
312.407
314.691
352.799
317.372
355.788
396.582
320.512
359.275
400.606
443.637
324.225
363.324
405.254
449.088
493.852
328.747
368.073
410.602
455.318
501.184
547.153
334.538
373.875
416.864
462.452
509.481
556.815
603.377
342.491
381.497
424.677
470.944
519.084
567.779
615.83
662.203
354.418
392.578
435.541
482.153
531.149
581.12
630.593
678.352
723.464
374.32
410.807
452.949
499.441
548.922
599.913
650.8
699.97
746.252
788.923
412.257
445.535
485.833
531.499
580.949
632.583
684.708
735.533
783.374
827.237
866.731
498.537
525.104
561.511
605.118
653.632
705.144
757.819
809.834
859.376
904.941
945.918
982.196
750.553
760.102
787.535
827.386
874.427
925.144
976.912
1027.65
1075.71
1119.84
1159.88
1196.36
1228.83
1843.19
1793.37
1791.87
1828.39
1884.29
1947.45
2009.65
2064.99
2109.61
2141.94
2163.11
2181.51
2204.4
2227.67
12243.9
11820.3
11625.8
11671.9
11851
12084.2
12320.7
12527.9
12688.3
12788.6
12819.3
12778.7
12726.4
12734
12772.5
310.745
312.685
350.523
314.963
353.076
393.388
317.612
356.073
396.856
439.154
320.686
359.539
400.905
443.908
487.626
324.303
363.518
405.545
449.414
494.13
538.701
328.693
368.158
410.814
455.65
501.557
547.453
592.307
334.299
373.811
416.952
462.692
509.876
557.258
603.702
648.233
341.964
381.217
424.596
471.04
519.367
568.257
616.354
662.528
705.912
353.388
391.927
435.2
482.06
531.268
581.462
631.17
678.948
723.735
764.857
372.324
409.412
452.083
499.011
548.833
600.093
651.244
700.682
746.926
789.096
826.879
408.254
442.466
483.69
530.2
580.356
632.535
685.054
736.212
784.339
828.047
866.804
900.763
490.077
517.941
555.885
601.13
651.217
704.108
757.877
810.656
860.719
906.524
947.036
982.248
1012.71
731.349
742.05
771.472
814.188
864.627
918.959
974.186
1027.88
1078.11
1123.58
1163.48
1198.27
1229.06
1256.11
1792.1
1741.22
1739.67
1779.1
1841.17
1913.08
1985.99
2053.05
2109.1
2151.04
2178.71
2194.8
2209.05
2228.17
2247.9
12002.5
11573.4
11363.3
11404.9
11595.3
11854.7
12129.7
12385.6
12602.9
12765.3
12859.4
12873.5
12815.1
12760.2
12776.4
12816
309.399
311.045
348.659
312.988
350.819
390.743
315.249
353.391
393.682
435.392
317.855
356.387
397.184
439.442
482.309
320.858
359.808
401.247
444.258
487.915
531.298
324.378
363.706
405.838
449.797
494.523
539.01
582.294
328.642
368.238
411.014
455.976
502.003
547.917
592.652
635.305
334.07
373.752
417.035
462.913
510.253
557.794
604.261
648.614
690.062
341.454
380.951
424.527
471.136
519.623
568.702
616.996
663.184
706.297
745.708
352.382
391.298
434.881
481.99
531.402
581.78
631.701
679.703
724.463
765.174
801.516
370.356
408.042
451.241
498.613
548.787
600.318
651.683
701.35
747.829
789.894
827.07
859.502
404.281
439.424
481.56
528.907
579.785
632.543
685.485
736.927
785.303
829.227
867.738
900.835
929.199
481.617
510.806
550.248
597.076
648.708
702.998
757.927
811.56
862.154
908.29
948.893
983.507
1012.75
1037.74
711.841
723.963
755.339
800.724
854.387
912.2
970.874
1027.64
1080.3
1127.36
1168.07
1202.31
1231.19
1256.37
1278.71
1738.5
1688.17
1686.93
1728.87
1796.21
1876.09
1959.04
2037.53
2105.26
2157.72
2193.33
2213.83
2223.67
2233.18
2248.51
2265.58
11737.1
11315.5
11095.3
11131.5
11329.1
11609.1
11916.9
12217.3
12488.5
12714.1
12875.9
12955.6
12943.5
12861.6
12802.8
12819.5
12854.2
308.321
309.712
347.164
311.37
348.968
388.612
313.312
351.157
391.048
432.347
315.549
353.746
394.031
435.689
477.957
318.102
356.719
397.57
439.807
482.6
525.114
321.03
360.079
401.608
444.683
488.314
531.598
573.655
324.456
363.893
406.128
450.194
495.008
539.472
582.622
623.643
328.599
368.323
411.213
456.293
502.453
548.49
593.212
635.687
675.217
333.854
373.704
417.126
463.133
510.611
558.318
604.95
649.293
690.492
727.999
340.964
380.704
424.477
471.251
519.887
569.122
617.611
663.995
707.081
746.143
780.87
351.404
390.695
434.59
481.956
531.575
582.128
632.214
680.42
725.391
766.021
801.862
832.999
368.429
406.707
450.431
498.25
548.795
600.617
652.198
702.029
748.701
790.967
827.97
859.693
886.734
400.375
436.441
479.467
527.64
579.244
632.608
686.023
737.784
786.344
830.436
869.097
901.857
929.245
952.383
473.256
503.8
544.687
593.026
646.157
701.839
757.969
812.545
863.772
910.23
950.994
985.573
1014.11
1037.75
1058.04
692.292
706.115
739.435
787.297
843.94
905.056
967.092
1026.98
1082.24
1131.15
1172.9
1207.51
1235.52
1258.63
1278.94
1297.72
1682.98
1634.99
1634.67
1678.8
1750.58
1837.44
1929.64
2019.01
2098.35
2161.78
2206.37
2232.74
2244.96
2248.49
2253.77
2266.23
2281.93
11448.4
11049.2
10826.6
10858.1
11058.9
11353.6
11689
12028.6
12350
12637.7
12869.9
13020.8
13067.9
13019.2
12910.7
12845.2
12855.4
12886.8
307.468
308.641
345.993
310.054
347.477
386.956
311.724
349.321
388.921
429.993
313.659
351.547
391.41
432.646
474.584
315.859
354.134
394.453
436.063
478.244
520.252
318.352
357.064
397.993
440.268
482.995
525.397
566.671
321.204
360.354
401.98
445.144
488.827
532.04
573.945
613.808
324.539
364.083
406.421
450.595
495.52
540.065
583.152
623.976
661.935
328.564
368.416
411.419
456.612
502.897
549.075
593.92
636.342
675.621
711.302
333.653
373.671
417.233
463.367
510.973
558.825
605.632
650.139
691.287
728.469
761.417
340.494
380.478
424.45
471.394
520.179
569.557
618.2
664.781
708.057
747.046
781.345
811
350.455
390.119
434.328
481.956
531.797
582.535
632.773
681.123
726.284
767.105
802.809
833.361
859.251
366.553
405.413
449.654
497.925
548.852
600.99
652.818
702.817
749.603
792.022
829.187
860.666
886.905
908.891
396.571
433.546
477.433
526.405
578.733
632.728
686.654
738.793
787.578
831.759
870.509
903.353
930.319
952.382
970.98
465.097
497.013
539.285
589.05
643.607
700.651
758.003
813.59
865.556
912.442
953.337
987.926
1016.31
1039.15
1057.98
1074.57
672.966
688.786
724.03
774.169
833.528
897.711
962.96
1025.94
1083.9
1134.88
1177.95
1213.09
1241.1
1263.13
1281.27
1297.89
1314.43
1626.25
1582.51
1583.85
1629.93
1705.37
1798.21
1898.66
1998.2
2088.76
2163.29
2217.49
2250.83
2266.72
2270.94
2269.34
2271.62
2282.49
2298.39
11136.6
10777.1
10562.1
10591
10791
11095.2
11451.8
11824.8
12192.2
12537.8
12839.5
13064.6
13180.5
13178.5
13084.6
12952.8
12880.3
12887.4
12910.3
306.805
307.792
345.102
308.992
346.304
385.725
310.431
347.837
387.26
428.278
312.112
349.737
389.288
430.284
472.149
314.025
351.985
391.863
433.02
474.86
516.716
316.176
354.547
394.934
436.552
478.631
520.517
561.465
318.604
357.416
398.44
440.789
483.529
525.813
566.924
606.17
321.382
360.633
402.359
445.625
489.395
532.64
574.424
614.072
651.037
324.627
364.281
406.723
451.003
496.042
540.701
583.857
624.567
662.252
696.541
328.539
368.519
411.637
456.942
503.346
549.657
594.649
637.185
676.363
711.716
743.032
333.464
373.651
417.357
463.621
511.353
559.337
606.296
650.983
692.285
729.37
761.917
789.976
340.043
380.27
424.445
471.564
520.506
570.028
618.809
665.54
709.01
748.175
782.351
811.507
836.057
349.538
389.568
434.091
481.99
532.064
583.001
633.406
681.887
727.166
768.158
804.027
834.384
859.61
880.566
364.74
404.168
448.912
497.629
548.951
601.429
653.534
703.737
750.643
793.12
830.393
861.992
887.922
909.024
926.563
392.906
430.765
475.471
525.212
578.251
632.886
687.363
739.937
789.013
833.326
872.066
904.921
931.908
953.476
970.916
985.847
457.238
490.528
534.11
585.197
641.094
699.449
758.024
814.667
867.461
914.895
956.031
990.576
1018.84
1041.44
1059.38
1074.43
1088.44
654.146
672.214
709.364
761.563
823.36
890.342
958.606
1024.6
1085.29
1138.49
1183.08
1219.03
1247.17
1268.91
1285.86
1300.22
1314.49
1330.11
1568.8
1531.55
1535.35
1583.24
1661.58
1759.36
1867.04
1975.79
2076.91
2162.39
2226.5
2267.57
2288.23
2294.21
2292.04
2287.07
2287.95
2298.87
2316.41
10802.2
10500.8
10305.1
10334.6
10532.6
10840.9
11212.4
11611.2
12019.1
12418.5
12786.7
13087.4
13277.5
13331.3
13264.9
13130.5
12986.6
12911.7
12911
12928.5
306.298
307.126
344.449
308.145
345.406
384.864
309.386
346.663
386.018
427.136
310.852
348.273
387.625
428.556
470.573
312.527
350.219
389.764
430.653
472.409
514.425
314.402
352.46
392.396
433.535
475.236
516.958
557.988
316.497
354.973
395.455
437.131
479.183
520.905
561.684
600.825
318.86
357.777
398.904
441.348
484.15
526.413
567.347
606.372
642.937
321.564
360.92
402.75
446.122
489.994
533.317
575.106
614.571
651.248
684.781
324.721
364.487
407.036
451.426
496.578
541.354
584.618
625.376
662.89
696.822
727.006
328.52
368.632
411.867
457.289
503.812
550.249
595.378
638.057
677.329
712.532
743.443
770.121
333.285
373.643
417.495
463.895
511.758
559.873
606.968
651.806
693.285
730.507
762.909
790.502
813.646
339.608
380.076
424.457
471.757
520.865
570.541
619.464
666.325
709.932
749.281
783.613
812.594
836.58
856.327
348.652
389.041
433.874
482.046
532.366
583.523
634.114
682.742
728.123
769.2
805.216
835.707
860.683
880.904
897.488
363
402.975
448.203
497.358
549.077
601.915
654.332
704.779
751.843
794.386
831.656
863.315
889.322
910.057
926.644
940.512
389.414
428.118
473.596
524.062
577.788
633.065
688.121
741.18
790.617
835.134
873.911
906.661
933.586
955.118
972.004
985.709
997.913
449.776
484.412
529.215
581.51
638.643
698.245
758.02
815.751
869.442
917.527
959.027
993.642
1021.71
1044.07
1061.71
1075.81
1088.2
1100.69
636.074
656.622
695.623
749.668
813.598
883.089
954.141
1023.01
1086.42
1141.92
1188.21
1225.19
1253.7
1275.26
1291.71
1304.81
1316.79
1330.04
1345.97
1511.13
1482.49
1489.95
1539.5
1620.12
1721.8
1835.58
1952.48
2063.38
2159.35
2233.47
2282.75
2308.95
2317.62
2315.74
2309.39
2303.07
2304.3
2316.77
2337.35
10445.5
10221.9
10058.1
10093.2
10288.7
10597.1
10976.9
11395.4
11836.5
12283.9
12715.8
13090
13357.2
13472.1
13443.2
13317.7
13159
13011
12935.8
12928.2
12943.8
305.916
306.613
343.992
307.479
344.741
384.316
308.551
345.758
385.141
426.487
309.835
347.112
386.373
427.394
469.752
311.31
348.791
388.117
428.915
470.811
513.249
312.958
350.751
390.344
431.188
472.773
514.643
556.096
314.784
352.956
392.987
434.165
475.805
517.328
558.178
597.641
316.821
355.41
396.001
437.767
479.853
521.507
562.065
600.98
637.659
319.119
358.145
399.384
441.936
484.825
527.125
568.001
606.788
643.064
676.426
321.748
361.213
403.154
446.64
490.62
534.038
575.882
615.316
651.751
684.916
714.617
324.818
364.699
407.359
451.865
497.136
542.028
585.403
626.253
663.784
697.491
727.236
753.081
328.505
368.75
412.108
457.65
504.298
550.862
596.119
638.931
678.334
713.605
744.317
770.531
792.535
333.113
373.641
417.644
464.184
512.185
560.437
607.666
652.637
694.259
731.649
764.165
791.566
814.193
832.705
339.187
379.892
424.479
471.967
521.25
571.092
620.167
667.161
710.883
750.349
784.851
813.965
837.724
856.849
872.336
347.801
388.536
433.67
482.116
532.69
584.082
634.885
683.684
729.185
770.33
806.392
837
862.08
882
897.791
910.716
361.342
401.835
447.524
497.102
549.217
602.428
655.184
705.917
753.189
795.837
833.11
864.705
890.725
911.498
927.669
940.531
951.56
386.125
425.625
471.815
522.953
577.333
633.244
688.895
742.482
792.344
837.145
876.037
908.725
935.454
956.857
973.661
986.767
997.693
1008.08
442.795
478.724
524.638
578.016
636.267
697.033
757.972
816.8
871.448
920.275
962.254
997.062
1025.04
1047.07
1064.38
1078.14
1089.54
1100.35
1112.29
618.946
642.159
682.958
738.607
804.373
876.058
949.642
1021.22
1087.29
1145.14
1193.28
1231.47
1260.57
1282.15
1298.15
1310.63
1321.32
1332.3
1345.78
1363.02
1453.69
1435.75
1447.96
1499.41
1581.59
1686.25
1804.94
1928.89
2048.66
2154.57
2238.52
2296.24
2328.54
2340.62
2339.78
2332.74
2324.67
2319
2322.19
2337.57
2362.41
10066.2
9940.02
9822.21
9870.14
10063.9
10369.6
10750.8
11182.8
11650
12138.9
12627.9
13072.9
13416.4
13598.6
13614.5
13505.6
13338.2
13169.2
13027.8
12952.8
12943.1
12957
305.635
306.223
343.691
306.96
344.269
384.022
307.891
345.081
384.574
426.25
309.022
346.214
385.482
426.722
469.577
310.33
347.661
386.876
427.739
469.969
513.042
311.79
349.376
388.736
429.465
471.166
513.445
555.598
313.396
351.314
391
431.866
473.359
515.004
556.262
596.389
315.169
353.466
393.614
434.876
476.523
517.938
558.541
597.763
634.967
317.147
355.855
396.57
438.445
480.602
522.254
562.702
601.344
637.729
671.397
319.378
358.52
399.88
442.553
485.543
527.909
568.786
607.472
643.456
676.453
706.204
321.932
361.511
403.571
447.18
491.28
534.797
576.715
616.173
652.533
685.402
714.659
740.303
324.914
364.913
407.691
452.32
497.718
542.732
586.217
627.161
664.76
698.448
727.92
753.263
774.699
328.49
368.87
412.354
458.023
504.802
551.499
596.886
639.819
679.34
714.724
745.476
771.448
792.952
810.514
332.943
373.642
417.796
464.483
512.628
561.025
608.395
653.498
695.241
732.758
765.429
792.92
815.305
833.263
847.657
338.778
379.715
424.505
472.182
521.649
571.668
620.909
668.049
711.889
751.448
786.044
815.308
839.173
858.025
872.837
884.748
346.984
388.049
433.475
482.191
533.022
584.663
635.699
684.696
730.347
771.577
807.666
838.279
863.446
883.44
898.886
910.97
921.002
359.778
400.754
446.871
496.848
549.354
602.943
656.059
707.114
754.643
797.454
834.775
866.306
892.201
912.945
929.121
941.528
951.511
960.517
383.069
423.299
470.13
521.88
576.873
633.398
689.652
743.8
794.142
839.302
878.391
911.1
937.676
958.801
975.421
988.413
998.706
1007.78
1017.17
436.362
473.504
520.405
574.726
633.972
695.803
757.852
817.775
873.419
923.066
965.634
1000.76
1028.77
1050.57
1067.44
1080.8
1091.83
1101.63
1111.84
1124.01
602.91
628.925
671.445
728.457
795.741
869.314
945.15
1019.24
1087.88
1148.1
1198.2
1237.77
1267.64
1289.43
1305.19
1317.06
1327.03
1336.74
1347.96
1362.69
1382.05
1396.83
1391.46
1409.57
1463.18
1546.58
1653.18
1775.66
1905.54
2033.2
2148.32
2241.73
2307.92
2346.73
2362.82
2363.59
2356.5
2347.24
2339.7
2336.44
2342.97
2362.53
2392.78
9662.35
9653.61
9597.67
9666.82
9862.02
10161.5
10539.9
10978.1
11464.1
11987.4
12526.9
13039.9
13457.2
13710
13776.3
13690.2
13520.2
13335.5
13170.1
13039.5
12967
12956.5
12973.4
305.431
305.933
343.513
306.563
343.952
383.93
307.375
344.593
384.259
426.346
308.378
345.538
384.895
426.462
469.938
309.548
346.785
385.988
427.051
469.773
513.657
310.853
348.29
387.526
428.299
470.317
513.22
556.3
312.279
350
389.451
430.182
471.771
513.812
555.748
596.817
313.837
351.894
391.704
432.644
474.122
515.636
556.636
596.492
634.544
315.555
353.987
394.27
435.642
477.341
518.724
559.184
598.123
635.004
669.346
317.472
356.31
397.16
439.164
481.412
523.099
563.502
601.997
638.069
671.36
701.578
319.635
358.9
400.392
443.201
486.31
528.753
569.659
608.303
644.142
676.807
706.117
732.009
322.112
361.81
403.996
447.74
491.972
535.603
577.6
617.099
653.442
686.193
715.113
740.255
761.716
325.005
365.125
408.026
452.786
498.32
543.468
587.07
628.105
665.771
699.501
728.917
753.947
774.853
792.037
328.471
368.987
412.6
458.402
505.318
552.156
597.681
640.737
680.363
715.843
746.688
772.673
793.892
810.945
824.528
332.773
373.639
417.946
464.782
513.078
561.629
609.148
654.39
696.253
733.873
766.652
794.281
816.732
834.407
848.203
859.161
338.379
379.539
424.529
472.396
522.049
572.255
621.678
668.979
712.951
752.605
787.265
816.597
840.592
859.525
874.023
885.212
894.266
346.205
387.579
433.28
482.256
533.347
585.246
636.53
685.755
731.585
772.935
809.068
839.662
864.794
884.848
900.341
912.047
921.201
929.091
358.316
399.732
446.238
496.588
549.468
603.436
656.926
708.334
756.162
799.192
836.62
868.136
893.905
914.469
930.581
942.967
952.467
960.396
968.115
380.269
421.152
468.546
520.839
576.388
633.5
690.352
745.084
795.953
841.538
880.913
913.733
940.235
961.121
977.395
990.161
1000.32
1008.73
1016.77
1025.84
430.516
468.774
516.526
571.64
631.744
694.534
757.626
818.62
875.289
925.828
969.079
1004.63
1032.8
1054.5
1071.03
1083.86
1094.44
1103.86
1113.05
1123.46
1136.47
588.015
616.925
661.084
719.246
787.736
862.86
940.671
1017.06
1088.16
1150.75
1202.87
1243.97
1274.79
1296.98
1312.68
1324.1
1333.36
1342.31
1352.3
1364.8
1381.59
1403.6
1340.51
1349.53
1374.74
1430.85
1515.16
1622.99
1748.08
1882.78
2017.27
2140.77
2243.21
2317.85
2363.37
2383.91
2386.84
2380.15
2370.12
2361.22
2356.19
2356.88
2367.96
2392.74
2429.27
9231.79
9359.65
9381.09
9481.82
9681.98
9975.28
10347.9
10786
11283.8
11833
12417.2
12991.7
13480.4
13803.8
13924.2
13865
13699.1
13501.3
13318.4
13168.9
13049.9
12983.1
12974.2
12994.2
305.287
305.719
343.427
306.262
343.756
383.991
306.977
344.258
384.145
426.702
307.875
345.047
384.558
426.534
470.73
308.93
346.126
385.398
426.773
470.116
514.954
310.11
347.453
386.66
427.619
470.119
513.827
558.021
311.389
348.969
388.29
429.049
470.944
513.609
556.45
598.688
312.771
350.645
390.224
431.021
472.576
514.478
556.167
596.921
636.083
314.278
352.487
392.444
433.494
475.006
516.467
557.315
596.902
634.572
669.879
315.941
354.518
394.954
436.461
478.239
519.629
560.015
598.788
635.367
669.276
700.27
317.793
356.769
397.77
439.924
482.286
524.026
564.414
602.82
638.715
671.67
701.417
727.895
319.885
359.279
400.915
443.876
487.124
529.666
570.61
609.236
644.987
677.47
706.422
731.808
753.67
322.284
362.105
404.423
448.314
492.694
536.457
578.548
618.091
654.432
687.126
715.89
740.665
761.604
778.955
325.087
365.331
408.359
453.256
498.936
544.229
587.961
629.096
666.823
700.588
730.022
754.969
775.524
792.191
805.481
328.443
369.095
412.839
458.776
505.838
552.825
598.495
641.685
681.417
716.978
747.896
773.955
795.164
811.899
824.953
835.229
332.598
373.629
418.089
465.075
513.524
562.235
609.914
655.304
697.295
735.016
767.877
795.594
818.163
835.879
849.356
859.678
867.893
337.989
379.359
424.541
472.595
522.439
572.839
622.452
669.934
714.055
753.82
788.546
817.912
841.947
860.989
875.544
886.388
894.684
901.582
345.466
387.124
433.078
482.302
533.647
585.807
637.353
686.826
732.871
774.375
810.587
841.181
866.251
886.233
901.763
913.493
922.245
929.229
935.657
356.966
398.774
445.626
496.313
549.541
603.881
657.754
709.537
757.703
801.001
838.598
870.163
895.853
916.231
932.118
944.414
953.877
961.303
967.921
974.969
377.737
419.192
467.062
519.819
575.866
633.522
690.957
746.283
797.716
843.787
883.523
916.547
943.068
963.797
979.758
992.126
1002.03
1010.3
1017.67
1025.36
1034.62
425.256
464.535
512.994
568.746
629.563
693.195
757.25
819.28
876.984
928.47
972.496
1008.59
1037.04
1058.75
1075.05
1087.45
1097.46
1106.42
1115.23
1124.61
1135.82
1150.05
574.189
606.094
651.817
710.915
780.335
856.683
936.163
1014.64
1088.05
1152.98
1207.2
1249.96
1281.89
1304.67
1320.46
1331.62
1340.31
1348.48
1357.7
1369.04
1383.63
1403.01
1427.92
1284.41
1309.44
1343
1402.09
1487.19
1595.62
1722.49
1860.71
2001.03
2132.07
2243.02
2325.97
2378.4
2403.74
2409.28
2403.35
2392.95
2383.01
2376.61
2375.77
2381.51
2398.21
2429.15
2472.36
8769.46
9052.35
9167.31
9310.66
9522.09
9811.21
10175.5
10609.4
11111.4
11679.7
12301.6
12929
13486.5
13878.1
14054.9
14028.3
13869.4
13664.1
13466.9
13299.4
13168.5
13062.4
13002.7
12995.8
13021.6
305.188
305.565
343.408
306.037
343.651
384.161
306.673
344.042
384.182
427.247
307.485
344.704
384.42
426.866
471.856
308.448
345.645
385.055
426.826
470.895
516.806
309.525
346.823
386.086
427.344
470.462
515.129
560.605
310.686
348.179
387.464
428.394
470.771
514.251
558.196
601.804
311.927
349.673
389.125
429.938
471.789
514.326
556.946
598.826
639.323
313.264
351.305
391.043
431.944
473.52
515.362
556.914
597.44
636.14
672.647
314.719
353.092
393.218
434.407
475.986
517.434
558.2
597.633
635.044
669.82
701.825
316.321
355.056
395.663
437.332
479.218
520.637
560.978
599.645
636.046
669.65
700.082
727.378
318.106
357.229
398.396
440.721
483.226
525.043
565.43
603.771
639.539
672.293
701.697
727.607
750.141
320.124
359.653
401.442
444.573
487.982
530.648
571.653
610.266
645.949
678.303
707.047
732.06
753.389
771.207
322.442
362.389
404.847
448.894
493.439
537.353
579.558
619.16
655.501
688.153
716.827
741.412
761.967
778.829
792.299
325.154
365.524
408.682
453.722
499.558
545.008
588.885
630.134
667.929
701.721
731.162
756.108
776.557
792.847
805.633
815.676
328.403
369.189
413.066
459.143
506.351
553.496
599.323
642.654
682.502
718.146
749.12
775.232
796.492
813.198
825.908
835.634
843.277
332.419
373.607
418.215
465.351
513.958
562.833
610.68
656.229
698.358
736.189
769.128
796.903
819.537
837.351
850.849
860.821
868.369
874.489
337.609
379.177
424.538
472.772
522.803
573.4
623.215
670.889
715.18
755.076
789.886
819.286
843.325
862.38
877.028
887.906
895.835
901.947
907.318
344.77
386.685
432.869
482.321
533.907
586.327
638.143
687.881
734.167
775.86
812.192
842.823
867.849
887.729
903.157
914.906
923.668
930.231
935.731
941.275
355.732
397.883
445.032
496.016
549.565
604.256
658.508
710.68
759.214
802.828
840.652
872.331
898.008
918.249
933.902
945.937
955.293
962.674
968.775
974.704
981.562
375.469
417.416
465.673
518.809
575.284
633.435
691.427
747.347
799.367
845.977
886.145
919.456
946.097
966.76
982.49
994.488
1003.96
1011.96
1019.19
1026.21
1034.07
1043.87
420.535
460.755
509.791
566.028
627.405
691.745
756.67
819.685
878.422
930.895
975.777
1012.52
1041.37
1063.22
1079.42
1091.5
1101.01
1109.36
1117.7
1126.73
1136.91
1149.31
1164.93
561.205
596.262
643.513
703.368
773.448
850.727
931.572
1011.87
1087.46
1154.68
1211.05
1255.6
1288.82
1312.34
1328.41
1339.45
1347.73
1355.26
1363.67
1374.26
1387.77
1405
1427.21
1454.89
1227.7
1270.25
1313.44
1376.27
1462.23
1570.84
1698.64
1839.49
1984.39
2122.17
2241.04
2332.08
2391.61
2422.09
2430.62
2425.87
2415.38
2404.66
2397.22
2395.14
2399.65
2411.53
2434.61
2472.13
2521.91
8268.29
8723.37
8948.1
9146.18
9377.94
9666.6
10021.6
10447.6
10948.9
11529.2
12180.2
12855.3
13475.5
13934.1
14168
14177.9
14031.1
13820
13609.4
13427.6
13285.6
13172.8
13080.2
13024.5
13023
13055.6
305.121
305.455
343.434
305.871
343.613
384.405
306.444
343.917
384.329
427.923
307.186
344.479
384.431
427.389
473.222
308.074
345.307
384.906
427.136
472.011
519.093
309.07
346.365
385.75
427.399
471.242
517.002
563.909
310.137
347.589
386.921
428.138
471.142
515.6
560.837
606.003
311.266
348.935
388.351
429.323
471.654
515.034
558.8
602.025
644.065
312.467
350.396
390.013
430.925
472.786
515.271
557.795
599.507
639.47
677.378
313.756
351.981
391.901
432.944
474.574
516.395
557.877
598.291
636.806
672.659
705.867
315.155
353.707
394.024
435.384
477.062
518.519
559.228
598.567
635.832
670.374
701.674
729.957
316.692
355.595
396.394
438.254
480.281
521.754
562.061
600.641
636.915
670.332
700.476
727.066
750.435
318.405
357.681
399.029
441.551
484.229
526.156
566.562
604.842
640.5
673.098
702.287
727.852
749.762
768.275
320.347
360.013
401.964
445.281
488.878
531.697
572.788
611.407
647.022
679.265
707.854
732.634
753.592
770.902
784.847
322.582
362.657
405.258
449.471
494.196
538.282
580.625
620.306
656.659
689.265
717.868
742.334
762.682
779.144
792.216
802.36
325.204
365.699
408.989
454.176
500.174
545.795
589.832
631.211
669.089
702.913
732.351
757.281
777.712
793.879
806.282
815.818
823.278
328.348
369.266
413.274
459.489
506.85
554.157
600.15
643.635
683.61
719.346
750.376
776.521
797.813
814.551
827.214
836.572
843.651
849.272
332.232
373.571
418.32
465.601
514.365
563.407
611.429
657.147
699.428
737.379
770.404
798.233
820.903
838.757
852.34
862.311
869.489
874.916
879.529
337.239
378.989
424.517
472.918
523.13
573.924
623.944
671.822
716.301
756.348
791.264
820.717
844.761
863.791
878.429
889.386
897.333
903.06
907.625
912.009
344.121
386.264
432.652
482.309
534.119
586.786
638.871
688.887
735.433
777.351
813.844
844.555
869.575
889.369
904.662
916.287
925.055
931.619
936.686
941.287
946.402
354.611
397.06
444.454
495.686
549.519
604.536
659.158
711.722
760.646
804.613
842.719
874.578
900.311
920.481
935.948
947.71
956.782
964.047
970.101
975.506
981.228
988.234
373.435
415.815
464.374
517.801
574.625
633.21
691.72
748.219
800.846
848.029
888.696
922.376
949.225
969.928
985.517
997.224
1006.29
1013.83
1020.79
1027.67
1034.85
1043.23
1053.75
416.23
457.368
506.872
563.451
625.24
690.149
755.83
819.768
879.516
933.008
978.812
1016.3
1045.67
1067.8
1084.02
1095.9
1105.03
1112.83
1120.55
1129.11
1138.97
1150.34
1164.09
1181.02
548.657
587.12
635.951
696.443
766.957
844.885
926.801
1008.67
1086.25
1155.69
1214.26
1260.71
1295.4
1319.86
1336.37
1347.45
1355.47
1362.51
1370.25
1380.04
1392.83
1409.06
1429.14
1454.06
1484
1169.06
1230.46
1284.75
1352.31
1439.49
1548.07
1676.18
1818.8
1967.35
2110.82
2237.06
2335.94
2402.68
2438.68
2450.7
2447.49
2437.2
2425.95
2417.64
2414.62
2418.18
2429.04
2447.72
2477.65
2521.6
2575.73
7717.88
8359.99
8710.63
8978.55
9240.17
9534.68
9883.36
10300.3
10796.7
11382.7
12054.3
12770.2
13447.1
13972
14261.9
14310.9
14181.4
13966.7
13745.1
13551.8
13398.6
13280.9
13185.3
13101.9
13053.1
13057.2
13103.2
305.078
305.379
343.49
305.75
343.622
384.692
306.272
343.858
384.549
428.675
306.96
344.342
384.551
428.04
474.745
307.788
345.082
384.904
427.634
473.368
521.699
308.718
346.044
385.603
427.709
472.356
519.319
567.8
309.712
347.163
386.607
428.204
471.952
517.523
564.229
611.154
310.753
348.39
387.849