/*--------------------------------*- C++ -*----------------------------------*\
| =========                 |                                                 |
| \\      /  F ield         | OpenFOAM: The Open Source CFD Toolbox           |
|  \\    /   O peration     | Version:  v2012                                 |
|   \\  /    A nd           | Website:  www.openfoam.com                      |
|    \\/     M anipulation  |                                                 |
\*---------------------------------------------------------------------------*/
FoamFile
{
    version     2.0;
    format      ascii;
    class       volScalarField;
    location    "15001";
    object      p;
}
// * * * * * * * * * * * * * * * * * * * * * * * * * * * * * * * * * * * * * //

dimensions      [1 -1 -2 0 0 0 0];


internalField   nonuniform List<scalar> 
294912
(
80547.6
80540.5
80547.4
80564.1
80533.5
80540.4
80554.8
80547.2
80563.5
80575.4
80530.6
80533.4
80546
80540.4
80554.5
80568.7
80546.8
80563.1
80574.7
80584.1
80529.3
80530.5
80540.4
80533.2
80545.7
80558.6
80540.3
80554.3
80568.2
80582.5
80546.5
80562.6
80574.1
80583.2
80591.4
80530
80529.2
80535.8
80530.4
80540.1
80552.4
80533
80545.5
80558.2
80572.4
80540
80554
80567.8
80581.7
80596.5
80545.9
80562
80573.3
80582.5
80590.3
80597.4
80532.5
80530
80532.7
80529.1
80535.6
80546.1
80530
80539.9
80551.9
80566.8
80532.7
80545.1
80557.8
80571.6
80588.7
80539.7
80553.6
80567.4
80581.1
80595.3
80609.6
80545.4
80561.3
80572.5
80581.4
80589.5
80596.3
80601.9
80536.6
80532.7
80530.7
80530
80532.5
80542
80528.7
80535.4
80545.8
80559.9
80529.6
80539.4
80551.5
80566.1
80585.8
80532.2
80544.6
80557.2
80571
80587.5
80606.8
80539.2
80553.1
80566.8
80580.4
80594.5
80608.2
80622.2
80544.7
80560.4
80571.5
80580.3
80588.2
80595.3
80600.8
80604.7
80541.7
80536.9
80530.1
80532.7
80530.5
80538.8
80529.6
80532.3
80541.6
80554.7
80528.2
80534.9
80545.4
80559.2
80580.4
80529.1
80538.9
80551
80565.5
80584.6
80609.7
80531.7
80544.1
80556.6
80570.2
80586.6
80605.2
80625.1
80538.6
80552.4
80566
80579.6
80593.5
80607.1
80620.4
80632.8
80544
80559.4
80570.4
80579
80586.8
80593.8
80599.7
80603.7
80606.3
80547.1
80542.1
80530
80536.9
80529.8
80537.4
80532.4
80530.5
80538.5
80551.6
80529.1
80531.8
80541.4
80554.2
80576.2
80527.6
80534.3
80544.8
80558.7
80579.2
80609.4
80528.5
80538.3
80550.3
80564.7
80583.6
80607.9
80636.7
80531
80543.4
80555.9
80569.4
80585.5
80604
80623.1
80642.4
80538
80551.7
80565.1
80578.5
80592.3
80605.7
80619.1
80630.9
80641.6
80543.2
80558.3
80569.1
80577.5
80585.2
80592.2
80598
80602.5
80605.3
80606.9
80552.3
80547.5
80530
80542.1
80529.7
80536.7
80536.7
80529.8
80537.1
80548.8
80531.8
80530
80538.3
80551
80572.4
80528.4
80531.2
80540.7
80553.7
80575.1
80609
80526.9
80533.7
80544.1
80557.8
80578.3
80607.5
80646.9
80527.8
80537.6
80549.6
80563.8
80582.4
80606.5
80634.2
80665.2
80530.3
80542.6
80555
80568.4
80584.3
80602.4
80621.4
80640
80657.6
80537.2
80550.8
80564.1
80577.4
80590.9
80604.1
80617.2
80629.3
80639.6
80648.1
80542.3
80557.1
80567.7
80575.9
80583.5
80590.4
80596.2
80600.6
80604
80606
80607.3
80556.8
80552.7
80529.6
80547.5
80529.6
80536.3
80541.8
80529.6
80536.2
80547.4
80536.1
80529.3
80536.9
80548.2
80570.5
80531.1
80529.3
80537.6
80550.6
80571.4
80608.1
80527.6
80530.5
80540
80552.7
80574.3
80607
80656.4
80526.1
80532.9
80543.3
80556.9
80577
80606
80644.1
80689.3
80527
80536.8
80548.7
80562.8
80581.1
80604.6
80632.2
80662.1
80691.5
80529.5
80541.7
80554
80567.2
80582.9
80600.7
80619.2
80637.9
80654.9
80670.5
80536.5
80549.8
80563
80576.1
80589.2
80602.3
80615.3
80627.1
80637.8
80646.1
80653
80541.3
80555.7
80566.2
80574.2
80581.6
80588.4
80594.2
80598.8
80602.1
80604.7
80606.4
80607.1
80560.4
80557.2
80528.6
80552.6
80529.1
80535.6
80547.2
80529.5
80535.8
80546
80541.2
80529.1
80536.1
80546.6
80568.8
80535.3
80528.6
80536.2
80547.8
80569.4
80606.8
80530.2
80528.5
80536.8
80549.6
80570.6
80606
80663.4
80526.7
80529.6
80539.1
80551.7
80572.8
80605.5
80653.1
80715.3
80525.3
80532
80542.4
80555.8
80575.6
80604
80641.8
80685.5
80730.9
80526.2
80535.9
80547.7
80561.7
80579.6
80602.7
80629.5
80659.4
80687.8
80715.2
80528.6
80540.7
80552.9
80566
80581.3
80598.8
80616.9
80635.1
80652.4
80667.5
80680.7
80535.6
80548.8
80561.7
80574.6
80587.4
80600.3
80613
80624.8
80635.3
80644.2
80650.9
80656.5
80540.2
80554.3
80564.7
80572.5
80579.7
80586.3
80592
80596.6
80600.1
80602.7
80604.9
80606.5
80606.6
80563
80560.7
80526.9
80557
80528
80534.2
80552.1
80528.9
80535
80544.3
80546.4
80528.8
80535.5
80545.1
80566.6
80540.3
80528.3
80535.3
80546.2
80567.5
80605
80534.3
80527.6
80535.2
80546.7
80568.5
80604.5
80668.1
80529.2
80527.6
80535.7
80548.4
80569
80604.4
80659.5
80740.1
80525.8
80528.7
80538
80550.5
80571.3
80603.2
80650.5
80710.5
80778.1
80524.3
80531.1
80541.3
80554.6
80574.1
80602
80638.7
80682.2
80726.5
80768.3
80525.2
80534.9
80546.7
80560.4
80578
80600.6
80626.9
80655.8
80684.4
80711.2
80734.3
80527.7
80539.6
80551.7
80564.6
80579.6
80596.8
80614.4
80632.3
80649.1
80664.7
80677.6
80688.6
80534.7
80547.8
80560.4
80573
80585.5
80598.2
80610.6
80622.2
80632.7
80641.5
80648.9
80654.5
80659
80539.1
80552.9
80563
80570.7
80577.6
80584
80589.7
80594.3
80597.8
80600.6
80603
80605
80606.2
80606.3
80564.6
80563.1
80524.5
80560.2
80526.2
80532
80556.3
80527.6
80533.4
80541.8
80551.2
80528
80534.4
80543.1
80564
80545.4
80527.9
80534.6
80544.5
80564.9
80603.2
80539.2
80527.2
80534.2
80545
80566.6
80602.4
80669.9
80533.2
80526.6
80534.1
80545.4
80566.8
80602.9
80663.5
80761.1
80528.1
80526.5
80534.7
80547
80567.3
80601.9
80656.7
80734.1
80829.1
80524.7
80527.7
80536.9
80549.2
80569.7
80601
80646.9
80706.6
80772.5
80834.5
80523.3
80530.1
80540.2
80553.3
80572.5
80599.7
80635.6
80677.9
80722.2
80763.1
80799.8
80524.3
80533.9
80545.5
80559
80576.2
80598.3
80624
80652.2
80680.1
80707.2
80730
80749.5
80526.7
80538.4
80550.3
80563
80577.8
80594.5
80611.7
80629.1
80645.7
80661
80674.5
80685.5
80694.6
80533.8
80546.6
80559
80571.2
80583.4
80595.8
80607.9
80619.3
80629.7
80638.6
80646
80652.4
80657
80660.8
80537.9
80551.3
80561.2
80568.7
80575.5
80581.7
80587.2
80591.8
80595.3
80598.3
80600.8
80603
80604.6
80605.8
80605.9
80565.2
80564.6
80521.6
80562.5
80523.6
80529.2
80559.4
80525.5
80531
80538.6
80555.2
80526.5
80532.5
80540.4
80560.7
80550
80526.9
80533.3
80542.2
80562
80600.5
80544
80526.7
80533.3
80543.2
80563.7
80600.3
80669.3
80537.9
80526
80532.8
80543.4
80564.7
80600.6
80664.5
80776.2
80531.9
80525.4
80532.7
80543.8
80564.8
80600.1
80660.5
80753.3
80880
80526.9
80525.4
80533.4
80545.4
80565.4
80599.3
80652.6
80729.6
80821.5
80914
80523.5
80526.7
80535.7
80547.7
80567.9
80598.5
80643.4
80701.4
80767.3
80828.1
80883.6
80522.2
80529
80539
80551.9
80570.7
80597.3
80632.2
80673.5
80716.5
80758
80794.4
80824.8
80523.3
80532.8
80544.3
80557.5
80574.4
80595.9
80620.9
80648.1
80675.6
80702
80725.5
80745
80761.4
80525.7
80537.2
80548.9
80561.4
80575.9
80592
80608.9
80625.7
80642
80657.1
80670.5
80682.2
80691.5
80699.2
80532.8
80545.4
80557.5
80569.5
80581.2
80593.3
80605.1
80616.3
80626.5
80635.4
80643
80649.4
80654.8
80658.8
80662.1
80536.5
80549.6
80559.4
80566.7
80573.3
80579.3
80584.7
80589.2
80592.7
80595.7
80598.4
80600.8
80602.7
80604.3
80605.5
80605.6
80564.9
80565.1
80518.3
80563.7
80520.6
80525.7
80561.4
80522.6
80527.9
80534.7
80558
80524.2
80529.8
80536.9
80556.8
80553.7
80525.2
80531.2
80539
80558.3
80596.9
80548.4
80525.5
80531.9
80540.6
80560.3
80597.1
80666.5
80542.5
80525.3
80531.7
80541.3
80561.6
80598.3
80662.9
80785.3
80536.4
80524.7
80531.3
80541.5
80562.3
80597.5
80661.2
80766.3
80925.3
80530.5
80524.2
80531.3
80542.2
80562.4
80597.1
80655.7
80748.2
80869.3
81003.5
80525.6
80524.2
80532.1
80543.7
80563.4
80596.4
80648.4
80723.2
80815.3
80905.4
80988.7
80522.2
80525.5
80534.3
80546.2
80565.9
80595.8
80639.6
80696.1
80760.2
80821.6
80877.2
80920.4
80521.1
80527.8
80537.8
80550.4
80568.8
80594.8
80628.7
80668.7
80710.6
80751.1
80788.5
80819
80844.5
80522.3
80531.6
80542.9
80556
80572.4
80593.3
80617.6
80643.7
80670.7
80696.6
80719.7
80740.2
80756.8
80770.6
80524.7
80536
80547.5
80559.7
80573.8
80589.3
80605.9
80622.1
80638
80652.8
80666.2
80677.9
80688.1
80696.1
80702.7
80531.7
80544
80555.9
80567.6
80579
80590.7
80602.2
80613.1
80623.2
80632
80639.6
80646.2
80651.8
80656.6
80660.2
80663.2
80535.1
80547.7
80557.3
80564.5
80571.1
80576.9
80582.1
80586.5
80590
80593
80595.9
80598.4
80600.4
80602.3
80603.9
80605.2
80605.2
80564.1
80564.8
80514.7
80563.9
80517.1
80521.9
80562.4
80519.3
80524.2
80530.3
80559.8
80521.1
80526.3
80532.7
80552.1
80556.3
80522.7
80528.1
80534.9
80553.8
80592
80551.9
80523.6
80529.4
80537.1
80556
80593
80662.4
80546.6
80523.9
80530
80538.5
80557.9
80594.6
80659.3
80789.4
80540.8
80523.8
80529.9
80539.1
80558.8
80594.9
80659.3
80773.6
80960.6
80534.8
80523.2
80529.6
80539.5
80559.6
80594
80655.8
80760.5
80910.8
81094.3
80529
80522.9
80529.7
80540.3
80560
80593.7
80650.8
80740.4
80861.7
80991.6
81114.6
80524.2
80522.9
80530.7
80541.9
80561.2
80593.4
80643.9
80716.8
80806.4
80897.6
80980.6
81040.8
80520.9
80524.3
80532.9
80544.7
80563.8
80593
80635.5
80690.3
80752.8
80812.9
80869.7
80913.7
80948.3
80519.9
80526.7
80536.5
80548.9
80566.8
80592.1
80624.9
80663.5
80704.1
80744
80780.5
80812.5
80838.3
80860
80521.2
80530.5
80541.6
80554.3
80570.4
80590.6
80614.1
80639.3
80665.5
80690.6
80713.5
80733.8
80751.7
80765.9
80777.8
80523.7
80534.7
80545.9
80557.9
80571.6
80586.6
80602.8
80618.4
80633.8
80648.3
80661.5
80673.3
80683.6
80692.5
80699.6
80705.4
80530.7
80542.5
80554.2
80565.5
80576.6
80588
80599.1
80609.8
80619.6
80628.3
80636
80642.7
80648.5
80653.6
80658
80661.3
80664.2
80533.5
80545.9
80555.2
80562.2
80568.7
80574.4
80579.5
80583.7
80587.2
80590.2
80593.2
80595.7
80598
80600.1
80602
80603.6
80605.1
80605.1
80563
80563.9
80511.1
80563.3
80513.5
80517.9
80562.4
80515.5
80520.2
80525.6
80560.6
80517.5
80522.2
80528
80546.9
80557.9
80519.3
80524.3
80530.1
80548.7
80586.3
80554.3
80520.8
80526.1
80532.8
80550.8
80587.7
80657.2
80549.8
80521.8
80527.3
80534.6
80553.3
80589.7
80654.2
80789.7
80544.6
80522.2
80527.8
80535.8
80554.6
80590.9
80655
80775.8
80984.9
80538.9
80522.2
80528
80536.6
80555.5
80590.7
80653.3
80767.1
80941.8
81176.4
80533.1
80521.7
80527.9
80537.2
80556.7
80589.9
80650
80751.3
80901.9
81077.1
81253.6
80527.3
80521.4
80528.1
80538.4
80557.3
80590.1
80645.4
80732.7
80850.4
80982.1
81103.3
81190.9
80522.7
80521.6
80529.2
80540
80558.9
80590.1
80639.2
80709.8
80797.3
80886.3
80971.5
81033.5
81076
80519.6
80523.1
80531.5
80543
80561.7
80590.1
80631.2
80684.3
80744.6
80803.6
80859.3
80905.5
80941.1
80969.7
80518.7
80525.5
80535.1
80547.3
80564.8
80589.3
80621
80658.2
80697.2
80736.1
80772
80803.7
80831.4
80853.4
80872
80520.1
80529.3
80540.2
80552.6
80568.3
80587.7
80610.5
80634.6
80660
80684.3
80706.7
80727
80744.9
80760.6
80773
80783.4
80522.5
80533.3
80544.4
80556.1
80569.3
80583.8
80599.5
80614.5
80629.4
80643.5
80656.5
80668.2
80678.7
80687.9
80696
80702.4
80707.7
80529.2
80540.9
80552.5
80563.3
80574.2
80585.2
80596
80606.4
80616
80624.5
80632.2
80639
80645
80650.2
80654.9
80659.1
80662.3
80665.1
80531.9
80543.8
80553
80559.8
80566.2
80571.8
80576.8
80580.9
80584.4
80587.3
80590.3
80592.9
80595.3
80597.6
80599.7
80601.7
80603.6
80604.6
80604.3
80561.8
80562.7
80507.7
80562.2
80509.9
80514
80561.6
80511.6
80516.1
80521
80560.3
80513.5
80517.8
80523.1
80541.6
80558.3
80515.5
80519.9
80524.7
80543.3
80580.2
80555.5
80517.3
80521.9
80527.6
80544.9
80581.6
80651
80551.9
80518.7
80523.6
80529.7
80547.7
80583.5
80648.3
80786.5
80547.5
80519.7
80524.7
80531.4
80549.4
80585.7
80649.2
80774.6
80999.2
80542.5
80520.3
80525.5
80532.8
80550.7
80586
80648.7
80768.5
80962
81242.8
80536.9
80520.5
80525.9
80534
80551.9
80585.9
80646.5
80756.7
80931.3
81152.7
81392.4
80531.2
80520.1
80526
80534.9
80553.5
80585.7
80643.7
80741.9
80887.9
81065.7
81236.4
81371
80525.6
80520
80526.3
80536.3
80554.5
80586.3
80639.8
80724.2
80839
80967.7
81092.5
81183.2
81235.7
80521.1
80520.2
80527.7
80538.1
80556.5
80586.8
80634.3
80702.5
80787.3
80874.5
80958.2
81023.8
81069.1
81100.3
80518.2
80521.8
80530
80541.3
80559.5
80587
80626.8
80678
80736
80793.3
80848.1
80893.8
80932.3
80961.9
80986.5
80517.5
80524.2
80533.7
80545.6
80562.7
80586.5
80616.9
80652.7
80689.9
80727.7
80762.5
80794
80821.8
80846.1
80865.3
80881.6
80519
80528.1
80538.8
80550.9
80566.1
80584.8
80606.6
80630
80654.2
80677.5
80699.4
80719.5
80737.6
80753.5
80767.5
80778.6
80788
80521.7
80532.1
80542.8
80554.1
80566.8
80581
80596
80610.6
80624.9
80638.5
80651.2
80662.8
80673.4
80682.9
80691.2
80698.7
80704.7
80709.7
80528.1
80539
80550.1
80560.9
80571.7
80582.3
80592.7
80602.8
80612.2
80620.7
80628.3
80635.1
80641.2
80646.6
80651.5
80656
80660.1
80663.3
80666.1
80530.2
80541.6
80550.5
80557.5
80563.6
80569.1
80574
80578.1
80581.6
80584.6
80587.4
80590.1
80592.5
80594.9
80597.3
80599.5
80601.7
80603
80604.3
80603.9
80560.5
80561.4
80504.4
80560.8
80506.4
80510.3
80560.4
80507.6
80512.1
80516.6
80559.4
80509.3
80513.3
80518.2
80536.6
80557.9
80511.2
80515.1
80519.2
80537.8
80574.3
80555.7
80513.1
80517
80521.9
80538.6
80575.2
80644.6
80552.8
80514.8
80519
80524
80541.4
80576.3
80641.7
80780.9
80549.2
80516.3
80520.5
80526.1
80543.2
80579.1
80642.2
80770.5
81004.7
80545.1
80517.6
80522
80527.9
80544.7
80580
80642.6
80766.2
80973.4
81291.2
80540.3
80518.4
80523.1
80529.7
80546.4
80580.4
80640.9
80757
80949.9
81212.5
81517.8
80534.8
80518.7
80523.7
80531.2
80548.2
80580.8
80639.1
80745.5
80914.6
81139.1
81366.4
81571.3
80529.3
80518.5
80524
80532.5
80550.2
80581.2
80637
80731.8
80873.7
81047.6
81223.2
81360.2
81437
80523.9
80518.5
80524.6
80534.1
80551.6
80582.4
80634
80715.5
80826.6
80952.6
81075.7
81171.7
81231.3
81258.3
80519.5
80518.8
80526.1
80536.2
80554
80583.3
80629.2
80694.9
80776.7
80861.5
80943.7
81008.9
81058.8
81093
81118.1
80516.8
80520.5
80528.5
80539.6
80557.2
80584
80622.3
80671.4
80727
80782.4
80835.4
80880.8
80919.5
80952.6
80978.1
80999.7
80516.2
80523
80532.3
80544
80560.5
80583.6
80612.7
80647
80682.5
80718.8
80752.4
80783.3
80811.3
80836
80857.7
80874.6
80889.2
80517.9
80526.9
80537.2
80549.1
80563.9
80581.9
80602.5
80625.2
80648.3
80670.6
80691.7
80711.4
80729.5
80745.8
80760.2
80773
80783.2
80792
80520
80529.9
80540.9
80552.2
80564.2
80577.9
80592.5
80606.5
80620.1
80633.3
80645.7
80657.2
80667.8
80677.4
80686.1
80693.9
80701
80706.7
80711.5
80527
80537.6
80548.1
80558
80568.8
80579.2
80589.3
80599.1
80608.3
80616.6
80624.2
80631.1
80637.2
80642.7
80647.9
80652.6
80656.9
80661
80664.2
80667.1
80528.5
80539.4
80548.1
80554.9
80561.1
80566.4
80571.2
80575.3
80578.8
80581.8
80584.5
80587.3
80589.7
80592.1
80594.6
80597
80599.2
80601.2
80602.7
80603.5
80602.9
80559.1
80560.1
80501.4
80559.3
80503.1
80506.9
80559
80503.8
80508.3
80512.5
80558.1
80505.2
80508.9
80513.6
80531.9
80556.8
80506.8
80510.2
80513.8
80532.5
80568.8
80555
80508.6
80511.9
80516
80532.3
80569
80638.5
80552.7
80510.4
80513.9
80517.8
80534.7
80568.9
80635.2
80774.7
80549.8
80512.1
80515.5
80519.8
80536.2
80571.7
80634.6
80764.6
81004.3
80546.5
80513.9
80517.4
80521.8
80537.7
80572.7
80635.5
80761
80976.9
81322.4
80542.5
80515.4
80519.1
80524.1
80539.5
80573.5
80633.6
80754.1
80959.8
81254.9
81619.8
80537.9
80516.4
80520.5
80526.4
80541.9
80574.3
80632.2
80744.3
80931
81196.7
81481
81774.2
80532.6
80517
80521.4
80528.3
80544.3
80575.4
80631.3
80733.5
80897.5
81117
81350.2
81553.6
81676.7
80527.4
80516.8
80522
80530
80546.8
80576.5
80630.1
80721.2
80858.2
81028.9
81201.8
81346.9
81435.3
81456.4
80522
80516.9
80522.8
80531.8
80548.7
80578.3
80628
80706.4
80813.7
80935.7
81057.6
81153.5
81219.2
81255.7
81268.7
80517.9
80517.5
80524.4
80534.2
80551.5
80579.9
80624.1
80687.1
80765.6
80847.7
80927.3
80992.1
81042.5
81082.2
81110
81131.9
80515.3
80519.1
80527
80537.9
80555
80580.9
80617.8
80664.8
80718
80770.8
80821.9
80866.1
80905
80938.9
80968.4
80990.8
81010.4
80515
80521.8
80530.9
80542.3
80558.5
80580.7
80608.5
80641.3
80675
80709.6
80741.7
80771.8
80799.6
80824.8
80847.1
80866.8
80882.1
80895.7
80516.8
80525.6
80536.1
80547.5
80561.4
80578.8
80598.5
80620.5
80642.2
80663.4
80683.8
80703
80720.9
80737.4
80752.3
80765.6
80777.6
80787.1
80795.7
80518.9
80528.5
80538.8
80549.4
80561.3
80575.3
80588.7
80602.2
80615.3
80627.9
80640
80651.3
80661.8
80671.6
80680.5
80688.7
80696.2
80703
80708.6
80713.4
80525.7
80535.8
80546.1
80555.7
80565.5
80575.8
80585.7
80595.2
80604.2
80612.4
80619.9
80626.8
80633
80638.7
80644
80648.9
80653.5
80657.8
80662
80665.3
80668.1
80526.9
80537.2
80545.5
80552.2
80558.3
80563.7
80568.3
80572.4
80575.9
80579
80581.8
80584.6
80586.9
80589.4
80591.8
80594.3
80596.7
80599.1
80601
80602
80602.9
80602.1
80557.8
80558.7
80498.7
80557.8
80500.1
80503.8
80557.5
80500.3
80504.8
80508.8
80556.6
80501.3
80504.8
80509.4
80527.7
80555.3
80502.5
80505.5
80508.7
80527.7
80563.9
80553.8
80504
80506.7
80510.3
80526.3
80563.4
80632.8
80551.7
80505.6
80508.4
80511.4
80528.1
80561.8
80629
80768.1
80549.3
80507.3
80509.9
80513.1
80528.9
80564
80627
80758.2
81001.1
80546.7
80509.3
80511.9
80514.9
80530
80564.6
80627.7
80753.7
80974.9
81340.2
80543.6
80511.4
80514
80517.4
80531.6
80565.3
80625.6
80748.7
80961.3
81281.1
81695
80539.9
80513.2
80516.2
80520.2
80534.1
80566.2
80623.6
80739.9
80939.3
81235.9
81572.9
81957.6
80535.6
80514.3
80517.9
80523
80537.2
80567.8
80622.9
80730.3
80911.1
81170.9
81460.7
81744.6
81941.3
80530.4
80515.2
80519.2
80525.4
80540.3
80569.7
80623.1
80720.9
80879
81094.3
81323.4
81538.2
81674
81702.8
80525.4
80515.2
80519.9
80527.4
80543.3
80571.8
80623
80710.2
80842.1
81008.3
81179.3
81324.8
81421.3
81462.7
81446
80520.2
80515.4
80521
80529.6
80545.8
80574.3
80622
80697.1
80800.2
80917.9
81037.3
81132.7
81199.9
81244
81265.5
81275.3
80516.1
80516
80522.8
80532.3
80549
80576.4
80619
80679.3
80754.3
80833.2
80909.7
80972.8
81023.7
81064.7
81098.7
81122.9
81143
80513.9
80517.9
80525.6
80536.2
80552.8
80577.8
80613.2
80658.2
80708.8
80758.9
80807.6
80850.2
80888.6
80923.4
80953.9
80980.8
81001
81019.3
80513.9
80520.7
80529.6
80540.5
80556.1
80577.8
80604.5
80635.4
80667.4
80700.1
80730.6
80759.6
80786.9
80812.3
80835.5
80856
80874.2
80888.4
80901.4
80515.1
80523.7
80533.7
80545.1
80559.1
80576
80594.3
80615.7
80636
80656.1
80675.6
80694.2
80711.8
80728.3
80743.6
80757.5
80770
80781.5
80790.8
80799.3
80517.9
80527.2
80537.2
80547.1
80558.3
80571.5
80584.9
80597.9
80610.3
80622.5
80634.1
80645.2
80655.6
80665.4
80674.5
80683
80690.9
80698.2
80705
80710.5
80715.3
80524.5
80534.1
80543.9
80553.1
80562.8
80572
80581.8
80591.1
80600
80608.1
80615.5
80622.4
80628.7
80634.5
80639.9
80645
80649.8
80654.4
80658.8
80663
80666.3
80669.1
80525.3
80535
80543.1
80549.6
80555.5
80560.8
80565.4
80569.5
80573
80576.1
80579
80581.8
80584.3
80586.7
80589.1
80591.6
80594
80596.7
80598.5
80600.1
80601.3
80602.1
80601.2
80556.6
80557.4
80496.3
80556.2
80497.4
80501
80555.9
80497.1
80501.6
80505.6
80554.9
80497.7
80501
80505.6
80523.9
80553.7
80498.4
80501
80504.1
80523.4
80559.5
80552.2
80499.5
80501.6
80504.8
80520.9
80558.4
80627.8
80550.3
80500.8
80503
80505
80521.7
80555.3
80623.4
80762.2
80548.1
80502.2
80504
80506.2
80521.6
80556.6
80619.8
80751.6
80997.1
80545.9
80504.2
80505.8
80507.4
80521.9
80556.2
80619.9
80745.9
80971.2
81348.7
80543.4
80506.5
80508
80509.7
80522.9
80556.3
80617.1
80741.6
80957.4
81295
81749.5
80540.6
80508.9
80510.7
80512.7
80525.2
80556.8
80614.5
80733.4
80940.7
81258.9
81639.4
82108.9
80537.2
80511
80513.3
80516.2
80528.5
80558.5
80612.9
80724.4
80917
81207.9
81548.1
81912.9
82204.5
80533.1
80512.3
80515.3
80519.6
80532.3
80561.1
80613.3
80715.6
80889.4
81144.2
81428.7
81724.8
81929
82002.8
80528.1
80513.4
80516.9
80522.4
80536.3
80563.9
80614.7
80707.8
80859.5
81069.2
81295.9
81511.6
81657.5
81719.7
81671.3
80523.4
80513.5
80517.9
80524.9
80539.8
80567
80615.9
80699.2
80825.5
80986.4
81154.1
81299.9
81398.7
81453
81453.8
81435.9
80518.2
80513.9
80519.2
80527.4
80542.9
80570.3
80615.9
80687.9
80786.4
80899.5
81015.3
81108.8
81176.7
81223.9
81253.9
81270.6
81280.3
80514.5
80514.7
80521.1
80530.3
80546.5
80573
80614
80671.5
80742.8
80818.5
80891.1
80951.9
81001.9
81044.3
81080.3
81111.1
81132.9
81152.2
80512.5
80516.5
80524.2
80534.4
80550.5
80574.9
80608.8
80651.6
80699.5
80746.7
80792.7
80833.3
80870.8
80905.6
80937.6
80965.8
80990.7
81009.5
81026.9
80512.6
80519.1
80528.2
80539.2
80554.7
80574.8
80600.4
80629.5
80659.8
80690.5
80719.3
80747
80773.6
80798.9
80822.4
80844
80863.2
80880.5
80894.1
80906.9
80513.9
80522.3
80531.9
80542.7
80555.9
80572
80590.9
80610.6
80629.8
80648.9
80667.3
80685.2
80702.4
80718.8
80734.2
80748.5
80761.8
80773.9
80785.2
80794.5
80803
80516.9
80525.7
80535.5
80545.2
80555.7
80568.2
80580.5
80593.1
80605.3
80617
80628.2
80639
80649.3
80659
80668.2
80676.9
80685.1
80692.9
80700.1
80706.9
80712.5
80717.2
80523.1
80532.3
80541.6
80550.5
80559.7
80568.8
80577.7
80586.8
80595.5
80603.5
80611
80617.8
80624.1
80630
80635.6
80640.8
80645.8
80650.7
80655.4
80659.8
80664.1
80667.4
80670
80523.6
80532.8
80540.5
80546.9
80552.8
80557.8
80562.6
80566.6
80570.1
80573.3
80576.1
80579
80581.6
80584
80586.4
80588.8
80591.3
80594
80596.1
80598
80599.4
80600.6
80601.2
80600
80555.5
80556.2
80494.2
80554.8
80495
80498.6
80554.4
80494.2
80498.8
80502.7
80553.3
80494.4
80497.7
80502.2
80520.7
80551.9
80494.6
80496.9
80500
80519.6
80555.8
80550.5
80495.2
80496.9
80499.9
80516.1
80554
80623.3
80548.6
80496
80497.7
80499
80515.9
80549.7
80618.3
80756.8
80546.5
80497
80498
80499.4
80514.7
80549.8
80613.4
80745.7
80992.3
80544.5
80498.8
80499.4
80499.9
80513.9
80548.1
80612.5
80738.1
80967.1
81350.3
80542.3
80501.1
80501.4
80501.6
80514
80547.1
80608.6
80734.1
80951.9
81301.2
81787.8
80540.1
80503.7
80504.1
80504.3
80515.4
80546.8
80605
80725.3
80937.2
81269.5
81687
82225.4
80537.6
80506.4
80507.3
80508
80518.5
80547.8
80602.3
80716.5
80916.9
81229.2
81611.1
82047.8
82444.5
80534.6
80508.8
80510.3
80512.2
80522.6
80550.5
80601.6
80707.8
80892.3
81178
81513.4
81887.3
82173.6
82330.4
80530.8
80510.3
80512.8
80516.2
80527.5
80554
80603.3
80700.4
80866.6
81114.4
81396.5
81693
81907
82024.2
81957.4
80525.8
80511.6
80514.6
80519.5
80532.2
80558.1
80606.2
80694.5
80839.6
81042.7
81265.2
81482.6
81631.1
81712.4
81695.6
81635.5
80521.3
80511.9
80515.9
80522.5
80536.4
80562.3
80608.9
80688.1
80808.7
80963.6
81127.1
81271.2
81371
81431.1
81444.5
81444.7
81424.2
80516.3
80512.3
80517.3
80525.1
80540
80566.4
80610.1
80678.8
80772.5
80881
80992
81082.7
81149.7
81198.7
81232.7
81259.1
81273.9
81284.5
80512.8
80513.3
80519.5
80528.5
80544.3
80569.7
80609
80663.9
80731.7
80803.6
80871.8
80929.7
80978
81020.4
81058.6
81091.8
81120.9
81141.1
81160
80511.3
80515.8
80523.2
80533.3
80548.5
80571.7
80604.5
80645.5
80690.1
80734.6
80777.5
80815.8
80851.9
80886.3
80918.8
80948.9
80975.3
80998.9
81016.8
81034
80510.7
80517.3
80526
80536.5
80551.3
80572
80596.9
80623
80652.5
80680.9
80707.9
80734.1
80759.7
80784.6
80808.3
80830.5
80850.9
80869.3
80886.1
80899.5
80912.4
80512.7
80521.3
80530.5
80540.6
80553.1
80568.4
80585.7
80605.2
80623.8
80641.4
80659
80676.1
80692.8
80708.9
80724.3
80738.9
80752.7
80765.5
80777.5
80788.9
80798.3
80806.8
80515.6
80524.3
80533.6
80542.8
80553.2
80564.9
80576.7
80588.2
80599.8
80611.4
80622.2
80632.7
80642.8
80652.4
80661.7
80670.5
80679
80687.1
80694.7
80702
80708.9
80714.6
80719.1
80521.8
80530.4
80539.3
80547.8
80556.6
80565.3
80573.9
80582.3
80590.8
80598.8
80606.2
80613.1
80619.4
80625.4
80631
80636.5
80641.7
80646.7
80651.6
80656.3
80660.9
80665.1
80668.4
80670.8
80521.9
80530.5
80537.9
80544.1
80549.9
80554.9
80559.5
80563.7
80567.2
80570.3
80573.3
80576.1
80578.8
80581.3
80583.7
80586.2
80588.6
80591
80593.5
80595.6
80597.2
80598.8
80599.7
80600.2
80598.8
80554.5
80555.1
80492.4
80553.4
80492.8
80496.5
80552.9
80491.6
80496.4
80500.3
80551.7
80491.4
80494.7
80499.3
80517.9
80550.2
80491.1
80493.3
80496.4
80516.3
80552.6
80548.7
80491.1
80492.6
80495.4
80512
80550.2
80619.4
80546.8
80491.5
80492.7
80493.5
80510.8
80544.8
80613.9
80752.2
80544.6
80492
80492.3
80493.1
80508.2
80543.8
80607.5
80740.7
80987.5
80542.7
80493.3
80493
80492.5
80506.3
80540.6
80605.9
80730.9
80962.5
81348.5
80540.7
80495.4
80494.5
80493.3
80505.1
80538.2
80600.5
80726.3
80946.2
81301.6
81814.2
80538.8
80498
80497
80495.3
80505.5
80536.6
80595.6
80717.1
80931.8
81272.8
81720.7
82309.4
80536.8
80501
80500.3
80498.8
80507.6
80536.5
80591.4
80707.4
80912.5
81239
81655.7
82148.5
82653.3
80534.7
80504
80503.9
80503.4
80511.6
80538.4
80589.4
80698.1
80890.4
81196.3
81575.2
82015.1
82395.6
82659.1
80532.1
80506.7
80507.5
80508.2
80516.9
80542.1
80589.9
80690.4
80866.5
81144.7
81477.8
81849.8
82147.7
82345.1
82296.9
80528.5
80508.5
80510.2
80512.9
80522.7
80547.1
80593.2
80684.9
80842.8
81082.8
81361.3
81659.1
81875.5
82013.5
81996.4
81899.2
80523.5
80510
80512.4
80516.7
80528.3
80552.4
80597.8
80681.1
80819.2
81015.2
81232.3
81449.5
81599.3
81689.4
81691
81667
81594.7
80519.2
80510.1
80513.9
80519.9
80533.1
80557.8
80602
80677.2
80792.1
80939.9
81098.2
81239.9
81339.2
81401.7
81422.5
81436.9
81432
81414.2
80514.4
80510.9
80515.6
80523.3
80537.7
80562.6
80604.4
80670
80758.8
80862.3
80967.6
81054.8
81119.8
81168.4
81206.1
81236.8
81262.3
81276.6
81288.4
80511.2
80512.1
80518.2
80526.8
80541.7
80566.4
80604.5
80656.7
80720.7
80788.3
80852.2
80906.6
80952.4
80993.9
81033
81069.3
81100.9
81128.8
81148.1
81167.1
80509.4
80513.3
80520.9
80530.8
80546.4
80569.9
80600.4
80638.7
80680.6
80722.5
80762.3
80798
80832.1
80865.6
80898.4
80929.4
80958
80983.3
81006.1
81023.6
81040.9
80509.3
80515.9
80524.2
80534.1
80548.6
80567.9
80590.7
80617.6
80645.2
80671.3
80696.6
80721.1
80745.5
80769.8
80793.4
80816
80837.2
80856.9
80874.8
80891.5
80905.1
80918.1
80511.9
80520.1
80529.1
80539
80550.9
80564.8
80581.8
80599.3
80616.7
80634.3
80650.4
80666.9
80683
80698.8
80714.1
80728.8
80742.9
80756.3
80769.1
80781.2
80792.7
80802.2
80810.6
80514.5
80522.9
80531.7
80540.5
80550.5
80561.6
80572.7
80583.8
80594.4
80605.3
80616.1
80626.4
80636.2
80645.7
80654.9
80663.8
80672.5
80680.8
80688.9
80696.6
80704
80710.9
80716.6
80720.9
80520.4
80528.6
80536.9
80545.1
80553.4
80561.7
80569.9
80578.1
80586
80593.8
80601.3
80608.1
80614.6
80620.6
80626.3
80631.8
80637.2
80642.5
80647.6
80652.6
80657.4
80661.9
80666.1
80669.4
80671.4
80520.2
80528.1
80535.2
80541.3
80547
80551.9
80556.5
80560.6
80564.2
80567.5
80570.4
80573.2
80576
80578.5
80581.1
80583.5
80585.9
80588.4
80590.7
80593.1
80594.8
80596.5
80598
80598.6
80599
80597.4
80553.6
80554.1
80490.9
80552.2
80491
80494.7
80551.6
80489.4
80494.2
80498.1
80550.2
80488.8
80492.1
80496.8
80515.5
80548.5
80488
80490
80493.3
80513.4
80549.8
80546.9
80487.5
80488.8
80491.5
80508.4
80546.9
80616.1
80544.9
80487.3
80488.2
80488.6
80506.2
80540.6
80610.1
80748.1
80542.6
80487.1
80486.9
80487.2
80502.5
80538.5
80602.6
80736.4
80983.1
80540.7
80488
80486.9
80485.5
80499.1
80533.9
80599.7
80725.1
80958
81346.2
80538.6
80489.6
80487.6
80485.3
80496.7
80530
80593.1
80719.1
80940.4
81299.9
81831
80536.9
80491.9
80489.6
80486.2
80495.7
80526.7
80586.8
80708.9
80926
81271.7
81743.9
82366
80535.3
80495
80492.7
80489.1
80496.5
80525.1
80580.7
80698.4
80906
81242.1
81687.2
82219.9
82820.5
80533.7
80498.4
80496.5
80493.5
80499.6
80525.6
80577
80687.5
80885.5
81203.6
81619.5
82107.9
82581.8
82963.2
80532
80501.7
80500.7
80498.8
80504.8
80528.5
80575.9
80678.7
80862.1
81160
81537.8
81972.6
82363.6
82647.5
82694.4
80529.5
80504.9
80504.7
80504.4
80511.3
80533.9
80577.8
80672.4
80839.6
81108.6
81439.6
81810.4
82113.5
82324.4
82357
82227.4
80526.2
80506.6
80507.8
80509.7
80518.1
80540.3
80583.2
80669.1
80818.8
81049.7
81323.9
81621
81839.4
81987.5
81996.6
81958.3
81824.5
80521.1
80508.1
80510.4
80513.9
80524.6
80547
80589.6
80668.3
80798.7
80986.9
81196.9
81413.4
81563.2
81657.9
81669.2
81666.1
81629.9
81559.1
80517.2
80508.6
80512
80517.9
80530.2
80553.3
80595.5
80666.8
80775.6
80916.1
81068.2
81206.4
81304.4
81365.1
81392.6
81413.9
81424.3
81420.8
81406.3
80512.5
80509.6
80514.1
80521
80534.6
80559.2
80599.3
80661.4
80745.5
80843.7
80943.1
81025.7
81088.1
81134.7
81173.5
81209.1
81239.2
81264.7
81279.1
81292
80509.8
80510.7
80516.9
80525.6
80540.9
80564.3
80599.6
80649.8
80710.4
80772.9
80832.8
80883.2
80925.9
80965.4
81004.6
81042.5
81077.8
81108.4
81135.5
81154.5
81173.9
80507.4
80511.7
80518.8
80528.3
80543.2
80564.8
80595.6
80633.3
80670.6
80711.1
80747.2
80780.1
80812
80844.2
80876.5
80908.1
80938
80965.7
80990.3
81012.8
81030.3
81048.2
80508.1
80514.9
80523.1
80532.7
80546.1
80564.2
80586
80610.4
80636.9
80662.3
80685
80708.2
80731.2
80754.6
80777.8
80800.5
80822.3
80842.9
80862.2
80880.1
80897
80910.8
80924.1
80510.8
80518.7
80527.4
80536.8
80548.2
80561.8
80577.8
80594.1
80609.9
80625.9
80642.3
80657.6
80673.2
80688.5
80703.6
80718.2
80732.5
80746.4
80759.8
80772.7
80784.9
80796.6
80806.3
80814.5
80513.4
80521.5
80529.9
80538.1
80547.7
80558.2
80568.8
80579.1
80589.4
80599.3
80609.6
80619.9
80629.6
80638.9
80648
80656.9
80665.7
80674.2
80682.6
80690.8
80698.6
80706
80713
80718.6
80722.6
80519.1
80526.7
80534.5
80542.3
80550.2
80558
80565.8
80573.7
80581.4
80588.9
80596.1
80603.1
80609.6
80615.7
80621.4
80627.1
80632.6
80638
80643.3
80648.5
80653.6
80658.4
80663
80667.1
80670.1
80671.7
80518.5
80525.7
80532.4
80538.3
80543.9
80548.8
80553.4
80557.5
80561.2
80564.4
80567.5
80570.3
80573.2
80575.7
80578.3
80580.9
80583.3
80585.7
80588.1
80590.5
80592.3
80594.1
80595.8
80597
80597.5
80597.7
80596.1
80552.8
80553.2
80489.5
80551.1
80489.4
80493.2
80550.4
80487.5
80492.4
80496.3
80548.8
80486.6
80489.9
80494.7
80513.5
80547
80485.3
80487.2
80490.7
80511
80547.5
80545.1
80484.2
80485.4
80488.2
80505.4
80544.1
80613.4
80543
80483.5
80484.1
80484.3
80502.3
80537
80607
80744.7
80540.5
80482.7
80482
80482
80497.4
80533.9
80598.4
80732.6
80979.1
80538.5
80482.9
80481.2
80479
80492.8
80528
80594.4
80720
80954
81343.1
80536.3
80484
80481
80477.7
80488.9
80522.6
80586.7
80713
80935
81297.7
81838.9
80534.7
80485.9
80482.3
80477.5
80486.4
80517.5
80578.7
80701.1
80920.3
81268.8
81757.8
82403.4
80533.2
80488.7
80484.8
80479.3
80485.7