/*--------------------------------*- C++ -*----------------------------------*\
| =========                 |                                                 |
| \\      /  F ield         | OpenFOAM: The Open Source CFD Toolbox           |
|  \\    /   O peration     | Version:  v2012                                 |
|   \\  /    A nd           | Website:  www.openfoam.com                      |
|    \\/     M anipulation  |                                                 |
\*---------------------------------------------------------------------------*/
FoamFile
{
    version     2.0;
    format      ascii;
    class       volScalarField;
    location    "15001";
    object      q2;
}
// * * * * * * * * * * * * * * * * * * * * * * * * * * * * * * * * * * * * * //

dimensions      [0 0 0 0 0 0 0];


internalField   nonuniform List<scalar> 
294912
(
4.93577e-12
1.09614e-12
4.41188e-12
5.50833e-12
3.26963e-13
1.10163e-12
1.32723e-12
3.60174e-12
5.0037e-12
6.72183e-12
1.09401e-13
3.28744e-13
4.78439e-13
1.103e-12
1.35056e-12
2.07891e-12
3.09561e-12
4.16931e-12
6.20611e-12
6.35079e-12
3.7034e-14
1.10389e-13
1.63445e-13
3.42506e-13
4.83888e-13
7.85087e-13
1.14238e-12
1.38079e-12
2.12296e-12
2.80348e-12
2.78606e-12
3.66266e-12
5.25757e-12
6.03158e-12
5.70987e-12
1.26857e-14
3.70896e-14
5.37956e-14
1.14934e-13
1.65589e-13
2.85424e-13
3.69728e-13
5.05903e-13
8.20056e-13
1.1695e-12
1.20907e-12
1.48099e-12
2.19037e-12
2.87764e-12
3.42907e-12
2.64432e-12
3.49222e-12
4.69937e-12
5.36463e-12
5.66988e-12
5.25283e-12
4.47282e-15
1.23811e-14
1.78155e-14
3.7379e-14
5.42166e-14
9.66268e-14
1.18912e-13
1.72214e-13
2.91012e-13
4.41068e-13
3.96555e-13
5.47125e-13
8.60311e-13
1.22964e-12
1.58287e-12
1.28064e-12
1.55969e-12
2.3566e-12
2.99836e-12
3.5445e-12
4.09406e-12
2.50923e-12
3.29637e-12
4.5739e-12
4.88358e-12
5.19146e-12
5.25242e-12
4.67288e-12
1.68755e-15
4.30718e-15
6.10552e-15
1.22564e-14
1.75473e-14
3.25047e-14
3.76331e-14
5.47367e-14
9.71847e-14
1.59484e-13
1.23074e-13
1.78354e-13
2.92715e-13
4.58992e-13
6.67871e-13
4.17781e-13
5.88819e-13
9.32183e-13
1.28489e-12
1.6488e-12
2.07065e-12
1.32716e-12
1.68025e-12
2.4896e-12
3.23134e-12
3.81909e-12
4.28582e-12
4.74155e-12
2.3573e-12
3.13262e-12
4.39694e-12
4.87421e-12
4.9351e-12
4.92688e-12
4.68566e-12
4.33038e-12
6.91645e-16
1.60723e-15
2.25126e-15
4.20655e-15
5.92912e-15
1.13378e-14
1.21032e-14
1.74577e-14
3.22392e-14
5.63962e-14
3.79868e-14
5.52955e-14
9.60517e-14
1.64856e-13
2.64913e-13
1.26922e-13
1.85405e-13
3.14188e-13
4.70517e-13
6.76209e-13
9.16003e-13
4.3748e-13
6.22815e-13
1.00643e-12
1.39398e-12
1.78771e-12
2.14523e-12
2.55182e-12
1.3615e-12
1.7593e-12
2.69167e-12
3.42657e-12
3.99759e-12
4.5878e-12
4.90145e-12
5.12863e-12
2.20224e-12
3.05531e-12
4.34713e-12
4.79956e-12
4.80092e-12
4.78914e-12
4.49353e-12
4.36846e-12
4.04134e-12
3.09786e-16
6.53308e-16
9.09009e-16
1.50968e-15
2.10613e-15
4.23418e-15
4.10592e-15
5.83441e-15
1.10932e-14
2.05589e-14
1.19742e-14
1.73308e-14
3.1443e-14
5.76226e-14
1.0239e-13
3.83289e-14
5.62851e-14
1.01018e-13
1.65849e-13
2.66002e-13
4.07115e-13
1.30333e-13
1.92339e-13
3.23638e-13
5.07859e-13
7.2766e-13
9.48666e-13
1.20579e-12
4.51333e-13
6.51449e-13
1.06853e-12
1.48666e-12
1.94107e-12
2.34749e-12
2.55608e-12
3.00058e-12
1.41294e-12
1.84236e-12
2.82561e-12
3.71858e-12
4.38195e-12
4.79733e-12
5.11957e-12
5.29224e-12
5.54958e-12
2.02347e-12
2.94895e-12
4.19905e-12
4.85746e-12
4.96185e-12
4.74446e-12
4.56979e-12
4.30177e-12
3.97922e-12
3.85547e-12
1.51711e-16
2.91042e-16
4.04425e-16
6.10298e-16
8.43556e-16
1.73103e-15
1.50795e-15
2.04603e-15
4.09832e-15
7.97206e-15
4.00997e-15
5.7261e-15
1.07071e-14
2.07487e-14
4.02164e-14
1.18693e-14
1.7339e-14
3.25106e-14
5.73397e-14
1.01924e-13
1.7321e-13
3.86218e-14
5.73687e-14
1.02258e-13
1.75891e-13
2.82065e-13
4.06043e-13
5.92878e-13
1.32926e-13
1.97651e-13
3.41844e-13
5.36946e-13
7.79977e-13
1.02337e-12
1.24046e-12
1.49824e-12
4.67744e-13
6.80145e-13
1.12191e-12
1.61385e-12
2.07844e-12
2.46022e-12
2.78215e-12
3.0116e-12
3.37139e-12
1.45938e-12
1.92479e-12
2.96763e-12
3.94847e-12
4.67287e-12
5.23707e-12
5.52332e-12
5.68149e-12
5.68925e-12
5.8952e-12
1.85103e-12
2.79401e-12
4.11293e-12
4.69416e-12
4.99764e-12
4.97432e-12
4.73565e-12
4.34851e-12
4.05474e-12
3.82572e-12
3.72742e-12
8.09779e-17
1.42206e-16
1.98591e-16
2.71181e-16
3.74181e-16
7.82194e-16
6.06972e-16
8.14302e-16
1.66196e-15
3.3594e-15
1.4613e-15
2.05387e-15
3.92175e-15
7.94466e-15
1.61769e-14
3.92299e-15
5.65218e-15
1.09252e-14
2.04478e-14
3.95885e-14
7.56912e-14
1.1786e-14
1.74182e-14
3.24274e-14
5.98391e-14
1.06548e-13
1.79347e-13
2.89908e-13
3.87671e-14
5.8054e-14
1.07059e-13
1.78317e-13
2.9028e-13
4.3008e-13
5.95443e-13
8.01152e-13
1.33926e-13
2.03228e-13
3.56055e-13
5.6686e-13
8.21155e-13
1.07476e-12
1.30197e-12
1.50048e-12
1.76415e-12
4.95004e-13
7.0425e-13
1.15707e-12
1.71832e-12
2.22299e-12
2.72536e-12
3.03837e-12
3.27313e-12
3.37992e-12
3.57876e-12
1.4468e-12
2.05088e-12
3.04254e-12
4.0711e-12
4.96161e-12
5.61141e-12
6.01855e-12
6.20228e-12
6.08911e-12
6.02778e-12
6.16094e-12
1.67262e-12
2.57519e-12
3.98918e-12
4.78827e-12
5.04438e-12
5.08523e-12
4.88645e-12
4.55251e-12
4.14332e-12
3.90373e-12
3.7061e-12
3.64667e-12
4.68633e-17
7.59786e-17
1.07272e-16
1.32487e-16
1.83938e-16
3.92382e-16
2.69152e-16
3.59735e-16
7.48753e-16
1.56721e-15
5.86044e-16
8.14144e-16
1.58012e-15
3.32081e-15
7.21854e-15
1.41812e-15
2.00636e-15
3.95867e-15
7.76571e-15
1.6182e-14
3.514e-14
3.85273e-15
5.6103e-15
1.07581e-14
2.03874e-14
4.07754e-14
7.78074e-14
1.44921e-13
1.16866e-14
1.75124e-14
3.34791e-14
6.07531e-14
1.08452e-13
1.83451e-13
2.9022e-13
4.38903e-13
3.84885e-14
5.88816e-14
1.10145e-13
1.91865e-13
3.12165e-13
4.63122e-13
6.32431e-13
8.09979e-13
1.01883e-12
1.36917e-13
2.07707e-13
3.69553e-13
5.97451e-13
8.89458e-13
1.17995e-12
1.41941e-12
1.62063e-12
1.77061e-12
1.99074e-12
5.27537e-13
7.39351e-13
1.22638e-12
1.77149e-12
2.43266e-12
2.93371e-12
3.34837e-12
3.56655e-12
3.65714e-12
3.66273e-12
3.85488e-12
1.37163e-12
2.13765e-12
3.29604e-12
4.26858e-12
5.28205e-12
5.99832e-12
6.44728e-12
6.66869e-12
6.62032e-12
6.51348e-12
6.31821e-12
6.35003e-12
1.52958e-12
2.35707e-12
3.74049e-12
4.78328e-12
5.24166e-12
5.2145e-12
5.06895e-12
4.74739e-12
4.37229e-12
3.97996e-12
3.70648e-12
3.63297e-12
3.59486e-12
2.92331e-17
4.41538e-17
6.33538e-17
7.08573e-17
9.98085e-17
2.179e-16
1.31518e-16
1.76523e-16
3.76176e-16
8.1547e-16
2.59531e-16
3.58658e-16
7.09168e-16
1.54483e-15
3.55646e-15
5.6614e-16
7.89575e-16
1.58239e-15
3.22408e-15
7.18773e-15
1.70788e-14
1.38304e-15
1.97181e-15
3.85221e-15
7.65624e-15
1.59599e-14
3.41643e-14
7.52297e-14
3.78637e-15
5.58479e-15
1.09708e-14
2.10262e-14
4.10711e-14
7.87633e-14
1.44102e-13
2.51823e-13
1.15541e-14
1.75771e-14
3.40235e-14
6.36495e-14
1.15161e-13
1.9492e-13
3.0577e-13
4.44168e-13
6.16497e-13
3.84015e-14
5.95222e-14
1.13045e-13
2.0003e-13
3.28829e-13
4.9146e-13
6.80775e-13
8.38784e-13
1.03748e-12
1.23473e-12
1.42524e-13
2.12356e-13
3.81984e-13
6.10447e-13
9.23933e-13
1.26505e-12
1.52153e-12
1.76421e-12
1.90569e-12
1.99411e-12
2.15969e-12
5.41516e-13
7.99676e-13
1.28399e-12
1.91883e-12
2.60553e-12
3.15286e-12
3.62232e-12
3.93452e-12
4.01252e-12
3.95874e-12
3.93072e-12
4.05997e-12
1.31677e-12
2.13383e-12
3.51323e-12
4.49277e-12
5.56833e-12
6.4247e-12
6.88984e-12
7.13844e-12
6.92692e-12
6.98407e-12
6.75597e-12
6.47947e-12
6.48841e-12
1.39e-12
2.1973e-12
3.5302e-12
4.66152e-12
5.34404e-12
5.50536e-12
5.26892e-12
4.97636e-12
4.59818e-12
4.25556e-12
3.88069e-12
3.6389e-12
3.58632e-12
3.55406e-12
1.9515e-17
2.77336e-17
4.06029e-17
4.12373e-17
5.93837e-17
1.33139e-16
7.05825e-17
9.58405e-17
2.10054e-16
4.72619e-16
1.26816e-16
1.75758e-16
3.5587e-16
7.8179e-16
1.9545e-15
2.50165e-16
3.46115e-16
7.05937e-16
1.49398e-15
3.5344e-15
9.10198e-15
5.4988e-16
7.69805e-16
1.54619e-15
3.14597e-15
7.02565e-15
1.64975e-14
4.12449e-14
1.35246e-15
1.94815e-15
3.88395e-15
7.77551e-15
1.63288e-14
3.50696e-14
7.41698e-14
1.51479e-13
3.71725e-15
5.55554e-15
1.10422e-14
2.17163e-14
4.29079e-14
7.9872e-14
1.49951e-13
2.54282e-13
4.00145e-13
1.13932e-14
1.76093e-14
3.45047e-14
6.56308e-14
1.20205e-13
2.05305e-13
3.18881e-13
4.57691e-13
6.30713e-13
8.28162e-13
3.8649e-14
6.00221e-14
1.15849e-13
2.08162e-13
3.45742e-13
5.3762e-13
7.2957e-13
9.0419e-13
1.083e-12
1.24408e-12
1.4061e-12
1.46294e-13
2.21314e-13
3.94224e-13
6.58649e-13
1.00839e-12
1.35535e-12
1.69816e-12
1.90421e-12
2.02298e-12
2.07174e-12
2.21173e-12
2.33108e-12
5.56354e-13
8.55173e-13
1.40008e-12
1.99716e-12
2.73852e-12
3.4847e-12
4.02013e-12
4.27697e-12
4.25435e-12
4.20494e-12
4.12513e-12
4.12577e-12
4.22594e-12
1.30771e-12
2.1038e-12
3.61542e-12
4.94216e-12
6.0076e-12
6.81002e-12
7.38379e-12
7.651e-12
7.63781e-12
7.38305e-12
7.02621e-12
6.79535e-12
6.42778e-12
6.58078e-12
1.29274e-12
2.08468e-12
3.35183e-12
4.48217e-12
5.35722e-12
5.70601e-12
5.62818e-12
5.22707e-12
4.96989e-12
4.57274e-12
4.1618e-12
3.82029e-12
3.59689e-12
3.55706e-12
3.51839e-12
1.38062e-17
1.86651e-17
2.80028e-17
2.59624e-17
3.84275e-17
8.86863e-17
4.12435e-17
5.71924e-17
1.29461e-16
3.03019e-16
6.80541e-17
9.54257e-17
1.98977e-16
4.56138e-16
1.20048e-15
1.22166e-16
1.69052e-16
3.42566e-16
7.77799e-16
1.94869e-15
5.40214e-15
2.42449e-16
3.35292e-16
6.83728e-16
1.44544e-15
3.43423e-15
8.78453e-15
2.45212e-14
5.36434e-16
7.55763e-16
1.52071e-15
3.18167e-15
7.07466e-15
1.67341e-14
4.05311e-14
9.61832e-14
1.32301e-15
1.92603e-15
3.87237e-15
7.79795e-15
1.67348e-14
3.50177e-14
7.3749e-14
1.5244e-13
2.7623e-13
3.64123e-15
5.52058e-15
1.1091e-14
2.21217e-14
4.4239e-14
8.56311e-14
1.54848e-13
2.60199e-13
4.10557e-13
5.90249e-13
1.12591e-14
1.76083e-14
3.49678e-14
6.75015e-14
1.25096e-13
2.2221e-13
3.4947e-13
4.85872e-13
6.57321e-13
8.34478e-13
1.00296e-12
3.86205e-14
6.08392e-14
1.18571e-13
2.16388e-13
3.74081e-13
5.7337e-13
8.10552e-13
1.00544e-12
1.16706e-12
1.30707e-12
1.43782e-12
1.60454e-12
1.51835e-13
2.33288e-13
4.16463e-13
6.89668e-13
1.07078e-12
1.49664e-12
1.84063e-12
2.12945e-12
2.25525e-12
2.31191e-12
2.30723e-12
2.36994e-12
2.46041e-12
5.84213e-13
8.96815e-13
1.51285e-12
2.16909e-12
2.90846e-12
3.68411e-12
4.36729e-12
4.75981e-12
4.77652e-12
4.66214e-12
4.50031e-12
4.37859e-12
4.27278e-12
4.36376e-12
1.2717e-12
2.10218e-12
3.60613e-12
5.21748e-12
6.53066e-12
7.38687e-12
7.83991e-12
8.22941e-12
8.19256e-12
8.2463e-12
7.70385e-12
7.36593e-12
6.93605e-12
6.52702e-12
6.62954e-12
1.15092e-12
1.91879e-12
3.16488e-12
4.36692e-12
5.2773e-12
5.84525e-12
5.95082e-12
5.63709e-12
5.14753e-12
4.88005e-12
4.48932e-12
4.1379e-12
3.78363e-12
3.57034e-12
3.52566e-12
3.48127e-12
1.03065e-17
1.33371e-17
2.05845e-17
1.75239e-17
2.67984e-17
6.36759e-17
2.60666e-17
3.72082e-17
8.7228e-17
2.12229e-16
3.98644e-17
5.7013e-17
1.23122e-16
2.95509e-16
8.16351e-16
6.55643e-17
9.16035e-17
1.91211e-16
4.54495e-16
1.20593e-15
3.56889e-15
1.18313e-16
1.62893e-16
3.39267e-16
7.4743e-16
1.8891e-15
5.22879e-15
1.60235e-14
2.36336e-16
3.27469e-16
6.6606e-16
1.44015e-15
3.41015e-15
8.83328e-15
2.41124e-14
6.56488e-14
5.24145e-16
7.43695e-16
1.50317e-15
3.16158e-15
6.99842e-15
1.64411e-14
3.98236e-14
9.6746e-14
2.06112e-13
1.29257e-15
1.90176e-15
3.84989e-15
7.81873e-15
1.70099e-14
3.67549e-14
7.71813e-14
1.54353e-13
2.85851e-13
4.72267e-13
3.56254e-15
5.48004e-15
1.11165e-14
2.24691e-14
4.54326e-14
8.88466e-14
1.66636e-13
2.77266e-13
4.26718e-13
6.0514e-13
7.95839e-13
1.09419e-14
1.7603e-14
3.54341e-14
6.92977e-14
1.29819e-13
2.35018e-13
3.72616e-13
5.42089e-13
7.0457e-13
8.77772e-13
1.01575e-12
1.24946e-12
3.93343e-14
6.22604e-14
1.21632e-13
2.24776e-13
3.94324e-13
6.2991e-13
8.76747e-13
1.12263e-12
1.29501e-12
1.36806e-12
1.51752e-12
1.62244e-12
1.75859e-12
1.56283e-13
2.44858e-13
4.41401e-13
7.26823e-13
1.13673e-12
1.60851e-12
2.05583e-12
2.32454e-12
2.53612e-12
2.52553e-12
2.52483e-12
2.51075e-12
2.48316e-12
2.55839e-12
5.93477e-13
9.40648e-13
1.60112e-12
2.36051e-12
3.17185e-12
3.94203e-12
4.67402e-12
5.18826e-12
5.33478e-12
5.29192e-12
5.00563e-12
4.78905e-12
4.53886e-12
4.27233e-12
4.48604e-12
1.2196e-12
2.08523e-12
3.60745e-12
5.28436e-12
6.90964e-12
7.91003e-12
8.55113e-12
8.78733e-12
8.97476e-12
8.70697e-12
8.5496e-12
7.90731e-12
7.50818e-12
7.0273e-12
6.5902e-12
6.63692e-12
1.03785e-12
1.78352e-12
3.00137e-12
4.23368e-12
5.12806e-12
5.92067e-12
6.17935e-12
6.00399e-12
5.58404e-12
5.07858e-12
4.80984e-12
4.4397e-12
4.10571e-12
3.75777e-12
3.54086e-12
3.48605e-12
3.43603e-12
8.07264e-18
1.00605e-17
1.59712e-17
1.26001e-17
1.993e-17
4.86384e-17
1.76474e-17
2.61333e-17
6.34382e-17
1.59671e-16
2.52291e-17
3.71834e-17
8.3479e-17
2.09749e-16
6.03566e-16
3.84178e-17
5.46689e-17
1.18323e-16
2.95784e-16
8.29914e-16
2.59206e-15
6.34786e-17
8.78705e-17
1.88149e-16
4.34586e-16
1.17116e-15
3.48555e-15
1.15287e-14
1.15396e-16
1.58329e-16
3.2754e-16
7.14047e-16
1.85318e-15
5.23498e-15
1.58437e-14
4.84553e-14
2.31055e-16
3.21187e-16
6.53347e-16
1.41249e-15
3.31684e-15
8.54033e-15
2.34604e-14
6.61303e-14
1.70337e-13
5.11922e-16
7.16806e-16
1.45518e-15
3.09107e-15
7.18725e-15
1.68453e-14
4.0742e-14
9.68739e-14
2.10379e-13
4.26502e-13
1.26023e-15
1.87543e-15
3.82423e-15
7.81285e-15
1.72307e-14
3.75723e-14
7.89647e-14
1.60807e-13
2.95514e-13
4.80181e-13
7.40041e-13
3.41864e-15
5.43303e-15
1.113e-14
2.27679e-14
4.6474e-14
9.51244e-14
1.75851e-13
2.92696e-13
4.40948e-13
6.37683e-13
8.02122e-13
1.11149e-12
1.0914e-14
1.71744e-14
3.58842e-14
7.10798e-14
1.39149e-13
2.47679e-13
4.11358e-13
5.82988e-13
7.71863e-13
9.18917e-13
1.07405e-12
1.21026e-12
1.46185e-12
3.99693e-14
6.39628e-14
1.256e-13
2.33632e-13
4.15472e-13
6.74041e-13
9.75879e-13
1.23157e-12
1.41074e-12
1.55385e-12
1.59491e-12
1.7199e-12
1.71633e-12
1.87319e-12
1.64549e-13
2.57518e-13
4.6629e-13
7.63751e-13
1.19453e-12
1.70638e-12
2.23619e-12
2.61386e-12
2.79309e-12
2.8625e-12
2.79439e-12
2.64507e-12
2.63736e-12
2.50567e-12
2.63564e-12
5.92642e-13
9.72591e-13
1.67818e-12
2.48437e-12
3.40393e-12
4.25997e-12
5.0622e-12
5.57755e-12
5.86027e-12
5.85193e-12
5.65018e-12
5.23296e-12
4.9483e-12
4.67083e-12
4.39467e-12
4.59702e-12
1.1591e-12
2.0399e-12
3.60271e-12
5.28001e-12
7.02912e-12
8.48909e-12
9.15457e-12
9.63298e-12
9.45656e-12
9.57609e-12
9.05271e-12
8.78315e-12
8.23008e-12
7.59861e-12
7.08413e-12
6.60172e-12
6.59303e-12
9.59504e-13
1.66992e-12
2.82035e-12
4.08265e-12
5.23086e-12
5.89166e-12
6.3269e-12
6.2947e-12
5.97676e-12
5.51629e-12
5.02191e-12
4.77281e-12
4.28691e-12
4.08227e-12
3.7276e-12
3.50579e-12
3.39771e-12
3.28644e-12
6.5872e-18
7.96288e-18
1.29603e-17
9.58388e-18
1.56435e-17
3.90627e-17
1.27418e-17
1.96035e-17
4.91173e-17
1.27056e-16
1.71157e-17
2.62035e-17
6.1222e-17
1.60286e-16
4.75248e-16
2.42947e-17
3.56293e-17
8.03376e-17
2.13934e-16
6.2345e-16
2.01966e-15
3.71627e-17
5.22183e-17
1.15813e-16
2.81898e-16
8.10051e-16
2.56906e-15
8.98151e-15
6.19518e-17
8.50051e-17
1.80075e-16
4.10701e-16
1.10468e-15
3.4906e-15
1.15388e-14
3.87185e-14
1.13063e-16
1.54843e-16
3.18841e-16
7.11272e-16
1.77218e-15
4.98848e-15
1.53341e-14
4.91996e-14
1.46274e-13
2.26002e-16
3.15141e-16
6.29321e-16
1.39052e-15
3.24338e-15
8.53148e-15
2.34277e-14
6.54961e-14
1.70096e-13
4.04819e-13
4.9923e-16
7.03083e-16
1.43167e-15
3.05711e-15
7.10487e-15
1.69269e-14
4.08382e-14
9.80261e-14
2.19252e-13
4.25303e-13
7.47e-13
1.20379e-15
1.84743e-15
3.70053e-15
7.78428e-15
1.73644e-14
3.93314e-14
8.43641e-14
1.67756e-13
3.02094e-13
5.07852e-13
7.34968e-13
1.14366e-12
3.35781e-15
5.25027e-15
1.11361e-14
2.30431e-14
4.89074e-14
9.8789e-14
1.90082e-13
3.20548e-13
4.74567e-13
6.67125e-13
8.33521e-13
1.06384e-12
1.4255e-12
1.09018e-14
1.726e-14
3.63814e-14
7.28859e-14
1.44824e-13
2.69945e-13
4.40803e-13
6.5417e-13
8.42784e-13
9.96344e-13
1.13185e-12
1.31948e-12
1.41622e-12
1.63489e-12
4.04264e-14
6.55656e-14
1.30023e-13
2.40297e-13
4.31528e-13
7.10747e-13
1.05875e-12
1.34632e-12
1.60667e-12
1.70339e-12
1.79008e-12
1.81323e-12
1.86795e-12
1.83214e-12
1.95526e-12
1.65509e-13
2.66449e-13
4.88692e-13
8.09973e-13
1.27666e-12
1.83457e-12
2.39516e-12
2.86907e-12
3.16242e-12
3.14275e-12
3.181e-12
3.00331e-12
2.78383e-12
2.73329e-12
2.58557e-12
2.69891e-12
5.87488e-13
9.83579e-13
1.71777e-12
2.63047e-12
3.64923e-12
4.62314e-12
5.50107e-12
6.07404e-12
6.35507e-12
6.28146e-12
6.11075e-12
5.90537e-12
5.4175e-12
5.07848e-12
4.79206e-12
4.50894e-12
4.69917e-12
1.07765e-12
1.97722e-12
3.49218e-12
5.28049e-12
7.2501e-12
8.70979e-12
9.73253e-12
1.03212e-11
1.04111e-11
1.03592e-11
9.97031e-12
9.33995e-12
8.96626e-12
8.32825e-12
7.65255e-12
7.08173e-12
6.5835e-12
6.56059e-12
9.07464e-13
1.59762e-12
2.71801e-12
3.95584e-12
5.17703e-12
6.16971e-12
6.41929e-12
6.56168e-12
6.35804e-12
5.93882e-12
5.51209e-12
4.99873e-12
4.7636e-12
4.27917e-12
4.05649e-12
3.70095e-12
3.41859e-12
3.32777e-12
3.22809e-12
5.562e-18
6.57005e-18
1.09173e-17
7.65572e-18
1.28356e-17
3.26763e-17
9.74113e-18
1.5536e-17
3.99692e-17
1.05693e-16
1.23911e-17
1.97408e-17
4.78908e-17
1.29675e-16
3.92734e-16
1.64928e-17
2.50994e-17
5.91005e-17
1.65186e-16
5.00273e-16
1.65649e-15
2.34432e-17
3.38764e-17
7.82938e-17
2.01275e-16
6.14202e-16
2.04375e-15
7.37844e-15
3.62426e-17
5.02477e-17
1.0984e-16
2.6377e-16
7.59025e-16
2.58754e-15
9.15449e-15
3.26038e-14
6.08277e-17
8.28878e-17
1.73872e-16
4.02953e-16
1.06995e-15
3.28414e-15
1.1165e-14
3.99153e-14
1.3214e-13
1.10949e-16
1.51677e-16
3.05547e-16
6.92238e-16
1.70313e-15
4.72446e-15
1.49462e-14
4.84518e-14
1.47491e-13
4.06399e-13
2.209e-16
3.02609e-16
6.15722e-16
1.33895e-15
3.29893e-15
8.40454e-15
2.29615e-14
6.41283e-14
1.74785e-13
4.08359e-13
8.54874e-13
4.86187e-16
6.88958e-16
1.40602e-15
3.01287e-15
7.04954e-15
1.6889e-14
4.23539e-14
1.0044e-13
2.20794e-13
4.3988e-13
7.78115e-13
1.27536e-12
1.17287e-15
1.77549e-15
3.76025e-15
7.74314e-15
1.74343e-14
4.00802e-14
8.68764e-14
1.78106e-13
3.2411e-13
5.28943e-13
7.64472e-13
1.10842e-12
1.57431e-12
3.30675e-15
5.20617e-15
1.11361e-14
2.33041e-14
5.01024e-14
1.05568e-13
2.00993e-13
3.41965e-13
5.13032e-13
7.19387e-13
9.08535e-13
1.13742e-12
1.36188e-12
1.72768e-12
1.088e-14
1.77335e-14
3.69463e-14
7.47285e-14
1.48558e-13
2.8136e-13
4.8797e-13
7.13429e-13
9.47533e-13
1.12391e-12
1.2254e-12
1.39496e-12
1.51751e-12
1.58771e-12
1.76162e-12
4.15269e-14
6.69839e-14
1.34325e-13
2.50307e-13
4.5376e-13
7.56985e-13
1.12997e-12
1.52607e-12
1.77245e-12
1.93469e-12
1.96791e-12
1.98948e-12
1.97431e-12
1.98005e-12
1.91733e-12
2.01564e-12
1.67136e-13
2.73698e-13
5.03056e-13
8.559e-13
1.36047e-12
1.97361e-12
2.5919e-12
3.10649e-12
3.49193e-12
3.48584e-12
3.57984e-12
3.33119e-12
3.06205e-12
2.88864e-12
2.81012e-12
2.65549e-12
2.75103e-12
5.72084e-13
9.83202e-13
1.73903e-12
2.72257e-12
3.88815e-12
4.98188e-12
5.9573e-12
6.61386e-12
6.95236e-12
7.05692e-12
6.75754e-12
6.41682e-12
6.11035e-12
5.56831e-12
5.04934e-12
4.9042e-12
4.61146e-12
4.7884e-12
1.02025e-12
1.835e-12
3.3897e-12
5.2891e-12
7.28382e-12
9.00434e-12
1.02791e-11
1.09507e-11
1.11973e-11
1.11666e-11
1.08138e-11
1.01019e-11
9.77782e-12
9.08874e-12
8.38498e-12
7.64613e-12
7.05294e-12
6.51387e-12
6.47615e-12
8.63197e-13
1.55364e-12
2.67039e-12
3.94e-12
5.1578e-12
6.28621e-12
6.86795e-12
6.77914e-12
6.74116e-12
6.40392e-12
5.93247e-12
5.34967e-12
5.13566e-12
4.76654e-12
4.39211e-12
4.02771e-12
3.61816e-12
3.35152e-12
3.2289e-12
3.15333e-12
4.83207e-18
5.60603e-18
9.48497e-18
6.55826e-18
1.12006e-17
2.82693e-17
7.83063e-18
1.2877e-17
3.38238e-17
9.11703e-17
9.50468e-18
1.57214e-17
3.94283e-17
1.09548e-16
3.37322e-16
1.19546e-17
1.89128e-17
4.64481e-17
1.35402e-16
4.21651e-16
1.41555e-15
1.58994e-17
2.37621e-17
5.74092e-17
1.55564e-16
4.99891e-16
1.71894e-15
6.30756e-15
2.28349e-17
3.23927e-17
7.35774e-17
1.8673e-16
5.73024e-16
2.08356e-15
7.71541e-15
2.73447e-14
3.56052e-17
4.88066e-17
1.05056e-16
2.5489e-16
7.22916e-16
2.40706e-15
8.91339e-15
3.36614e-14
1.21096e-13
5.98568e-17
8.10898e-17
1.68657e-16
3.87074e-16
1.00918e-15
3.04217e-15
1.06446e-14
3.81051e-14
1.35612e-13
4.17734e-13
1.08915e-16
1.45574e-16
2.97436e-16
6.60564e-16
1.69739e-15
4.68144e-15
1.42767e-14
4.46545e-14
1.49596e-13
4.29971e-13
1.01179e-12
2.15679e-16
2.95975e-16
6.01363e-16
1.30554e-15
3.18547e-15
8.2242e-15
2.30656e-14
6.43228e-14
1.72562e-13
4.20411e-13
8.80438e-13
1.56472e-12
4.64057e-16
6.74869e-16
1.37977e-15
2.96348e-15
6.958e-15
1.73126e-14
4.27641e-14
1.01291e-13
2.28946e-13
4.57633e-13
7.83544e-13
1.25976e-12
1.97702e-12
1.14503e-15
1.74531e-15
3.72635e-15
7.94363e-15
1.80377e-14
4.0642e-14
9.18808e-14
1.87221e-13
3.39724e-13
5.60767e-13
8.21293e-13
1.13155e-12
1.5588e-12
2.11164e-12
3.2594e-15
5.31765e-15
1.11393e-14
2.35557e-14
5.12643e-14
1.09686e-13
2.18327e-13
3.76688e-13
5.70069e-13
7.81041e-13
9.73942e-13
1.20947e-12
1.3994e-12
1.64749e-12
1.98222e-12
1.10323e-14
1.78276e-14
3.75269e-14
7.5619e-14
1.53948e-13
2.95845e-13
5.16053e-13
8.02078e-13
1.05149e-12
1.22784e-12
1.34708e-12
1.51474e-12
1.60961e-12
1.67903e-12
1.71802e-12
1.84997e-12
4.18783e-14
6.93779e-14
1.3692e-13
2.6039e-13
4.76682e-13
8.04531e-13
1.21793e-12
1.64905e-12
2.01987e-12
2.14783e-12
2.25728e-12
2.19189e-12
2.16135e-12
2.09747e-12
2.06099e-12
1.98413e-12
2.06129e-12
1.66671e-13
2.76445e-13
5.15804e-13
8.96994e-13
1.44487e-12
2.12035e-12
2.79201e-12
3.40065e-12
3.77033e-12
4.01194e-12
3.90502e-12
3.82594e-12
3.49611e-12
3.17549e-12
2.9726e-12
2.87607e-12
2.71469e-12
2.79265e-12
5.42704e-13
9.59877e-13
1.75904e-12
2.7871e-12
4.00949e-12
5.3025e-12
6.41377e-12
7.15127e-12
7.59223e-12
7.77128e-12
7.61037e-12
7.07262e-12
6.6904e-12
6.09737e-12
5.70403e-12
5.16751e-12
5.00269e-12
4.6941e-12
4.85391e-12
1.02582e-12
1.80807e-12
3.2458e-12
5.2884e-12
7.45717e-12
9.13574e-12
1.07259e-11
1.16196e-11
1.19632e-11
1.19576e-11
1.16947e-11
1.09334e-11
1.0424e-11
9.93989e-12
9.16148e-12
8.25194e-12
7.59644e-12
6.96267e-12
6.45635e-12
6.44201e-12
7.90481e-13
1.50991e-12
2.68486e-12
4.0198e-12
5.28256e-12
6.46367e-12
7.17152e-12
7.4031e-12
7.05068e-12
6.84181e-12
6.44499e-12
5.98786e-12
5.43451e-12
5.15976e-12
4.76416e-12
4.36736e-12
3.91709e-12
3.44168e-12
3.28988e-12
3.14906e-12
3.07749e-12
4.30006e-18
4.91496e-18
8.45264e-18
5.63827e-18
9.80861e-18
2.51329e-17
6.54119e-18
1.13847e-17
2.95337e-17
8.10165e-17
7.65599e-18
1.31101e-17
3.37799e-17
9.57145e-17
2.9924e-16
9.18478e-18
1.50709e-17
3.84832e-17
1.16107e-16
3.68771e-16
1.25184e-15
1.15194e-17
1.78298e-17
4.5024e-17
1.27975e-16
4.28841e-16
1.50557e-15
5.56938e-15
1.54708e-17
2.25679e-17
5.34589e-17
1.43382e-16
4.66074e-16
1.78319e-15
6.79041e-15
2.50543e-14
2.24717e-17
3.13011e-17
6.96435e-17
1.77789e-16
5.37877e-16
1.92537e-15
7.62724e-15
3.01033e-14
1.11254e-13
3.50961e-17
4.76206e-17
1.01078e-16
2.41358e-16
6.68647e-16
2.18346e-15
8.3567e-15
3.31198e-14
1.27992e-13
4.37866e-13
5.8985e-17
7.93451e-17
1.60364e-16
3.65382e-16
9.84621e-16
2.93302e-15
9.88865e-15
3.53976e-14
1.32635e-13
4.53154e-13
1.20843e-12
1.06871e-16
1.42272e-16
2.89075e-16
6.37611e-16
1.61643e-15
4.48517e-15
1.35677e-14
4.48073e-14
1.443e-13
4.26798e-13
1.06056e-12
2.04992e-12
2.10379e-16
2.89447e-16
5.86875e-16
1.26994e-15
3.09546e-15
8.21388e-15
2.27347e-14
6.34412e-14
1.68654e-13
4.15848e-13
8.84198e-13
1.64247e-12
2.65657e-12
4.51785e-16
6.61058e-16
1.35455e-15
2.91321e-15
6.85166e-15
1.71881e-14
4.2669e-14
1.05513e-13
2.36259e-13
4.74648e-13
8.16795e-13
1.28487e-12
1.95583e-12
2.80595e-12
1.11954e-15
1.71775e-15
3.69218e-15
7.92326e-15
1.81482e-14
4.25216e-14
9.44778e-14
1.94047e-13
3.65538e-13
5.95992e-13
8.69404e-13
1.15126e-12
1.52641e-12
1.99925e-12
2.66029e-12
3.28624e-15
5.1222e-15
1.11498e-14
2.38032e-14
5.23781e-14
1.13637e-13
2.30977e-13
4.14997e-13
6.35304e-13
8.42634e-13
1.05139e-12
1.29065e-12
1.46631e-12
1.68376e-12
1.89801e-12
2.1727e-12
1.10184e-14
1.80436e-14
3.81635e-14
7.74251e-14
1.59277e-13
3.10358e-13
5.50373e-13
8.62752e-13
1.2005e-12
1.39853e-12
1.54139e-12
1.65754e-12
1.6971e-12
1.78615e-12
1.79922e-12
1.81395e-12
1.90946e-12
4.21759e-14
7.03233e-14
1.4043e-13
2.71055e-13
5.01287e-13
8.54079e-13
1.30846e-12
1.80104e-12
2.19248e-12
2.47255e-12
2.53222e-12
2.504e-12
2.38125e-12
2.29254e-12
2.18679e-12
2.12374e-12
2.0383e-12
2.0959e-12
1.62638e-13
2.73059e-13
5.22099e-13
9.15772e-13
1.507e-12
2.2665e-12
3.00613e-12
3.68993e-12
4.10366e-12
4.39313e-12
4.49072e-12
4.19738e-12
4.01153e-12
3.61684e-12
3.2663e-12
3.0442e-12
2.93099e-12
2.75896e-12
2.82336e-12
5.14749e-13
8.85914e-13
1.74916e-12
2.90108e-12
4.1913e-12
5.49312e-12
6.76784e-12
7.74282e-12
8.26766e-12
8.51599e-12
8.3931e-12
8.03214e-12
7.40106e-12
7.01064e-12
6.30933e-12
5.84731e-12
5.27063e-12
5.07758e-12
4.74513e-12
4.89582e-12
1.05711e-12
1.96394e-12
3.34329e-12
5.13023e-12
7.65862e-12
9.67441e-12
1.11396e-11
1.21296e-11
1.28078e-11
1.28396e-11
1.2582e-11
1.21075e-11
1.13079e-11
1.06298e-11
1.00403e-11
9.17928e-12
8.16194e-12
7.26738e-12
6.88283e-12
6.38724e-12
6.39907e-12
7.34588e-13
1.43342e-12
2.5977e-12
4.12323e-12
5.51512e-12
6.72638e-12
7.57046e-12
7.88443e-12
7.77945e-12
7.22681e-12
6.93882e-12
6.53599e-12
6.08422e-12
5.49917e-12
5.18419e-12
4.75063e-12
4.35741e-12
3.78336e-12
3.34901e-12
3.21343e-12
3.07889e-12
3.01488e-12
3.90408e-18
4.40702e-18
7.6898e-18
4.97762e-18
8.80003e-18
2.28471e-17
5.64226e-18
1.0067e-17
2.64586e-17
7.37181e-17
6.40258e-18
1.13269e-17
3.05639e-17
8.59473e-17
2.71801e-16
7.39659e-18
1.258e-17
3.32269e-17
1.03e-16
3.32154e-16
1.13505e-15
8.83082e-18
1.4154e-17
3.72774e-17
1.1043e-16
3.82452e-16
1.36026e-15
5.05057e-15
1.11943e-17
1.68114e-17
4.15719e-17
1.17479e-16
4.01161e-16
1.59753e-15
6.17223e-15
2.2741e-14
1.52405e-17
2.16746e-17
5.00435e-17
1.34642e-16
4.32806e-16
1.64609e-15
6.87504e-15
2.76995e-14
1.03962e-13
2.2208e-17
3.04254e-17
6.63598e-17
1.65778e-16
4.881e-16
1.71596e-15
7.08864e-15
3.02423e-14
1.22166e-13
4.39763e-13
3.47005e-17
4.65079e-17
9.73478e-17
2.28794e-16
6.38262e-16
2.04843e-15
7.56427e-15
3.02308e-14
1.26566e-13
4.75871e-13
1.37968e-12
5.8142e-17
7.6028e-17
1.55057e-16
3.48771e-16
9.35377e-16
2.74546e-15
9.13712e-15
3.41312e-14
1.28291e-13
4.48786e-13
1.29914e-12
2.78168e-12
1.04821e-16
1.39071e-16
2.80664e-16
6.13707e-16
1.54517e-15
4.25144e-15
1.33353e-14
4.29899e-14
1.37129e-13
4.12366e-13
1.05942e-12
2.2282e-12
3.82494e-12
2.01427e-16
2.83078e-16
5.73062e-16
1.2348e-15
2.99788e-15
7.9755e-15
2.20985e-14
6.312e-14
1.73277e-13
4.15684e-13
8.80169e-13
1.63287e-12
2.72827e-12
4.1024e-12
4.49678e-16
6.48259e-16
1.33088e-15
2.95676e-15
6.97152e-15
1.70003e-14
4.40044e-14
1.07119e-13
2.41248e-13
4.76691e-13
8.42905e-13
1.29466e-12
1.89677e-12
2.78546e-12
3.89204e-12
1.11697e-15
1.68885e-15
3.65862e-15
7.90807e-15
1.82431e-14
4.32253e-14
1.00104e-13
2.08877e-13
3.87827e-13
6.3243e-13
8.96532e-13
1.22142e-12
1.58883e-12
1.99276e-12
2.5104e-12
3.13013e-12
3.16766e-15
5.27195e-15
1.11916e-14
2.40227e-14
5.34393e-14
1.17502e-13
2.43074e-13
4.48285e-13
6.9394e-13
9.40916e-13
1.13848e-12
1.37085e-12
1.58805e-12
1.78094e-12
1.88151e-12
2.09346e-12
2.3061e-12
1.08399e-14
1.82565e-14
3.88278e-14
7.96498e-14
1.64866e-13
3.24831e-13
5.85136e-13
9.33431e-13
1.31553e-12
1.54117e-12
1.71248e-12
1.85614e-12
1.84661e-12
1.88772e-12
1.91897e-12
1.83841e-12
1.88538e-12
1.94812e-12
4.09637e-14
6.96393e-14
1.42275e-13
2.78342e-13
5.25876e-13
9.33032e-13
1.45503e-12
2.01364e-12
2.38455e-12
2.71827e-12
2.92438e-12
2.77286e-12
2.71423e-12
2.52521e-12
2.32042e-12
2.25578e-12
2.17391e-12
2.08043e-12
2.11978e-12
1.57557e-13
2.67941e-13
5.32252e-13
9.44637e-13
1.60154e-12
2.42254e-12
3.31332e-12
4.09932e-12
4.48294e-12
4.85853e-12
4.92166e-12
4.8364e-12
4.41915e-12
4.14522e-12
3.72199e-12
3.34331e-12
3.10295e-12
2.9697e-12
2.78585e-12
2.8421e-12
4.73463e-13
8.42743e-13
1.65305e-12
2.88267e-12
4.46259e-12
6.01346e-12
7.31799e-12
8.17582e-12
8.9815e-12
9.27712e-12
9.21342e-12
8.86867e-12
8.45435e-12
7.63222e-12
7.18481e-12
6.44438e-12
5.94934e-12
5.34995e-12
5.1182e-12
4.77125e-12
4.93173e-12
1.13833e-12
2.1464e-12
3.53943e-12
5.37701e-12
7.47001e-12
1.01235e-11
1.20478e-11
1.2731e-11
1.34519e-11
1.37737e-11
1.3521e-11
1.30471e-11
1.26086e-11
1.15278e-11
1.07641e-11
1.00686e-11
9.11094e-12
8.08276e-12
7.19317e-12
6.83014e-12
6.34567e-12
6.38482e-12
6.94645e-13
1.33898e-12
2.50427e-12
4.07638e-12
5.81248e-12
7.09202e-12
7.98455e-12
8.50618e-12
8.41946e-12
8.09062e-12
7.39402e-12
7.07073e-12
6.67486e-12
6.18573e-12
5.56029e-12
5.19685e-12
4.74248e-12
4.21905e-12
3.67946e-12
3.31292e-12
3.1511e-12
2.99045e-12
2.92489e-12
3.60432e-18
4.02607e-18
7.11597e-18
4.49181e-18
8.0546e-18
2.11431e-17
4.99824e-18
9.11024e-18
2.42115e-17
6.83839e-17
5.52779e-18
1.00714e-17
2.76771e-17
7.88978e-17
2.51942e-16
6.18172e-18
1.08838e-17
3.04685e-17
9.37896e-17
3.05828e-16
1.05167e-15
7.0898e-18
1.17795e-17
3.22331e-17
9.88128e-17
3.51161e-16
1.257e-15
4.67601e-15
8.54613e-18
1.32518e-17
3.41667e-17
1.0126e-16
3.60339e-16
1.4795e-15
5.74286e-15
2.10462e-14
1.10099e-17
1.60356e-17
3.8491e-17
1.09033e-16
3.70167e-16
1.48053e-15
6.43572e-15
2.59539e-14
9.86206e-14
1.50857e-17
2.09593e-17
4.71752e-17
1.23566e-16
3.86168e-16
1.44942e-15
6.379e-15
2.86201e-14
1.18626e-13
4.36447e-13
2.20303e-17
2.96211e-17
6.33566e-17
1.5481e-16
4.42909e-16
1.5701e-15
6.28905e-15
2.74181e-14
1.23953e-13
4.9737e-13
1.51295e-12
3.43756e-17
4.54271e-17
9.36588e-17
2.16264e-16
5.94557e-16
1.86933e-15
6.79216e-15
2.81859e-14
1.20048e-13
4.76115e-13
1.53791e-12
3.50703e-12
5.73248e-17
7.43088e-17
1.49725e-16
3.31991e-16
8.66143e-16
2.54151e-15
8.67289e-15
3.17223e-14
1.1827e-13
4.24014e-13
1.29692e-12
3.06105e-12
5.52265e-12
1.02993e-16
1.3599e-16
2.72756e-16
5.89981e-16
1.47127e-15
4.13605e-15
1.25914e-14
4.02674e-14
1.30708e-13
4.00658e-13
1.03305e-12
2.21961e-12
4.06412e-12
6.04899e-12
2.00608e-16
2.7738e-16
5.60165e-16
1.20217e-15
2.90106e-15
7.7096e-15
2.19626e-14
6.20956e-14
1.70056e-13
4.2428e-13
9.19428e-13
1.6321e-12
2.66023e-12
4.07774e-12
5.79271e-12
4.37125e-16
6.35344e-16
1.3091e-15
2.91754e-15
6.89969e-15
1.73965e-14
4.26644e-14
1.10649e-13
2.50963e-13
5.07591e-13
8.62618e-13
1.31763e-12
1.96316e-12
2.66168e-12
3.67986e-12
4.97552e-12
1.06814e-15
1.71683e-15
3.62962e-15
7.89182e-15
1.83392e-14
4.38897e-14
1.03333e-13
2.17851e-13
4.20169e-13
6.86697e-13
9.825e-13
1.31039e-12
1.68494e-12
1.9888e-12
2.49047e-12