/*--------------------------------*- C++ -*----------------------------------*\
| =========                 |                                                 |
| \\      /  F ield         | OpenFOAM: The Open Source CFD Toolbox           |
|  \\    /   O peration     | Version:  v2012                                 |
|   \\  /    A nd           | Website:  www.openfoam.com                      |
|    \\/     M anipulation  |                                                 |
\*---------------------------------------------------------------------------*/
FoamFile
{
    version     2.0;
    format      ascii;
    class       volScalarField;
    location    "15001";
    object      Res;
}
// * * * * * * * * * * * * * * * * * * * * * * * * * * * * * * * * * * * * * //

dimensions      [0 0 0 0 0 0 0];


internalField   nonuniform List<scalar> 
294912
(
277498
450115
283743
257108
684247
447834
418292
297331
263794
228397
992647
682367
602884
446078
415239
363952
307989
276532
234965
222135
1.42677e+06
989327
869096
672779
600374
514109
440694
411478
361150
329885
315580
285490
246721
227850
224077
2.0401e+06
1.4258e+06
1.26033e+06
976023
865159
722672
656292
591535
506594
450532
432647
402002
356896
326968
309202
317679
287407
254575
237113
227064
227338
2.88803e+06
2.05646e+06
1.82203e+06
1.42191e+06
1.25684e+06
1.03704e+06
965453
853999
717894
625129
641618
576573
498567
443031
407726
424308
395372
348286
322197
305893
291599
319774
290336
255309
244500
234861
229973
235516
3.9968e+06
2.9244e+06
2.60371e+06
2.0631e+06
1.83101e+06
1.4911e+06
1.41901e+06
1.25284e+06
1.03485e+06
877515
954785
844310
716566
616800
544421
630864
562882
485530
436595
402216
373071
419175
385732
342092
314294
298175
287349
277748
323019
292627
257195
243917
239328
236302
237741
242771
5.38058e+06
4.06219e+06
3.63091e+06
2.94724e+06
2.62903e+06
2.11824e+06
2.07188e+06
1.83404e+06
1.49491e+06
1.24088e+06
1.41488e+06
1.24882e+06
1.03897e+06
867720
740938
945240
833587
699942
611786
542114
490004
621519
552631
473365
424955
391518
368705
348090
415597
379927
333298
308306
293739
280732
274861
270658
330141
292403
256652
244599
241189
239258
242669
244423
249907
7.03211e+06
5.48383e+06
4.91224e+06
4.14776e+06
3.71227e+06
2.94136e+06
2.97091e+06
2.64309e+06
2.13337e+06
1.73706e+06
2.07965e+06
1.83876e+06
1.50747e+06
1.23178e+06
1.01716e+06
1.4108e+06
1.24154e+06
1.02179e+06
866078
739805
642049
937074
823527
693087
596455
529073
484268
447102
615391
544597
464057
415967
380956
357802
347903
329775
409534
374287
327953
300005
284948
276647
270733
267933
264170
343656
293625
258151
242991
238498
239886
242186
247311
253766
254357
8.92091e+06
7.18012e+06
6.43415e+06
5.61001e+06
5.03607e+06
3.96289e+06
4.14884e+06
3.74833e+06
2.97317e+06
2.38204e+06
2.99487e+06
2.65987e+06
2.15879e+06
1.73146e+06
1.3889e+06
2.0859e+06
1.83859e+06
1.49099e+06
1.23393e+06
1.01853e+06
853641
1.40731e+06
1.2337e+06
1.01767e+06
849354
725580
642525
566430
931070
816151
680567
585493
516995
472226
442860
415881
608301
537033
456626
404763
372385
352271
338221
329378
317258
402872
369033
322701
294075
278900
268699
264030
261528
262293
259171
356313
301174
258399
245193
237838
236359
239420
247226
253689
257526
257254
1.09967e+07
9.1158e+06
8.15488e+06
7.35211e+06
6.60311e+06
5.16385e+06
5.61958e+06
5.09606e+06
4.0167e+06
3.177e+06
4.19302e+06
3.74367e+06
3.01734e+06
2.38443e+06
1.88138e+06
3.01708e+06
2.67161e+06
2.14457e+06
1.74009e+06
1.39594e+06
1.1249e+06
2.09085e+06
1.83581e+06
1.49232e+06
1.21664e+06
1.00372e+06
843652
718960
1.40563e+06
1.22885e+06
1.00222e+06
845493
718718
630410
565545
512345
928851
808677
671396
575012
508208
464591
435808
415648
393830
596773
531058
452008
396416
364141
340458
328445
320376
317018
311016
402088
360430
320198
291149
273393
262569
256583
254068
256298
257645
255236
368028
313433
262505
242970
237059
234853
237377
243653
252497
257267
260446
258115
1.31951e+07
1.12334e+07
1.00126e+07
9.33509e+06
8.36611e+06
6.49847e+06
7.36981e+06
6.69133e+06
5.23926e+06
4.09603e+06
5.68612e+06
5.09641e+06
4.08538e+06
3.18887e+06
2.46191e+06
4.23549e+06
3.77326e+06
3.00816e+06
2.40294e+06
1.88088e+06
1.45268e+06
3.03535e+06
2.67825e+06
2.15572e+06
1.742e+06
1.38249e+06
1.11441e+06
905879
2.09679e+06
1.83252e+06
1.47652e+06
1.21053e+06
997903
837461
718599
626129
1.40908e+06
1.22308e+06
992775
825107
701514
615074
554375
510422
472904
922201
802861
663125
565029
494854
450355
423449
405146
393330
378279
583452
522772
443383
392442
353371
332199
317976
311348
308817
308662
303375
408760
353865
311279
286702
267788
256809
250753
248001
249281
250915
253377
252658
378228
323560
271762
243470
233999
233219
234961
240803
248222
256180
261941
261580
257456
1.54422e+07
1.34604e+07
1.19335e+07
1.15006e+07
1.02564e+07
7.90575e+06
9.35717e+06
8.4835e+06
6.59014e+06
5.09226e+06
7.46015e+06
6.69795e+06
5.33599e+06
4.11528e+06
3.11695e+06
5.75241e+06
5.14901e+06
4.08363e+06
3.22108e+06
2.46505e+06
1.84747e+06
4.27104e+06
3.79516e+06
3.03576e+06
2.41456e+06
1.88994e+06
1.46613e+06
1.12706e+06
3.05297e+06
2.6823e+06
2.1417e+06
1.72421e+06
1.3793e+06
1.11012e+06
907454
753473
2.10482e+06
1.83025e+06
1.4686e+06
1.19188e+06
978140
820754
706339
623571
559076
1.41018e+06
1.2187e+06
984216
813728
689459
603014
540944
504581
470019
443540
910028
797025
655850
560994
488623
440024
413755
393845
383845
378043
368142
577622
509196
436701
382161
345385
324316
309744
301319
299417
300781
301454
298155
414453
353746
303717
281800
263186
251044
245272
242433
245474
245161
247662
251283
250680
389307
331113
279043
248310
232973
229442
232523
237654
244678
250836
258379
262972
261009
256787
1.76685e+07
1.57163e+07
1.38407e+07
1.37747e+07
1.21938e+07
9.31649e+06
1.15145e+07
1.0399e+07
8.00263e+06
6.10746e+06
9.47175e+06
8.49565e+06
6.71485e+06
5.16394e+06
3.80513e+06
7.55258e+06
6.77818e+06
5.34427e+06
4.16248e+06
3.12301e+06
2.27847e+06
5.80861e+06
5.19263e+06
4.11542e+06
3.24777e+06
2.48448e+06
1.86862e+06
1.37692e+06
4.30296e+06
3.81044e+06
3.02747e+06
2.40219e+06
1.87577e+06
1.45378e+06
1.13223e+06
892468
3.07179e+06
2.687e+06
2.13707e+06
1.70574e+06
1.35934e+06
1.10503e+06
895709
750941
645673
2.11473e+06
1.82911e+06
1.46175e+06
1.17977e+06
964256
806673
696553
617492
554798
506669
1.40722e+06
1.21532e+06
976217
802996
678032
585238
528601
492117
463410
442394
424732
901969
786227
648993
546962
474582
430028
398884
383945
376278
373297
365219
358883
572106
497589
424230
377127
339711
313677
299164
293049
293624
294788
296657
296623
294140
415907
355837
300205
272436
256617
246287
239685
236907
237546
240548
244491
247224
251775
249149
397683
336737
284354
254468
235420
227668
228162
234537
239146
245596
252784
258949
262362
259351
255453
1.98287e+07
1.79328e+07
1.56647e+07
1.60717e+07
1.40971e+07
1.06673e+07
1.37728e+07
1.23518e+07
9.40353e+06
7.08248e+06
1.16557e+07
1.04139e+07
8.15091e+06
6.17979e+06
4.47626e+06
9.59093e+06
8.60682e+06
6.80074e+06
5.17431e+06
3.80852e+06
2.7109e+06
7.63189e+06
6.85014e+06
5.40173e+06
4.20883e+06
3.15401e+06
2.30525e+06
1.63738e+06
5.85668e+06
5.22456e+06
4.13825e+06
3.23562e+06
2.47894e+06
1.86038e+06
1.38474e+06
1.03824e+06
4.33462e+06
3.82498e+06
3.03049e+06
2.39987e+06
1.8605e+06
1.45461e+06
1.13473e+06
890479
730437
3.09307e+06
2.69266e+06
2.13394e+06
1.69524e+06
1.34556e+06
1.07968e+06
886209
745398
640112
567156
2.12312e+06
1.82914e+06
1.45527e+06
1.16878e+06
951525
785672
675601
605331
547328
505361
475306
1.40757e+06
1.20987e+06
968694
792691
660463
572816
510376
475006
452008
435244
421558
406439
890656
772525
637245
538636
465181
416048
388317
369901
362886
359892
360147
356904
352472
563006
489739
413124
366861
332966
307908
291010
282783
282501
284810
288166
290815
293148
290894
420603
356611
300693
266844
249086
239688
234946
231252
231993
231748
237011
240693
245393
250206
247964
411299
346265
290300
257382
239092
228414
225318
229682
237290
241276
247287
252461
258048
260767
258384
253554
2.18583e+07
2.00579e+07
1.73556e+07
1.83215e+07
1.58961e+07
1.19121e+07
1.60488e+07
1.4255e+07
1.07263e+07
7.97435e+06
1.39301e+07
1.23645e+07
9.56546e+06
7.14191e+06
5.08984e+06
1.1802e+07
1.05571e+07
8.25976e+06
6.18933e+06
4.46922e+06
3.11187e+06
9.69394e+06
8.71367e+06
6.82302e+06
5.24368e+06
3.84942e+06
2.74025e+06
1.88669e+06
7.69706e+06
6.90417e+06
5.449e+06
4.21405e+06
3.16166e+06
2.3019e+06
1.64638e+06
1.17906e+06
5.90204e+06
5.25269e+06
4.15429e+06
3.24244e+06
2.48791e+06
1.87153e+06
1.39345e+06
1.0361e+06
805212
4.36841e+06
3.84118e+06
3.03638e+06
2.39773e+06
1.8504e+06
1.43131e+06
1.11772e+06
887114
722092
610788
3.11575e+06
2.69929e+06
2.13232e+06
1.68647e+06
1.33367e+06
1.06649e+06
864795
729800
632103
562455
513311
2.14345e+06
1.82932e+06
1.44886e+06
1.15861e+06
939847
771136
661311
583633
534817
497035
473291
441744
1.39896e+06
1.20061e+06
960503
782705
648965
555140
497197
457867
436599
428679
414114
404925
394201
882093
760121
624977
529296
456004
406170
374267
359249
348963
349442
349484
350141
351394
347890
560443
482259
405326
356515
323432
301027
284493
274771
272273
273023
278111
282247
287317
293085
288022
428199
358647
301081
265969
243972
233856
228089
226256
224968
227468
228852
234958
239020
244075
248903
247292
423503
354658
296325
260890
242100
229161
224803
226697
232246
239310
242863
247483
251481
256561
259914
259349
256137
2.37127e+07
2.2034e+07
1.88851e+07
2.04508e+07
1.75443e+07
1.30297e+07
1.82768e+07
1.60369e+07
1.19272e+07
8.76622e+06
1.62245e+07
1.42578e+07
1.08886e+07
8.00612e+06
5.62811e+06
1.41035e+07
1.25392e+07
9.69293e+06
7.14233e+06
5.06209e+06
3.46085e+06
1.19299e+07
1.07042e+07
8.30475e+06
6.28259e+06
4.51459e+06
3.13666e+06
2.10524e+06
9.77485e+06
8.79643e+06
6.90339e+06
5.32429e+06
3.87438e+06
2.74042e+06
1.89372e+06
1.30444e+06
7.75516e+06
6.94895e+06
5.48413e+06
4.24133e+06
3.19102e+06
2.32815e+06
1.66224e+06
1.17609e+06
857892
5.94863e+06
5.31758e+06
4.19946e+06
3.26691e+06
2.46592e+06
1.85641e+06
1.38299e+06
1.03613e+06
799666
631754
4.40555e+06
3.85907e+06
3.04317e+06
2.39832e+06
1.84245e+06
1.42085e+06
1.10923e+06
875111
714448
607419
525848
3.1589e+06
2.70704e+06
2.13146e+06
1.67907e+06
1.32364e+06
1.04249e+06
849412
716739
625237
552901
511973
459259
2.14526e+06
1.84439e+06
1.44279e+06
1.14885e+06
918358
757771
639864
569652
518796
489505
464696
446469
419204
1.39148e+06
1.18986e+06
950278
772687
637762
542752
479759
443950
424317
410857
407304
397200
397399
385983
867183
747491
613620
520610
448523
398250
363922
345472
337916
335154
337862
344105
344448
350334
344397
561688
477331
399105
350505
315856
293294
277009
268210
263868
264011
267096
274015
279149
284511
290194
285410
440536
363325
301957
266465
242814
228256
222585
219199
220880
220205
224401
226770
231690
237822
242954
248213
247609
430980
360051
302954
265298
241362
230215
224097
225042
229069
234544
240950
242974
248798
250324
255764
260817
263827
266260
2.53754e+07
2.38202e+07
2.02436e+07
2.24037e+07
1.90176e+07
1.40154e+07
2.03725e+07
1.76499e+07
1.29881e+07
9.45791e+06
1.84638e+07
1.60221e+07
1.20746e+07
8.75619e+06
6.09357e+06
1.64307e+07
1.44627e+07
1.10285e+07
7.95697e+06
5.56818e+06
3.7595e+06
1.42607e+07
1.27321e+07
9.76298e+06
7.25778e+06
5.10495e+06
3.47191e+06
2.28736e+06
1.20269e+07
1.08229e+07
8.42696e+06
6.40228e+06
4.6036e+06
3.13678e+06
2.10482e+06
1.40536e+06
9.84148e+06
8.86204e+06
6.96564e+06
5.33111e+06
3.9325e+06
2.78515e+06
1.9154e+06
1.29785e+06
902363
7.81244e+06
6.99315e+06
5.55307e+06
4.26356e+06
3.21493e+06
2.3289e+06
1.66314e+06
1.18052e+06
858278
642687
5.99865e+06
5.35194e+06
4.22231e+06
3.27894e+06
2.4754e+06
1.85342e+06
1.38188e+06
1.03209e+06
789186
632382
524103
4.47343e+06
3.87844e+06
3.07671e+06
2.40125e+06
1.8377e+06
1.39933e+06
1.08503e+06
862849
709230
596489
527069
454778
3.17787e+06
2.73805e+06
2.13107e+06
1.67236e+06
1.30132e+06
1.02944e+06
827658
695344
610105
544650
505674
466038
422648
2.14602e+06
1.84131e+06
1.43618e+06
1.13928e+06
906205
736339
625291
548193
503816
476477
456651
433888
423675
403852
1.38625e+06
1.18009e+06
939375
765472
629751
533244
466902
430967
406308
398466
391924
390264
386415
388840
380484
865797
739128
604089
510504
438685
388747
355684
334907
324211
324882
323579
329838
338291
340367
346663
341557
564364
476151
396203
343966
308652
285387
269421
260668
256818
257841
260201
263183
270829
276665
281944
287509
283109
456271
370835
306730
267211
240635
226585
218188
213997
213552
214197
217125
221993
225044
230522
236801
242474
248184
248280
432603
359609
304250
268643
243361
227538
223630
222366
225238
230540
235567
241085
241632
247507
249145
255331
265143
269452
273412
2.68469e+07
2.53969e+07
2.14314e+07
2.41459e+07
2.03115e+07
1.48724e+07
2.22802e+07
1.90725e+07
1.39103e+07
1.00545e+07
2.05623e+07
1.76084e+07
1.31049e+07
9.39571e+06
6.49198e+06
1.86944e+07
1.62541e+07
1.2217e+07
8.67334e+06
5.99132e+06
4.01505e+06
1.66276e+07
1.47078e+07
1.11242e+07
8.12026e+06
5.59835e+06
3.7463e+06
2.44151e+06
1.43801e+07
1.2896e+07
9.93671e+06
7.42059e+06
5.21702e+06
3.46589e+06
2.27349e+06
1.48764e+06
1.21003e+07
1.09143e+07
8.52602e+06
6.44287e+06
4.65278e+06
3.20156e+06
2.12901e+06
1.39147e+06
933170
9.90341e+06
8.92334e+06
7.06529e+06
5.37959e+06
3.98492e+06
2.83597e+06
1.93196e+06
1.30528e+06
899981
641671
7.87209e+06
7.08837e+06
5.59364e+06
4.31759e+06
3.19679e+06
2.34059e+06
1.67426e+06
1.18891e+06
851111
640923
500944
6.05187e+06
5.38822e+06
4.24784e+06
3.29489e+06
2.48182e+06
1.85479e+06
1.36521e+06
1.02374e+06
787348
625745
517080
438391
4.51244e+06
3.93005e+06
3.06034e+06
2.40549e+06
1.83524e+06
1.39055e+06
1.07446e+06
845793
692787
588452
520447
459580
408751
3.19414e+06
2.74566e+06
2.13106e+06
1.66609e+06
1.29089e+06
1.00692e+06
812401
680511
594457
531128
491358
455891
429198
396404
2.14742e+06
1.82479e+06
1.42881e+06
1.12983e+06
898548
726245
604461
532576
484524
457718
444719
425923
414133
407833
393910
1.374e+06
1.17171e+06
929232
755125
619292
522157
456879
413340
393218
381913
379741
378380
379348
378984
382989
376590
863128
732654
598292
501198
429479
379393
346441
326144
313671
313853
311085
318641
327716
334144
337211
343520
339217
571046
477158
394955
340183
302240
278391
262381
253371
249240
248019
251611
255989
260168
268280
277041
279563
285192
281346
467145
383327
311960
268018
241118
224471
214555
210031
208507
208693
211037
216004
218450
223760
229530
236372
242571
249293
249930
433611
357551
300992
266943
244221
227018
219252
220029
220846
225051
230746
237412
237552
240206
243520
247548
259298
270452
276534
280015
2.81353e+07
2.67762e+07
2.24567e+07
2.54242e+07
2.12525e+07
1.5606e+07
2.39624e+07
2.03037e+07
1.47044e+07
1.05608e+07
2.24627e+07
1.89964e+07
1.39825e+07
9.9374e+06
6.8282e+06
2.08108e+07
1.7862e+07
1.32384e+07
9.26753e+06
6.34165e+06
4.22996e+06
1.89249e+07
1.65535e+07
1.23364e+07
8.84804e+06
5.99602e+06
3.96813e+06
2.57164e+06
1.67737e+07
1.49285e+07
1.13567e+07
8.3261e+06
5.7293e+06
3.725e+06
2.40652e+06
1.57677e+06
1.4465e+07
1.30217e+07
1.00852e+07
7.50537e+06
5.30231e+06
3.55071e+06
2.29478e+06
1.4725e+06
960283
1.21651e+07
1.09945e+07
8.61311e+06
6.52986e+06
4.74421e+06
3.28406e+06
2.16333e+06
1.41397e+06
925421
635593
9.9645e+06
9.04634e+06
7.12889e+06
5.46423e+06
3.98948e+06
2.84462e+06
1.96154e+06
1.34134e+06
896393
629914
473420
7.9351e+06
7.1409e+06
5.6378e+06
4.35406e+06
3.23426e+06
2.35758e+06
1.67178e+06
1.18768e+06
854756
635235
496177
409391
6.14661e+06
5.42537e+06
4.27461e+06
3.31308e+06
2.49264e+06
1.83951e+06
1.36081e+06
1.02087e+06
777882
617540
516184
440261
378753
4.54868e+06
3.95246e+06
3.06956e+06
2.38508e+06
1.81455e+06
1.38411e+06
1.05458e+06
831827
681999
577103
508147
456664
410205
370647
3.20953e+06
2.7262e+06
2.13082e+06
1.66013e+06
1.28106e+06
994155
790304
658921
573930
516762
480098
446657
425466
402810
378641
2.13753e+06
1.8216e+06
1.42139e+06
1.12538e+06
887934
714192
593292
512186
467999
444420
430904
414385
406082
400403
397242
387502
1.37019e+06
1.1581e+06
923326
745249
609203
511663
445605
402802
376456
368836
362767
366354
368071
371775
373957
378619
373679
864161
730335
593321
493424
420940
370426
337954
316449
305753
299485
302197
304266
313550
323762
330942
334537
340886
337423
582399
481560
393842
337820
299283
272676
256021
246879
242044
240174
241833
247813
252415
260272
265978
274688
277544
283523
280288
467261
386512
318310
269420
239966
224036
211970
206197
204239
204171
205651
210133
213533
216949
222684
230258
236662
243854
250679
251102
442946
359559
297987
261880
241042
225146
216676
213943
217718
220362
224650
228962
234146
235665
238393
241388
250272
267905
276109
283513
286884
2.92503e+07
2.79763e+07
2.33328e+07
2.67381e+07
2.22107e+07
1.62277e+07
2.54438e+07
2.11542e+07
1.53823e+07
1.0983e+07
2.41422e+07
2.01815e+07
1.47219e+07
1.0393e+07
7.10342e+06
2.27218e+07
1.92658e+07
1.40947e+07
9.75464e+06
6.63008e+06
4.40507e+06
2.10708e+07
1.82166e+07
1.33772e+07
9.44228e+06
6.31016e+06
4.14664e+06
2.67922e+06
1.9098e+07
1.68397e+07
1.26327e+07
9.09232e+06
6.13721e+06
3.92291e+06
2.51073e+06
1.62258e+06
1.68628e+07
1.51001e+07
1.15664e+07
8.46268e+06
5.85144e+06
3.82463e+06
2.4168e+06
1.52805e+06
987317
1.45339e+07
1.31292e+07
1.0216e+07
7.64315e+06
5.4416e+06
3.66782e+06
2.345e+06
1.48133e+06
943137
625360
1.22243e+07
1.10746e+07
8.75907e+06
6.65672e+06
4.78349e+06
3.3242e+06
2.21679e+06
1.44931e+06
932946
618874
445999
1.00276e+07
9.11578e+06
7.19694e+06
5.52896e+06
4.05499e+06
2.88564e+06
1.99521e+06
1.33968e+06
907241
631989
466252
374030
8.00123e+06
7.19414e+06
5.68384e+06
4.39436e+06
3.26527e+06
2.35854e+06
1.67988e+06
1.1932e+06
861283
637535
495794
402917
343190
6.20178e+06
5.46279e+06
4.301e+06
3.33205e+06
2.50547e+06
1.84394e+06
1.36181e+06
1.00707e+06
769782
610074
509062
437728
380207
337064
4.58292e+06
3.97338e+06
3.07898e+06
2.38711e+06
1.81088e+06
1.36341e+06
1.04482e+06
821949
665540
565501
498596
454038
413324
377543
343166
3.20076e+06
2.7603e+06
2.13011e+06
1.65435e+06
1.27191e+06
982496
775602
637984
553571
503843
468000
437087
418899
400022
384232
367217
2.13849e+06
1.81437e+06
1.41345e+06
1.11655e+06
877913
702879
580695
499892
447771
425550
411976
402126
398980
392237
391280
390096
383360
1.36698e+06
1.15294e+06
915563
735349
599070
501572
435088
391135
366306
351923
349136
350452
356373
360916
366643
370218
375168
371489
871699
733407
591013
490064
415080
362281
329723
307958
297243
290556
288441
295011
299500
310018
320707
328247
332311
338976
336250
592825
494715
394768
333426
294977
269628
251501
240437
235277
232960
234076
237526
244061
248437
257168
263559
272705
276189
282689
279745
462777
376030
315616
273403
238666
220175
209845
203680
199897
199582
200893
203307
207772
211817
215716
222034
230890
240403
245465
252195
252135
452240
366292
302064
258982
235979
221903
212765
210047
211207
216743
219383
222574
225630
231198
233105
235905
240603
258385
274618
282520
289354
292629
3.02068e+07
2.90119e+07
2.40765e+07
2.78724e+07
2.30257e+07
1.6749e+07
2.67291e+07
2.20392e+07
1.59542e+07
1.13317e+07
2.56247e+07
2.11885e+07
1.52211e+07
1.07707e+07
7.32919e+06
2.44225e+07
2.04606e+07
1.48012e+07
1.01518e+07
6.86373e+06
4.54817e+06
2.30229e+07
1.96734e+07
1.42457e+07
9.917e+06
6.5554e+06
4.28828e+06
2.76591e+06
2.1273e+07
1.85762e+07
1.37373e+07
9.7164e+06
6.45095e+06
4.06905e+06
2.59116e+06
1.6746e+06
1.91929e+07
1.7068e+07
1.29132e+07
9.28398e+06
6.29102e+06
4.02909e+06
2.50152e+06
1.57071e+06
1.00922e+06
1.69284e+07
1.5244e+07
1.17544e+07
8.66219e+06
6.04318e+06
3.97444e+06
2.47703e+06
1.52647e+06
957750
624085
1.45883e+07
1.32332e+07
1.03449e+07
7.78087e+06
5.52684e+06
3.74639e+06
2.42385e+06
1.52756e+06
947311
608657
426444
1.22829e+07
1.12334e+07
8.85778e+06
6.76071e+06
4.86616e+06
3.39852e+06
2.27601e+06
1.46678e+06
943524
621370
435623
337706
1.00926e+07
9.1852e+06
7.26813e+06
5.59978e+06
4.11633e+06
2.9376e+06
2.00684e+06
1.35839e+06
922706
639292
466768
363864
303832
8.11811e+06
7.24762e+06
5.72919e+06
4.43571e+06
3.3003e+06
2.38178e+06
1.69583e+06
1.19524e+06
853593
637614
496511
404109
340219
296938
6.21147e+06
5.49836e+06
4.32635e+06
3.31563e+06
2.49104e+06
1.85071e+06
1.34789e+06
1.002e+06
764439
609212
503761
436617
384447
337923
302185
4.58636e+06
3.9957e+06
3.08833e+06
2.38862e+06
1.80774e+06
1.35597e+06
1.02487e+06
802017
652527
554422
493514
445175
407833
378174
349934
325033
3.2402e+06
2.73398e+06
2.12744e+06
1.64926e+06
1.26342e+06
971597
762514
621780
537517
485641
455745
428392
407913
392616
385484
371864
359952
2.15022e+06
1.80735e+06
1.40537e+06
1.10606e+06
867876
692279
568959
486944
434311
411991
397770
387241
387908
385072
382969
388471
385058
380691
1.38048e+06
1.15673e+06
911556
728852
589573
487011
419961
376847
356202
340979
332779
338738
341158
349471
359465
362845
367282
372530
370053
880730
737793
587131
484984
406752
354343
319202
297349
288608
280963
279762
281397
289991
296242
307045
318145
326035
330785
337926
335657
608774
502479
402081
334239
288907
261634
245073
236148
228867
226407
226920
229818
233482
241506
246264
255131
261860
271367
275646
282379
279254
450944
364673
309443
269347
241404
217407
204671
200864
197009
195264
196368
198568
200602
206317
210523
214983
222364
231862
241844
246711
253311
252765
459665
375385
306784
260888
231670
218178
209455
204613
205742
208941
214991
217069
218922
222344
227532
229569
234962
248633
266774
279702
287837
296026
299471
3.10211e+07
2.98991e+07
2.47027e+07
2.88431e+07
2.3712e+07
1.71843e+07
2.78309e+07
2.27847e+07
1.64308e+07
1.1616e+07
2.69103e+07
2.20337e+07
1.57327e+07
1.10799e+07
7.51274e+06
2.59274e+07
2.14713e+07
1.52342e+07
1.04738e+07
7.05182e+06
4.66268e+06
2.47714e+07
2.09144e+07
1.49523e+07
1.02904e+07
6.74449e+06
4.40031e+06
2.83548e+06
2.32761e+07
2.01088e+07
1.46654e+07
1.02092e+07
6.68486e+06
4.17432e+06
2.6528e+06
1.71686e+06
2.13904e+07
1.8871e+07
1.40934e+07
9.96007e+06
6.62733e+06
4.17324e+06
2.55684e+06
1.60457e+06
1.02614e+06
1.92572e+07
1.72605e+07
1.31702e+07
9.55299e+06
6.53376e+06
4.20443e+06
2.56522e+06
1.55428e+06
967012
625195
1.6973e+07
1.53808e+07
1.19375e+07
8.86265e+06
6.24215e+06
4.09323e+06
2.57781e+06
1.57791e+06
953533
599641
413217
1.46337e+07
1.33373e+07
1.04789e+07
7.92842e+06
5.6595e+06
3.86278e+06
2.51227e+06
1.56345e+06
964665
609056
411628
312410
1.23411e+07
1.13195e+07
8.96165e+06
6.87262e+06
4.9925e+06
3.48727e+06
2.31614e+06
1.50308e+06
969305
633411
436245
327156
268653
1.0152e+07
9.25407e+06
7.33777e+06
5.67384e+06
4.18407e+06
2.96464e+06
2.04564e+06
1.38843e+06
937644
645418
470661
364768
297842
260829
8.12913e+06
7.29681e+06
5.77287e+06
4.47554e+06
3.33661e+06
2.40886e+06
1.69931e+06
1.20178e+06
858972
633314
489352
404172
343441
297556
264656
6.2703e+06
5.53513e+06
4.35018e+06
3.33043e+06
2.49968e+06
1.83656e+06
1.36186e+06
991220
754443
596594
499907
434075
380047
343369
307956
278378
4.65508e+06
3.97377e+06
3.09647e+06
2.39022e+06
1.80457e+06
1.3491e+06
1.01409e+06
790853
635340
539408
478673
434859
399931
378421
351087
331537
312976
3.24565e+06
2.7308e+06
2.12286e+06
1.64171e+06
1.25491e+06
961721
750410
607552
516515
465506
441461
414922
398842
385644
376577
372888
363446
355457
2.15402e+06
1.80801e+06
1.40779e+06
1.09735e+06
857310
673581
551530
469181
422274
395192
380159
373503
373704
374639
375683
376676
383134
381497
379115
1.37748e+06
1.15523e+06
907249
726597
580848
478867
410808
368535
342605
329579
321846
319811
329376
334851
344831
355558
359877
365094
370877
369366
900159
749564
589460
479553
399298
349866
314252
290848
277034
272380
270568
272554
276557
286540
296071
307842
316072
324522
330119
337569
335293
612660
498690
405122
338386
285862
254463
239253
228913
224482
220311
220373
222674
225625
231051
239263
244338
253481
260790
270806
275577
282041
278560
437166
359970
301412
263305
239893
219256
201381
194871
193629
192095
191871
193716
195510
199052
205203
209893
215174
223297
233620
242231
248089
253844
252912
469961
381579
312985
263040
231589
211946
206144
201126
199226
202710
206713
212481
213182
215171
218114
223159
228460
241914
258370
269737
283858
293771
302155
305551
3.17111e+07
3.06537e+07
2.52294e+07
2.96682e+07
2.42853e+07
1.75441e+07
2.87674e+07
2.34079e+07
1.68247e+07
1.17919e+07
2.801e+07
2.27393e+07
1.6154e+07
1.13299e+07
7.65736e+06
2.72303e+07
2.23139e+07
1.56981e+07
1.07321e+07
7.20106e+06
4.74892e+06
2.63228e+07
2.19635e+07
1.55245e+07
1.05195e+07
6.88917e+06
4.48721e+06
2.88953e+06
2.50819e+07
2.14228e+07
1.54236e+07
1.05886e+07
6.85462e+06
4.24888e+06
2.70381e+06
1.74715e+06
2.34297e+07
2.04755e+07
1.50974e+07
1.04975e+07
6.87341e+06
4.26867e+06
2.59199e+06
1.62967e+06
1.0398e+06
2.14752e+07
1.91235e+07
1.44274e+07
1.02999e+07
6.91345e+06
4.36598e+06
2.61843e+06
1.57067e+06
969596
628298
1.93009e+07
1.74433e+07
1.342e+07
9.82648e+06
6.79395e+06
4.35972e+06
2.682e+06
1.60626e+06
952813
591490
404698
1.70066e+07
1.55154e+07
1.21255e+07
9.07505e+06
6.37558e+06
4.25623e+06
2.69463e+06
1.62931e+06
974663
595021
393067
294064
1.46721e+07
1.34403e+07
1.06196e+07
8.08749e+06
5.80983e+06
3.99758e+06
2.58588e+06
1.61757e+06
1.00944e+06
625046
410456
297622
241873
1.2389e+07
1.14014e+07
9.0636e+06
6.99055e+06
5.10632e+06
3.55378e+06
2.38516e+06
1.55302e+06
995226
645169
442852
327320
260309
228336
1.02104e+07
9.31435e+06
7.40411e+06
5.74604e+06
4.25499e+06
3.02314e+06
2.09461e+06
1.40529e+06
945032
654647
467643
365860
299998
256673
228876
8.19931e+06
7.34688e+06
5.81315e+06
4.46519e+06
3.33485e+06
2.41296e+06
1.71666e+06
1.21414e+06
862618
636657
489164
403355
340274
301383
264220
240281
6.37711e+06
5.52019e+06
4.32802e+06
3.34455e+06
2.50711e+06
1.84012e+06
1.33557e+06
994693
748582
590418
491137
427131
377977
345406
311009
284431
261629
4.6731e+06
3.97615e+06
3.09958e+06
2.38926e+06
1.80149e+06
1.34257e+06
1.00434e+06
769490
627862
528433
467736
430676
397352
372811
352113
332834
318882
305082
3.24959e+06
2.73695e+06
2.12022e+06
1.6327e+06
1.2441e+06
950665
739126
594478
500289
452606
424265
400960
387624
377767
369656
368393
364090
357729
352848
2.14529e+06
1.81152e+06
1.40903e+06
1.09746e+06
842140
662890
541151
458484
408337
381458
361906
357421
357291
361364
365721
369238
372230
379268
379208
378480
1.38703e+06
1.14997e+06
900303
717613
575184
475372
406359
361146
332611
315902
310757
308843
314286
323091
330328
341407
352503
357690
363876
370206
369225
920734
760305
599603
476355
393046
342182
308208
285227
271218
261724
262221
263301
266278
273242
281833
293827
303038
313522
323872
330149
337421
334821
598865
489296
394611
330949
285434
252433
232681
223033
216904
216011
214384
216071
219553
223208
228927
237298
245222
252442
260462
269494
275660
281437
277447
430620
356548
300643
261818
236132
216333
202785
190430
187683
188261
188303
189110
190478
193852
197808
204509
210113
218209
225042
233962
243609
248968
254049
252969
484719
384710
316688
266906
231742
209357
198264
197404
195060
195696
200298
203904
206667
208925
210273
213282
221844
232192
250337
263603
275348
289555
299208
307990
310971
3.22936e+07
3.12905e+07
2.56694e+07
3.03661e+07
2.47619e+07
1.78417e+07
2.9559e+07
2.39254e+07
1.71475e+07
1.19741e+07
2.89424e+07
2.33253e+07
1.64977e+07
1.14277e+07
7.76822e+06
2.83438e+07
2.30119e+07
1.60722e+07
1.09363e+07
7.31803e+06
4.81111e+06
2.76672e+07
2.28361e+07
1.59812e+07
1.07423e+07
6.99909e+06
4.55351e+06
2.92879e+06
2.66882e+07
2.25401e+07
1.60392e+07
1.07862e+07
6.97457e+06
4.30154e+06
2.7442e+06
1.76627e+06
2.52748e+07
2.18624e+07
1.59256e+07
1.09103e+07
7.04619e+06
4.32815e+06
2.61836e+06
1.64388e+06
1.05083e+06
2.35463e+07
2.07959e+07
1.55111e+07
1.09035e+07
7.19326e+06
4.47015e+06
2.64678e+06
1.57727e+06
970495
631712
2.15311e+07
1.93641e+07
1.47548e+07
1.0652e+07
7.23239e+06
4.5522e+06
2.74561e+06
1.62057e+06
943728
584663
401261
1.93361e+07
1.7621e+07
1.36758e+07
1.0115e+07
6.99016e+06
4.56757e+06
2.82315e+06
1.68435e+06
976907
579076
378188
281283
1.70299e+07
1.56501e+07
1.23229e+07
9.30383e+06
6.59104e+06
4.44264e+06
2.80245e+06
1.70017e+06
1.02566e+06
614081
389012
274736
220957
1.46967e+07
1.3536e+07
1.07577e+07
8.25775e+06
5.97523e+06
4.10153e+06
2.69014e+06
1.68869e+06
1.0369e+06
641993
418809
295876
229372
199040
1.24377e+07
1.14661e+07
9.15922e+06
7.10706e+06
5.2266e+06
3.6564e+06
2.4693e+06
1.59736e+06
1.02814e+06
660915
444073
329339
260668
217113
201356
1.02692e+07
9.37832e+06
7.46245e+06
5.8139e+06
4.28132e+06
3.08514e+06
2.12096e+06
1.43835e+06
969243
660126
471434
366553
298102
257851
227270
209262
8.34044e+06
7.33758e+06
5.85377e+06
4.49539e+06
3.36319e+06
2.43618e+06
1.73666e+06
1.21511e+06
866001
642046
490799
399856
339245
303931
268810
242970
223118
6.40921e+06
5.52927e+06
4.34186e+06
3.35509e+06
2.51422e+06
1.84265e+06
1.33385e+06
984410
746792
581705
482215
425269
376756
341282
314134
288405
267825
249689
4.64841e+06
3.98423e+06
3.09773e+06
2.38147e+06
1.79427e+06
1.33479e+06
995358
757377
602326
511997
455356
418364
388217
371309
348123
334432
322934
310092
300108
3.2282e+06
2.74325e+06
2.12346e+06
1.63033e+06
1.2339e+06
939877
727920
581162
487192
434327
405998
388079
379438
370147
362774
358868
359952
357935
353975
351606
2.14574e+06
1.79582e+06
1.39878e+06
1.09316e+06
841107
661886
533569
450173
399227
364613
350801
340529
345553
346155
356408
359611
364636
369087
376728
378130
378603
1.40037e+06
1.16843e+06
904457
712227
564715
468384
399993
353886
324586
307148
297694
297868
298621
308335
318079
327309
336878
350273
356465
367115
370145
369360
931064
764981
595091
476783
393662
336098
300472
279195
264916
256019
251706
254930
258451
262961
270719
279762
292045
301940
313259
323905
330416
337085
334037
583324
477865
389878
324903
281258
251024
228742
216947
211279
208345
209963
210070
212920
217121
221106
227060
235762
244224
252126
260218
269562
275487
280387
276357
426460
352376
298212
259341
230996
213265
200797
189570
182908
182478
184350
185481
186902
188686
192466
196990
204622
211324
220031
226628
235351
244421
249607
251663
252892
493302
390017
318154
269068
233783
207798
193754
189008
190360
190610
192719
197068
199790
201986
203485
204993
211749
224283
239652
256290
268911
280576
294751
302552
313598
315566
3.27832e+07