/*--------------------------------*- C++ -*----------------------------------*\
| =========                 |                                                 |
| \\      /  F ield         | OpenFOAM: The Open Source CFD Toolbox           |
|  \\    /   O peration     | Version:  v2012                                 |
|   \\  /    A nd           | Website:  www.openfoam.com                      |
|    \\/     M anipulation  |                                                 |
\*---------------------------------------------------------------------------*/
FoamFile
{
    version     2.0;
    format      ascii;
    class       volScalarField;
    location    "15001";
    object      Rew;
}
// * * * * * * * * * * * * * * * * * * * * * * * * * * * * * * * * * * * * * //

dimensions      [0 0 0 0 0 0 0];


internalField   nonuniform List<scalar> 
294912
(
33514.8
102173
60718.6
80694.2
94966.4
108534
112098
89360.4
88499.9
106884
69223.3
99311.8
82339.9
114775
113775
81138.4
108502
104698
108890
129224
53095.1
73849.9
48098.4
100160
83753.6
42719.4
114205
115492
81762.1
71347.8
121649
117535
118471
128208
143828
43468.3
59636.2
29973.1
74023.3
50850.7
14234.9
94589.8
82528.7
43312.1
32544.7
111258
112751
83136.7
70998.8
63203.2
132368
125671
126168
132982
140256
152542
47970.2
54013.5
23022.4
64094.5
38080.1
11309.6
67189.9
48830.1
19401.1
9587.96
89066.1
78342.5
42610.9
32450.8
22698.9
109626
109935
81190.8
71505.5
62090.4
58903.7
142826
134016
130436
137491
142765
148554
159887
65164.8
59028.8
26235.7
64893
38272.1
18476.8
56700.4
38149.9
23348.8
10075.2
61333.3
44156
16705
13831.5
5647.87
85330
74568
40043.6
31875
22424.8
15228.1
108783
107052
79192.3
69584.9
61559.7
57185.6
55710.2
153390
141980
135050
138886
144420
149611
156088
162210
93254.1
73056.7
43804.6
72621.9
44664.9
28203
61449.3
42611.8
34087
17134.1
48725.2
29928.6
20384.5
19324
10002.3
57488.8
41240.6
11955.1
10522
9850.1
5129.13
82009
71793.5
38043.4
30194.8
21782.6
14839.1
10946.8
107953
105200
77202.7
67794.5
60292.5
56744.7
54256
53864.5
157513
148547
138421
140608
146330
149902
155838
158149
163751
137127
95498.5
76968.9
79736
58295.2
45214.9
81389.4
50142.1
46361.4
23670.3
48198.5
30177.7
31972.6
29445.3
14707.1
44381.1
26335.3
11635.9
14524.2
16621.7
9566.4
54403.9
39096.8
10345
7044.31
6275.85
8427.37
4859.73
78883.8
69289.6
36724.1
29096.3
20593.1
14270.3
10723.8
10878.7
110241
103025
75932.1
66013.7
58175.8
55594.4
54318.1
52830
49698.9
153210
154666
142746
141142
144821
150564
153597
156413
160616
165580
198401
131018
127333
80846.5
83278.1
73657.8
102487
55058.8
64132.6
35922
63130.9
37395.4
43179.3
39629.4
21319.3
41727.7
21398.6
20272.8
23849.6
24387.1
13698.6
41408
24931.8
9157.03
7985.73
11388.6
14370.9
8939.56
51767.6
37249.6
9502.59
6086.9
3322.03
5414.02
7450.14
4560.33
76424.8
66667.1
35507.5
27965.1
19874
13542.7
10133.2
10685.6
8952.54
117171
100923
74419.2
64667.2
56979.8
53880.5
52654.9
52307.5
47651.7
47258.3
152564
153186
146489
143760
144621
147847
151632
154570
157203
162084
167428
276881
183926
190145
77265.1
126488
116303
117977
55235.6
91556.1
62590.2
81847.9
46076.4
54632.4
54257.6
36257.1
51464.3
18059.9
28720.9
30689.5
34302.2
18930.8
39454.3
20145.8
15580.6
14590.2
16666.2
20451.3
12367
38647.5
23762
8848.42
6930.48
7651.64
9481.23
12627.8
8139.32
49695.4
35564.6
8830.74
5548.49
2551.65
3797.62
4883.09
6500.02
5020.89
76184.2
64069.1
34424.1
26970.5
19267.7
13024
9456.65
9901.92
7938.94
8493.91
124013
101976
73074.2
63751.5
55795.3
52737.9
51152.4
50424.1
47256.4
44727.9
47407.8
159034
149369
145380
143841
144243
146403
149349
151944
155056
158641
163527
170218
365094
255919
259405
71008.5
186685
165788
129174
56698.2
132769
95236.8
96769.5
54014.3
67443.9
80128
52932
62802.9
12912.4
39861.3
37377.9
49695.6
28981.2
49466.4
17588.6
19409.3
17065.6
22904.5
27858.1
16789.2
37820
19916.7
15449.9
12698.2
9958.76
12826.8
17341.6
11178.4
36310.3
22582.5
8560.26
6606.59
7416.44
7228.21
8230.44
11061.7
7160.7
46190.3
34396.1
8376.33
5016.67
2005.64
3458.23
3940.4
3413.79
6394.44
5073.95
80546.9
60890.5
33028.6
26212.3
18554.4
12723.8
9244.05
9286.64
6842.81
6760.06
9344.04
127985
106139
73264.9
62229.5
54450.6
51519.8
50050.5
49219.6
45792.8
44499.8
45494.3
47035.7
165982
152273
141906
143186
142487
144664
146788
148982
151955
156700
161100
165570
173869
452990
344567
328002
71758.4
258041
214510
141941
66656.9
181313
130241
107471
64375.8
86918.6
112617
73292.9
68392.8
10333.2
54135.5
50214
68086.2
44369.7
60757.3
16786.9
27770.6
18860.8
32586.5
39655.2
25786.1
50154.6
20145.4
19011
12732.1
12399.3
16208.9
23118.5
15286.6
35387.8
21039.2
15924.7
12646.2
9373.18
8521.53
10032.8
14698.2
10323.4
34523.9
21129.5
8113.94
5913.3
7207.08
7339.69
6904.73
6926.04
9055.19
7704.79
43918.1
32571
8402.67
4641.24
1447.9
3065.74
3790.39
3155.64
3233.5
6529.15
5175.72
85211.3
60052.7
31831.5
25036.5
17961.5
12424.1
9190.49
9121.03
6615.78
6007.3
7776.98
9891.47
129438
107295
75887.7
61415.7
53165.1
50124.4
48919.7
48135.8
45503.1
43400.8
45152.2
44972.5
47596.3
174026
156104
140798
139662
140784
141416
143986
145683
148458
152733
157971
163031
168941
176951
535216
441213
397105
90080.5
332413
259515
166130
80615.6
230000
164703
118614
82717.9
107634
147825
96914.5
69466.9
22893.7
77186.8
66118.6
89180.4
63296.5
65651.6
31821.9
40247.5
30556.4
40812.1
56056.3
36915
63511.5
20537
27130.2
11953.9
19433.3
21349.6
32518.2
23104.1
49968.8
20530.1
19499.6
13579.1
10883.5
9327.99
11978.7
19388.5
14119.1
32761.8
23272.6
15311.9
11796.6
9674.16
8659.33
7515.72
7666.7
12487.6
10476.7
32340
20460.2
7117.61
5075.49
6687.05
7023.94
7085.22
6158.68
3645.78
9356.72
7558.04
46982.3
29449.2
8181.16
4385.74
865.084
2667.34
3404.35
3191.28
3292.48
3813.04
5965.06
5479.95
86679.8
61573.6
31621
24263.9
17469.4
12013
9085.74
8949.73
6890.76
6066.62
7032.71
7776.84
11416.4
128130
106421
77617.7
61965.7
51794.1
48806.1
47761.8
46968.4
44383.5
43247.7
44316.5
44838.6
46083.1
49190
180841
159361
142364
136235
136207
138189
139726
142093
143455
147963
153742
160076
166264
173013
180696
607219
541462
474438
123212
404489
308052
202360
90107.2
274766
204098
142404
105211
121861
179530
119882
71154.1
43668
104588
76637.8
111234
86169.8
66636.1
56946.3
61581.3
47925.2
47594.7
75203.2
48709.1
70996.3
37209.5
43042.9
24648.5
24840
29185.5
44431.3
30864.8
65445.6
20137.1
26498
13454
17884
11863.2
15986
26974.2
21172.1
46674.3
19960.3
18195.9
15089.5
11766.1
9236.24
8038.48
9071.97
16373.8
14448.2
31111.9
23539.5
14997.2
10346.4
9379.61
8689.84
7716.36
6067.71
4683.89
11640.4
11235.5
32127.9
19553.7
6299.53
4571.58
6108.5
6589.66
6768.24
6284.93
3339.54
4490.76
8884.87
7647.3
50182.3
29307.2
6686.7
4215.92
463.325
2315.69
3038.67
3003.9
3573.58
3912.68
2723.99
5870.54
5929.13
84337
60820.2
34508.9
24015.5
17047.9
11883.2
9054.94
8707.87
6949.86
6284.96
7092.12
7057.34
8874.55
13972.8
126677
104140
76786.4
63907.1
52733.3
47570.6
46805
45687.5
43707.5
42207.9
43470.7
43511.2
45340.9
47387.5
51884.8
192512
163636
144203
136119
132495
132758
134915
136938
140229
143205
148576
155361
163364
170165
176098
185237
667127
634348
570916
165059
476289
369862
250100
88223.7
316120
257023
185019
123541
125717
208278
151544
87680.5
61882.3
125882
79534
129676
120127
69283.7
83293
82641.1
60539.8
53400.2
95641.1
62166.2
75397.6
67664
68158.6
41122.6
27322.4
38966.4
55418.1
39550.8
76132.8
33574.7
42577.2
27111.2
24735.6
16180.5
21219.8
34772.8
27010.7
64132.8
19584.7
26289.3
15967.1
18584.4
12394.5
10684
11721.5
22826.1
20128.5
42283.3
19777.7
16972.3
14613.3
12177.4
9903.81
8303.48
6937.44
6202.23
14754.5
15564
30913.4
24353
14126.6
9152.82
8725.75
8231.71
7695.33
6329.1
3486.97
3028.15
11669.1
9959.13
33761.4
18240
5833.11
4533.79
5737.87
6136.41
6412.24
6014.59
3565.6
4354.67
4419.84
8291.47
7679.96
50274.8
29838.9
9173.18
4246.12
847.949
2141.32
2695.66
2926.96
3287.75
4117.69
3194.34
2494.28
5826.17
7133.7
81302.7
57821.5
34593.3
25510.8
17505.4
11990.4
9068.01
8564.33
7031.06
6378.9
7330.66
7258.13
8249.52
11021.1
17597.6
122704
100677
75094.7
62559
53940.9
48598.6
46233.8
44668.6
42820.4
42099.3
42373.5
43104.9
44021.7
46481.7
49810.3
54567.4
203941
167986
145060
135939
132477
129187
129316
131037
134238
139239
143191
150322
158397
166975
173024
176777
184010
725561
704287
692428
204575
556003
451360
308129
71828.9
362499
326334
249338
132650
116584
243305
191586
126010
71173.4
137585
75234.8
146199
158970
81848.2
99803
94763.2
67557.7
54796.3
116228
77578.6
83534.1
102211
91541.2
49006.9
31146.6
47878.2
64909
49802
85269.7
61601.4
67453.5
46160.2
28842.6
22041.7
25128.4
42275.9
32965.2
78267.8
32142.1
43403.5
27707.1
25110.7
18764.9
13724.1
14152.3
28691.8
24770.6
58684.7
20433
25656.6
18083.2
19874.8
13133.3
11497.1
9273.76
7779.19
19865
17612.8
40345.3
21851.9
16114.6
13431.7
11653
10007.2
8659.76
7322.38
5244.23
2965.77
15341.3
12570.1
31669.1
26055.7
13506.3
8484.17
8000.73
7566.65
7241.23
6270.9
3832.5
2689.94
3355.29
9822.84
10206.1
34909.8
17921
5854.38
4721.87
5574.14
5840.13
5981.95
5592.01
3706.77
4755.1
4326.99
2951.41
8315.66
7988.12
47333.8
28418.1
11102.7
5652.29
2211.36
2322.76
2581.49
2885.13
3166.66
3879.36
3286.6
3164.79
2237.8
6086.39
9586.7
74259.5
53652.7
33110.6
24861.7
18033.4
12852.2
9389.33
8778.7
7226.21
6541.85
7402.27
7560.56
8501.94
10429.8
14279.1
21497.4
105755
93841.2
72081.3
60749.9
52573.2
48217.5
47022.5
44482.5
43116.9
41648.4
42269
42181.2
43374.9
45158.9
48744.9
52430.8
55722.1
216962
176840
147238
135209
130023
128187
126450
125660
127662
132420
138474
144431
154677
161269
169686
173540
174950
177672
786941
758772
827078
223224
652604
545689
361534
51680.2
423277
403568
327804
134288
93977.7
292581
242542
189249
70421.9
139747
66218
172569
203091
109955
102149
94872.4
71194.5
56496.4
141809
98766.4
102345
129507
104252
48640
34695.6
56792.6
71984.5
62386
99700.6
95376.7
90612.5
58051.9
35046.1
24988.1
27455.3
49082.2
39651.2
93801.3
57381.9
66892.4
44727.8
29590.9
27576.6
14878.7
16438
33433.9
28798.4
76275.3
34133.3
44598
30227.5
26898.7
18575.3
15999.5
11101.2
9091.95
23894.1
20496.6
53151.3
25781.5
24873.2
18436.4
20704
14298.5
12140
9865.94
7050.83
3400.99
17220
16641.1
39818.8
26532.7
15903
12972.2
10638
9744.81
8670.89
7500.84
5597.4
1687.13
3842.73
11912.5
13481.7
34341.9
27719.5
14063.5
8112.05
7659.8
6930.85
6755.63
5897.96
3609.82
3370.69
2738.46
2877.22
9661.9
10165.2
33476
17736.7
6533.15
5147.62
5537.45
5721.26
5681.18
4977.61
4342.51
4334.2
4602.11
2961.78
2955.5
8280.02
8842.82
41525
25826.4
11326.1
6249.13
3225.98
2723.35
2823.85
2995.45
3237.35
3613.85
3165.33
3269.38
3082.67
2660.68
7279.75
13302.1
66150.7
47768.7
30505.1
23321.1
16931.7
12887.8
9577.69
9291.9
7585.76
6773
7539.04
7611
8784.53
10691.4
13790.4
17956.4
24050.9
85382.8
79076.3
65678.2
57343.3
50564.3
46491.6
45598.4
44527.8
43565.3
42195
41817.9
42274.5
42805.4
44538.3
47415.7
51213.4
53682.4
54630.8
233428
190811
154020
135574
128286
124721
124746
123180
123533
126152
130732
139101
147016
157063
164232
171659
171764
170315
170113
849527
806904
957122
216907
764782
635888
390018
71240.6
498429
471990
395750
141663
64355
353754
294117
268941
70308.8
141115
64614.4
208801
239030
159060
91545.7
82447
83277.1
60445.3
169506
122021
134834
149257
108860
46665.1
42911.3
66185.8
82455.4
78293.7
129450
125271
105442
69452.8
45861.8
30941
34761.8
54710
47025.2
116942
88700.3
87577.5
53200.6
38481.4
37040.4
15278.5
19636.9
36993.7
32575.9
98177.1
59368.7
69304.9
47685.2
28154.5
25808.4
20194.5
12128.6
10712.1
26434.6
22356.9
72879.2
40673.6
44795.6
32489
29762.9
20401.7
15084.7
12246.9
8657.06
4863.78
18681.3
19946.1
51674.5
36016.2
24765.4
18740.1
20942.3
14829.3
13200
10281.5
7448.15
3613.1
5640.56
15901.3
16805.7
40463.5
35724.4
18760.3
13425
9984.39
9256.89
8660.14
7579.88
5731.55
1655.21
3317.18
4506.02
11322.3
12895.7
36538.5
25911.2
15161.2
8414.25
7647.64
6749.63
6252.56
5615.62
3157.71
3652.05
3013.51
1839.54
2066.59
9414.06
10526.5
28246.2
16917.6
6956.85
5712.09
5585.31
5615.46
5569.17
4316.28
4753.84
3763.19
4704.77
3121.62
2934.51
2506.8
8368.82
10909.3
38169
22239.1
10762.3
6661.64
3869.2
2917.94
3384.56
3297.01
3419.46
3477.62
3154.64
3164.14
3173.5
3486.74
4858.77
10135.2
17021.7
50598.1
37155.7
25067.3
20882.4
15748.9
11988.5
8734.79
9099.88
7446.16
6855.15
7578.54
7674.76
8764.85
10912.7
14164.7
17535.6
20372.9
23828.6
72493.9
64565.8
55236.9
52679.5
46230.9
44064.7
43295.2
42608.4
42149.9
42212.6
42175.9
42529.8
42557.3
43998.8
46810.8
49842.1
52372.6
52808.7
52180.6
248611
202480
164538
139761
127380
122300
120883
121730
121223
122593
125969
132967
140202
149223
158578
167896
169893
167291
164937
164063
908148
854157
1.07466e+06
194724
871940
716983
397155
127232
578354
528268
436019
178401
48598.8
416367
338866
329701
106380
159164
81403.7
249510
269162
220695
73122.1
70271.3
117904
75024.7
193496
145277
186108
158714
110125
53906.6
66885.5
90338.9
96270.9
95573.8
180011
144800
118044
91526.9
59834.1
51096.2
49211.5
65005.8
56352.7
159221
116764
97042.6
62877.5
61061.4
49640.9
22071.3
28349.4
40579.4
36378.9
129925
90151.3
91199.1
54110.5
29979.8
37539
29570.4
15413.4
13648.4
27966.3
24468.8
99261
64260.1
70599.6
52136.9
32977.8
25081.1
16167.5
14958.5
10369.7
7431.47
19040.2
21023.3
71801
51121.5
44658.3
33547.6
31200.5
22190.7
16144.3
11417.1
9211.87
5601.21
6044.94
18501.8
18114.5
54560.2
46418.6
28269.5
18595.8
19826.8
14972.8
13416.9
10953.2
8018.58
3569.22
6285.68
5770.44
14120.5
14997
40665.9
44579.8
21728.1
13747.8
9911.79
9011.85
8636.48
7557.37
5627.25
2928.19
3935.44
3883.13
2881.33
10506
12681.2
33861.5
23752.7
15870.8
9200.8
7846.87
6744.17
5993.4
5155.08
2900.17
3737.41
3105.99
2163.08
1086.53
2086.85
9516.25
11563.3
26185.3
14957.7
6795.88
5658.98
5480.08
5412.16
5396.8
3880.16
4697.8
3724.91
4467.51
3033.24
3081.48
2548.52
2417.92
9249.41
14119.7
32520.2
17915.5
10733
6631.59
4598.83
3438.78
3629.82
3768.07
3320.38
3480.91
3174.17
3098.37
3065.25
3522.31
5420.89
8633.94
13499.6
18823.3
34946.6
29262.8
17760.2
15439.7
13025.7
11429.9
7947.02
8263.48
6797.43
6638.29
7424.2
7610.97
8686.88
10890.5
14180.8
17914.1
19978.9
20052.2
21038.7
65868.1
56686.4
44650.7
45037.8
41877.9
40423.4
40457.7
40387.2
39819.6
40337.3
40831
42675.2
43203.6
43876.6
46269.8
49443.7
51001.1
51478.2
49812.6
48640.6
262145
206888
168670
144932
128721
120751
118128
117705
119144
119518
122190
127521
135821
142522
152191
162788
168847
166084
161722
158241
157307
961255
901209
1.1837e+06
178865
982994
793497
401269
188523
655807
583421
457763
248122
65472.7
475607
407867
364776
189739
200258
105932
290956
307223
254359
97085.4
92855.1
170666
95698.7
216769
173757
227698
174015
115689
78954.9
107546
113408
110930
111480
245656
152072
137449
123137
70840.1
80116.1
65521.7
74346.4
65752.5
228508
121688
100722
88917
92887
63807.7
29814.5
42116.2
47637.7
41300.6
185751
111448
100948
51379.9
46768.4
56652.4
44020.5
18572.1
21265.4
29851.4
26767.3
136601
91840.6
95098
61732.8
31852.4
28570.6
24135.4
24366.8
12976.8
11526.1
19753.4
21308.4
95995
70116.9
69059.8
52880.7
37344
27696
14080.9
11165.7
12282.8
8643.33
6519.75
18841.8
17242.8
71242.3
62188
43132.9
31989.7
31282.1
23042.8
17413.5
11526.2
8256
5238.37
7514.8
5257.86
16151.8
15345.6
56912.7
55016.9
30575.1
19720.6
18295.7
14786.6
13509
11415.4
8712.11
3632.83
6112.43
6014.09
2520.9
13235.9
14276.1
41380.7
53006.6
25778.3
14723.8
10539.2
9047.67
8622.4
7617.06
5502.07
4096.64
4738.96
4032.17
1767.26
2995.5
10518
12854
29961.2
18313.1
14987.2
10200.4
8239.14
6884.9
5865.38
4477.55
3493.3
3509.42
3199.75
1992.98
1040.59
983.493
2128.8
10002.4
13723.5
24652.5
10403
7472.8
4850.99
5140.3
5190.69
4612.93
3910.87
4523.5
3850.65
3907.5
2958.5
3072.57
2596.33
2549.13
4453.28
11568.3
16969.3
16947.1
15102.5
3537.88
2707.82
3944.1
3896.17
4295.73
3281.67
2919.68
3630.04
3169.55
3147.61
3020.25
3398.58
5388.94
9019.77
12474.6
15222.7
17745.6
34412.9
28174.8
13059.6
13131.8
10683.6
7106.33
6937.28
7670.98
6168.37
6394.05
6965.26
7220.05
8420.29
10494.7
14023
17831.5
20366.3
19661.6
17140.6
17185.5
63979.5
54960.1
41026.6
37312.4
36481.4
37510
37054.6
37639
37617.1
38375.9
38856.3
40259.4
42269.9
44515.8
46165.8
48612.7
50598.3
50721.4
48385.1
46784.7
46239
271428
209724
169149
144949
129885
119667
116082
114254
114362
116680
118862
123491
130573
138723
145855
156506
164339
162844
160519
155532
152611
151307
1.01334e+06
946141
1.29067e+06
169375
1.08518e+06
874338
418836
245942
732983
644350
489695
327141
90849.5
534051
510022
390335
289772
253091
123354
334730
358892
264829
171916
150770
225656
112411
243325
209101
238942
218314
133569
115392
155124
127373
130218
131792
285473
176250
171484
155514
81619.7
110633
80781.1
82873.2
76541.9
303084
115229
109259
134882
121027
74851.6
44396.4
56345.6
51239.1
46573.2
266922
110639
95880.5
57856.5
79914.5
81270.8
50471.5
20596.5
32616.7
33420.3
29928.6
202161
105925
109440
58778
26834.1
37865.4
43453.8
32294.1
12336.6
16811.3
21455.7
21538.6
132837
91037.6
95198
66721.8
39724.7
26495.8
12529.3
18989.4
18028.9
10843.6
8104.03
19109.2
17030.5
92218.8
77236
65549.4
49816.9
39363.6
29861.4
15507.7
9210.69
8979.02
9031.02
9022.17
5483.52
15809.7
14401.8
70081.2
74054.8
42247.1
29438.8
30172.6
22669
17581
12559.3
8105.58
3680.14
6670.08
5648.72
3103.52
14601.3
14838
62093.1
69484.8
33999.7
21745.9
17542.6
14575
13309
11180
9308.7
3964.85
6214.96
5767.98
3372.66
2886.74
12748.9
14085.6
42780.4
48772.9
27001.5
17453.3
11934.6
9476.67
8682.39
7775.6
5478.96
5006.18
4957.65
3904.39
618.093
1859.32
3064.31
10820.2
13780.3
25479.2
10908.1
12715.3
9114.51
8483.29
6935.85
5782.43
4174.55
4231.7
3753.22
3326.27
1679.44
1131.37
783.979
1395.38
3352.09
11579.2
16563.6
15055.2
5142.71
10660.1
7555.2
6165.2
4407.1
4306.67
4428.99
3771.87
4077.57
3362.44
2902.2
3033.41
2625.6
2528.45
4648.3
8190.41
14091.7
17669.8
26756.9
24611.5
11352.7
6601.55
3187.51
2101.97
4099.34
2754.06
3197.13
3748.64
3250.72
3214.97
3091.72
3296.11
5206.93
8947.58
12780.5
14317.2
14167.8
14660
47243.2
36977.3
18243.9
10138.3
9517.3
6168.24
5141.83
6421.37
6139.12
6164.26
6449.81
6703.43
7796.3
10075.5
13473.1
17602.5
20261.9
20053.5
16732.8
13277.9
13722.4
66294.9
55928.9
41997.8
35290.5
31523.2
33642.2
34727.1
34555.2
35074.9
35891
36680.5
37912.3
39591.5
42612.7
46241.2
48533.6
49741.3
49744.9
47876.8
45268.8
43728.1
43791.7
278330
213359
169411
143850
128020
117284
113240
111742
111336
111990
115990
119839
126336
133325
142800
150954
158208
157875
154468
153888
150081
146575
145111
1.06681e+06
988802
1.4038e+06
165714
1.18311e+06
953541
447035
294827
806935
711320
536220
398781
114711
597077
579900
429950
390057
301611
132421
408851
400158
277419
263868
220702
272354
122250
287863
244142
232833
287909
165702
155738
199164
136335
158672
153504
300396
233124
219098
183028
101329
139600
92982
95250.7
89887.8
352478
124377
142754
186728
140436
82257.3
66861.3
69666.2
54829.1
52567.2
346654
107127
81818.9
97188.9
122239
106536
48282.2
32948.8
42684.2
34982.7
33267.9
289324
113923
112217
46598.6
43847.8
64424
58942.7
32450.3
11003.7
22429.5
23516.2
22771.6
197836
99428.5
115280
73328.4
29647.7
18326.6
29743.6
29817.6
21245.8
8961.44
11621.2
20005.7
17765.8
130038
89958.2
91277.5
68936.1
44954.8
30049.2
5874.17
10761
14249.8
13122.2
10406.7
7018.95
14967.3
13784.9
93767
86921
61963.7
45199
40244.1
29821.3
17354.3
8867.03
6660.34
5917.56
8268.38
5516.21
4093.13
14011.4
13278.6
76087.6
90238.1
45815.9
28809.7
28497.7
21226.1
16937.8
12894.7
8301.82
2914.12
5530.84
4758.44
4711.19
4832.28
13602.7
14732.1
72140.8
74909.1
39129.4
26030.6
17984.5
14425.1
12857.5
10750
8790.82
4672.63
6411.98
5892.9
2596.11
3369.15
2814.99
12868.3
14035.6
39189.9
40099
25681.4
17124.7
12960.3
10049.4
9051.43
7654.62
5654.59
5804.69
5645.74
3959.99
1032.99
687.208
2247.22
3493.07
11798.5
15564.3
14726.5
6114.35
17847.6
9477.56
7019.57
6509.88
5226.52
4839.86
4278.81
4250.85
3300.88
1342.17
1136.54
837.516
988.645
3117.23
6429.59
14139.2
18540.4
18552.4
19694.5
8718.32
8027.97
6035.2
5721.16
5118.18
4867.1
3433.44
4310.96
2941.79
2767.65
2920.13
2646.97
2602.01
4677.81
8419.67
11439.2
14775.5
15996
43573
32542
13709.6
9313.45
7839.83
6284.28
2579.41
2613.4
4367.93
3474.94
3334.26
3380.79
3186.09
3341.75
5043.66
8779.97
12687.5
14572.8
13112.2
11253.8
11345.7
55881.2
37474.8
22395.9
13576.1
6111.02
5365.87
4990.82
5424.98
5633.32
6122.81
6012.93
6247.84
7213.93
9292.13
12870.1
16890.6
19984.1
19962.7
17124.2
12807.5
9908.44
11140.6
67636.3
55808.7
40779.6
34337.2
29678.4
29756
31820
32469.3
32449.3
33402.6
34732.9
35650.2
37384.9
39807.1
43766.2
47738.9
49683.6
49017.1
47667.1
44774.5
42220.7
41815.4
42470.1
286328
216750
171546
142861
125738
115218
109145
107698
108289
108696
111074
116570
122409
129094
137676
148540
153521
152963
147897
148456
148314
144698
140825
138969
1.12108e+06
1.03052e+06
1.4985e+06
168005
1.27418e+06
1.02453e+06
478851
332935
885235
785958
592185
456161
136753
661082
644808
482242
480926
342638
137378
481745
443047
301971
356869
287814
307109
127251
335624
278062
227492
369828
205121
194224
234945
142737
191652
176637
310391
317007
270807
206009
125388
166313
105560
113512
103854
388583
167510
203313
233227
155775
88074.6
89503
80479.1
63684.2
59689.6
411799
103733
84907.2
156583
157505
125944
46531.3
51569.9
47639.5
37607.3
37157.1
373279
129558
101916
51230.9
88140.1
93300.2
65536.9
30789.5
20554.5
27963.8
23987.5
23670.3
289430
117435
131253
67516.1
13325.7
39500.5
48105.9
35241.3
18130.8
7427.4
16493.6
20756.2
17900.1
196964
93157.7
117371
85386.8
42821.8
14759.1
15404.5
21305.2
18289.5
12662.6
8456.56
9540.36
15201.4
12284.2
129658
90913
84884
68703.7
48895.8
34038.4
9413.59
3998.15
8614.18
10409.2
11142.4
4899.63
4740.99
13352.1
11189.1
95322.6
100626
61316.9
41176.4
39054.3
28505.1
18293.8
9881.9
5703.88
3397.05
5811.41
4631.39
5864.14
6261.31
11690.6
12500.1
97483.3
105756
56095.9
31583.6
27509
19447.8
15361.4
12253.2
8393.03
2767.64
5168.17
3821.7
3506.35
4133.83
4028.25
13651.7
14238.2
72109.5
75669.9
40943.8
27631.1
18551.6
14432.5
12308.8
10332.6
7788.49
6515.55
6869.43
6273.7
2694.94
2476.04
3838.31
2837.7
13129.3
14367.3
30151.4
31277.8
26138.6
13284.5
12220.3
10530.6
9209.7
7288.95
6961.36
6471.47
6193.83
4126.08
1634.1
884.801
1009.7
2943.56
5124.33
13692
17516.9
954.42
16351.7
24816.9
16347.8
11012.7
8601.78
5569.4
5289.93
4930.84
4559.45
3146.55
1273.6
977.306
826.01
1121.85
2962.46
6464.81
10196.7
16141
18382.2
39609.1
36247.9
18041.5
15075.9
11148.1
5855.82
4231.54
3250.27
3394.8
4028.01
2576.8
2743.19
2773.43
2630.04
2671.74
4750.4
8542.43
11667.2
12173.6
13277.9
13313.1
68410.4
46462.7
23676.4
9421.73
5916.7
7415.09
4940.37
3390.93
3126.24
3642.22
3297.27
3493.08
3352.05
3422.7
4913.56
8455.18
12377.1
14426.7
13319.4
9779.74
8434.86
8910.02
54418.9
29604.8
18712.4
13376
8152.6
3535.08
5422.55
4388.57
5223.92
5738.98
5810.47
5930.96
6733.29
8621.74
11949.7
16180.6
19377
19694.4
17115.2
13158.3
9359.34
7468.09
9332.28
66262.3
53344.2
38768.6
32419.1
27816.7
27180.7
28600.4
30264
30513.3
30951.4
32254.3
33725
35254.5
37437.3
40792.5
45128.6
48135.8
49272.6
47212.4
44298.7
41749.7
40243.6
40359.2
41205.4
297907
219889
173545
143557
123630
113016
106641
103375
103705
105465
106931
111276
117798
125293
133799
143773
151166
150298
143739
142593
142515
143116
139303
135071
133007
1.16956e+06
1.0718e+06
1.57734e+06
174688
1.36486e+06
1.07491e+06
510529
361782
955613
861173
649999
498066
158479
722380
703164
542445
557069
371555
141971
551513
487699
338640
441377
345538
332686
130850
385414
314249
226779
452353
243868
222865
263396
148060
226143
202914
316141
413209
318914
222106
144835
190049
117503
136942
120571
422394
244031
274935
271589
166536
88910.1
115315
83023.1
75889.6
69018
479220
110240
132523
219066
185061
130850
45659.2
69038.4
51626.2
42561.5
41702.5
459408
138151
69177.1
97886.3
137286
120557
66514.2
29449.1
27512.2
32816.1
25434.6
25046.3
382308
148636
137211
37636.5
50041
71370.7
61427.8
38081
16160.1
10571.3
20816.4
19745
17442.5
293341
112492
143195
89939.9
24957.4
20057.6
34024.9
28645
18982.8
10938.3
9031.04
11931.2
14513.9
12995.8
182960
90595.9
113781
91848.1
56157.6
24943.3
6986.6
13030.3
13711.8
10795.9
10715.9
2558.24
6018.19
12415.8
11829.3
118430
101638
78351.6
65862.4
50061.8
37088.6
14587.2
2415.83
3815.58
7212.72
9357.45
4281.76
5275.33
8204.83
10592.5
10944.5
122129
130565
64407
39923.5
36909.5
26476.2
18608.1
11165.2
5626.49
1759.88
4170.37
2584.4
5145.73
4863.14
5051.46
11215.9
11561.2
104955
107432
59687.3
32731.7
25245.6
17184.7
14089.4
10982.3
8369.34
3076.97
5121.22
3453.46
2399.1
2695.83
4859.88
4057.52
13357.8
14087.7
61606.8
77017
37348.3
26178.1
18987.7
14088.7
11399.1
9902.33
6960.48
6857.51
7101.2
6485.57
2715.91
2698.86
2529.96
4000.34
3279.87
13862.1
15010.4
6828.23
34644
39755.6
20423.1
13579.6
9575.13
9114.75
7704.21
7413.03
7551.33
6466.63
4089.88
2210.81
1320.58
797.609
1912.1
4901.29
8051.22
15924.7
18380.5
26805.5
29450.6
19065.6
19701.3
15657.2
9814.28
6617.97
5547.84
6292.16
4768.2
3340.26
1535.93
903.76
726.491
1185.65
3094.95
6478.8
10330.7
12649.5
16132.7
16475.2
49973
42918.4
23317.5
16389.3
12267.6
11469.7
9014.79
4227.13
3227.08
3930.01
2243.87
2644.46
2668.83
2588.37
2746.15
4780.04
8518.57
11853.9
12375.5
10191.7
11142
11106.1
82991.1
48784.3
27329.3
13395.8
6157.76
4450.08
3241.88
3908.32
3804.1
3187.23
3571.67
3452.47
3470.21
3566.92
4902.46
8181.95
12109.1
14160.5
13186.3
9972.55
6146.75
6846.37
7440.12
45877.6
23546.3
15600
11868.3
7867.32
4380.46
6060.27
5198.05
4148.16
5385.25
5620.78
5769.16
6343.72
8049.87
11180.6
15177.8
18449.8
19076.4
16865.6
13261.4
9790.26
6843.07
5848.78
8011.72
64052.3
50303.4
36987.9
30176.9
25464.8
25226.7
26018.1
26734.5
28334.1
28981.2
29921.3
31432.6
33095.3
35200
38301.7
42034.5
45481.6
46702.4
46917.8
44463.8
42096.7
39842.3
38697.5
38637.4
39876
306688
225198
175042
143695
123041
110632
104203
99756.3
99837.4
100741
103571
107090
113097
120807
130281
140153
146454
149185
141543
137563
136890
137418
137562
133137
129203
127240
1.21337e+06
1.11189e+06
1.64064e+06
183892
1.44255e+06
1.115e+06
539944
382924
1.02616e+06
929051
705333
527004
179918
789674
757490
605051
616495
390398
148753
617492
536168
384190
511511
390741
348584
135020
434297
357637
234833
528412
275262
243118
285716
156773
263450
234365
317754
508965
359032
227181
157636
209941
124033
163577
141452
446522
341097
343335
300592
168951
86573.6
142813
82937
91116
81232.3
542310
152933
207261
273528
208513
121000
44782.7
74055.3
57210.4
50171.1
47325.9
556371
132696
35230.8
166878
179922
145205
63572.9
28423.4
32154.9
37255.9
27914.6
27287.7
492034
176884
118603
25018.5
102019
101439
70788.7
37875.3
17434.4
15034
24014.8
19352.4
17897.4
390944
153392
164062
75371.9
14857.1
52176.5
50382.6
33919.2
18061.4
12203.6
12067.7
13801.2
12719.9
12932.4
243956
114837
146514
107055
52795.7
11978.7
24157.9
20967.6
15433.1
9643.21
10406.4
2238.41
7376.59
11260.6
9809.27
150094
97376.9
108263
92210.7
65897.8
39432.7
8092.33
8169.95
9759.88
7817.34
10235.5
2812.17
2812.94
6131.2
11703
9537.93
131136
140935
72941.3
56734.8
49118.8
37856.9
20208.3
6222.84
2159.53
4611.36
8181.17
2521.75
5617.73
4581.12
3827.06
9753.3
9583.11
137635
127933
68914.6
37948.5
32605.2
23691.9
17911.8
12093.2
7201.27
1513.18
3121.97
1128.08
3476.08
3548.35
5718.17
4068.99
10044.5
11046.8
105170
117582
54022.1
33459.6
23178.3
15328.2
12269.5
10066.7
7854.34
3479.56
4662.93
3352.43
2086.06
2044.2
3081.63
5369.22
4486.7
13872.3
14158.7
43708.4
59482.1
49873.3
22162.9
15099.9
12648.7
10767.2
8662.66
6933.16
6577.13
6657.08
5872.82
2287.77
3159.8
2858.3
2792.06
4583.53
4803.11
15041.2
15450.6
27985.7
50066.2
52580.7
39874.9
25063.3
12811.7
9639.31
7967.93
7305.72
7854.48
6314.43
4084.82
2695.72
2120.64
1043.91
1496.28
4238.22
8050.32
11064.9
17060.7
17571.3
47288.8
52938
30268.6
24421.8
20763.2
17480.7
9294.51
6953.81
5013.74
4714.96
3742.61
1890.05
1104.49
763.552
1200.86
3201.55
6597.54
10447.3
12821.8
12391.3
14486.1
14295.4
77310.4
50618
28740.2
17785.6
9939.16
8472.74
9380.59
6493.75
4318.55
2604.02
2201.48
2353.86
2544.43
2591.19
2795.22
4854.61
8521.48
11795.7
12584.8
10236.4
6793.61
9838.26
9855.36
83257.4
35409
17460.4
7459.76
3049.57
2923.49
3254.48
3379.06
3223.44
3786.05
3278.92
3519.22
3481.05
3646.83
4906.9
8034.91
11752.7
13888.4
12941.7
9841.86
6361.16
3402.83
6344.09
6619.83
40092.1
21857.1
15052.6
11542.8
7750.55
4814.49
4979.26
7646.35
5377.89
4322.36
5398.4
5664.8
6099.6
7547.65
10471.1
14351.3
17450.8
18200
16263
13040.8
9908.15
7369.53
5125.85
4702.38
7267.62
62185.6
48028.8
35317.6
27728.2
23752.4
23449.5
24177.9
24907.5
24932.5
26669.4
27955.4
29263.7
31140.6
33236
35963.7
39448
42374.2
44120.7
44030.6
43651.3
42456.2
40272.4
38520.4
37238.4
37439.9
37714.8
316202
233260
178375
143310
122032
109168
101287
97197.6
94930.7
96848.3
98442.1
102866
108366
116213
125992
136695
142756
144288
139867
133534
132546
132057
132110
132205
127592
123265
120345
1.25178e+06
1.14891e+06
1.69955e+06
194096
1.5168e+06
1.16262e+06
565069
398107
1.08144e+06
993726
756120
545819
199783
854112
814202
665804
660461
403110
157929
679450
594311
435348
565603
423684
359682
140870
481814
415381
254291
596236
296449
254017
305154
170044
303935
275665
317865
597219
392459
220564
167240
235989
124171
191275
167925
459432
443964
402283
319714
159662
87903.1
160539
85141.4
109569
96377.2
594422
232790
288235
319036
225615
100582
59996.3
74980.1
61262.4
60574.7
54846.5
653188
127593
93697
235086
212905
154996
51126.7
21015.5
41131.7
40035.5
32314.7
30625.7
612546
192307
76335.9
90413.1
149972
127117
73795.5
30918.2
16071.1
20185.7
26292.8
20135.2
18916.7
505390
204479
169385
52100.9
55806.8
83374.4
63437.9
37376.7
19442
11066.6
12769.7
14480.3
12545.2
13344.8
311047
172729
182936
114223
41281.4
33711.6
42087.6
28923.3
16286.7
11811.9
11484.8
3385.26
8512.74
9989.06
8864.27
198344
92650
153161
118588
76158.6
32283.2
15633.4
16969.6
12742.3
7406.86
10378.3
3017.83
2702.89
5814.17
10657.1
8619.97
134310
125310
90210.5
85722.3
69164
49768.7
18924.9
4313.29
6724.34
5911.12
9807.7
2186
3320.91
2290.56
7097.34
9012.33
8473.96
144857