/*--------------------------------*- C++ -*----------------------------------*\
| =========                 |                                                 |
| \\      /  F ield         | OpenFOAM: The Open Source CFD Toolbox           |
|  \\    /   O peration     | Version:  v2012                                 |
|   \\  /    A nd           | Website:  www.openfoam.com                      |
|    \\/     M anipulation  |                                                 |
\*---------------------------------------------------------------------------*/
FoamFile
{
    version     2.0;
    format      ascii;
    class       volScalarField;
    location    "15001";
    object      rho;
}
// * * * * * * * * * * * * * * * * * * * * * * * * * * * * * * * * * * * * * //

dimensions      [1 -3 0 0 0 0 0];


internalField   nonuniform List<scalar> 
294912
(
0.935233
0.935205
0.935231
0.935364
0.935143
0.935204
0.935336
0.935229
0.93536
0.935459
0.935101
0.935141
0.935236
0.935204
0.935333
0.935456
0.935227
0.935357
0.935453
0.935534
0.935072
0.935099
0.935167
0.935139
0.935233
0.935335
0.935204
0.935331
0.935451
0.93557
0.935223
0.935353
0.935449
0.935526
0.935596
0.935073
0.935071
0.935118
0.935097
0.935165
0.935265
0.935136
0.93523
0.935331
0.935442
0.935202
0.935329
0.935448
0.935563
0.935685
0.935219
0.935348
0.935443
0.93552
0.935587
0.935648
0.935097
0.935074
0.935091
0.935069
0.935117
0.935208
0.935093
0.935162
0.935262
0.935385
0.935133
0.935226
0.935327
0.935435
0.935572
0.9352
0.935326
0.935444
0.935559
0.935676
0.935793
0.935214
0.935342
0.935436
0.935512
0.93558
0.935639
0.935687
0.935137
0.9351
0.93508
0.935073
0.935091
0.93518
0.935065
0.935114
0.935205
0.935324
0.935089
0.935157
0.935258
0.935378
0.935542
0.935128
0.935222
0.935322
0.93543
0.935562
0.935719
0.935197
0.935322
0.935439
0.935553
0.935669
0.935781
0.935895
0.935209
0.935336
0.935428
0.935503
0.935569
0.93563
0.935678
0.935711
0.935189
0.935143
0.935086
0.9351
0.935081
0.93516
0.935068
0.935089
0.935179
0.935287
0.93506
0.935109
0.935201
0.935319
0.935496
0.935084
0.935153
0.935252
0.935373
0.935532
0.935742
0.935123
0.935217
0.935317
0.935423
0.935554
0.935705
0.935869
0.935193
0.935316
0.935433
0.935546
0.935661
0.935772
0.935881
0.935981
0.935203
0.935328
0.935419
0.935492
0.935559
0.935618
0.935668
0.935702
0.935724
0.935245
0.935197
0.9351
0.935143
0.93509
0.935161
0.935096
0.93508
0.93516
0.935277
0.935063
0.935083
0.935176
0.935285
0.93547
0.935055
0.935104
0.935195
0.935313
0.935488
0.935739
0.935078
0.935148
0.935247
0.935365
0.935524
0.935727
0.935966
0.935117
0.93521
0.93531
0.935416
0.935545
0.935695
0.935852
0.936013
0.935188
0.93531
0.935425
0.935537
0.935651
0.93576
0.935869
0.935966
0.936052
0.935197
0.935319
0.935409
0.93548
0.935546
0.935605
0.935654
0.935692
0.935717
0.93573
0.9353
0.935255
0.935117
0.935197
0.935106
0.935168
0.93514
0.935089
0.935164
0.935262
0.935091
0.935074
0.935157
0.935276
0.935447
0.935058
0.935078
0.935169
0.935278
0.935463
0.935744
0.935049
0.935099
0.935189
0.935304
0.935478
0.935724
0.936052
0.935072
0.935142
0.935241
0.935358
0.935512
0.935714
0.935945
0.936203
0.935111
0.935203
0.935302
0.935408
0.935535
0.935681
0.935838
0.935992
0.936138
0.935182
0.935303
0.935416
0.935527
0.935639
0.935747
0.935854
0.935952
0.936036
0.936106
0.935191
0.93531
0.935398
0.935468
0.935532
0.93559
0.93564
0.935677
0.935706
0.935723
0.935734
0.935352
0.935313
0.935133
0.935256
0.935127
0.935182
0.935194
0.935106
0.935175
0.93526
0.935134
0.935083
0.935162
0.935264
0.935448
0.935084
0.935068
0.935149
0.93527
0.935444
0.935748
0.935051
0.935071
0.935163
0.935268
0.935454
0.93573
0.93614
0.935042
0.935093
0.935182
0.935297
0.935466
0.93571
0.936029
0.936405
0.935066
0.935135
0.935234
0.93535
0.935502
0.935698
0.935928
0.936177
0.936422
0.935102
0.935195
0.935294
0.935398
0.935523
0.935668
0.93582
0.935975
0.936115
0.936245
0.935175
0.935294
0.935406
0.935516
0.935625
0.935732
0.935838
0.935934
0.936021
0.936089
0.936145
0.935184
0.935301
0.935386
0.935454
0.935517
0.935574
0.935623
0.935661
0.93569
0.935712
0.935726
0.935733
0.935397
0.935368
0.935146
0.935314
0.935149
0.935197
0.935252
0.935127
0.935196
0.93527
0.935188
0.935099
0.935173
0.93527
0.935461
0.935127
0.935076
0.935153
0.935259
0.935451
0.935753
0.935077
0.935061
0.935141
0.935259
0.935433
0.935737
0.936209
0.935044
0.935065
0.935156
0.935259
0.935439
0.935714
0.936115
0.93663
0.935035
0.935086
0.935175
0.935288
0.935455
0.935692
0.936008
0.936375
0.936751
0.935058
0.935128
0.935226
0.93534
0.935489
0.935682
0.935905
0.936153
0.936391
0.936619
0.935093
0.935186
0.935284
0.935387
0.935511
0.935653
0.935801
0.935952
0.936094
0.936221
0.93633
0.935168
0.935285
0.935395
0.935503
0.935609
0.935715
0.935819
0.935915
0.936001
0.936073
0.936129
0.936174
0.935177
0.935291
0.935375
0.93544
0.935501
0.935557
0.935605
0.935644
0.935673
0.935695
0.935714
0.935728
0.935729
0.935433
0.935416
0.935151
0.935369
0.935168
0.935206
0.935309
0.935148
0.935219
0.935278
0.935245
0.935119
0.935194
0.935287
0.935464
0.93518
0.935091
0.935163
0.935264
0.935468
0.935756
0.935119
0.935068
0.935144
0.935247
0.935439
0.935747
0.936263
0.935069
0.935055
0.935134
0.935249
0.935417
0.935719
0.936184
0.936847
0.935036
0.935058
0.935148
0.935249
0.935427
0.935693
0.93609
0.936594
0.937151
0.935028
0.935078
0.935167
0.935278
0.935442
0.935675
0.935981
0.936345
0.936715
0.937061
0.93505
0.93512
0.935217
0.93533
0.935476
0.935665
0.935883
0.936123
0.936362
0.936585
0.936778
0.935084
0.935175
0.935273
0.935376
0.935497
0.935636
0.935781
0.935929
0.936068
0.936197
0.936305
0.936396
0.93516
0.935275
0.935383
0.935489
0.935592
0.935697
0.935798
0.935893
0.935979
0.936051
0.936112
0.936157
0.936194
0.935169
0.93528
0.935362
0.935426
0.935484
0.935539
0.935586
0.935625
0.935654
0.935678
0.935697
0.935715
0.935725
0.935726
0.93546
0.935456
0.935146
0.935417
0.93518
0.935203
0.935362
0.935167
0.935235
0.935274
0.9353
0.935139
0.935215
0.935304
0.935461
0.935235
0.935109
0.935182
0.935281
0.935478
0.935766
0.935171
0.935082
0.935153
0.935249
0.935457
0.93576
0.936303
0.935111
0.93506
0.935134
0.935235
0.93542
0.935728
0.936243
0.937037
0.935061
0.935047
0.935126
0.935236
0.935403
0.935695
0.936155
0.936805
0.937586
0.935027
0.935051
0.935139
0.935238
0.935413
0.935675
0.936059
0.936558
0.937109
0.937619
0.935019
0.935071
0.935158
0.935267
0.935428
0.935656
0.935956
0.936308
0.936677
0.93702
0.937324
0.935041
0.935111
0.935208
0.935319
0.935462
0.935646
0.935858
0.936092
0.936325
0.936551
0.936742
0.936905
0.935074
0.935165
0.935261
0.935363
0.935482
0.935618
0.935759
0.935902
0.93604
0.936166
0.936279
0.93637
0.936447
0.935151
0.935264
0.93537
0.935473
0.935574
0.935677
0.935776
0.93587
0.935955
0.936027
0.936088
0.93614
0.936178
0.936209
0.935161
0.935269
0.935349
0.935411
0.935468
0.93552
0.935566
0.935604
0.935634
0.935658
0.935679
0.935699
0.935712
0.935722
0.935723
0.935476
0.935487
0.935129
0.935456
0.935184
0.935186
0.935409
0.935179
0.935242
0.935256
0.935351
0.935156
0.93523
0.93531
0.935446
0.935289
0.935128
0.935201
0.935295
0.935484
0.935766
0.935225
0.9351
0.93517
0.935264
0.935465
0.935786
0.936323
0.935161
0.935074
0.935142
0.935236
0.935435
0.93574
0.93629
0.937188
0.935101
0.935052
0.935124
0.935224
0.935403
0.935701
0.93621
0.936994
0.938024
0.935051
0.935038
0.935117
0.935222
0.935388
0.935674
0.936118
0.936762
0.937532
0.938289
0.935018
0.935043
0.935128
0.935226
0.935398
0.935654
0.93603
0.936512
0.937061
0.93757
0.938027
0.93501
0.935062
0.935149
0.935256
0.935414
0.935636
0.935927
0.936271
0.936629
0.936974
0.93728
0.937532
0.935032
0.935102
0.935199
0.935307
0.935447
0.935626
0.935833
0.936058
0.936287
0.936508
0.936704
0.936867
0.937004
0.935064
0.935153
0.935249
0.935349
0.935466
0.935597
0.935736
0.935875
0.936009
0.936134
0.936245
0.936343
0.93642
0.936485
0.935142
0.935251
0.935356
0.935457
0.935554
0.935655
0.935752
0.935844
0.935928
0.936001
0.936063
0.936116
0.93616
0.936193
0.93622
0.93515
0.935256
0.935335
0.935396
0.935451
0.935501
0.935546
0.935583
0.935613
0.935637
0.935659
0.935681
0.935696
0.935709
0.93572
0.93572
0.93548
0.935508
0.9351
0.935486
0.935179
0.935154
0.935446
0.935182
0.935238
0.935219
0.935395
0.935165
0.935235
0.935307
0.935416
0.935338
0.935143
0.935214
0.935299
0.935481
0.935745
0.935277
0.935117
0.935187
0.935276
0.935468
0.935808
0.936314
0.935213
0.935091
0.935158
0.935248
0.93544
0.935762
0.936321
0.937285
0.93515
0.935064
0.935131
0.935222
0.935416
0.935707
0.936253
0.937143
0.938427
0.93509
0.935042
0.935112
0.93521
0.935385
0.935677
0.936167
0.936942
0.93796
0.939047
0.935041
0.935029
0.935107
0.935205
0.935372
0.93565
0.936085
0.936706
0.937473
0.93823
0.938908
0.935008
0.935036
0.935116
0.935214
0.935382
0.935632
0.935998
0.936469
0.937001
0.937512
0.937979
0.938333
0.935001
0.935054
0.935139
0.935244
0.935398
0.935615
0.935897
0.93623
0.93658
0.936917
0.937228
0.937485
0.937696
0.935023
0.935093
0.935188
0.935295
0.935431
0.935604
0.935805
0.936022
0.936246
0.936462
0.936655
0.936826
0.936965
0.93708
0.935054
0.935141
0.935236
0.935335
0.935449
0.935576
0.935712
0.935845
0.935977
0.936099
0.93621
0.936307
0.936392
0.936458
0.936514
0.935132
0.935239
0.935341
0.935439
0.935534
0.935632
0.935727
0.935817
0.9359
0.935972
0.936035
0.936089
0.936135
0.936175
0.936204
0.936228
0.93514
0.935242
0.935319
0.935379
0.935433
0.935481
0.935525
0.935561
0.935591
0.935615
0.935639
0.93566
0.935677
0.935693
0.935706
0.935717
0.935718
0.935476
0.935518
0.935061
0.935505
0.935164
0.935109
0.935475
0.935175
0.935223
0.935165
0.935431
0.935166
0.935228
0.93529
0.935365
0.93538
0.93515
0.935216
0.935291
0.93547
0.935692
0.935325
0.93513
0.935196
0.935277
0.93546
0.935823
0.936276
0.935264
0.935107
0.935173
0.935256
0.935439
0.935779
0.93633
0.937328
0.9352
0.935081
0.935146
0.935233
0.935417
0.935724
0.93628
0.937249
0.938738
0.935137
0.935053
0.935119
0.935208
0.935396
0.935681
0.936202
0.937083
0.938349
0.939826
0.935078
0.935031
0.935099
0.935195
0.935365
0.935651
0.936128
0.936874
0.937886
0.938974
0.939964
0.93503
0.935019
0.935096
0.935189
0.935354
0.935624
0.936047
0.936654
0.937398
0.938156
0.938853
0.939341
0.934998
0.935027
0.935104
0.935202
0.935365
0.935608
0.935964
0.936421
0.93694
0.937439
0.937911
0.938282
0.938564
0.934992
0.935045
0.935129
0.935232
0.935382
0.935593
0.935866
0.936188
0.936526
0.936857
0.937162
0.937428
0.937646
0.937824
0.935013
0.935083
0.935177
0.935282
0.935415
0.935582
0.935777
0.935985
0.936203
0.936413
0.936603
0.936772
0.936921
0.937041
0.93714
0.935044
0.93513
0.935223
0.935319
0.935431
0.935553
0.935686
0.935815
0.935942
0.936062
0.936171
0.936269
0.936354
0.936429
0.936488
0.936537
0.935121
0.935224
0.935325
0.935421
0.935513
0.935608
0.935701
0.935788
0.93587
0.935941
0.936005
0.93606
0.936108
0.936149
0.936186
0.936213
0.936236
0.935127
0.935228
0.935303
0.935361
0.935415
0.935462
0.935504
0.935539
0.935568
0.935593
0.935617
0.935638
0.935657
0.935674
0.93569
0.935704
0.935716
0.935717
0.935464
0.935521
0.935016
0.935515
0.935143
0.935054
0.935492
0.93516
0.935198
0.935099
0.935457
0.935157
0.93521
0.935261
0.935298
0.935413
0.935147
0.935206
0.935268
0.935442
0.93561
0.935364
0.935135
0.935194
0.935264
0.935439
0.935804
0.936206
0.935309
0.935118
0.93518
0.935252
0.935427
0.935781
0.936309
0.937318
0.935249
0.935096
0.935159
0.935238
0.935411
0.935732
0.936281
0.937307
0.938943
0.935185
0.935069
0.935132
0.935217
0.935394
0.935693
0.93622
0.93718
0.938652
0.940521
0.935123
0.935041
0.935104
0.93519
0.935374
0.935651
0.936159
0.937001
0.93826
0.939733
0.94114
0.935064
0.935019
0.935085
0.935179
0.935342
0.935621
0.936086
0.936814
0.93779
0.938882
0.939899
0.940597
0.935018
0.935008
0.935084
0.935173
0.935334
0.935597
0.936007
0.936596
0.937324
0.938062
0.938768
0.939294
0.939632
0.934987
0.935019
0.935092
0.935189
0.935347
0.935584
0.935929
0.936371
0.936872
0.937361
0.937825
0.938208
0.93851
0.938741
0.934982
0.935036
0.935118
0.93522
0.935366
0.935571
0.935834
0.936144
0.936468
0.936791
0.937091
0.937354
0.937585
0.937772
0.937924
0.935004
0.935074
0.935166
0.935268
0.935398
0.935559
0.935747
0.935948
0.936158
0.93636
0.936546
0.936715
0.936864
0.936995
0.9371
0.937186
0.935031
0.935116
0.935209
0.935303
0.935411
0.93553
0.93566
0.935783
0.935906
0.936022
0.93613
0.936227
0.936314
0.93639
0.936458
0.936511
0.936556
0.935108
0.935208
0.935308
0.9354
0.935491
0.935584
0.935673
0.935759
0.935839
0.93591
0.935973
0.936029
0.936078
0.936122
0.93616
0.936194
0.936221
0.936244
0.935114
0.935211
0.935286
0.935342
0.935395
0.935441
0.935483
0.935516
0.935545
0.935569
0.935593
0.935616
0.935635
0.935654
0.935672
0.935688
0.935704
0.935713
0.93571
0.935449
0.935518
0.934968
0.935517
0.935116
0.934997
0.935501
0.935137
0.935166
0.93503
0.935472
0.935138
0.935182
0.935223
0.935223
0.935436
0.935133
0.935182
0.935233
0.935404
0.935517
0.935394
0.935129
0.935177
0.935234
0.935405
0.935762
0.936116
0.935347
0.93512
0.935173
0.935232
0.935399
0.935754
0.936269
0.937259
0.935293
0.935106
0.935163
0.935229
0.93539
0.935719
0.936249
0.937323
0.939041
0.935233
0.935083
0.935144
0.935219
0.935383
0.935694
0.936213
0.937226
0.938858
0.94107
0.935169
0.935056
0.935116
0.935198
0.935369
0.93566
0.936169
0.937083
0.938545
0.940405
0.942299
0.935108
0.935028
0.935089
0.935171
0.93535
0.935619
0.936111
0.93693
0.938139
0.93962
0.941053
0.942116
0.935051
0.935008
0.93507
0.935163
0.935318
0.935589
0.93604
0.936746
0.9377
0.938763
0.939795
0.940565
0.940968
0.935006
0.934998
0.935072
0.935157
0.935314
0.935568
0.935965
0.936534
0.93724
0.937965
0.938658
0.939202
0.939589
0.939833
0.934977
0.93501
0.93508
0.935176
0.935329
0.93556
0.935893
0.936318
0.9368
0.937276
0.937732
0.938112
0.938431
0.938684
0.938881
0.934973
0.935027
0.935108
0.935207
0.93535
0.935548
0.935801
0.936098
0.936408
0.936722
0.937012
0.937274
0.937505
0.937707
0.93787
0.938003
0.934993
0.935064
0.935155
0.935255
0.93538
0.935536
0.935716
0.935909
0.93611
0.936304
0.936486
0.936653
0.936803
0.936936
0.937053
0.937146
0.937225
0.935022
0.935105
0.935194
0.935286
0.935391
0.935507
0.935631
0.935751
0.935869
0.935981
0.936086
0.936183
0.93627
0.936349
0.936418
0.936481
0.93653
0.936572
0.9351
0.935192
0.935287
0.935378
0.935469
0.935557
0.935645
0.935728
0.935807
0.935877
0.93594
0.935996
0.936047
0.936092
0.936132
0.936169
0.936202
0.936229
0.936252
0.9351
0.935193
0.935266
0.935324
0.935374
0.935419
0.93546
0.935494
0.935523
0.935547
0.93557
0.935592
0.935612
0.935632
0.935651
0.935669
0.935688
0.9357
0.93571
0.935707
0.935431
0.935511
0.934921
0.935514
0.935087
0.934941
0.935503
0.935109
0.935131
0.934965
0.935478
0.935112
0.935148
0.935181
0.935149
0.935448
0.93511
0.935147
0.935189
0.93536
0.935426
0.935414
0.935112
0.935147
0.93519
0.935357
0.935704
0.936025
0.935374
0.935112
0.935153
0.935194
0.935354
0.935693
0.936217
0.93717
0.935327
0.935106
0.935153
0.935203
0.935352
0.935674
0.93619
0.937303
0.939049
0.935274
0.935092
0.935145
0.935206
0.935354
0.935672
0.936171
0.937221
0.938972
0.941445
0.935215
0.935068
0.935126
0.935197
0.935353
0.935656
0.936152
0.937112
0.93873
0.940937
0.943331
0.935153
0.935042
0.935099
0.935177
0.935341
0.935622
0.936115
0.936998
0.938396
0.940268
0.942173
0.943779
0.935094
0.935015
0.935073
0.935153
0.935324
0.935582
0.936058
0.936851
0.93803
0.939467
0.940923
0.942085
0.942665
0.935037
0.934996
0.935058
0.935146
0.935293
0.935556
0.935992
0.936674
0.9376
0.938643
0.939658
0.940453
0.940965
0.941156
0.934993
0.934989
0.935061
0.935142
0.935294
0.93554
0.935923
0.93647
0.937151
0.937857
0.938539
0.93908
0.939493
0.939788
0.939981
0.934966
0.935001
0.935069
0.935162
0.935311
0.935535
0.935856
0.936264
0.936726
0.937185
0.937627
0.938004
0.938325
0.9386
0.938818
0.938991
0.934963
0.935017
0.935098
0.935195
0.935333
0.935525
0.935767
0.936051
0.936346
0.936649
0.936928
0.937185
0.937417
0.937623
0.937803
0.937947
0.938067
0.934983
0.935053
0.935142
0.935241
0.935363
0.935512
0.935683
0.935871
0.936062
0.936247
0.936422
0.936586
0.936736
0.936872
0.936992
0.937099
0.937185
0.937258
0.935008
0.935086
0.935177
0.93527
0.935369
0.935482
0.935602
0.935718
0.93583
0.935939
0.936041
0.936136
0.936224
0.936304
0.936376
0.936441
0.9365
0.936548
0.936588
0.93509
0.93518
0.93527
0.935352
0.935443
0.93553
0.935615
0.935697
0.935773
0.935842
0.935905
0.935962
0.936013
0.936059
0.936102
0.936141
0.936177
0.93621
0.936237
0.93626
0.935086
0.935174
0.935245
0.935302
0.935354
0.935397
0.935437
0.935471
0.9355
0.935525
0.935547
0.93557
0.935589
0.935609
0.935629
0.935649
0.935667
0.935684
0.935697
0.935704
0.935699
0.935413
0.935502
0.934877
0.935508
0.935057
0.934888
0.9355
0.935078
0.935095
0.934905
0.935478
0.93508
0.935109
0.935138
0.935082
0.935451
0.935078
0.935105
0.935139
0.935315
0.935343
0.935424
0.935085
0.935105
0.935136
0.935303
0.935643
0.935935
0.935391
0.935092
0.935119
0.93514
0.935295
0.935615
0.936167
0.937078
0.935352
0.935095
0.935129
0.935161
0.935297
0.9356
0.936121
0.937263
0.939002
0.935307
0.93509
0.935133
0.935176
0.935311
0.935617
0.936103
0.937182
0.939015
0.941664
0.935254
0.935076
0.935125
0.935181
0.935321
0.935635
0.936098
0.937092
0.938816
0.941306
0.944143
0.935196
0.935053
0.935106
0.935173
0.93532
0.935613
0.936089
0.937013
0.938552
0.940771
0.943156
0.945448
0.935135
0.935028
0.935081
0.935154
0.935311
0.935579
0.936055
0.936907
0.938265
0.940074
0.942008
0.943727
0.944649
0.935078
0.935002
0.935057
0.935134
0.935294
0.935544
0.936002
0.936766
0.937907
0.939322
0.940745
0.941951
0.942712
0.942833
0.935023
0.934985
0.935045
0.935126
0.935269
0.935523
0.935942
0.9366
0.937495
0.938506
0.939513
0.940306
0.940847
0.941169
0.941243
0.934981
0.93498
0.935047
0.935126
0.935274
0.935511
0.93588
0.936405
0.937058
0.93774
0.938402
0.938942
0.93936
0.939687
0.93993
0.940095
0.934955
0.934989
0.935057
0.935149
0.935293
0.935509
0.935818
0.936209
0.936651
0.93709
0.937515
0.937882
0.938206
0.938487
0.93873
0.938924
0.939079
0.934953
0.935008
0.935087
0.935182
0.935317
0.935502
0.935733
0.936005
0.936285
0.936573
0.936839
0.937089
0.93732
0.93753
0.937716
0.937879
0.93801
0.93812
0.934973
0.935042
0.935131
0.935226
0.935343
0.935487
0.93565
0.935833
0.936012
0.936188
0.936357
0.936516
0.936665
0.936802
0.936926
0.937036
0.937136
0.937218
0.937288
0.935001
0.935076
0.935161
0.935247
0.935345
0.935461
0.935571
0.935683
0.935791
0.935895
0.935995
0.936088
0.936175
0.936256
0.93633
0.936398
0.93646
0.936517
0.936564
0.936604
0.93508
0.935165
0.935252
0.935333
0.935414
0.9355
0.935583
0.935663
0.935738
0.935806
0.935869
0.935926
0.935978
0.936025
0.936069
0.93611
0.936148
0.936184
0.936218
0.936245
0.936268
0.935072
0.935157
0.935225
0.93528
0.935331
0.935375
0.935414
0.935448
0.935476
0.935502
0.935524
0.935548
0.935567
0.935587
0.935607
0.935627
0.935646
0.935667
0.935682
0.935691
0.935698
0.935691
0.935394
0.935492
0.934835
0.935499
0.935028
0.93484
0.935494
0.935047
0.935061
0.934849
0.935473
0.935045
0.93507
0.935098
0.935
0.935449
0.93504
0.93506
0.935091
0.935272
0.935254
0.935426
0.935049
0.935055
0.935077
0.935248
0.935589
0.935843
0.935399
0.935062
0.935074
0.935076
0.935229
0.93554
0.936121
0.936976
0.935367
0.935072
0.935091
0.935103
0.935228
0.935512
0.936053
0.937216
0.93893
0.935329
0.935076
0.935106
0.935129
0.935248
0.935532
0.936023
0.937116
0.939007
0.941767
0.935284
0.935071
0.935109
0.935147
0.935272
0.935576
0.936021
0.937039
0.938828
0.941541
0.944726
0.935233
0.935059
0.935103
0.935152
0.935282
0.935583
0.936026
0.936979
0.938616
0.941095
0.943933
0.946929
0.935178
0.935036
0.935085
0.935146
0.935284
0.935562
0.936019
0.936908
0.938398
0.940537
0.942944
0.945342
0.946825
0.935118
0.935014
0.935062
0.935129
0.935279
0.935533
0.935989
0.936806
0.938119
0.939898
0.941779
0.943565
0.944726
0.944874
0.935063
0.934989
0.935041
0.935115
0.935261
0.935505
0.935945
0.936677
0.937777
0.939156
0.940567
0.941769
0.942569
0.942947
0.942737
0.935009
0.934974
0.935032
0.935106
0.935245
0.93549
0.935892
0.936524
0.937384
0.938361
0.93935
0.940139
0.940692
0.941053
0.941251
0.941296
0.934968
0.93497
0.935033
0.935111
0.935254
0.935483
0.935839
0.93634
0.936963
0.937619
0.938256
0.938782
0.939204
0.939544
0.939824
0.940036
0.940187
0.934945
0.93498
0.935047
0.935136
0.935275
0.935484
0.93578
0.936155
0.936575
0.936991
0.937396
0.93775
0.93807
0.938358
0.938612
0.938833
0.939008
0.939152
0.934942
0.934997
0.935075
0.935167
0.935299
0.935479
0.935702
0.935957
0.936223
0.936495
0.936748
0.936988
0.937215
0.937426
0.937619
0.937789
0.937941
0.938063
0.938168
0.934959
0.935028
0.935112
0.935206
0.935323
0.935464
0.935616
0.935793
0.935961
0.936128
0.936289
0.936444
0.93659
0.936727
0.936853
0.936969
0.937073
0.937169
0.937248
0.937318
0.934993
0.935067
0.93515
0.93523
0.935321
0.935429
0.93554
0.935648
0.93575
0.935851
0.935947
0.936038
0.936124
0.936205
0.93628
0.936351
0.936416
0.936476
0.936533
0.93658
0.93662
0.935069
0.935149
0.935233
0.93531
0.935391
0.935468
0.935549
0.935628
0.935701
0.935769
0.935831
0.935888
0.935941
0.93599
0.936035
0.936077
0.936117
0.936156
0.936192
0.936226
0.936254
0.936276
0.935058
0.935139
0.935204
0.935259
0.935308
0.935352
0.93539
0.935424
0.935453
0.935478
0.935501
0.935525
0.935545
0.935565
0.935585
0.935605
0.935625
0.935647
0.935662
0.935676
0.935685
0.935692
0.935685
0.935376
0.93548
0.934798
0.935488
0.935001
0.934795
0.935484
0.935016
0.935029
0.934798
0.935464
0.935011
0.935034
0.935061
0.934926
0.935442
0.934999
0.935014
0.935047
0.935233
0.935176
0.935423
0.935008
0.935002
0.935019
0.935197
0.935544
0.935756
0.9354
0.935024
0.935021
0.935006
0.935162
0.935475
0.936082
0.936877
0.935372
0.935039
0.935043
0.935035
0.935149
0.935426
0.935991
0.937165
0.938847
0.935341
0.93505
0.935066
0.935067
0.935171
0.935433
0.93594
0.937045
0.938983
0.941789
0.935304
0.935054
0.935079
0.935097
0.9352
0.935487
0.935929
0.936961
0.938788
0.941667
0.945132
0.935261
0.93505
0.935083
0.935114
0.935227
0.935516
0.935939
0.936911
0.938614
0.941288
0.944503
0.948137
0.935213
0.93504
0.935079
0.935119
0.935238
0.935522
0.935946
0.936866
0.93844
0.940832
0.943665
0.946748
0.948957
0.935159
0.93502
0.935063
0.935118
0.935246
0.935506
0.935941
0.936794
0.938229
0.940328
0.942661
0.945127
0.946867
0.947347
0.9351
0.934999
0.935043
0.935104
0.935245
0.935484
0.935921
0.936699
0.937962
0.939698
0.941564
0.943338
0.944551
0.945115
0.944589
0.935047
0.934976
0.935024
0.935096
0.93523
0.935466
0.935885
0.936586
0.937642
0.938979
0.940364
0.941571
0.942384
0.942839
0.942864
0.942657
0.934994
0.934963
0.935019
0.935088
0.935224
0.935457
0.935843
0.936448
0.937271
0.938211
0.939172
0.939947
0.940506
0.940893
0.941136
0.941294
0.941338
0.934955
0.934962
0.93502
0.935096
0.935234
0.935457
0.935799
0.936277
0.936869
0.937497
0.938101
0.938607
0.939023
0.939376
0.939673
0.939927
0.940119
0.940262
0.934932
0.934968
0.935034
0.935121
0.935257
0.93546
0.935743
0.9361
0.936497
0.93689
0.937273
0.93761
0.937922
0.938211
0.938476
0.93871
0.938916
0.939078
0.939215
0.934931
0.934982
0.935062
0.935154
0.935286
0.935454
0.935668
0.935908
0.936161
0.936416
0.936655
0.936884
0.937104
0.937314
0.93751
0.937689
0.937849
0.937993
0.93811
0.938213
0.934952
0.935019
0.9351
0.935188
0.935297
0.935429
0.935588
0.935752
0.935911
0.936069
0.936221
0.936369
0.936512
0.936648
0.936775
0.936894
0.937004
0.937105
0.9372
0.937279
0.937348
0.934985
0.935056
0.935137
0.935215
0.935301
0.935404
0.935505
0.935609
0.93571
0.935806
0.935899
0.935987
0.936072
0.936152
0.936229
0.936301
0.936368
0.936432
0.936492
0.936549
0.936597
0.936636
0.935057
0.935133
0.935213
0.935288
0.935364
0.93544
0.935514
0.93559
0.935663
0.93573
0.935792
0.935849
0.935902
0.935952
0.935998
0.936042
0.936084
0.936124
0.936163
0.9362
0.936235
0.936262
0.936283
0.935044
0.93512
0.935183
0.935237
0.935285
0.935327
0.935367
0.935399
0.935429
0.935455
0.935478
0.935502
0.935523
0.935543
0.935563
0.935583
0.935603
0.935624
0.935643
0.935658
0.935669
0.935679
0.935685
0.935675
0.935359
0.935469
0.934763
0.935476
0.934976
0.934755
0.935473
0.934989
0.935001
0.93475
0.935453
0.934978
0.935002
0.93503
0.93486
0.935431
0.934959
0.934972
0.935008
0.935199
0.935108
0.935414
0.934964
0.93495
0.934966
0.935153
0.935508
0.935677
0.935395
0.934981
0.934965
0.934938
0.9351
0.935422
0.936048
0.936787
0.935372
0.935
0.934987
0.934962
0.93507
0.935348
0.935937
0.937122
0.93876
0.935345
0.935016
0.935015
0.934995
0.935085
0.935333
0.93586
0.936973
0.938956
0.941751
0.935313
0.935026
0.935036
0.935032
0.935113
0.935377
0.935833
0.936876
0.938736
0.941727
0.9454
0.935277
0.93503
0.935049
0.93506
0.935149
0.935424
0.935837
0.936818
0.938562
0.941367
0.944911
0.949051
0.935237
0.935028
0.935055
0.935077
0.935175
0.935446
0.935851
0.936789
0.938421
0.940995
0.944188
0.947886
0.950892
0.935191
0.93502
0.935053
0.935087
0.935189
0.935455
0.935856
0.936739
0.93825
0.940596
0.943347
0.946462
0.948896
0.950004
0.935141
0.935002
0.935041
0.935088
0.935206
0.935443
0.935859
0.936669
0.938047
0.940093
0.942409
0.944846
0.946626
0.947669
0.946927
0.935082
0.934986
0.935025
0.935078
0.93521
0.935434
0.935849
0.93659
0.9378
0.939483
0.941318
0.943111
0.944326
0.945014
0.944891
0.9443
0.935032
0.934966
0.93501
0.935077
0.935201
0.935427
0.935825
0.936493
0.937503
0.938792
0.940145
0.941339
0.942163
0.94266
0.942754
0.942797
0.94256
0.93498
0.934954
0.935006
0.935071
0.935202
0.935427
0.935796
0.936373
0.937156
0.938058
0.938982
0.939735
0.940288
0.940691
0.940967
0.941179
0.941322
0.941373
0.934942
0.934952
0.935007
0.935083
0.935218
0.935431
0.935759
0.936217
0.936779
0.937375
0.937941
0.938422
0.938824
0.939177
0.939495
0.939769
0.940007
0.940187
0.940327
0.934921
0.93496
0.935025
0.93511
0.93524
0.935434
0.935707
0.936049
0.936419
0.93679
0.937148
0.937466
0.937765
0.93805
0.938321
0.93857
0.938789
0.938984
0.939139
0.939274
0.934915
0.934969
0.935044
0.935132
0.935255
0.935429
0.935639
0.935856
0.936102
0.936337
0.93656
0.936778
0.93699
0.937196
0.937393
0.937578
0.937747
0.9379
0.938039
0.938155
0.938259
0.934944
0.935014
0.935091
0.935174
0.935277
0.935403
0.935545
0.935707
0.935862
0.936007
0.936153
0.936294
0.936433
0.936566
0.936694
0.936815
0.936929
0.937036
0.937136
0.93723
0.93731
0.93738
0.934975
0.935045
0.935122
0.935196
0.935282
0.935378
0.935475
0.935569
0.935665
0.93576
0.935849
0.935936
0.936019
0.936098
0.936175
0.936248
0.936318
0.936384
0.936448
0.936509
0.936566
0.936614
0.936652
0.935046
0.935118
0.935193
0.935264
0.935338
0.93541
0.935482
0.935552
0.935623
0.93569
0.935752
0.935809
0.935862
0.935912
0.93596
0.936005
0.936049
0.936091
0.936132
0.936171
0.936209
0.936244
0.936271
0.93629
0.93503
0.935101
0.935162
0.935214
0.935262
0.935303
0.935341
0.935376
0.935405
0.935431
0.935455
0.935478
0.935501
0.935521
0.935541
0.935561
0.935581
0.9356
0.935621
0.935638
0.935651
0.935664
0.935672
0.935676
0.935664
0.935343
0.935458
0.934734
0.935465
0.934954
0.934719
0.935462
0.934964
0.934976
0.934706
0.93544
0.934948
0.934974
0.935003
0.934802
0.935418
0.934921
0.934934
0.934976
0.935172
0.935049
0.935402
0.934921
0.934901
0.93492
0.935117
0.935483
0.935606
0.935386
0.934937
0.934909
0.934875
0.935046
0.93538
0.936022
0.936704
0.935366
0.934956
0.934929
0.93489
0.934995
0.935282
0.93589
0.937091
0.938673
0.935343
0.934976
0.934958
0.934918
0.934998
0.935242
0.935789
0.93691
0.93893
0.941688
0.935315
0.934991
0.934984
0.934956
0.935021
0.935265
0.935739
0.936787
0.938682
0.941739
0.945567
0.935284
0.935
0.935004
0.934992
0.935056
0.935316
0.935733
0.936719
0.938492
0.941388
0.945199
0.94969
0.93525
0.935006
0.935018
0.935019
0.935091
0.935347
0.93574
0.936689
0.938353
0.941049
0.944548
0.948727
0.952564
0.935212
0.935007
0.935026
0.93504
0.935117
0.935368
0.935752
0.93665
0.938217
0.94073
0.943844
0.947522
0.950757
0.952659
0.935171
0.935
0.935028
0.935053
0.935141
0.935383
0.935761
0.936597
0.938045
0.940337
0.943066
0.946122
0.948602
0.950315
0.949656
0.935123
0.934986
0.935018
0.935058
0.935166
0.93538
0.935772
0.93654
0.937851
0.939838
0.942129
0.944579
0.946346
0.94751
0.947381
0.946462
0.935065
0.934975
0.935008
0.935058
0.935178
0.935384
0.935775
0.936476
0.937631
0.939257
0.941051
0.942845
0.944076
0.944818
0.944807
0.944667
0.94396
0.935016
0.934952
0.934998
0.935057
0.935174
0.93539
0.935766
0.9364
0.937362
0.938595
0.939907
0.941083
0.941905
0.942425
0.942577
0.942703
0.942691
0.942477
0.934965
0.934945
0.934993
0.935059
0.935186
0.935397
0.93575
0.936301
0.937043
0.937903
0.938781
0.939508
0.940046
0.940446
0.940753
0.941001
0.941206
0.941345
0.941404
0.934928
0.934941
0.934995
0.935069
0.935197
0.935405
0.935725
0.93616
0.936689
0.937251
0.937781
0.938231
0.938612
0.938957
0.939282
0.939584
0.939845
0.940073
0.940245
0.940385
0.934903
0.934934
0.935001
0.935085
0.935217
0.935417
0.935674
0.935991
0.93634
0.93669
0.937021
0.937318
0.937602
0.93788
0.938151
0.938408
0.938646
0.938855
0.939043
0.939195
0.939331
0.934907
0.934961
0.935033
0.935114
0.935236
0.935397
0.935584
0.93581
0.936042
0.936258
0.936468
0.936671
0.936873
0.937074
0.937269
0.937457
0.937633
0.937796
0.937945
0.938084
0.9382
0.938306
0.934939
0.935005
0.93508
0.935161
0.93526
0.935374
0.935515
0.935659
0.935803
0.935949
0.936083
0.936219
0.936352
0.936482
0.936609
0.936731
0.936847
0.936959
0.937065
0.937166
0.937262
0.937343
0.937412
0.934968
0.935034
0.935108
0.935179
0.93526
0.935351
0.935442
0.935534
0.93562
0.93571
0.9358
0.935884
0.935965
0.936043
0.936119
0.936193
0.936264
0.936333
0.9364
0.936464
0.936525
0.936583
0.936631
0.936667
0.935034
0.935102
0.935173
0.935241
0.93531
0.935379
0.935448
0.935516
0.935582
0.935648
0.93571
0.935768
0.935822
0.935872
0.93592
0.935966
0.936012
0.936055
0.936098
0.93614
0.93618
0.936217
0.936252
0.936278
0.936295
0.935016
0.935082
0.93514
0.93519
0.935237
0.935278
0.935316
0.935351
0.93538
0.935407
0.935431
0.935455
0.935477
0.935499
0.935519
0.935539
0.935559
0.935579
0.935598
0.935617
0.935632
0.935645
0.935658
0.935663
0.935666
0.935653
0.93533
0.935448
0.934707
0.935454
0.934935
0.93469