/*--------------------------------*- C++ -*----------------------------------*\
| =========                 |                                                 |
| \\      /  F ield         | OpenFOAM: The Open Source CFD Toolbox           |
|  \\    /   O peration     | Version:  v2012                                 |
|   \\  /    A nd           | Website:  www.openfoam.com                      |
|    \\/     M anipulation  |                                                 |
\*---------------------------------------------------------------------------*/
FoamFile
{
    version     2.0;
    format      ascii;
    class       volScalarField;
    location    "15001";
    object      T;
}
// * * * * * * * * * * * * * * * * * * * * * * * * * * * * * * * * * * * * * //

dimensions      [0 0 0 1 0 0 0];


internalField   nonuniform List<scalar> 
294912
(
300.046
300.028
300.045
300.064
300.022
300.028
300.039
300.045
300.064
300.076
300.024
300.022
300.038
300.028
300.039
300.053
300.044
300.063
300.075
300.085
300.029
300.024
300.04
300.022
300.038
300.054
300.027
300.039
300.052
300.067
300.044
300.063
300.075
300.084
300.092
300.031
300.029
300.038
300.025
300.039
300.053
300.022
300.038
300.053
300.07
300.027
300.038
300.052
300.066
300.082
300.043
300.062
300.074
300.083
300.091
300.098
300.033
300.031
300.035
300.029
300.038
300.048
300.025
300.039
300.052
300.068
300.022
300.038
300.053
300.07
300.09
300.026
300.038
300.051
300.066
300.081
300.097
300.043
300.061
300.073
300.082
300.09
300.096
300.102
300.035
300.032
300.031
300.031
300.035
300.041
300.029
300.038
300.047
300.062
300.024
300.039
300.052
300.068
300.088
300.021
300.038
300.053
300.069
300.088
300.11
300.026
300.037
300.051
300.065
300.08
300.095
300.111
300.042
300.06
300.072
300.081
300.088
300.095
300.101
300.105
300.037
300.034
300.027
300.032
300.03
300.036
300.031
300.035
300.04
300.054
300.028
300.038
300.047
300.061
300.083
300.024
300.039
300.052
300.067
300.087
300.113
300.021
300.037
300.052
300.069
300.087
300.108
300.13
300.025
300.037
300.05
300.064
300.079
300.094
300.109
300.123
300.041
300.059
300.07
300.079
300.087
300.094
300.1
300.104
300.106
300.04
300.036
300.022
300.034
300.025
300.03
300.032
300.03
300.035
300.046
300.031
300.035
300.04
300.053
300.076
300.028
300.037
300.047
300.061
300.081
300.113
300.024
300.038
300.051
300.067
300.086
300.111
300.142
300.021
300.037
300.051
300.068
300.086
300.107
300.128
300.148
300.024
300.036
300.049
300.063
300.078
300.092
300.107
300.12
300.132
300.04
300.057
300.069
300.077
300.085
300.092
300.098
300.102
300.105
300.107
300.041
300.038
300.017
300.036
300.019
300.025
300.034
300.025
300.028
300.04
300.032
300.031
300.035
300.044
300.069
300.03
300.034
300.04
300.053
300.074
300.11
300.027
300.036
300.046
300.06
300.081
300.111
300.152
300.023
300.037
300.05
300.066
300.085
300.11
300.139
300.172
300.02
300.036
300.051
300.067
300.085
300.105
300.126
300.146
300.164
300.023
300.035
300.048
300.062
300.076
300.091
300.105
300.119
300.13
300.14
300.039
300.056
300.067
300.075
300.083
300.09
300.096
300.1
300.104
300.106
300.107
300.042
300.039
300.01
300.037
300.012
300.019
300.036
300.019
300.021
300.036
300.034
300.025
300.028
300.038
300.062
300.032
300.03
300.035
300.045
300.066
300.105
300.029
300.033
300.039
300.053
300.074
300.107
300.159
300.026
300.035
300.045
300.059
300.08
300.11
300.149
300.197
300.022
300.036
300.049
300.064
300.084
300.108
300.137
300.169
300.2
300.02
300.035
300.05
300.065
300.084
300.103
300.124
300.144
300.162
300.178
300.022
300.034
300.047
300.061
300.075
300.089
300.103
300.116
300.128
300.137
300.145
300.037
300.054
300.065
300.073
300.081
300.088
300.094
300.098
300.102
300.104
300.106
300.106
300.041
300.038
300.003
300.038
300.004
300.012
300.037
300.012
300.013
300.027
300.036
300.019
300.021
300.03
300.051
300.033
300.025
300.029
300.038
300.057
300.099
300.031
300.029
300.034
300.044
300.066
300.101
300.163
300.028
300.032
300.038
300.052
300.073
300.106
300.155
300.221
300.025
300.034
300.044
300.058
300.079
300.108
300.147
300.193
300.241
300.022
300.035
300.048
300.063
300.082
300.106
300.135
300.166
300.196
300.225
300.019
300.035
300.049
300.064
300.082
300.101
300.121
300.141
300.159
300.175
300.189
300.022
300.033
300.046
300.059
300.073
300.087
300.101
300.114
300.126
300.135
300.143
300.149
300.036
300.052
300.063
300.071
300.079
300.085
300.091
300.096
300.1
300.102
300.104
300.106
300.106
300.038
300.035
299.995
300.036
299.993
300.004
300.038
300.003
300.003
300.019
300.037
300.012
300.013
300.019
300.042
300.035
300.019
300.022
300.03
300.044
300.091
300.032
300.024
300.028
300.038
300.057
300.092
300.163
300.029
300.028
300.033
300.043
300.066
300.101
300.157
300.244
300.027
300.031
300.037
300.051
300.071
300.105
300.153
300.215
300.288
300.024
300.033
300.043
300.057
300.077
300.106
300.144
300.19
300.236
300.28
300.021
300.034
300.047
300.062
300.08
300.104
300.132
300.163
300.193
300.22
300.245
300.019
300.034
300.047
300.063
300.08
300.099
300.118
300.137
300.156
300.172
300.186
300.197
300.021
300.032
300.045
300.058
300.071
300.085
300.098
300.111
300.123
300.132
300.141
300.147
300.152
300.034
300.05
300.061
300.069
300.076
300.083
300.089
300.093
300.097
300.1
300.102
300.104
300.105
300.106
300.036
300.031
299.987
300.033
299.982
299.997
300.036
299.992
299.992
300.01
300.037
300.003
300.002
300.006
300.033
300.036
300.012
300.013
300.018
300.031
300.081
300.034
300.018
300.021
300.03
300.044
300.08
300.157
300.031
300.022
300.026
300.036
300.057
300.092
300.153
300.261
300.028
300.026
300.031
300.042
300.064
300.099
300.156
300.235
300.338
300.026
300.03
300.036
300.049
300.07
300.102
300.15
300.212
300.281
300.348
300.023
300.032
300.042
300.056
300.075
300.104
300.141
300.186
300.232
300.274
300.313
300.02
300.033
300.045
300.06
300.078
300.102
300.129
300.159
300.188
300.217
300.24
300.261
300.018
300.033
300.046
300.061
300.078
300.097
300.115
300.134
300.152
300.168
300.182
300.194
300.203
300.02
300.032
300.044
300.056
300.069
300.083
300.096
300.108
300.12
300.129
300.137
300.144
300.149
300.154
300.032
300.047
300.059
300.067
300.074
300.08
300.086
300.091
300.094
300.097
300.1
300.102
300.104
300.105
300.105
300.033
300.027
299.982
300.029
299.972
299.992
300.033
299.98
299.98
300.004
300.035
299.991
299.99
299.994
300.026
300.036
300.002
300.002
300.005
300.018
300.071
300.035
300.01
300.012
300.019
300.031
300.064
300.149
300.032
300.016
300.019
300.029
300.044
300.08
300.142
300.269
300.029
300.021
300.025
300.034
300.055
300.091
300.152
300.246
300.387
300.027
300.025
300.03
300.041
300.062
300.096
300.152
300.232
300.327
300.428
300.024
300.028
300.034
300.048
300.068
300.1
300.146
300.207
300.277
300.339
300.399
300.022
300.031
300.04
300.054
300.073
300.101
300.138
300.181
300.226
300.27
300.307
300.34
300.019
300.032
300.044
300.058
300.076
300.099
300.126
300.155
300.184
300.211
300.236
300.256
300.273
300.018
300.032
300.045
300.059
300.076
300.094
300.112
300.13
300.148
300.164
300.178
300.191
300.2
300.208
300.019
300.031
300.043
300.055
300.067
300.08
300.093
300.105
300.116
300.126
300.134
300.141
300.147
300.152
300.155
300.03
300.045
300.056
300.064
300.071
300.077
300.083
300.088
300.091
300.095
300.098
300.1
300.102
300.103
300.105
300.105
300.03
300.022
299.979
300.024
299.962
299.989
300.028
299.969
299.97
300.002
300.032
299.98
299.978
299.982
300.021
300.034
299.991
299.99
299.992
300.005
300.064
300.034
300
300.001
300.006
300.017
300.045
300.141
300.033
300.008
300.01
300.017
300.031
300.064
300.126
300.272
300.03
300.014
300.017
300.026
300.041
300.079
300.141
300.247
300.426
300.027
300.019
300.023
300.032
300.052
300.087
300.148
300.244
300.368
300.518
300.025
300.024
300.028
300.04
300.06
300.093
300.148
300.226
300.323
300.415
300.507
300.023
300.026
300.033
300.046
300.066
300.097
300.142
300.202
300.269
300.334
300.391
300.438
300.021
300.029
300.039
300.052
300.071
300.098
300.134
300.176
300.22
300.263
300.302
300.333
300.36
300.018
300.031
300.042
300.057
300.074
300.096
300.122
300.15
300.178
300.206
300.23
300.251
300.268
300.283
300.017
300.031
300.044
300.058
300.074
300.091
300.109
300.126
300.143
300.159
300.173
300.186
300.197
300.205
300.212
300.018
300.03
300.042
300.054
300.065
300.078
300.09
300.102
300.113
300.122
300.131
300.138
300.144
300.149
300.153
300.157
300.029
300.043
300.054
300.061
300.068
300.075
300.08
300.085
300.088
300.092
300.095
300.097
300.099
300.101
300.103
300.104
300.104
300.029
300.018
299.978
300.019
299.954
299.989
300.023
299.958
299.961
300.003
300.027
299.968
299.967
299.971
300.02
300.031
299.979
299.978
299.979
299.992
300.064
300.032
299.989
299.989
299.992
300.004
300.025
300.138
300.032
299.997
299.999
300.004
300.017
300.045
300.109
300.273
300.03
300.005
300.007
300.014
300.028
300.064
300.125
300.24
300.458
300.028
300.012
300.015
300.023
300.038
300.074
300.137
300.245
300.397
300.606
300.026
300.018
300.022
300.03
300.049
300.083
300.142
300.237
300.363
300.497
300.637
300.023
300.022
300.026
300.038
300.057
300.09
300.143
300.219
300.314
300.41
300.495
300.562
300.021
300.024
300.032
300.044
300.063
300.094
300.138
300.196
300.262
300.325
300.385
300.429
300.468
300.019
300.028
300.037
300.05
300.069
300.095
300.13
300.171
300.213
300.255
300.294
300.327
300.353
300.377
300.017
300.029
300.041
300.055
300.072
300.093
300.118
300.145
300.173
300.199
300.223
300.245
300.263
300.278
300.291
300.017
300.03
300.042
300.056
300.071
300.088
300.105
300.122
300.139
300.154
300.168
300.181
300.192
300.201
300.209
300.215
300.018
300.029
300.04
300.052
300.063
300.075
300.087
300.099
300.109
300.119
300.127
300.134
300.14
300.146
300.151
300.154
300.158
300.027
300.04
300.051
300.059
300.066
300.072
300.077
300.081
300.085
300.089
300.092
300.094
300.097
300.099
300.101
300.103
300.104
300.104
300.028
300.014
299.979
300.013
299.947
299.992
300.017
299.949
299.954
300.006
300.022
299.957
299.958
299.963
300.022
300.026
299.968
299.967
299.969
299.982
300.069
300.028
299.977
299.978
299.98
299.991
300.011
300.141
300.029
299.986
299.987
299.991
300.004
300.026
300.097
300.278
300.029
299.995
299.995
300
300.014
300.047
300.109
300.229
300.483
300.028
300.003
300.004
300.01
300.023
300.058
300.122
300.238
300.415
300.687
300.026
300.011
300.013
300.02
300.034
300.069
300.13
300.237
300.393
300.571
300.775
300.024
300.016
300.02
300.028
300.046
300.079
300.136
300.227
300.352
300.492
300.615
300.717
300.021
300.02
300.025
300.036
300.055
300.087
300.138
300.212
300.304
300.398
300.489
300.55
300.6
300.02
300.023
300.03
300.042
300.061
300.091
300.134
300.189
300.253
300.315
300.374
300.423
300.458
300.49
300.018
300.026
300.035
300.048
300.067
300.092
300.126
300.165
300.206
300.247
300.285
300.318
300.347
300.369
300.389
300.016
300.028
300.039
300.053
300.069
300.09
300.114
300.14
300.167
300.193
300.216
300.238
300.256
300.273
300.285
300.296
300.017
300.029
300.041
300.054
300.069
300.085
300.102
300.118
300.134
300.149
300.163
300.175
300.187
300.196
300.205
300.211
300.217
300.017
300.028
300.039
300.05
300.061
300.073
300.084
300.095
300.106
300.115
300.123
300.13
300.137
300.142
300.147
300.152
300.155
300.159
300.025
300.038
300.048
300.056
300.063
300.069
300.074
300.078
300.082
300.085
300.089
300.091
300.094
300.096
300.099
300.101
300.103
300.104
300.103
300.029
300.01
299.981
300.008
299.942
299.996
300.011
299.942
299.949
300.011
300.016
299.949
299.95
299.957
300.026
300.02
299.957
299.958
299.96
299.974
300.076
300.023
299.966
299.967
299.97
299.98
300.002
300.147
300.025
299.974
299.975
299.979
299.992
300.012
300.088
300.285
300.026
299.982
299.982
299.986
300.001
300.031
300.098
300.22
300.504
300.026
299.992
299.991
299.995
300.009
300.04
300.108
300.228
300.424
300.758
300.026
300.001
300.002
300.006
300.018
300.051
300.113
300.23
300.41
300.637
300.919
300.024
300.009
300.011
300.018
300.03
300.063
300.121
300.224
300.379
300.565
300.74
300.898
300.022
300.015
300.018
300.026
300.044
300.075
300.13
300.218
300.338
300.476
300.609
300.698
300.764
300.019
300.019
300.023
300.034
300.052
300.084
300.133
300.205
300.294
300.385
300.474
300.543
300.588
300.625
300.018
300.02
300.029
300.04
300.059
300.087
300.129
300.183
300.244
300.304
300.362
300.41
300.451
300.48
300.508
300.017
300.024
300.034
300.046
300.064
300.089
300.121
300.159
300.198
300.238
300.275
300.308
300.337
300.363
300.382
300.399
300.016
300.027
300.037
300.051
300.067
300.087
300.11
300.135
300.161
300.185
300.209
300.23
300.249
300.265
300.28
300.291
300.301
300.016
300.029
300.04
300.052
300.066
300.082
300.098
300.114
300.129
300.144
300.157
300.17
300.181
300.191
300.2
300.208
300.214
300.219
300.015
300.026
300.037
300.048
300.059
300.07
300.081
300.092
300.102
300.111
300.119
300.126
300.133
300.138
300.144
300.149
300.153
300.156
300.16
300.023
300.036
300.046
300.053
300.06
300.066
300.071
300.075
300.079
300.082
300.085
300.088
300.091
300.093
300.096
300.098
300.101
300.102
300.103
300.103
300.029
300.007
299.984
300.004
299.939
300
300.006
299.936
299.946
300.016
300.011
299.941
299.945
299.953
300.031
300.015
299.949
299.952
299.954
299.968
300.083
300.017
299.956
299.959
299.963
299.972
299.997
300.152
300.019
299.962
299.964
299.97
299.983
300.005
300.08
300.292
300.021
299.969
299.97
299.975
299.99
300.021
300.09
300.211
300.522
300.023
299.979
299.978
299.98
299.996
300.025
300.098
300.221
300.43
300.817
300.024
299.989
299.988
299.99
300.002
300.032
300.098
300.222
300.42
300.688
301.053
300.023
299.999
299.999
300.002
300.013
300.044
300.103
300.216
300.396
300.63
300.863
301.107
300.022
300.007
300.009
300.015
300.026
300.058
300.113
300.212
300.362
300.547
300.733
300.868
300.967
300.02
300.013
300.016
300.023
300.041
300.071
300.124
300.208
300.325
300.458
300.59
300.692
300.749
300.788
300.017
300.016
300.02
300.032
300.049
300.08
300.128
300.197
300.283
300.372
300.459
300.527
300.58
300.613
300.644
300.016
300.019
300.027
300.038
300.056
300.084
300.124
300.176
300.234
300.293
300.349
300.396
300.437
300.472
300.497
300.522
300.015
300.023
300.032
300.044
300.061
300.086
300.116
300.153
300.19
300.229
300.264
300.297
300.326
300.352
300.375
300.391
300.408
300.015
300.026
300.036
300.048
300.064
300.084
300.106
300.13
300.154
300.178
300.2
300.221
300.24
300.257
300.273
300.286
300.296
300.306
300.014
300.027
300.038
300.05
300.063
300.078
300.094
300.109
300.124
300.138
300.151
300.164
300.175
300.185
300.194
300.203
300.21
300.216
300.221
300.014
300.025
300.035
300.046
300.057
300.068
300.078
300.088
300.098
300.107
300.115
300.122
300.129
300.134
300.14
300.145
300.15
300.154
300.158
300.161
300.022
300.033
300.043
300.05
300.057
300.062
300.068
300.072
300.076
300.079
300.082
300.085
300.088
300.09
300.093
300.096
300.098
300.1
300.102
300.102
300.102
300.03
300.005
299.987
300.001
299.936
300.004
300.002
299.932
299.943
300.02
300.006
299.936
299.941
299.949
300.035
300.009
299.943
299.947
299.949
299.963
300.089
300.012
299.948
299.953
299.959
299.966
299.994
300.158
300.013
299.952
299.956
299.964
299.977
300.002
300.072
300.299
300.015
299.957
299.959
299.965
299.982
300.017
300.084
300.202
300.535
300.017
299.965
299.965
299.967
299.983
300.016
300.093
300.215
300.43
300.863
300.02
299.976
299.974
299.975
299.987
300.013
300.088
300.218
300.429
300.727
301.17
300.021
299.987
299.985
299.985
299.996
300.023
300.086
300.206
300.407
300.683
300.973
301.323
300.021
299.997
299.997
299.999
300.008
300.038
300.093
300.201
300.375
300.61
300.855
301.058
301.219
300.02
300.005
300.006
300.011
300.023
300.053
300.106
300.2
300.344
300.524
300.71
300.862
300.945
300.985
300.017
300.011
300.013
300.021
300.038
300.067
300.117
300.198
300.31
300.439
300.569
300.671
300.742
300.774
300.799
300.015
300.014
300.019
300.03
300.047
300.076
300.122
300.189
300.271
300.358
300.441
300.509
300.563
300.605
300.631
300.659
300.014
300.017
300.025
300.036
300.054
300.081
300.119
300.168
300.225
300.281
300.334
300.381
300.422
300.457
300.489
300.51
300.533
300.014
300.021
300.03
300.042
300.059
300.082
300.112
300.147
300.182
300.219
300.253
300.284
300.314
300.34
300.364
300.384
300.399
300.414
300.014
300.024
300.035
300.047
300.061
300.08
300.101
300.124
300.148
300.17
300.192
300.212
300.231
300.249
300.264
300.278
300.291
300.3
300.309
300.013
300.024
300.035
300.047
300.061
300.075
300.09
300.104
300.118
300.132
300.145
300.157
300.168
300.179
300.188
300.197
300.205
300.212
300.218
300.223
300.013
300.023
300.033
300.043
300.054
300.064
300.075
300.085
300.094
300.103
300.111
300.118
300.124
300.13
300.136
300.141
300.146
300.151
300.155
300.159
300.162
300.02
300.031
300.04
300.047
300.054
300.059
300.064
300.069
300.073
300.076
300.079
300.082
300.085
300.087
300.09
300.093
300.095
300.098
300.1
300.101
300.102
300.101
300.032
300.004
299.991
299.998
299.934
300.008
299.998
299.929
299.941
300.024
300.002
299.933
299.938
299.946
300.046
300.005
299.939
299.944
299.946
299.959
300.099
300.006
299.942
299.95
299.956
299.961
299.99
300.167
300.007
299.944
299.95
299.961
299.974
300
300.064
300.307
300.009
299.947
299.95
299.958
299.977
300.017
300.078
300.193
300.546
300.011
299.953
299.953
299.957
299.975
300.013
300.09
300.208
300.425
300.896
300.014
299.962
299.96
299.96
299.973
300.001
300.083
300.215
300.431
300.749
301.262
300.016
299.973
299.97
299.969
299.979
300.002
300.074
300.201
300.418
300.724
301.064
301.527
300.018
299.984
299.982
299.981
299.99
300.015
300.074
300.188
300.383
300.662
300.965
301.248
301.5
300.018
299.995
299.994
299.996
300.003
300.031
300.084
300.186
300.353
300.582
300.83
301.053
301.184
301.243
300.017
300.003
300.004
300.008
300.02
300.048
300.098
300.188
300.325
300.501
300.683
300.838
300.939
300.971
300.977
300.015
300.008
300.01
300.019
300.034
300.062
300.111
300.188
300.295
300.42
300.546
300.647
300.72
300.767
300.784
300.806
300.013
300.012
300.017
300.027
300.044
300.072
300.117
300.18
300.259
300.343
300.423
300.489
300.542
300.586
300.623
300.644
300.671
300.012
300.016
300.023
300.034
300.051
300.077
300.114
300.161
300.215
300.268
300.319
300.364
300.404
300.441
300.473
300.502
300.521
300.543
300.013
300.021
300.029
300.04
300.056
300.079
300.107
300.14
300.174
300.208
300.241
300.271
300.3
300.327
300.351
300.373
300.392
300.406
300.42
300.012
300.022
300.032
300.045
300.059
300.077
300.096
300.119
300.141
300.162
300.183
300.203
300.222
300.239
300.255
300.27
300.283
300.295
300.304
300.313
300.012
300.022
300.033
300.044
300.057
300.071
300.086
300.099
300.113
300.126
300.139
300.15
300.162
300.172
300.182
300.191
300.199
300.207
300.214
300.22
300.225
300.012
300.022
300.031
300.041
300.051
300.061
300.071
300.081
300.09
300.099
300.106
300.113
300.12
300.126
300.132
300.137
300.142
300.147
300.152
300.156
300.16
300.163
300.018
300.029
300.038
300.044
300.051
300.056
300.061
300.066
300.069
300.073
300.076
300.079
300.082
300.084
300.087
300.09
300.092
300.095
300.097
300.099
300.1
300.101
300.1
300.033
300.002
299.994
299.996
299.933
300.012
299.996
299.926
299.939
300.028
299.998
299.931
299.935
299.944
300.056
300.001
299.937
299.942
299.943
299.955
300.108
300.002
299.938
299.948
299.954
299.957
299.986
300.176
300.002
299.938
299.947
299.959
299.972
299.996
300.055
300.316
300.003
299.938
299.944
299.954
299.975
300.017
300.071
300.185
300.558
300.004
299.942
299.943
299.949
299.969
300.013
300.088
300.202
300.419
300.92
300.007
299.95
299.947
299.948
299.964
299.996
300.081
300.213
300.43
300.76
301.333
300.01
299.959
299.956
299.954
299.964
299.989
300.068
300.199
300.424
300.748
301.127
301.698
300.013
299.971
299.967
299.965
299.973
299.993
300.06
300.18
300.391
300.705
301.058
301.42
301.789
300.015
299.982
299.98
299.978
299.984
300.008
300.063
300.17
300.356
300.63
300.937
301.244
301.441
301.56
300.015
299.993
299.992
299.993
299.999
300.026
300.074
300.171
300.331
300.553
300.797
301.027
301.179
301.229
301.218
300.014
300
300.001
300.005
300.017
300.043
300.09
300.176
300.307
300.476
300.655
300.809
300.915
300.97
300.965
300.965
300.013
300.006
300.008
300.016
300.031
300.058
300.104
300.178
300.28
300.399
300.522
300.621
300.693
300.745
300.778
300.789
300.811
300.011
300.01
300.015
300.025
300.041
300.068
300.111
300.172
300.247
300.327
300.404
300.467
300.52
300.564
300.602
300.636
300.655
300.68
300.011
300.015
300.022
300.032
300.048
300.074
300.109
300.155
300.205
300.255
300.303
300.346
300.386
300.422
300.456
300.486
300.513
300.53
300.551
300.012
300.019
300.028
300.039
300.055
300.075
300.102
300.133
300.165
300.198
300.229
300.258
300.286
300.313
300.338
300.36
300.381
300.399
300.412
300.426
300.01
300.02
300.029
300.041
300.056
300.073
300.093
300.113
300.134
300.154
300.174
300.193
300.211
300.229
300.245
300.26
300.274
300.287
300.299
300.308
300.317
300.01
300.021
300.031
300.042
300.053
300.067
300.081
300.094
300.107
300.12
300.132
300.144
300.155
300.165
300.175
300.184
300.193
300.201
300.209
300.216
300.222
300.227
300.01
300.02
300.029
300.039
300.048
300.058
300.067
300.077
300.086
300.094
300.102
300.109
300.115
300.122
300.127
300.133
300.138
300.143
300.148
300.153
300.157
300.161
300.164
300.016
300.026
300.035
300.041
300.048
300.053
300.058
300.062
300.066
300.07
300.073
300.076
300.079
300.081
300.084
300.087
300.089
300.092
300.094
300.097
300.098
300.099
300.1
300.099
300.034
300.002
299.997
299.994
299.932
300.016
299.993
299.924
299.938
300.033
299.996
299.929
299.933
299.942
300.065
299.998
299.936
299.94
299.94
299.952
300.116
299.998
299.936
299.947
299.953
299.953
299.981
300.184
299.997
299.934
299.945
299.959
299.97
299.992
300.047
300.325
299.997
299.932
299.939
299.953
299.975
300.016
300.064
300.177
300.568
299.998
299.933
299.935
299.944
299.967
300.015
300.086
300.196
300.412
300.938
300
299.938
299.936
299.938
299.958
299.997
300.08
300.213
300.426
300.764
301.389
300.003
299.947
299.942
299.939
299.952
299.981
300.065
300.198
300.427
300.762
301.173
301.836
300.007
299.957
299.952
299.948
299.955
299.978
300.051
300.175
300.397
300.731
301.123
301.554
302.054
300.01
299.969
299.964
299.96
299.967
299.985
300.046
300.159
300.36
300.669
301.031
301.417
301.695
301.918
300.012
299.98
299.977
299.975
299.979
300.002
300.052
300.154
300.33
300.595
300.899
301.216
301.437
301.536
301.527
300.012
299.99
299.989
299.99
299.995
300.02
300.066
300.157
300.309
300.524
300.761
300.993
301.153
301.234
301.211
301.178
300.012
299.998
299.998
300.002
300.014
300.038
300.083
300.164
300.289
300.452
300.625
300.777
300.883
300.946
300.966
300.953
300.953
300.01
300.004
300.005
300.014
300.027
300.053
300.098
300.168
300.266
300.38
300.496
300.592
300.663
300.716
300.753
300.783
300.792
300.815
300.009
300.008
300.013
300.022
300.038
300.064
300.105
300.163
300.235
300.311
300.383
300.444
300.495
300.539
300.579
300.614
300.646
300.663
300.689
300.01
300.014
300.021
300.031
300.047
300.07
300.105
300.148
300.195
300.242
300.287
300.327
300.365
300.402
300.436
300.468
300.496
300.521
300.538
300.558
300.01
300.017
300.025
300.036
300.052
300.073
300.099
300.126
300.157
300.187
300.216
300.244
300.271
300.298
300.323
300.346
300.368
300.387
300.405
300.418
300.432
300.008
300.018
300.027
300.038
300.052
300.068
300.087
300.108
300.127
300.146
300.165
300.183
300.201
300.218
300.235
300.25
300.265
300.278
300.291
300.303
300.312
300.321
300.009
300.019
300.029
300.039
300.05
300.063
300.076
300.089
300.101
300.114
300.125
300.137
300.148
300.158
300.168
300.177
300.186
300.195
300.203
300.211
300.218
300.224
300.229
300.009
300.018
300.027
300.036
300.045
300.054
300.063
300.072
300.081
300.089
300.097
300.104
300.111
300.117
300.123
300.128
300.134
300.139
300.144
300.149
300.154
300.159
300.162
300.165
300.015
300.024
300.032
300.038
300.045
300.05
300.055
300.059
300.063
300.066
300.07
300.073
300.076
300.078
300.081
300.084
300.086
300.089
300.092
300.094
300.096
300.098
300.098
300.099
300.097
300.035
300.001
300
299.993
299.931
300.02
299.992
299.923
299.937
300.038
299.994
299.927
299.931
299.939
300.073
299.996
299.935
299.939
299.937
299.948
300.123
299.995
299.935
299.947
299.951
299.95
299.975
300.193
299.993
299.931
299.945
299.959
299.968
299.988
300.039
300.335
299.992
299.927
299.937
299.952
299.975
300.015
300.058
300.168
300.578
299.992
299.926
299.93
299.941
299.967
300.016
300.084
300.19
300.403
300.952
299.993
299.928
299.927
299.932
299.955
300
300.08
300.212
300.422
300.762
301.433
299.996
299.935
299.93
299.928
299.945
299.978
300.064
300.2
300.43
300.768
301.205
301.941
300
299.945
299.938
299.932
299.942
299.967
300.046
300.173
300.402
300.75
301.173
301.656
302.287
300.004
299.956
299.949
299.943
299.948
299.967
300.034
300.151
300.364
300.694
301.101
301.549
301.918
302.278
300.007
299.967
299.962
299.956
299.961
299.977
300.034
300.139
300.33
300.629
300.989
301.387
301.693
301.873
301.906
300.009
299.979
299.975
299.972
299.974
299.996
300.042
300.137
300.304
300.559
300.858
301.176
301.41
301.547
301.525
301.461
300.01
299.988
299.986
299.986
299.991
300.015
300.058
300.144
300.287
300.494
300.725
300.955
301.116
301.211
301.221
301.177
301.136
300.009
299.995
299.995
299.999
300.01
300.033
300.077
300.154
300.272
300.427
300.594
300.743
300.848
300.913
300.941
300.954
300.94
300.943
300.007
300.001
300.003
300.011
300.023
300.048
300.091
300.158
300.251
300.36
300.47
300.561
300.63
300.682
300.723
300.757
300.786
300.795
300.82
300.007
300.007
300.012
300.02
300.035
300.06
300.099
300.154
300.222
300.294
300.362
300.419
300.468
300.511
300.552
300.59
300.624
300.654
300.671
300.696
300.009
300.013
300.02
300.03
300.046
300.069
300.1
300.141
300.185
300.229
300.271
300.308
300.344
300.38
300.415
300.447
300.478
300.504
300.529
300.545
300.566
300.007
300.014
300.022
300.033
300.048
300.069
300.093
300.121
300.149
300.177
300.204
300.23
300.256
300.282
300.307
300.331
300.353
300.374
300.393
300.41
300.424
300.438
300.007
300.016
300.025
300.036
300.049
300.064
300.082
300.101
300.12
300.138
300.156
300.173
300.19
300.207
300.224
300.239
300.254
300.269
300.282
300.295
300.307
300.316
300.325
300.007
300.017
300.026
300.036
300.047
300.059
300.072
300.083
300.095
300.107
300.119
300.13
300.14
300.151
300.161
300.17
300.179
300.188
300.197
300.205
300.213
300.22
300.226
300.23
300.008
300.017
300.025
300.033
300.042
300.051
300.059
300.068
300.076
300.084
300.092
300.099
300.106
300.112
300.118
300.124
300.129
300.135
300.14
300.145
300.15
300.155
300.16
300.163
300.166
300.013
300.021
300.029
300.035
300.041
300.047
300.052
300.056
300.06
300.063
300.066
300.07
300.072
300.075
300.078
300.081
300.083
300.086
300.089
300.091
300.093
300.095
300.097
300.097
300.098
300.096
300.037
300.001
300.003
299.991
299.93
300.022
299.99
299.921
299.936
300.043
299.993
299.926
299.929
299.937
300.08
299.994
299.935
299.937
299.934
299.945
300.13
299.993
299.935
299.947
299.949
299.946
299.968
300.202
299.99
299.93
299.945
299.958
299.966
299.982
300.031
300.345
299.987
299.924
299.936
299.952
299.974
300.013
300.051
300.159
300.59
299.986
299.92
299.927
299.939
299.967
300.016
300.08
300.183
300.393
300.966
299.987
299.92
299.921
299.928
299.953
300.001
300.079
300.209
300.416
300.754
301.466
299.989
299.924
299.92
299.92
299.941
299.978
300.063
300.2
300.43
300.768
301.225
302.018
299.992
299.933
299.925
299.919
299.933
299.961
300.043
300.174
300.406
300.762
301.207
301.728
302.479
299.997
299.943
299.934
299.926
299.933
299.955
300.027
300.147
300.368
300.713
301.157
301.651
302.11
302.61
300.001
299.954
299.946
299.938
299.942
299.958
300.019
300.128
300.33
300.651
301.058
301.521
301.917
302.177
302.308
300.004
299.966
299.959
299.952
299.955
299.971
300.021
300.12
300.3
300.588
300.944
301.341
301.667
301.877
301.881
301.817
300.006
299.977
299.972
299.969
299.97
299.99
300.033
300.122
300.28
300.524
300.816
301.133
301.368
301.527
301.541
301.471
301.384
300.007
299.986
299.984
299.983
299.988
300.01
300.051
300.131
300.266
300.464
300.687
300.916
301.075
301.174
301.2
301.19
301.139
301.098
300.006
299.993
299.992
299.996
300.006
300.028
300.07
300.143
300.256
300.402
300.562
300.707
300.81
300.873
300.906
300.929
300.942
300.928
300.934
300.005
299.998
300.001
300.008
300.02
300.044
300.085
300.149
300.237
300.341
300.444
300.53
300.594
300.644
300.687
300.726
300.76
300.789
300.798
300.823
300.007
300.007
300.012
300.02
300.035
300.058
300.094
300.146
300.21
300.276
300.34
300.394
300.439
300.481
300.522
300.562
300.599
300.632
300.661
300.678
300.704
300.007
300.011
300.017
300.027
300.042
300.065
300.097
300.135
300.174
300.217
300.255
300.289
300.323
300.357
300.391
300.425
300.456
300.486
300.512
300.536
300.552
300.574
300.005
300.012
300.02
300.03
300.044
300.064
300.087
300.113
300.141
300.167
300.191
300.216
300.241
300.266
300.29
300.314
300.337
300.359
300.38
300.398
300.416
300.43
300.445
300.005
300.014
300.023
300.034
300.046
300.06
300.077
300.095
300.112
300.129
300.147
300.163
300.18
300.196
300.212
300.228
300.243
300.258
300.272
300.286
300.299
300.311
300.321
300.329
300.005
300.015
300.024
300.033
300.044
300.056
300.067
300.078
300.089
300.1
300.112
300.123
300.133
300.143
300.153
300.163
300.172
300.181
300.19
300.199
300.207
300.215
300.222
300.228
300.232
300.007
300.015
300.022
300.031
300.039
300.047
300.055
300.064
300.072
300.08
300.087
300.094
300.101
300.107
300.113
300.119
300.125
300.13
300.136
300.141
300.146
300.151
300.156
300.161
300.164
300.166
300.011
300.019
300.026
300.032
300.038
300.043
300.048
300.053
300.056
300.06
300.063
300.066
300.069
300.072
300.075
300.078
300.081
300.083
300.086
300.088
300.09
300.093
300.094
300.096
300.096
300.096
300.095
300.038
300
300.005
299.991
299.93
300.025
299.989
299.92
299.935
300.047
299.992
299.925
299.928
299.935
300.087
299.993
299.934
299.936
299.931
299.942
300.137
299.991
299.934
299.947
299.947
299.942
299.962
300.213
299.988
299.929
299.945
299.957
299.963
299.977
300.023
300.358
299.984
299.921
299.935
299.952
299.973
300.009