/*--------------------------------*- C++ -*----------------------------------*\
| =========                 |                                                 |
| \\      /  F ield         | OpenFOAM: The Open Source CFD Toolbox           |
|  \\    /   O peration     | Version:  v2012                                 |
|   \\  /    A nd           | Website:  www.openfoam.com                      |
|    \\/     M anipulation  |                                                 |
\*---------------------------------------------------------------------------*/
FoamFile
{
    version     2.0;
    format      ascii;
    class       volScalarField;
    location    "15001";
    object      TuM;
}
// * * * * * * * * * * * * * * * * * * * * * * * * * * * * * * * * * * * * * //

dimensions      [0 0 0 0 0 0 0];


internalField   nonuniform List<scalar> 
294912
(
0.00200703
0.000783385
0.00200546
0.00199578
0.000488685
0.000781467
0.000775321
0.00200426
0.00199432
0.00198633
0.000378334
0.000486843
0.000484078
0.000779735
0.000773603
0.000768746
0.00200333
0.00199318
0.00198499
0.00197834
0.000328123
0.000376844
0.000379298
0.000485148
0.000482488
0.000481933
0.000777659
0.000772086
0.000767209
0.000763458
0.00200218
0.00199169
0.00198392
0.00197719
0.00197164
0.000302784
0.000327069
0.000334601
0.000375477
0.000378116
0.000383844
0.00048305
0.000481073
0.000480592
0.000482479
0.000774895
0.000769969
0.000765907
0.000762126
0.000759502
0.00200047
0.00198885
0.00198204
0.0019764
0.00197072
0.00196602
0.000288926
0.000302103
0.000313354
0.000326107
0.000333846
0.000344661
0.000373826
0.000377069
0.000382946
0.000391803
0.000480278
0.000479201
0.00047946
0.000481392
0.000485882
0.000771641
0.000766681
0.000763889
0.000761111
0.000758384
0.000757002
0.00199786
0.00198447
0.00197808
0.00197468
0.00197032
0.00196534
0.00196139
0.00028075
0.000288514
0.000302153
0.000301484
0.000312916
0.00032686
0.000324978
0.000333184
0.000344149
0.000357581
0.000371713
0.000375763
0.000382193
0.000391153
0.000402673
0.000477102
0.000476513
0.000477904
0.000480551
0.000485037
0.000492024
0.000767789
0.000762496
0.000760426
0.000759404
0.000757671
0.000756089
0.00075609
0.00199403
0.00197841
0.00197193
0.00197046
0.00196907
0.00196539
0.00196097
0.00195755
0.000275568
0.000280523
0.000295602
0.000288146
0.000301922
0.000317584
0.000300777
0.000312539
0.000326599
0.000342364
0.000323582
0.000332391
0.000343731
0.000357254
0.00037246
0.000369342
0.000373996
0.000381241
0.000390659
0.000402227
0.00041566
0.000473519
0.000473281
0.00047552
0.00047939
0.000484469
0.000491399
0.000500464
0.000763254
0.000757379
0.000755815
0.000756173
0.000756407
0.000755669
0.000755371
0.000756819
0.00198877
0.0019705
0.00196348
0.00196367
0.00196513
0.00196474
0.00196145
0.00195737
0.0019544
0.000272063
0.000275464
0.000291377
0.000280324
0.000295503
0.00031205
0.000287729
0.000301732
0.000317474
0.000334315
0.000299922
0.000312098
0.000326399
0.000342225
0.00035896
0.000322047
0.000331363
0.000343226
0.000357026
0.000372267
0.00038836
0.000366752
0.000371951
0.000379892
0.000390046
0.000401948
0.000415374
0.000429836
0.00046952
0.00046954
0.000472553
0.000477493
0.000483727
0.000491074
0.000500027
0.000510498
0.000757961
0.000751325
0.000750068
0.00075168
0.000753694
0.000754934
0.000755227
0.000756283
0.000759049
0.00198185
0.00196068
0.00195272
0.00195426
0.00195842
0.00196149
0.00196153
0.00195821
0.00195436
0.00195199
0.000269567
0.000272044
0.000288418
0.00027538
0.000291362
0.000308323
0.0002801
0.000295431
0.000312031
0.000329305
0.000287233
0.000301509
0.000317405
0.000334282
0.000351564
0.000298997
0.000311538
0.000326161
0.000342152
0.000358902
0.000375847
0.000320413
0.000330205
0.000342538
0.000356755
0.000372182
0.000388261
0.000404428
0.000363959
0.000369677
0.000378293
0.000389128
0.000401629
0.000415266
0.000429671
0.000444296
0.000465101
0.000465317
0.000469057
0.000475052
0.000482407
0.000490737
0.000499914
0.000510222
0.000521297
0.00075186
0.000744335
0.00074323
0.000745973
0.00074972
0.00075297
0.000755084
0.000756378
0.000758682
0.000762473
0.00197313
0.00194892
0.00193972
0.00194226
0.00194896
0.00195545
0.0019592
0.00195903
0.00195563
0.00195216
0.00195059
0.000267729
0.000269608
0.000286222
0.000272039
0.000288462
0.00030557
0.000275282
0.000291369
0.000308364
0.000325734
0.00027983
0.000295344
0.000312044
0.000329337
0.00034672
0.0002867
0.000301224
0.000317321
0.000334299
0.000351584
0.000368698
0.000298032
0.000310917
0.000325834
0.000342066
0.000358923
0.000375846
0.000392367
0.000318699
0.000328959
0.000341747
0.000356353
0.000372092
0.000388285
0.000404397
0.000419961
0.000360979
0.000367206
0.000376492
0.000388012
0.000401102
0.00041519
0.000429701
0.000444221
0.000458259
0.000460267
0.000460646
0.00046508
0.00047212
0.000480624
0.00049001
0.000499945
0.000510284
0.000521151
0.000532062
0.000744924
0.000736454
0.000735368
0.00073912
0.000744545
0.000749827
0.000754024
0.00075685
0.00075899
0.000762249
0.000766618
0.00196249
0.00193535
0.0019246
0.00192781
0.0019368
0.00194659
0.00195412
0.00195788
0.00195745
0.0019537
0.00195086
0.00195036
0.000266355
0.000267815
0.000284543
0.000269661
0.000286309
0.00030342
0.000272027
0.000288522
0.000305653
0.000322944
0.000275157
0.000291368
0.00030843
0.000325812
0.000343068
0.000279541
0.000295221
0.000312051
0.000329411
0.000346791
0.000363777
0.000286151
0.000300909
0.000317189
0.000334315
0.000351666
0.000368756
0.000385202
0.000297042
0.000310264
0.000325462
0.000341915
0.00035895
0.00037594
0.000392407
0.000408002
0.000316922
0.000327647
0.00034089
0.000355879
0.000371916
0.000388336
0.000404507
0.000419977
0.000434411
0.000357831
0.000364567
0.000374525
0.000386739
0.000400434
0.000414989
0.000429818
0.00044436
0.00045825
0.000471132
0.000455032
0.000455578
0.000460682
0.000468752
0.000478427
0.000488924
0.000499771
0.00051063
0.000521363
0.00053202
0.000542146
0.000737148
0.000727736
0.000726576
0.000731222
0.000738247
0.000745552
0.00075194
0.000756816
0.000760073
0.000762736
0.000766511
0.000770966
0.00194984
0.00192002
0.00190752
0.00191108
0.00192212
0.001935
0.00194629
0.00195414
0.0019577
0.00195655
0.00195265
0.00195075
0.00195156
0.000265336
0.000266475
0.000283257
0.000267911
0.000284662
0.000301711
0.00026971
0.00028641
0.000303535
0.000320663
0.000271999
0.000288582
0.000305758
0.000323053
0.000340062
0.000275021
0.000291346
0.000308497
0.000325923
0.000343173
0.00035987
0.000279245
0.000295081
0.000312031
0.000329488
0.000346913
0.000363878
0.000380051
0.000285599
0.000300581
0.000317034
0.000334295
0.000351759
0.000368892
0.00038529
0.000400671
0.000296039
0.000309595
0.00032507
0.000341734
0.000358933
0.000376056
0.000392561
0.000408071
0.000422357
0.000315097
0.000326289
0.000339989
0.000355364
0.000371695
0.000388333
0.000404669
0.000420156
0.000434459
0.000447399
0.000354538
0.000361798
0.000372428
0.000385341
0.000399658
0.000414702
0.000429879
0.00044463
0.000458477
0.000471168
0.00048253
0.000449428
0.000450166
0.000455932
0.000465018
0.000475863
0.000487511
0.000499346
0.00051094
0.000521965
0.000532354
0.000542179
0.000551116
0.000728544
0.000718276
0.000716964
0.000722416
0.000730946
0.000740234
0.000748856
0.000755945
0.000761103
0.000764389
0.000767146
0.000770968
0.00077512
0.00193513
0.00190302
0.00188877
0.00189238
0.00190512
0.00192087
0.00193578
0.00194773
0.00195556
0.00195867
0.00195672
0.00195265
0.0019519
0.00195407
0.000264602
0.000265482
0.000282298
0.000266605
0.000283401
0.000300372
0.000268007
0.000284796
0.000301849
0.000318796
0.000269751
0.000286515
0.00030367
0.000320795
0.000337518
0.000271964
0.000288629
0.000305869
0.000323193
0.000340191
0.000356522
0.000274883
0.000291315
0.000308549
0.000326043
0.000343323
0.00036
0.000375778
0.000278953
0.000294937
0.000311998
0.000329545
0.000347049
0.000364044
0.000380177
0.0003952
0.00028505
0.000300253
0.000316873
0.000334259
0.000351826
0.000369052
0.000385475
0.000400784
0.000414793
0.000295032
0.00030892
0.000324672
0.000341546
0.000358896
0.000376142
0.000392753
0.000408275
0.000422448
0.000435162
0.000313239
0.000324903
0.00033906
0.000354827
0.000371457
0.000388307
0.0004048
0.000420407
0.000434695
0.000447469
0.000458707
0.000351127
0.000358932
0.000370235
0.00038385
0.0003988
0.000414354
0.000429898
0.000444895
0.000458867
0.000471464
0.000482593
0.000492271
0.000443504
0.00044448
0.000450907
0.000460991
0.000472994
0.000485809
0.000498687
0.000511097
0.000522668
0.000533155
0.00054261
0.000551199
0.000558783
0.00071914
0.000708174
0.000706696
0.000712853
0.000722785
0.000733989
0.000744837
0.000754235
0.000761511
0.000766433
0.000769279
0.000771721
0.000775183
0.000778824
0.0019183
0.00188455
0.00186861
0.00187204
0.00188615
0.00190446
0.00192285
0.00193881
0.00195106
0.00195873
0.00196112
0.00195803
0.00195392
0.00195442
0.00195737
0.000264104
0.000264765
0.000281623
0.000265639
0.00028246
0.000299371
0.000266739
0.000283562
0.000300527
0.000317322
0.0002681
0.000284939
0.00030201
0.000318945
0.000335407
0.000269788
0.000286615
0.000303817
0.000320958
0.000337662
0.000353627
0.000271928
0.000288671
0.000305972
0.000323347
0.000340362
0.00035667
0.000372001
0.000274748
0.000291282
0.000308592
0.000326153
0.000343493
0.000360188
0.000375929
0.000390492
0.000278666
0.000294796
0.000311962
0.000329592
0.000347171
0.000364236
0.000380386
0.00039535
0.000408967
0.000284509
0.00029993
0.000316717
0.000334222
0.000351881
0.000369191
0.000385695
0.000401012
0.000414926
0.000427353
0.000294029
0.000308248
0.000324276
0.000341362
0.000358864
0.000376218
0.000392923
0.000408533
0.000422696
0.000435268
0.000446264
0.000311363
0.000323504
0.000338118
0.000354278
0.000371216
0.000388287
0.000404927
0.000420645
0.00043502
0.000447749
0.000458788
0.000468266
0.000347636
0.000356006
0.000367985
0.000382296
0.000397881
0.000413961
0.000429898
0.000445154
0.000459288
0.000471947
0.000482942
0.000492348
0.000500354
0.000437312
0.0004386
0.000445692
0.000456754
0.000469889
0.000483865
0.000497812
0.000511103
0.000523302
0.000534158
0.000543557
0.000551703
0.000558897
0.000565162
0.000708975
0.000697559
0.000695949
0.000702704
0.000713945
0.000726969
0.000739991
0.000751726
0.000761253
0.000768067
0.000772199
0.000774218
0.000776038
0.000778939
0.00078203
0.00189931
0.00186479
0.0018474
0.00185047
0.00186562
0.00188618
0.00190774
0.00192756
0.00194422
0.00195663
0.0019639
0.00196512
0.0019607
0.00195643
0.00195767
0.00196076
0.000263803
0.000264278
0.000281201
0.000264943
0.000281794
0.000298691
0.000265804
0.000282641
0.000299537
0.000316242
0.000266875
0.000283738
0.000300709
0.000317481
0.000333759
0.000268192
0.000285084
0.00030219
0.000319128
0.00033556
0.00035123
0.000269824
0.000286713
0.000303965
0.000321144
0.00033785
0.000353785
0.000368703
0.000271895
0.000288712
0.000306071
0.000323499
0.000340559
0.000356873
0.000372164
0.000386235
0.000274619
0.000291251
0.000308634
0.000326256
0.000343655
0.000360406
0.000376154
0.000390662
0.000403793
0.00027839
0.000294661
0.000311932
0.000329639
0.000347283
0.000364416
0.000380632
0.000395599
0.000409136
0.000421172
0.000283979
0.000299617
0.000316569
0.000334195
0.000351942
0.000369322
0.000385899
0.000401287
0.000415193
0.0004275
0.000438227
0.000293035
0.000307585
0.000323889
0.000341189
0.000358847
0.000376309
0.000393091
0.000408776
0.00042301
0.000435552
0.000446377
0.000455631
0.000309488
0.00032211
0.000337177
0.000353728
0.000370979
0.000388282
0.00040508
0.000420895
0.000435345
0.000448135
0.000459102
0.000468349
0.000476135
0.000344103
0.000353064
0.000365714
0.000380707
0.000396919
0.000413533
0.000429886
0.00044543
0.000459732
0.000472485
0.000483495
0.000492733
0.000500432
0.000506915
0.000430916
0.000432619
0.000440385
0.000452388
0.000466624
0.000481735
0.000496754
0.000510963
0.000523858
0.000535158
0.000544771
0.000552754
0.000559451
0.000565285
0.000570422
0.000698121
0.000686569
0.000684906
0.000692198
0.000704605
0.000719342
0.000734453
0.000748493
0.000760331
0.000769208
0.000774902
0.000777799
0.000778785
0.00077986
0.00078217
0.000784845
0.0018782
0.0018439
0.00182547
0.00182812
0.001844
0.00186642
0.00189076
0.00191419
0.00193507
0.00195236
0.00196483
0.00197114
0.00197044
0.00196423
0.0019597
0.00196103
0.00196374
0.000263666
0.00026398
0.000281002
0.00026447
0.000281372
0.000298314
0.000265133
0.000281991
0.000298858
0.000315563
0.000265976
0.000282846
0.000299735
0.000316405
0.000332612
0.000267013
0.000283923
0.000300921
0.00031768
0.000333915
0.000349414
0.000268284
0.00028523
0.000302379
0.000319343
0.000335762
0.000351393
0.000366015
0.000269863
0.000286812
0.000304112
0.000321335
0.000338073
0.000353996
0.000368865
0.000382518
0.000271867
0.000288756
0.000306171
0.000323648
0.000340757
0.000357112
0.000372396
0.00038641
0.000399045
0.000274498
0.000291227
0.000308681
0.00032636
0.000343811
0.000360619
0.00037642
0.000390923
0.000403978
0.00041554
0.000278123
0.000294536
0.000311911
0.000329695
0.000347399
0.000364588
0.000380868
0.000395897
0.000409423
0.000421355
0.000431717
0.000283464
0.000299316
0.000316433
0.000334182
0.000352019
0.000369465
0.000386097
0.000401551
0.00041552
0.000427801
0.000438383
0.000447396
0.000292058
0.000306937
0.000323513
0.000341028
0.000358847
0.000376425
0.000393285
0.000409023
0.000423314
0.000435913
0.000446689
0.000455746
0.000463331
0.000307631
0.000320735
0.000336248
0.000353185
0.000370749
0.000388293
0.000405262
0.000421186
0.000435693
0.000448528
0.000459535
0.000468687
0.000476213
0.000482474
0.000340569
0.000350147
0.000363458
0.000379111
0.000395938
0.000413082
0.000429862
0.000445721
0.000460221
0.00047307
0.00048412
0.000493336
0.000500839
0.000506985
0.000512188
0.000424393
0.000426623
0.000435084
0.000447989
0.000463268
0.000479475
0.00049555
0.000510689
0.000524329
0.000536143
0.000546036
0.000554108
0.000560563
0.00056587
0.000570541
0.000574829
0.000686665
0.000675352
0.00067377
0.000681555
0.000694994
0.000711289
0.000728373
0.000744644
0.000758801
0.000769825
0.000777271
0.000781325
0.000782794
0.000782732
0.000783137
0.000784994
0.000787456
0.00185494
0.00182208
0.00180322
0.00180548
0.0018218
0.00184564
0.00187241
0.0018991
0.00192399
0.0019461
0.001964
0.00197583
0.00197979
0.00197632
0.00196804
0.001963
0.00196383
0.00196628
0.00026366
0.000263838
0.000280998
0.000264179
0.000281166
0.000298221
0.00026468
0.000281577
0.000298473
0.00031528
0.000265338
0.00028222
0.000299067
0.000315718
0.00033199
0.000266154
0.000283069
0.000299976
0.000316615
0.000332761
0.000348251
0.000267152
0.000284115
0.000301151
0.000317926
0.000334126
0.000349573
0.000364076
0.000268378
0.000285378
0.000302573
0.000319575
0.000336011
0.000351608
0.000366168
0.000379568
0.000269905
0.000286912
0.000304261
0.000321528
0.000338307
0.000354255
0.000369098
0.000382683
0.000394929
0.000271845
0.000288805
0.000306274
0.000323799
0.000340954
0.000357356
0.000372678
0.00038667
0.000399227
0.000410325
0.000274385
0.000291211
0.000308735
0.00032647
0.00034397
0.000360828
0.000376685
0.000391236
0.000404272
0.000415737
0.000425663
0.000277868
0.000294421
0.0003119
0.000329762
0.000347526
0.000364766
0.000381096
0.000396187
0.000409768
0.000421674
0.000431911
0.000440596
0.000282962
0.000299027
0.000316309
0.000334182
0.000352112
0.000369628
0.000386312
0.00040181
0.000415835
0.000428171
0.00043871
0.000447557
0.000454926
0.000291104
0.000306307
0.000323152
0.000340881
0.000358865
0.000376566
0.000393513
0.000409304
0.000423629
0.000436269
0.000447089
0.000456076
0.000463442
0.000469521
0.00030581
0.000319395
0.000335341
0.000352654
0.000370528
0.000388319
0.000405472
0.000421521
0.000436097
0.000448956
0.000459982
0.000469153
0.000476563
0.000482541
0.000487511
0.000337079
0.000347295
0.000361251
0.000377538
0.000394954
0.000412618
0.000429831
0.000446022
0.000460751
0.000473726
0.00048481
0.000494022
0.000501475
0.000507402
0.000512242
0.000516455
0.000417829
0.000420708
0.000429881
0.000443643
0.0004599
0.000477144
0.000494236
0.000510302
0.000524712
0.000537092
0.000547336
0.000555548
0.000561998
0.000567014
0.000571139
0.000574933
0.000578689
0.000674726
0.000664072
0.000662747
0.000670993
0.000685335
0.000703024
0.000721921
0.000740321
0.000756734
0.000769942
0.00077925
0.000784658
0.000786855
0.000786951
0.000786046
0.000785982
0.000787592
0.000790105
0.00182945
0.00179948
0.00178103
0.00178308
0.0017995
0.00182438
0.00185313
0.00188268
0.00191132
0.00193799
0.00196126
0.00197883
0.00198817
0.00198844
0.00198145
0.00197132
0.00196573
0.00196632
0.00196807
0.000263757
0.000263822
0.000281158
0.000264038
0.000281145
0.000298385
0.000264404
0.000281371
0.000298361
0.000315379
0.000264911
0.000281826
0.000298685
0.000315417
0.000331899
0.000265552
0.000282478
0.000299333
0.000315935
0.000332123
0.000347783
0.000266335
0.000283304
0.000300247
0.00031689
0.000332981
0.000348398
0.000362987
0.000267292
0.000284309
0.000301392
0.0003182
0.000334403
0.000349793
0.000364214
0.000377574
0.000268474
0.000285528
0.00030277
0.000319815
0.000336283
0.000351885
0.000366395
0.000379714
0.000391771
0.000269951
0.000287017
0.000304414
0.000321726
0.000338546
0.00035453
0.000369391
0.000382932
0.000395089
0.000405855
0.000271827
0.000288859
0.000306384
0.000323956
0.000341155
0.000357601
0.000372967
0.000386991
0.000399511
0.000410509
0.00042003
0.000274279
0.000291201
0.000308797
0.000326588
0.000344138
0.00036104
0.000376945
0.000391551
0.000404629
0.000416059
0.000425868
0.000434171
0.000277623
0.000294315
0.000311898
0.00032984
0.000347667
0.000364958
0.000381333
0.000396468
0.000410107
0.000422062
0.000432257
0.000440797
0.000447873
0.000282477
0.000298751
0.000316196
0.000334195
0.000352222
0.000369812
0.000386553
0.000402089
0.000416147
0.000428531
0.000439116
0.000447903
0.000455086
0.000460967
0.000290179
0.0003057
0.000322806
0.000340745
0.000358897
0.000376728
0.000393771
0.000409628
0.000423986
0.000436639
0.000447485
0.000456504
0.000463782
0.000469622
0.00047441
0.000304045
0.000318102
0.000334466
0.000352139
0.000370318
0.000388357
0.000405705
0.000421896
0.00043656
0.000449454
0.000460473
0.00046964
0.000477051
0.000482894
0.000487562
0.000491509
0.000333678
0.000344546
0.000359125
0.000376008
0.000393983
0.000412149
0.000429792
0.000446328
0.00046131
0.000474441
0.000485591
0.000494787
0.0005022
0.000508055
0.000512659
0.000516488
0.000520013
0.000411321
0.000414965
0.000424863
0.00043943
0.00045659
0.000474797
0.000492855
0.000509826
0.000525013
0.000537996
0.00054864
0.00055706
0.000563544
0.000568485
0.000572294
0.000575531
0.00057877
0.000582305
0.000662382
0.000652909
0.000652036
0.000660736
0.000675843
0.000694743
0.000715285
0.000735654
0.000754221
0.000769584
0.000780812
0.000787706
0.000790832
0.000791289
0.000790301
0.00078886
0.000788593
0.000790227
0.000793025
0.00180169
0.00177622
0.00175919
0.00176131
0.00177774
0.00180321
0.00183346
0.00186532
0.00189734
0.00192832
0.00195679
0.0019802
0.0019953
0.00199998
0.00199527
0.00198506
0.00197395
0.00196817
0.00196811
0.00196939
0.000263931
0.000263903
0.000281451
0.000264016
0.000281282
0.000298772
0.000264272
0.000281343
0.000298497
0.000315829
0.000264658
0.000281634
0.000298568
0.000315485
0.000332321
0.000265158
0.000282116
0.000298972
0.000315634
0.000332004
0.000348011
0.00026577
0.000282756
0.000299644
0.000316237
0.000332348
0.000347904
0.000362787
0.000266515
0.000283544
0.000300537
0.000317209
0.000333286
0.000348622
0.000363104
0.000376649
0.000267433
0.000284505
0.00030164
0.000318491
0.000334717
0.000350089
0.00036444
0.000377698
0.000389795
0.000268573
0.000285681
0.000302973
0.000320063
0.000336569
0.000352194
0.000366698
0.000379947
0.000391901
0.000402551
0.00027
0.000287126
0.000304573
0.000321931
0.000338792
0.000354815
0.000369705
0.000383254
0.00039535
0.000406004
0.000415268
0.000271815
0.000288918
0.000306499
0.00032412
0.000341364
0.000357851
0.000373259
0.000387323
0.000399867
0.000410811
0.000420212
0.000428181
0.000274179
0.000291197
0.000308866
0.000326716
0.000344315
0.000361262
0.000377209
0.000391859
0.000404989
0.000416454
0.000426213
0.000434378
0.000441129
0.000277387
0.000294216
0.000311904
0.000329928
0.00034782
0.000365166
0.000381586
0.00039676
0.000410437
0.000422443
0.00043268
0.000441162
0.000448076
0.000453692
0.000282009
0.000298487
0.000316092
0.000334217
0.000352345
0.000370016
0.000386818
0.0004024
0.000416485
0.000428889
0.000439512
0.000448334
0.000455443
0.00046112
0.000465717
0.000289289
0.000305118
0.000322475
0.000340621
0.000358939
0.000376906
0.000394056
0.000409989
0.000424393
0.00043706
0.0004479
0.00045693
0.000464227
0.000469964
0.000474497
0.000478241
0.000302354
0.000316868
0.000333629
0.000351644
0.000370115
0.000388402
0.000405953
0.000422299
0.00043707
0.00045002
0.000461044
0.000470176
0.000477563
0.000483393
0.000487912
0.000491541
0.000494735
0.000330413
0.000341932
0.000357104
0.000374542
0.000393037
0.000411681
0.000429745
0.000446633
0.000461886
0.000475202
0.000486448
0.000495659
0.000503014
0.0005088
0.000513316
0.000516897
0.000520022
0.000523144
0.000404961
0.000409482
0.000420107
0.000435419
0.000453394
0.000472481
0.000491443
0.000509279
0.000525238
0.000538845
0.000549932
0.000558612
0.000565189
0.000570084
0.00057377
0.000576678
0.000579358
0.000582358
0.000585954
0.000649723
0.000641957
0.000641839
0.000650975
0.000666731
0.000686645
0.000708628
0.000730781
0.000751369
0.000768813
0.000781972
0.000790436
0.000794626
0.000795612
0.000794706
0.000793028
0.000791398
0.000791221
0.000793128
0.000796442
0.00177158
0.00175239
0.00173791
0.00174055
0.00175693
0.00178269
0.0018139
0.00184762
0.0018825
0.0019174
0.0019509
0.00198001
0.00200107
0.00201053
0.00200883
0.00199945
0.00198729
0.00197583
0.00196999
0.00196937
0.00197045
0.000264159
0.000264058
0.000281848
0.000264087
0.000281546
0.000299348
0.000264254
0.000281465
0.000298849
0.000316594
0.000264543
0.000281614
0.000298692
0.000315896
0.00033322
0.000264932
0.00028195
0.000298871
0.000315696
0.000332386
0.000348911
0.000265411
0.000282434
0.00029932
0.000315961
0.000332231
0.000348097
0.000363468
0.000265988
0.000283041
0.000299984
0.000316601
0.000332683
0.000348136
0.000362875
0.000376818
0.000266695
0.000283787
0.000300838
0.000317555
0.000333645
0.000348944
0.000363335
0.000376747
0.000389108
0.000267575
0.000284705
0.000301895
0.000318795
0.000335056
0.000350436
0.000364756
0.000377924
0.000389896
0.000400651
0.000268673
0.000285839
0.000303183
0.000320322
0.000336869
0.000352525
0.000367037
0.000380265
0.000392134
0.000402659
0.000411882
0.000270052
0.000287238
0.000304738
0.000322144
0.000339051
0.000355111
0.000370031
0.000383601
0.000395694
0.000406271
0.000415403
0.000423194
0.000271805
0.000288981
0.00030662
0.000324292
0.000341582
0.000358112
0.000373558
0.000387659
0.000400236
0.000411194
0.000420528
0.000428356
0.000434847
0.000274085
0.000291196
0.000308939
0.00032685
0.000344501
0.000361496
0.000377485
0.000392173
0.000405342
0.000416852
0.000426639
0.000434738
0.000441338
0.000446677
0.00027716
0.000294123
0.000311915
0.000330021
0.000347983
0.000365388
0.000381857
0.000397069
0.000410777
0.000422814
0.000433096
0.000441612
0.000448454
0.000453894
0.000458245
0.00028156
0.000298235
0.000315995
0.000334245
0.000352476
0.000370233
0.000387105
0.000402738
0.000416856
0.000429275
0.000439906
0.000448757
0.000455892
0.000461482
0.00046586
0.000469403
0.000288441
0.000304562
0.00032216
0.000340503
0.000358987
0.000377093
0.000394358
0.00041038
0.000424843
0.000437537
0.000448372
0.000457377
0.000464672
0.000470417
0.000474836
0.000478311
0.000481258
0.000300753
0.000315703
0.000332834
0.000351168
0.000369919
0.000388448
0.000406205
0.000422719
0.000437616
0.000450643
0.000461694
0.000470803
0.000478131
0.000483919
0.000488412
0.000491882
0.000494745
0.000497441
0.000327328
0.000339486
0.000355208
0.000373151
0.000392123
0.000411215
0.000429686
0.000446927
0.000462466
0.00047599
0.000487362
0.000496619
0.000503946
0.000509641
0.000514066
0.000517549
0.000520419
0.000523127
0.000526095
0.000398831
0.000404327
0.000415678
0.000431661
0.00045036
0.000470235
0.000490025
0.000508681
0.000525391
0.000539631
0.000551196
0.000560179
0.000566898
0.000571798
0.000575379
0.000578133
0.000580484
0.00058293
0.000585977
0.000589865
0.000636829
0.000631325
0.00063225
0.000641899
0.000658155
0.000678899
0.000702092
0.000725833
0.000748282
0.000767707
0.000782764
0.000792831
0.000798177
0.000799823
0.000799135
0.000797355
0.000795416
0.000793937
0.000794116
0.00079652
0.000800552
0.00173896
0.00172796
0.00171733
0.00172113
0.00173754
0.00176331
0.00179492
0.00183003
0.00186724
0.0019056
0.00194366
0.0019783
0.00200526
0.00201993
0.00202177
0.00201381
0.00200107
0.00198804
0.00197707
0.00197122
0.00197038
0.00197126
0.000264421
0.000264263
0.000282317
0.000264227
0.000281909
0.000300072
0.000264324
0.00028171
0.000299383
0.000317627
0.000264537
0.000281738
0.000299026
0.000316615
0.000334547
0.000264841
0.000281951
0.000299005
0.000316098
0.000333241
0.000350438
0.000265216
0.000282305
0.000299252
0.000316046
0.000332618
0.000348954
0.000364994
0.000265662
0.000282764
0.00029971
0.000316367
0.000332598
0.000348343
0.00036352
0.000378058
0.000266203
0.00028333
0.00030034
0.000317004
0.000333089
0.000348491
0.000363124
0.000376884
0.000389716
0.000266876
0.000284033
0.000301149
0.000317921
0.000334041
0.000349334
0.000363675
0.000376982
0.00038918
0.000400252
0.000267717
0.000284909
0.000302159
0.000319116
0.000335417
0.000350818
0.000365124
0.000378245
0.000390118
0.000400725
0.000410108
0.000268773
0.000285998
0.000303399
0.000320593
0.000337187
0.000352875
0.000367402
0.000380624
0.000392457
0.000402886
0.000411965
0.00041978
0.000270103
0.000287352
0.000304907
0.000322366
0.000339321
0.000355422
0.000370373
0.000383964
0.000396067
0.000406626
0.000415671
0.000423308
0.000429699
0.000271796
0.000289044
0.000306743
0.000324469
0.000341808
0.000358383
0.000373869
0.000388003
0.00040061
0.000411594
0.000420931
0.000428678
0.000435019
0.000440155
0.000273992
0.000291198
0.000309015
0.000326989
0.000344694
0.000361739
0.000377772
0.000392498
0.0004057
0.000417242
0.000427068
0.000435187
0.000441708
0.000446886
0.00045099
0.000276942
0.000294035
0.000311928
0.000330118
0.000348152
0.000365618
0.000382141
0.000397397
0.000411137
0.000423197
0.000433501
0.000442054
0.000448922
0.000454277
0.000458441
0.00046175
0.00028113
0.000297993
0.000315903
0.000334276
0.000352611
0.000370457
0.000387406
0.0004031
0.00041726
0.000429698
0.000440331
0.000449177
0.000456332
0.00046194
0.000466219
0.000469533
0.000472254
0.00028764
0.000304037
0.000321859
0.000340389
0.000359034
0.000377281
0.000394667
0.000410789
0.000425326
0.000438063
0.000448906
0.000457886
0.00046514
0.000470872
0.00047529
0.000478641
0.00048131
0.000483694
0.00029926
0.000314616
0.000332084
0.000350711
0.000369723
0.000388487
0.000406453
0.000423144
0.000438181
0.000451306
0.000462406
0.000471515
0.000478795
0.000484502
0.00048894
0.000492376
0.000495073
0.000497429
0.000499849
0.000324461
0.00033723
0.000353453
0.000371846
0.000391245
0.000410749
0.000429609
0.0004472
0.000463035
0.000476787
0.000488314
0.000497648
0.000504978
0.000510609
0.000514916
0.000518293
0.000521057
0.000523506
0.000526052
0.000529067
0.000392999
0.000399553
0.000411617
0.000428194
0.000447514
0.000468082
0.000488618
0.000508037
0.000525475
0.000540349
0.000552414
0.000561739
0.000568642
0.000573594
0.000577115
0.000579726
0.000581904
0.000584028
0.00058653
0.000589856
0.000594211
0.000623773
0.000621069
0.000623353
0.00063359
0.000650272
0.000671627
0.000695808
0.00072092
0.000745049
0.000766323
0.000783208
0.000794876
0.000801446
0.000803852
0.000803485
0.000801716
0.00079958
0.000797771
0.000796737
0.000797502
0.000800613
0.000805554
0.00170352
0.00170275
0.00169749
0.00170323
0.00171994
0.0017454
0.00177705
0.00181293
0.00185192
0.00189322
0.00193539
0.00197538
0.00200804
0.00202814
0.00203393
0.00202783
0.002015
0.00200083
0.00198801
0.00197787
0.00197217
0.00197121
0.00197225
0.000264698
0.000264501
0.000282831
0.000264414
0.000282342
0.000300905
0.000264458
0.000282048
0.000300063
0.00031888
0.000264615
0.000281978
0.000299537
0.000317599
0.000336253
0.000264855
0.00028209
0.000299343
0.000316805
0.000334524
0.00035254
0.000265153
0.000282338
0.000299411
0.000316467
0.000333478
0.00035044
0.000367316
0.000265498
0.000282676
0.000299686
0.000316492
0.000333018
0.000349228
0.000365011
0.000380324
0.00026591
0.000283097
0.00030012
0.000316826
0.000333053
0.000348743
0.000363809
0.000378093
0.000391581
0.000266418
0.000283621
0.000300709
0.000317434
0.000333545
0.00034893
0.000363504
0.000377158
0.000389758
0.000401334
0.000267055
0.000284282
0.000301471
0.000318308
0.000334468
0.000349771
0.00036408
0.000377326
0.000389422
0.000400297
0.000410025
0.000267858
0.000285114
0.000302431
0.000319452
0.000335804
0.000351229
0.000365531
0.000378621
0.000390434
0.000400941
0.000410153
0.000418159
0.000268871
0.000286158
0.00030362
0.000320874
0.000337522
0.000353248
0.000367794
0.000381016
0.000392827
0.000403205
0.000412182
0.000419832
0.000426305
0.000270153
0.000287465
0.000305077
0.000322592
0.000339601
0.000355749
0.000370734
0.000384346
0.000396458
0.000407017
0.000416033
0.00042357
0.000429799
0.000434888
0.000271787
0.000289107
0.000306866
0.000324648
0.00034204
0.000358664
0.000374193
0.000388361
0.000400993
0.000411997
0.000421354
0.000429093
0.000435344
0.000440325
0.000444255
0.000273902
0.000291199
0.000309089
0.000327127
0.000344889
0.000361988
0.000378069
0.000392836
0.00040607
0.000417637
0.000427488
0.000435639
0.000442172
0.000447259
0.000451195
0.000454282
0.00027673
0.000293948
0.000311942
0.000330214
0.000348321
0.000365853
0.000382435
0.000397739
0.000411516
0.0004236
0.000433916
0.000442482
0.000449382
0.000454755
0.000458825
0.000461935
0.000464424
0.000280723
0.000297762
0.000315813
0.000334304
0.000352743
0.000370683
0.000387713
0.000403476
0.000417687
0.000430156
0.000440796
0.00044963
0.000456768
0.000462387
0.000466679
0.000469885
0.000472368
0.000474487
0.000286894
0.000303543
0.00032157