/*--------------------------------*- C++ -*----------------------------------*\
| =========                 |                                                 |
| \\      /  F ield         | OpenFOAM: The Open Source CFD Toolbox           |
|  \\    /   O peration     | Version:  v2012                                 |
|   \\  /    A nd           | Website:  www.openfoam.com                      |
|    \\/     M anipulation  |                                                 |
\*---------------------------------------------------------------------------*/
FoamFile
{
    version     2.0;
    format      ascii;
    class       volScalarField;
    location    "15001";
    object      xx;
}
// * * * * * * * * * * * * * * * * * * * * * * * * * * * * * * * * * * * * * //

dimensions      [0 0 0 0 0 0 0];


internalField   nonuniform List<scalar> 
294912
(
0.93054
0.869989
0.930537
0.930638
0.822429
0.869911
0.869363
0.930534
0.930632
0.93071
0.781271
0.822002
0.817318
0.869827
0.869267
0.868332
0.930539
0.930627
0.930701
0.930767
0.749667
0.780467
0.77285
0.821579
0.81686
0.811319
0.869744
0.869164
0.868215
0.866764
0.930558
0.930627
0.930691
0.930754
0.930815
0.728341
0.748787
0.742334
0.779696
0.772132
0.765477
0.821064
0.816418
0.810865
0.805003
0.869681
0.869027
0.868089
0.866632
0.864619
0.930588
0.930635
0.930679
0.930739
0.930799
0.930853
0.71477
0.727615
0.724061
0.747954
0.741684
0.737854
0.778772
0.77146
0.764905
0.760021
0.820425
0.815835
0.810439
0.804592
0.799093
0.869649
0.868857
0.867892
0.866496
0.864481
0.861955
0.930627
0.930649
0.93067
0.930717
0.930781
0.930836
0.930875
0.706218
0.714257
0.713422
0.726933
0.72361
0.722981
0.746991
0.741082
0.737437
0.736177
0.777624
0.770627
0.764384
0.759618
0.756839
0.819724
0.815039
0.809848
0.804224
0.798756
0.794194
0.869638
0.868677
0.867604
0.866257
0.864346
0.861819
0.858958
0.930672
0.93067
0.930662
0.930692
0.930749
0.930814
0.930857
0.93086
0.700785
0.705897
0.707085
0.713778
0.713158
0.714813
0.726164
0.723197
0.722752
0.724276
0.745831
0.740368
0.73706
0.735954
0.736763
0.776349
0.769538
0.763724
0.759266
0.756595
0.755758
0.818946
0.814105
0.808987
0.803701
0.798472
0.793947
0.790631
0.869637
0.868478
0.867259
0.865873
0.864088
0.861696
0.858832
0.855877
0.930722
0.930696
0.930656
0.930664
0.930708
0.930771
0.930833
0.930843
0.930788
0.697327
0.700613
0.703195
0.705597
0.706961
0.710058
0.713248
0.712919
0.714721
0.71789
0.725268
0.722718
0.722548
0.724201
0.727115
0.744567
0.739477
0.736602
0.735762
0.736682
0.738892
0.77495
0.768289
0.762823
0.758815
0.756394
0.755643
0.756285
0.818075
0.813025
0.807935
0.802896
0.798072
0.793756
0.790474
0.788424
0.869632
0.868252
0.86685
0.865387
0.86364
0.861447
0.858732
0.855771
0.852975
0.930774
0.930724
0.930651
0.930634
0.930659
0.93071
0.930776
0.930816
0.930772
0.930644
0.695195
0.697272
0.700805
0.700454
0.703172
0.707155
0.705267
0.706851
0.710059
0.714115
0.712642
0.712642
0.714644
0.717905
0.721854
0.724312
0.722139
0.7223
0.724142
0.727138
0.730798
0.74322
0.738487
0.736008
0.735519
0.736624
0.738905
0.741903
0.773421
0.766891
0.761767
0.758174
0.75614
0.755563
0.756265
0.757853
0.817092
0.811787
0.806691
0.801881
0.797424
0.793506
0.790371
0.788349
0.787363
0.869611
0.867988
0.86637
0.864794
0.863053
0.860989
0.858527
0.855698
0.852896
0.85045
0.930826
0.930753
0.930646
0.930601
0.930604
0.930638
0.930686
0.930736
0.930748
0.930633
0.930443
0.694022
0.695232
0.699441
0.697221
0.70086
0.705406
0.700276
0.703157
0.707221
0.711769
0.704893
0.706718
0.710067
0.714187
0.718655
0.712008
0.71231
0.71454
0.717931
0.721933
0.72623
0.723319
0.721513
0.721981
0.724054
0.727172
0.730877
0.734851
0.741794
0.73742
0.735336
0.735184
0.736538
0.738936
0.741975
0.745275
0.771755
0.765348
0.760567
0.757403
0.755758
0.755468
0.756273
0.757901
0.75995
0.815976
0.810384
0.805254
0.80066
0.796576
0.793075
0.790274
0.788323
0.787357
0.787136
0.869561
0.867675
0.865811
0.864091
0.862326
0.860365
0.858119
0.85557
0.852854
0.850399
0.848398
0.930876
0.930784
0.93064
0.930564
0.930542
0.930554
0.930578
0.930607
0.930647
0.93061
0.930434
0.930218
0.69359
0.694133
0.698864
0.695268
0.699561
0.704492
0.697158
0.700919
0.705525
0.710359
0.700071
0.703126
0.707291
0.711885
0.716607
0.704507
0.706554
0.710057
0.714266
0.71877
0.723327
0.711363
0.711957
0.714399
0.717935
0.722019
0.726341
0.730719
0.722298
0.720857
0.721631
0.72392
0.727187
0.730969
0.734961
0.738938
0.740295
0.736284
0.734604
0.734797
0.736396
0.738954
0.742063
0.745382
0.748628
0.769949
0.763668
0.759237
0.756514
0.755281
0.755301
0.756293
0.757971
0.760043
0.762203
0.814709
0.808807
0.803626
0.799239
0.795533
0.792474
0.790073
0.78836
0.787393
0.787186
0.787428
0.869467
0.867303
0.865164
0.863272
0.861457
0.859578
0.857538
0.855283
0.85283
0.850388
0.848374
0.846812
0.930919
0.930814
0.930634
0.930523
0.930473
0.930458
0.930452
0.93045
0.930465
0.930491
0.930417
0.93022
0.930038
0.693763
0.693763
0.698941
0.694242
0.699038
0.704267
0.695294
0.699683
0.704658
0.709678
0.697077
0.700966
0.705647
0.710512
0.715345
0.699861
0.703076
0.707347
0.712004
0.716748
0.721392
0.70412
0.706381
0.710024
0.714328
0.718889
0.723461
0.727998
0.710715
0.711597
0.714244
0.717915
0.722089
0.726463
0.730842
0.735149
0.721255
0.72018
0.721261
0.723767
0.727174
0.731046
0.735085
0.739062
0.74281
0.73873
0.735091
0.733821
0.734368
0.736223
0.738943
0.742145
0.745505
0.748758
0.751728
0.768004
0.761863
0.757791
0.75552
0.754714
0.755071
0.756285
0.758069
0.760156
0.762327
0.764355
0.813278
0.807052
0.801815
0.797635
0.794307
0.791703
0.78974
0.788368
0.787537
0.787271
0.787519
0.787982
0.869313
0.866861
0.86442
0.862333
0.860448
0.858633
0.856786
0.854828
0.852719
0.850481
0.848391
0.846816
0.845623
0.930954
0.930839
0.930625
0.930477
0.930395
0.930348
0.930308
0.930266
0.930243
0.930265
0.930296
0.930204
0.93004
0.929951
0.69444
0.69398
0.699589
0.693931
0.699158
0.704659
0.694342
0.699216
0.704473
0.709648
0.695309
0.699797
0.704827
0.709866
0.714758
0.696992
0.701002
0.705758
0.71067
0.71551
0.720177
0.699654
0.703022
0.707388
0.71211
0.716896
0.721545
0.726116
0.703741
0.706208
0.709985
0.714375
0.718993
0.723604
0.728133
0.732607
0.710069
0.711236
0.714086
0.717885
0.722142
0.726572
0.730984
0.735273
0.739346
0.720197
0.719492
0.720878
0.723604
0.727149
0.731106
0.735198
0.739205
0.742944
0.746277
0.737107
0.733854
0.732999
0.733905
0.736024
0.738914
0.742215
0.745626
0.748902
0.751871
0.754455
0.765923
0.759947
0.75625
0.754439
0.754069
0.754778
0.756238
0.758165
0.760303
0.762468
0.764499
0.766275
0.81167
0.805121
0.799831
0.795864
0.79292
0.790778
0.789272
0.788282
0.787712
0.787491
0.787641
0.788103
0.788626
0.869082
0.866335
0.863575
0.86127
0.859299
0.857536
0.855871
0.854208
0.852461
0.850577
0.848596
0.846856
0.845645
0.844733
0.930975
0.930858
0.930612
0.930426
0.930309
0.930226
0.930148
0.930057
0.929988
0.929987
0.930059
0.930108
0.930028
0.929956
0.929955
0.695535
0.694683
0.700743
0.694198
0.699831
0.70563
0.694096
0.699385
0.704893
0.710249
0.694437
0.699393
0.704689
0.709864
0.714829
0.695322
0.699905
0.704995
0.710064
0.714947
0.719618
0.696911
0.701034
0.705861
0.710821
0.715689
0.720353
0.724886
0.699455
0.702969
0.707426
0.712206
0.717031
0.721709
0.726261
0.730799
0.70337
0.706039
0.709946
0.714417
0.719086
0.723734
0.728287
0.732731
0.737051
0.709428
0.710877
0.71393
0.717853
0.722191
0.726669
0.731113
0.735423
0.739469
0.743115
0.71913
0.718797
0.720488
0.723435
0.727122
0.731161
0.735301
0.739337
0.743097
0.746417
0.749279
0.735437
0.732586
0.732152
0.733417
0.735805
0.738872
0.742276
0.745743
0.749046
0.752029
0.754607
0.756758
0.763719
0.757939
0.754635
0.753292
0.753361
0.754429
0.756151
0.758242
0.760467
0.762646
0.764659
0.766429
0.767906
0.809879
0.803023
0.797694
0.793951
0.791397
0.789719
0.788678
0.788092
0.787827
0.787786
0.787912
0.788251
0.788766
0.789258
0.868757
0.865715
0.862625
0.860084
0.858017
0.856297
0.854807
0.853434
0.852055
0.850557
0.848898
0.847154
0.845707
0.844773
0.844053
0.93098
0.930866
0.930592
0.930369
0.930213
0.930093
0.929971
0.929828
0.929702
0.929666
0.929763
0.929921
0.92999
0.929942
0.929961
0.93001
0.69697
0.695781
0.702348
0.694936
0.70099
0.707153
0.694418
0.700099
0.705874
0.711486
0.694261
0.699624
0.705154
0.710481
0.71559
0.69453
0.699571
0.704917
0.710105
0.715034
0.719753
0.695335
0.700011
0.705159
0.710267
0.715162
0.719818
0.724307
0.696837
0.701068
0.70596
0.710964
0.715862
0.720542
0.72504
0.729581
0.699266
0.702923
0.707465
0.712298
0.717158
0.72186
0.726428
0.730916
0.73543
0.703009
0.705878
0.709913
0.714462
0.719176
0.723855
0.728426
0.732884
0.73716
0.74113
0.708796
0.710523
0.713776
0.717825
0.722242
0.726763
0.731233
0.735558
0.73962
0.74324
0.746373
0.718062
0.718102
0.720095
0.723264
0.727094
0.731218
0.735402
0.739462
0.743238
0.746576
0.749425
0.751764
0.733736
0.731302
0.731291
0.732915
0.73557
0.738819
0.742334
0.745857
0.749189
0.752187
0.754773
0.756912
0.758648
0.761409
0.755864
0.752972
0.7521
0.752608
0.754036
0.756026
0.758294
0.760625
0.762849
0.764855
0.766601
0.768066
0.769251
0.807901
0.800776
0.795431
0.791925
0.789768
0.788555
0.78798
0.787805
0.787865
0.788046
0.788283
0.788554
0.788933
0.78941
0.789839
0.86832
0.864994
0.86157
0.858786
0.856611
0.854929
0.853608
0.85252
0.851509
0.850409
0.849115
0.847627
0.846074
0.84485
0.844104
0.843514
0.930966
0.93086
0.930563
0.930304
0.930111
0.929947
0.929775
0.929574
0.929383
0.929304
0.929417
0.92968
0.929907
0.929966
0.929947
0.930017
0.930068
0.698671
0.697197
0.704346
0.696054
0.702572
0.709205
0.695203
0.701284
0.707379
0.713383
0.694648
0.700395
0.706169
0.711713
0.717107
0.694426
0.699873
0.705446
0.710762
0.7158
0.720673
0.694621
0.699749
0.705149
0.710371
0.71529
0.719978
0.724494
0.695353
0.700117
0.70532
0.710466
0.715385
0.720039
0.724471
0.729022
0.696771
0.701107
0.706061
0.711104
0.716028
0.720724
0.725228
0.729697
0.734345
0.699086
0.702883
0.70751
0.712393
0.717283
0.722006
0.726581
0.731075
0.735513
0.739819
0.70266
0.705724
0.709885
0.714512
0.719269
0.723974
0.72856
0.733018
0.737305
0.741231
0.74468
0.708175
0.710178
0.713627
0.717803
0.722299
0.726861
0.731351
0.735687
0.739754
0.74339
0.746506
0.749023
0.717001
0.717415
0.719707
0.723094
0.727068
0.731279
0.735509
0.739587
0.743372
0.746721
0.749586
0.751914
0.753778
0.73202
0.730019
0.73043
0.732407
0.735327
0.738759
0.742388
0.745975
0.749334
0.752345
0.754938
0.757083
0.758802
0.760167
0.759018
0.753753
0.75129
0.750888
0.751829
0.753611
0.755869
0.758322
0.760769
0.763054
0.76508
0.766808
0.768245
0.769412
0.770342
0.805746
0.798403
0.793079
0.789825
0.788066
0.787313
0.787199
0.787435
0.787829
0.788251
0.788637
0.788968
0.78925
0.789588
0.789996
0.790366
0.867759
0.864166
0.860418
0.857389
0.855101
0.85345
0.852294
0.851484
0.850837
0.850139
0.849229
0.848045
0.846666
0.845253
0.844193
0.843574
0.843066
0.930927
0.930837
0.930521
0.930231
0.929998
0.92979
0.929565
0.929298
0.929038
0.928911
0.929035
0.929395
0.929791
0.93002
0.930018
0.929998
0.930066
0.930112
0.700567
0.698857
0.706677
0.697469
0.704519
0.71176
0.696355
0.702872
0.709382
0.715963
0.695489
0.701631
0.707694
0.713572
0.719462
0.694879
0.700716
0.706527
0.712027
0.717292
0.722525
0.694585
0.700124
0.705756
0.7111
0.716094
0.720901
0.725624
0.694711
0.699923
0.705381
0.710641
0.715578
0.720234
0.724658
0.729323
0.695375
0.700226
0.705482
0.710665
0.715605
0.720265
0.724686
0.729136
0.733921
0.696712
0.701152
0.706168
0.711249
0.716194
0.720903
0.725405
0.729868
0.734401
0.739042
0.698917
0.702851
0.707561
0.712494
0.717412
0.72215
0.726731
0.731212
0.735654
0.739881
0.743717
0.702323
0.705579
0.709864
0.714568
0.719368
0.724097
0.728691
0.733152
0.737428
0.74137
0.74479
0.747526
0.707569
0.709844
0.713485
0.717786
0.722361
0.726967
0.731476
0.735813
0.739882
0.743519
0.746655
0.749167
0.75112
0.715956
0.716743
0.719328
0.722928
0.727044
0.731344
0.735623
0.73972
0.743506
0.746857
0.749731
0.752075
0.753925
0.755381
0.730309
0.728753
0.729581
0.731903
0.735082
0.738694
0.742438
0.746094
0.749485
0.752508
0.755103
0.757251
0.758974
0.760317
0.761372
0.756574
0.751638
0.749617
0.749679
0.75104
0.753168
0.75569
0.75833
0.760899
0.763254
0.765312
0.767044
0.768456
0.769593
0.770501
0.771232
0.803429
0.79594
0.790681
0.787694
0.786329
0.786026
0.786361
0.787
0.787728
0.7884
0.788954
0.789376
0.789683
0.789911
0.79018
0.790525
0.790861
0.867059
0.863231
0.859184
0.855916
0.853514
0.851888
0.850891
0.850353
0.850059
0.84976
0.84924
0.848384
0.847225
0.84591
0.844611
0.84367
0.843129
0.842676
0.930859
0.930789
0.930466
0.930149
0.929877
0.929621
0.929342
0.929006
0.928673
0.928489
0.928614
0.929063
0.929636
0.930058
0.93018
0.930084
0.930043
0.930104
0.930098
0.702589
0.700689
0.709278
0.699108
0.706771
0.71478
0.697792
0.704803
0.711852
0.719236
0.69669
0.703259
0.709697
0.716075
0.722728
0.695782
0.702023
0.708114
0.713905
0.719587
0.725459
0.695102
0.701047
0.706922
0.712441
0.717625
0.722723
0.727922
0.694739
0.70037
0.70607
0.711457
0.71646
0.721202
0.725773
0.730742
0.694804
0.700098
0.705611
0.710913
0.71587
0.720518
0.724911
0.729432
0.734445
0.695404
0.70034
0.705649
0.710867
0.715826
0.720495
0.724904
0.729329
0.733953
0.738951
0.696661
0.701204
0.70628
0.7114
0.716366
0.721084
0.725581
0.730018
0.734543
0.739055
0.743353
0.698758
0.702826
0.707619
0.712602
0.717548
0.7223
0.72688
0.731352
0.735764
0.740007
0.74378
0.74687
0.702
0.705444
0.709849
0.714631
0.719474
0.724227
0.728827
0.73328
0.737548
0.741479
0.744923
0.747669
0.749695
0.706982
0.709522
0.713351
0.717775
0.722428
0.72708
0.731609
0.735946
0.740004
0.743639
0.746779
0.749315
0.751269
0.752758
0.714937
0.716091
0.718961
0.722769
0.727023
0.731413
0.735742
0.739863
0.743649
0.746994
0.749866
0.752218
0.754086
0.755523
0.756644
0.728625
0.727521
0.728758
0.731412
0.73484
0.738627
0.742487
0.746213
0.749641
0.752682
0.755273
0.757418
0.759142
0.760489
0.761518
0.762328
0.754115
0.749554
0.747984
0.748497
0.750261
0.75272
0.755497
0.758322
0.761015
0.763446
0.765546
0.767291
0.768697
0.769805
0.770682
0.771388
0.77198
0.800987
0.793433
0.788284
0.785575
0.784596
0.784727
0.785489
0.78652
0.787575
0.7885
0.78923
0.78976
0.790119
0.790347
0.790503
0.790711
0.791018
0.791354
0.866214
0.862201
0.857886
0.8544
0.851884
0.850277
0.849429
0.84915
0.849197
0.849285
0.849152
0.848635
0.847724
0.846548
0.845287
0.844085
0.843231
0.842742
0.842322
0.930757
0.930715
0.930393
0.930058
0.92975
0.929446
0.929107
0.928696
0.928287
0.928043
0.928161
0.928694
0.929445
0.93007
0.930347
0.930305
0.930139
0.930076
0.930095
0.930038
0.704672
0.702629
0.712079
0.700901
0.709266
0.718209
0.699437
0.707015
0.714755
0.723183
0.698166
0.705216
0.712146
0.71923
0.726947
0.69704
0.703716
0.710169
0.716411
0.722751
0.729595
0.696066
0.702435
0.708597
0.714398
0.719949
0.725579
0.731592
0.695315
0.70137
0.707332
0.712899
0.718081
0.723065
0.728025
0.733582
0.694891
0.700613
0.706383
0.711824
0.716846
0.721562
0.726073
0.730833
0.736257
0.694899
0.700277
0.705848
0.711192
0.716168
0.720819
0.725189
0.729658
0.734455
0.739891
0.695437
0.70046
0.705824
0.71108
0.716057
0.720731
0.725122
0.729506
0.734106
0.738913
0.743761
0.696618
0.701262
0.706399
0.711559
0.716547
0.721272
0.72576
0.730172
0.734647
0.739171
0.743342
0.74698
0.698609
0.702808
0.707682
0.712716
0.717692
0.722456
0.727035
0.731489
0.735878
0.740091
0.743893
0.746984
0.749192
0.701691
0.705317
0.709842
0.714698
0.719586
0.724364
0.728971
0.733413
0.737661
0.741582
0.745023
0.7478
0.749868
0.751305
0.706416
0.709216
0.713226
0.717769
0.722501
0.727199
0.731751
0.736089
0.740133
0.743752
0.746887
0.749434
0.751415
0.752904
0.754031
0.713954
0.715466
0.718612
0.722617
0.727006
0.731484
0.735867
0.740013
0.743803
0.747141
0.749998
0.752347
0.754224
0.75568
0.756778
0.757634
0.72699
0.726338
0.727971
0.730941
0.734606
0.738563
0.742536
0.746334
0.749802
0.752862
0.755456
0.757592
0.759309
0.760655
0.761687
0.762468
0.763101
0.751687
0.747536
0.746415
0.747362
0.749507
0.752279
0.755297
0.758305
0.761121
0.763631
0.765778
0.767545
0.768951
0.770046
0.770893
0.771567
0.772131
0.772644
0.798453
0.790929
0.78594
0.783519
0.782907
0.783446
0.784613
0.786014
0.787384
0.788559
0.789468
0.790115
0.790538
0.790791
0.790933
0.791027
0.791202
0.791506
0.791877
0.86521
0.861085
0.856568
0.852876
0.850255
0.848657
0.847944
0.847904
0.848273
0.848733
0.848979
0.848802
0.848153
0.84714
0.845951
0.844748
0.843633
0.842847
0.84239
0.841995
0.930615
0.93061
0.930299
0.929954
0.929617
0.929269
0.928868
0.92838
0.927889
0.927581
0.927691
0.928299
0.929222
0.930049
0.930503
0.93055
0.930372
0.930153
0.930066
0.930027
0.929921
0.706758
0.704618
0.715008
0.702786
0.711942
0.721976
0.701222
0.709449
0.71804
0.72776
0.699838
0.707437
0.715004
0.723027
0.732122
0.698564
0.705727
0.712658
0.719553
0.726829
0.735004
0.697381
0.70421
0.710739
0.716979
0.723136
0.729593
0.736785
0.696333
0.70284
0.709113
0.714964
0.720503
0.725969
0.731611
0.738092
0.695518
0.701684
0.707741
0.71338
0.718579
0.723524
0.72839
0.733625
0.739731
0.695042
0.700856
0.706702
0.712201
0.717249
0.721959
0.726436
0.731117
0.736238
0.74226
0.694996
0.700459
0.706093
0.711485
0.716485
0.721142
0.725471
0.729884
0.734639
0.739802
0.7453
0.695474
0.700583
0.706005
0.711303
0.716304
0.720981
0.725352
0.729689
0.734215
0.739029
0.743662
0.748061
0.696581
0.701324
0.706523
0.711724
0.716738
0.72147
0.725949
0.730329
0.734759
0.739228
0.743433
0.74703
0.749619
0.69847
0.702796
0.707749
0.712836
0.717839
0.72262
0.727197
0.731631
0.735985
0.740176
0.743955
0.747096
0.749384
0.750756
0.701397
0.705199
0.70984
0.714768
0.719703
0.724508
0.729124
0.733556
0.737779
0.741671
0.745109
0.747895
0.749996
0.751495
0.752493
0.705877
0.708927
0.713107
0.717768
0.722577
0.727323
0.731901
0.736242
0.740271
0.743871
0.746984
0.74953
0.751527
0.753047
0.754168
0.755016
0.713016
0.714873
0.718281
0.722475
0.726994
0.731559
0.735995
0.740169
0.743968
0.747299
0.75014
0.752472
0.754346
0.755814
0.756931
0.757759
0.758416
0.725429
0.725221
0.72723
0.730496
0.734384
0.738502
0.742586
0.746456
0.749966
0.753048
0.755647
0.757779
0.759483
0.76082
0.76185
0.762634
0.763235
0.763751
0.749336
0.745621
0.744942
0.746293
0.748788
0.751853
0.7551
0.758284
0.76122
0.763811
0.766006
0.767799
0.769215
0.770302
0.77113
0.771773
0.772306
0.772788
0.773273
0.795884
0.788494
0.783703
0.78156
0.781295
0.782215
0.783751
0.7855
0.78717
0.788587
0.789676
0.790442
0.790936
0.791223
0.791372
0.791445
0.791509
0.791687
0.792024
0.792461
0.864042
0.859895
0.855251
0.851406
0.848668
0.847072
0.846472
0.84665
0.847317
0.848127
0.848735
0.848892
0.84851
0.847674
0.846577
0.845402
0.844266
0.843231
0.842497
0.842062
0.841694
0.930427
0.930472
0.930184
0.929839
0.929482
0.929097
0.928629
0.928065
0.927487
0.927111
0.927203
0.92788
0.928963
0.929999
0.930641
0.930798
0.930624
0.930352
0.930118
0.929994
0.929907
0.929733
0.708799
0.7066
0.717992
0.704704
0.714729
0.725999
0.703085
0.712044
0.721643
0.732892
0.701637
0.709863
0.718226
0.727427
0.738203
0.700277
0.70799
0.715542
0.723323
0.731836
0.741702
0.698957
0.706296
0.713305
0.720191
0.727237
0.734852
0.743598
0.697697
0.704698
0.711363
0.717655
0.723796
0.73005
0.736689
0.744455
0.696582
0.70323
0.709629
0.715573
0.721127
0.726552
0.732067
0.73805
0.745159
0.695716
0.701996
0.708156
0.713875
0.719106
0.72404
0.728866
0.733997
0.739653
0.74649
0.695191
0.701101
0.70703
0.712597
0.717678
0.722392
0.726811
0.731424
0.736484
0.74212
0.748387
0.695095
0.700644
0.706345
0.711794
0.716825
0.72148
0.725776
0.73012
0.734781
0.739936
0.745116
0.750438
0.695515
0.700708
0.706189
0.711535
0.716566
0.721249
0.725599
0.729887
0.73434
0.739071
0.743732
0.748009
0.751271
0.696548
0.701388
0.706649
0.711893
0.716936
0.72168
0.726151
0.730495
0.734871
0.739296
0.743451
0.747122
0.749794
0.751235
0.698339
0.702788
0.707819
0.712958
0.717989
0.722791
0.727369
0.731781
0.736096
0.740248
0.744013
0.747155
0.74949
0.751018
0.751727
0.701119
0.705089
0.709841
0.714839
0.719823
0.724657
0.729283
0.733707
0.737904
0.741762
0.745179
0.747965
0.750087
0.751626
0.752677
0.753388
0.705367
0.708654
0.712996
0.717772
0.722655
0.727451
0.732055
0.736402
0.740419
0.743998
0.747084
0.74961
0.751611
0.753151
0.754306
0.755141
0.755782
0.712136
0.714319
0.717973
0.722343
0.726985
0.731635
0.736125
0.740329
0.744139
0.747466
0.750293
0.752606
0.754463
0.755929
0.757058
0.757907
0.758532
0.75905
0.723966
0.724183
0.726541
0.730079
0.734173
0.738445
0.742637
0.746576
0.750133
0.753237
0.755846
0.757976
0.75967
0.760991
0.76201
0.762792
0.763396
0.763878
0.764331
0.747105
0.743838
0.743574
0.745299
0.748117
0.75145
0.754908
0.75826
0.761314
0.763986
0.766233
0.768054
0.769482
0.770568
0.771383
0.772005
0.772507
0.772959
0.773412
0.773911
0.793323
0.786174
0.781626
0.77975
0.779792
0.781046
0.782925
0.784992
0.786943
0.788593
0.789859
0.790747
0.791314
0.79164
0.791803
0.791872
0.791911
0.791983
0.792201
0.792602
0.793129
0.86271
0.858647
0.853967
0.850017
0.847189
0.845565
0.845051
0.845418
0.846355
0.847487
0.848435
0.848912
0.848795
0.848146
0.847152
0.846019
0.844888
0.843826
0.842863
0.842172
0.841763
0.841439
0.930184
0.930297
0.930049
0.92972
0.929354
0.92893
0.928404
0.927759
0.927091
0.926641
0.926706
0.927452
0.928681
0.929928
0.930768
0.931045
0.930894
0.930583
0.930263
0.930027
0.929866
0.92972
0.92948
0.710752
0.708532
0.720963
0.706608
0.717563
0.730185
0.70497
0.714736
0.725488
0.738485
0.703501
0.712432
0.721749
0.732368
0.74514
0.702105
0.710441
0.718772
0.727688
0.737752
0.749687
0.700714
0.708624
0.716253
0.724026
0.732275
0.741402
0.75209
0.699319
0.706866
0.714032
0.720973
0.728014
0.735405
0.743381
0.752812
0.697989
0.705167
0.711991
0.718397
0.724555
0.730783
0.737281
0.744312
0.752768
0.696822
0.703613
0.710153
0.716203
0.721797
0.727209
0.732693
0.738565
0.744999
0.75291
0.695909
0.702307
0.708582
0.714399
0.71967
0.724608
0.729361
0.73443
0.740017
0.746276
0.753519
0.695338
0.701348
0.707368
0.713017
0.718143
0.72285
0.727217
0.731739
0.736705
0.742323
0.748121
0.754489
0.695192
0.700827
0.706603
0.712115
0.717191
0.721852
0.726111
0.730384
0.734937
0.739993
0.745196
0.750257
0.754479
0.695556
0.700833
0.706375
0.711772
0.71684
0.721536
0.725871
0.730106
0.734475
0.739131
0.743711
0.748071
0.751359
0.753244
0.696519
0.701453
0.706775
0.712063
0.717138
0.721897
0.726366
0.730676
0.734991
0.739356
0.743477
0.747136
0.749872
0.751577
0.751997
0.698216
0.702783
0.707889
0.71308
0.718141
0.722966
0.727547
0.731941
0.736215
0.74032
0.744052
0.747194
0.749545
0.751155
0.752003
0.752436
0.700857
0.704988
0.709846
0.714913
0.719945
0.724809
0.729447
0.733865
0.738036
0.741861
0.745245
0.748011
0.750139
0.751711
0.752808
0.753557
0.754071
0.704892
0.708402
0.712896
0.717778
0.722734
0.727579
0.732213
0.736569
0.740576
0.744138
0.747192
0.74969
0.751673
0.753222
0.7544
0.755273
0.755893
0.756387
0.711321
0.713808
0.717688
0.72222
0.72698
0.731713
0.736256
0.740491
0.744313
0.74764
0.750455
0.75275
0.754588
0.756036
0.757166
0.758027
0.758674
0.759156
0.759588
0.722625
0.723236
0.725913
0.729698
0.733983
0.73839
0.742686
0.746695
0.750299
0.753428
0.756049
0.758181
0.759868
0.761176
0.762177
0.762947
0.763549
0.764035
0.764452
0.764885
0.745047
0.742224
0.742344
0.744395
0.747494
0.751064
0.754731
0.758232
0.761403
0.764157
0.766457
0.76831
0.769752
0.770841
0.771648
0.772252
0.772731
0.773153
0.773577
0.774044
0.774586
0.790812
0.784007
0.779736
0.778117
0.778426
0.779969
0.782143
0.784499
0.786714
0.788584
0.790023
0.791032
0.791676
0.792043
0.792223
0.792294
0.792323
0.792368
0.792485
0.792773
0.793265
0.793899
0.861208
0.857359
0.852749
0.848752
0.845845
0.844189
0.843719
0.844239
0.84541
0.846832
0.848095
0.848876
0.849016
0.848556
0.847674
0.846591
0.845471
0.844404
0.843418
0.842524
0.841877
0.841508
0.841253
0.929877
0.930082
0.929892
0.929595
0.929231
0.928779
0.9282
0.927476
0.926717
0.926181
0.926219
0.927015
0.928385
0.929832
0.93087
0.931275
0.931168
0.93082
0.930442
0.930132
0.929886
0.929688
0.92947
0.929136
0.712587
0.710376
0.723858
0.708453
0.720378
0.734443
0.706829
0.717463
0.729489
0.744426
0.705376
0.715085
0.725501
0.737765
0.752838
0.703986
0.713019
0.72229
0.732588
0.744525
0.75891
0.702577
0.711125
0.71953
0.728451
0.738232
0.749253
0.762284
0.701116
0.709266
0.71707
0.724903
0.733181
0.742089
0.751772
0.763259
0.699648
0.70741
0.714769
0.721841
0.728913
0.736323
0.744176
0.752584
0.762735
0.698266
0.705624
0.712629
0.719167
0.725375
0.731604
0.738109
0.745055
0.752533
0.761789
0.697052
0.703996
0.710689
0.71687
0.722512
0.727928
0.733344
0.739187
0.745569
0.752612
0.761046
0.696096
0.702619
0.709022
0.714957
0.720289
0.725217
0.729897
0.734864
0.740382
0.746624
0.753159
0.760691
0.695478
0.701591
0.707713
0.71346
0.718649
0.723361
0.727673
0.732096
0.736928
0.742444
0.748283
0.754167
0.759576
0.695285
0.701007
0.706859
0.712448
0.717577
0.72226
0.726492
0.730683
0.735114
0.740066
0.745175
0.750319
0.754406
0.757139
0.695597
0.700954
0.706558
0.712009
0.717123
0.721837
0.726169
0.73035
0.734629
0.73919
0.743714
0.748034
0.751391
0.753612
0.753917
0.696494
0.701518
0.706899
0.712232
0.717341
0.722119
0.726589
0.730871
0.735127
0.739419
0.743488
0.747145
0.749884
0.751723
0.75241
0.752454
0.698103
0.702782
0.70796
0.713202
0.718294
0.723143
0.727729
0.732106
0.736342
0.740397
0.744085
0.747206
0.749562
0.751217
0.752141
0.752721
0.752937
0.700616
0.704896
0.709851
0.714985
0.720066
0.724961
0.729614
0.734028
0.738176
0.741967
0.745312
0.748048
0.750162
0.751748
0.752884
0.753686
0.75422
0.754597
0.704457
0.708171
0.712805
0.717787
0.722814
0.727707
0.732371
0.736739
0.74074
0.744285
0.747307
0.749774
0.751732
0.753267
0.754461
0.755358
0.756018
0.756484
0.756881
0.710585
0.713351
0.717432
0.722112
0.726976
0.731785
0.736385
0.740655
0.744488
0.747818
0.750623
0.752903
0.754721
0.756151
0.757265
0.758128
0.758788
0.759293
0.759686
0.760076
0.72142
0.722393
0.725346
0.729345
0.733793
0.738339
0.742735
0.746805
0.750464
0.75362
0.756255
0.758391
0.760075
0.761373
0.762358
0.763108
0.763697
0.764182
0.764603
0.764999
0.765445
0.743181
0.740797
0.741259
0.743592
0.746933
0.750712
0.754548
0.7582
0.761488
0.764322
0.766679
0.768565
0.770024
0.771117
0.77192
0.772512
0.77297
0.773369
0.773765
0.774204
0.774713
0.775318
0.788373
0.78202
0.778055
0.776668
0.77721
0.778993
0.781423
0.78403
0.786483
0.788564
0.79017
0.791302
0.792024
0.792434
0.792632
0.792707
0.79273
0.792762
0.792851
0.793046
0.793431
0.79403
0.794778
0.859524
0.856035
0.85161
0.847632
0.844669
0.842964
0.842518
0.843138
0.844504
0.84618
0.847731
0.848796
0.849184
0.84891
0.848144
0.847115
0.846011
0.844942
0.843951
0.843043
0.842214
0.841625
0.841326
0.84117
0.92949
0.929823
0.929714
0.929464
0.929117
0.928651
0.928025
0.927229
0.926374
0.925751
0.925752
0.926576
0.928077
0.929707
0.930939
0.931484
0.931428
0.931064
0.930636
0.93025
0.929954
0.929693
0.929444
0.92913
0.928688
0.714283
0.712104
0.726628
0.710208
0.723118
0.738677
0.708624
0.720164
0.733556
0.75059
0.707214
0.71776
0.729398
0.743512
0.761173
0.705864
0.715664
0.726022
0.737935
0.752071
0.769296
0.704482
0.713735
0.723076
0.733405
0.745058
0.75838
0.774183
0.703009
0.711825
0.720418
0.729411
0.739286
0.750116
0.761926
0.775872
0.701474
0.709878
0.717903
0.725885
0.734226
0.743236
0.752852
0.763011
0.775211
0.699957
0.707939
0.715517
0.722747
0.729884
0.737334
0.745275
0.753668
0.762475
0.773364
0.698528
0.706078
0.713281
0.719985
0.726253
0.732492
0.738964
0.745948
0.753439
0.761445
0.771285
0.697274
0.704377
0.711244
0.717584
0.723304
0.728714
0.734045
0.739801
0.746166
0.75323
0.760599
0.769388
0.696271
0.702926
0.709473
0.715549
0.72097
0.725901
0.730502
0.73535
0.740729
0.746899
0.753507
0.760208
0.76704
0.69561
0.701827
0.708058
0.71392
0.719193
0.723935
0.728202
0.732504
0.737184
0.742566
0.74833
0.7543
0.759358
0.763232
0.695375
0.701178
0.707111
0.712782
0.717982
0.722697
0.72692
0.731029
0.735327
0.74015
0.745178
0.75025
0.754458
0.75743
0.758017
0.695636
0.701071
0.706735
0.712243
0.717407
0.722149
0.726484
0.730624
0.734809
0.739263
0.743714
0.748008
0.751344
0.753713
0.754439
0.754191
0.696471
0.701583
0.707021
0.712401
0.717543
0.722344
0.726819
0.731076
0.735276
0.739494
0.743495
0.747129
0.749867
0.751759
0.752578
0.752931
0.752671
0.697999
0.702781
0.70803
0.713318
0.718446
0.723319
0.727912
0.732277
0.736476
0.740476
0.744115
0.747204
0.749546
0.751217
0.752203
0.752871
0.75321
0.753301
0.700397
0.704817
0.70986
0.71506
0.720187
0.72511
0.729781
0.734195
0.73832
0.742078
0.74538
0.748082
0.750169
0.751743
0.752908
0.753751
0.754345
0.754728
0.755014
0.704067
0.707965
0.712726
0.717797
0.722887
0.727829
0.732529
0.73691
0.740907
0.744435
0.74743
0.749866
0.751793
0.753306
0.75449
0.755409
0.756095
0.756603
0.756965
0.757307
0.709931
0.712934
0.717194
0.722004
0.726971
0.731862
0.736508
0.740808
0.74466
0.747997
0.750795
0.753062
0.754863
0.756275
0.75737
0.758218
0.758882
0.759401
0.759817
0.760166
0.760546
0.720374
0.721667
0.724855
0.729033
0.733628
0.738282
0.742758
0.746915
0.750621
0.753808
0.756462
0.758605
0.760288
0.761578
0.76255
0.763283
0.763852
0.764323
0.764745
0.765146
0.765553
0.766031
0.741518
0.739558
0.74032
0.742889
0.746432
0.750385
0.754384
0.75816
0.761555
0.76448
0.766893
0.768818
0.770296
0.771397
0.772196
0.772778
0.773222
0.773599
0.773971
0.774385
0.774869
0.77544
0.776111
0.785996
0.780214
0.776586
0.775412
0.776139
0.778118
0.78076
0.783592
0.786256
0.788531
0.790302
0.791557
0.79236
0.792816
0.793033
0.79311
0.793128
0.79315
0.793225
0.793393
0.793692
0.794191
0.794904
0.795758
0.857621
0.854662
0.850544
0.846665
0.843674
0.841916
0.841457
0.842145
0.843652
0.845545
0.847351
0.848679
0.849306
0.849213
0.848565
0.847593
0.846506
0.845436
0.844441
0.843534
0.842703
0.841953
0.841443
0.841245
0.841222
0.929004
0.929518
0.929516
0.929331
0.929017
0.928549
0.927884
0.92702
0.926075
0.925363
0.92531
0.926154
0.927762
0.929565
0.930982
0.931672
0.931681
0.931307
0.930825
0.930377
0.930025
0.929731
0.929442
0.929099