# wallHeatFlux  FACE_DATA 398
# x  y  z  wallHeatFlux
-0.7975 0 0.025 -653677
-0.79239 0 0.025 -120013
-0.787056 0 0.025 -71392.7
-0.781492 0 0.025 -64884.8
-0.775691 0 0.025 -66271.3
-0.769649 0 0.025 -66897.3
-0.763362 0 0.025 -67264.8
-0.756822 0 0.025 -66961.8
-0.750025 0 0.025 -66302.1
-0.742968 0 0.025 -65376.7
-0.735648 0 0.025 -64380.5
-0.72806 0 0.025 -63372.6
-0.720203 0 0.025 -62370.7
-0.712076 0 0.025 -61444.1
-0.703677 0 0.025 -60601.7
-0.695006 0 0.025 -59790.4
-0.686065 0 0.025 -59031.7
-0.676855 0 0.025 -58363
-0.667379 0 0.025 -57650.4
-0.65764 0 0.025 -56958.9
-0.647644 0 0.025 -56387
-0.637397 0 0.025 -55829.7
-0.626906 0 0.025 -55252
-0.616179 0 0.025 -54760.2
-0.605224 0 0.025 -54231.3
-0.594054 0 0.025 -53753.8
-0.582678 0 0.025 -53288.8
-0.57111 0 0.025 -52859.3
-0.559364 0 0.025 -52401.9
-0.547454 0 0.025 -51989.6
-0.535396 0 0.025 -51581.2
-0.523205 0 0.025 -51259.6
-0.510901 0 0.025 -50889.9
-0.4985 0 0.025 -50499.4
-0.486021 0 0.025 -50150.3
-0.473483 0 0.025 -49847.5
-0.460905 0 0.025 -49552.4
-0.448308 0 0.025 -49272.6
-0.435709 0 0.025 -48969.3
-0.42313 0 0.025 -48652.1
-0.41059 0 0.025 -48382.2
-0.39811 0 0.025 -48185.9
-0.385706 0 0.025 -47982.1
-0.373398 0 0.025 -47740.8
-0.361205 0 0.025 -47493
-0.349141 0 0.025 -47248.4
-0.337226 0 0.025 -47025.2
-0.325475 0 0.025 -46828.2
-0.313901 0 0.025 -46711.7
-0.30252 0 0.025 -46594.2
-0.291343 0 0.025 -46461.9
-0.280382 0 0.025 -46308
-0.269646 0 0.025 -46094.2
-0.259148 0 0.025 -45859.6
-0.248893 0 0.025 -45637.5
-0.23889 0 0.025 -45453.5
-0.229143 0 0.025 -45322.6
-0.219659 0 0.025 -45247
-0.210441 0 0.025 -45224.7
-0.201491 0 0.025 -45205.6
-0.192812 0 0.025 -45178.8
-0.184405 0 0.025 -45124.5
-0.176269 0 0.025 -45041.6
-0.168404 0 0.025 -44939.2
-0.160808 0 0.025 -44815.5
-0.15348 0 0.025 -44678.8
-0.146415 0 0.025 -44527
-0.13961 0 0.025 -44379.1
-0.133063 0 0.025 -44243.9
-0.126767 0 0.025 -44125.7
-0.120718 0 0.025 -44024.1
-0.11491 0 0.025 -43939.2
-0.109339 0 0.025 -43865.7
-0.103997 0 0.025 -43807.4
-0.0988805 0 0.025 -43764
-0.0939808 0 0.025 -43728.6
-0.0892928 0 0.025 -43699.9
-0.0848096 0 0.025 -43687.5
-0.0805248 0 0.025 -43680.8
-0.0764316 0 0.025 -43679.8
-0.0725237 0 0.025 -43678.8
-0.0687943 0 0.025 -43684
-0.065237 0 0.025 -43693.9
-0.0618454 0 0.025 -43699.4
-0.058613 0 0.025 -43714.9
-0.0555337 0 0.025 -43715.4
-0.0526013 0 0.025 -43715.2
-0.0498099 0 0.025 -43715.4
-0.0471536 0 0.025 -43710.2
-0.0446266 0 0.025 -43699.6
-0.0422235 0 0.025 -43689.1
-0.039939 0 0.025 -43673.2
-0.0377676 0 0.025 -43657
-0.0357044 0 0.025 -43641.8
-0.0337445 0 0.025 -43631
-0.0318832 0 0.025 -43577.5
-0.0301159 0 0.025 -42205.3
-0.0284383 0 0.025 -34656.4
-0.0268461 0 0.025 -32344.3
-0.0253353 0 0.025 -49541.5
-0.023902 0 0.025 -61562
-0.0225426 0 0.025 -69288
-0.0212532 0 0.025 -74937.3
-0.0200306 0 0.025 -79834
-0.0188715 0 0.025 -84234
-0.0177728 0 0.025 -88050.4
-0.0167313 0 0.025 -91449.4
-0.0157444 0 0.025 -94624
-0.0148092 0 0.025 -97615.5
-0.0139232 0 0.025 -100437
-0.0130838 0 0.025 -103020
-0.0122887 0 0.025 -105324
-0.0115356 0 0.025 -107342
-0.0108223 0 0.025 -109096
-0.0101469 0 0.025 -110625
-0.00950727 0 0.025 -111958
-0.00890168 0 0.025 -113147
-0.00832835 0 0.025 -114246
-0.00778557 0 0.025 -115321
-0.00727176 0 0.025 -116420
-0.0067854 0 0.025 -117585
-0.00632507 0 0.025 -118846
-0.00588937 0 0.025 -120217
-0.00547703 0 0.025 -121707
-0.0050868 0 0.025 -123309
-0.00471753 0 0.025 -125032
-0.0043681 0 0.025 -126874
-0.00403746 0 0.025 -128855
-0.00372461 0 0.025 -130950
-0.0034286 0 0.025 -133172
-0.00314855 0 0.025 -135555
-0.0028836 0 0.025 -138151
-0.00263294 0 0.025 -140862
-0.00239581 0 0.025 -143439
-0.0021715 0 0.025 -146160
-0.00195929 0 0.025 -149004
-0.00175856 0 0.025 -151938
-0.00156869 0 0.025 -154963
-0.00138908 0 0.025 -158092
-0.0012192 0 0.025 -161288
-0.00105853 0 0.025 -164555
-0.000906546 0 0.025 -167857
-0.000762803 0 0.025 -171084
-0.000626848 0 0.025 -173936
-0.000498265 0 0.025 -175578
-0.000376656 0 0.025 -174201
-0.000261642 0 0.025 -166237
-0.00015287 0 0.025 -144668
-5e-05 0 0.025 -93536.9
4.14519e-05 2.79596e-05 0.025 -66401.3
0.000125371 8.45641e-05 0.025 -79712.4
0.000211347 0.000142556 0.025 -95282
0.000299429 0.000201968 0.025 -106544
0.000389669 0.000262835 0.025 -116006
0.000482118 0.000325193 0.025 -124979
0.000576831 0.000389077 0.025 -133393
0.000673861 0.000454524 0.025 -141003
0.000773265 0.000521574 0.025 -147734
0.0008751 0.000590262 0.025 -153664
0.000979426 0.000660632 0.025 -158912
0.0010863 0.000732721 0.025 -163595
0.00119579 0.000806572 0.025 -167939
0.00130795 0.000882227 0.025 -171971
0.00142285 0.00095973 0.025 -175756
0.00154056 0.00103912 0.025 -179398
0.00166115 0.00112046 0.025 -182932
0.00178467 0.00120378 0.025 -186414
0.00191121 0.00128913 0.025 -189887
0.00204083 0.00137656 0.025 -193312
0.00217362 0.00146612 0.025 -196795
0.00230964 0.00155787 0.025 -200336
0.00244897 0.00165185 0.025 -203906
0.00259169 0.00174812 0.025 -207556
0.00273789 0.00184673 0.025 -211328
0.00288765 0.00194774 0.025 -215233
0.00304105 0.00205122 0.025 -219243
0.00319818 0.00215719 0.025 -223380
0.00335912 0.00226575 0.025 -227717
0.00352397 0.00237695 0.025 -232189
0.00369283 0.00249085 0.025 -236870
0.00386579 0.00260751 0.025 -241730
0.00404294 0.00272699 0.025 -246837
0.00422438 0.00284938 0.025 -252213
0.00441022 0.00297474 0.025 -257857
0.00460056 0.00310312 0.025 -263797
0.00479552 0.00323462 0.025 -270023
0.00499519 0.0033693 0.025 -276652
0.00519968 0.00350723 0.025 -283581
0.00540911 0.00364849 0.025 -290946
0.00562361 0.00379318 0.025 -298736
0.00584329 0.00394134 0.025 -306956
0.00606826 0.00409309 0.025 -315781
0.00629865 0.00424849 0.025 -325032
0.0065346 0.00440764 0.025 -334930
0.00677623 0.00457063 0.025 -345542
0.00702368 0.00473753 0.025 -356748
0.00727707 0.00490844 0.025 -368846
0.00753655 0.00508347 0.025 -381694
0.00780227 0.00526269 0.025 -395568
0.00807436 0.00544622 0.025 -410393
0.00835298 0.00563415 0.025 -425986
0.00863826 0.00582659 0.025 -443415
0.00893038 0.00602362 0.025 -462651
0.00922949 0.00622537 0.025 -482195
0.00953574 0.00643195 0.025 -503479
0.00984929 0.00664345 0.025 -528099
0.0101703 0.00686 0.025 -555725
0.0104991 0.00708171 0.025 -584261
0.0108356 0.00730871 0.025 -618811
0.0111801 0.0075411 0.025 -656036
0.0115329 0.00777902 0.025 -694343
0.011894 0.00802259 0.025 -738856
0.0122637 0.00827194 0.025 -780741
0.0126421 0.00852719 0.025 -824732
0.0130295 0.0087885 0.025 -866289
0.013426 0.00905597 0.025 -908525
0.013832 0.00932978 0.025 -950376
0.0142475 0.00961003 0.025 -992197
0.0146727 0.0098969 0.025 -1.03475e+06
0.0151081 0.0101905 0.025 -1.07849e+06
0.0155536 0.010491 0.025 -1.12479e+06
0.0160097 0.0107986 0.025 -1.17137e+06
0.0164764 0.0111134 0.025 -1.22187e+06
0.016954 0.0114356 0.025 -1.27538e+06
0.0174427 0.0117653 0.025 -1.32952e+06
0.0179429 0.0121026 0.025 -1.38627e+06
0.0184548 0.0124479 0.025 -1.4516e+06
0.0189786 0.0128013 0.025 -1.49621e+06
0.0195146 0.0131628 0.025 -1.54797e+06
0.020063 0.0135327 0.025 -1.60831e+06
0.0206242 0.0139112 0.025 -1.64705e+06
0.0211983 0.0142984 0.025 -1.67542e+06
0.0217857 0.0146947 0.025 -1.70909e+06
0.0223867 0.0151 0.025 -1.73667e+06
0.0230015 0.0155147 0.025 -1.75828e+06
0.0236304 0.0159389 0.025 -1.78526e+06
0.0242738 0.0163729 0.025 -1.78353e+06
0.0249318 0.0168167 0.025 -1.79446e+06
0.025605 0.0172708 0.025 -1.79857e+06
0.0262935 0.0177352 0.025 -1.77125e+06
0.0269977 0.0182102 0.025 -1.74261e+06
0.0277178 0.0186959 0.025 -1.70519e+06
0.0284544 0.0191927 0.025 -1.72085e+06
0.0292075 0.0197008 0.025 -1.66889e+06
0.0299777 0.0202203 0.025 -1.62183e+06
0.0307653 0.0207514 0.025 -1.59257e+06
0.0315704 0.0212945 0.025 -1.56346e+06
0.0323937 0.0218499 0.025 -1.53872e+06
0.0332354 0.0224176 0.025 -1.51243e+06
0.0340959 0.022998 0.025 -1.48904e+06
0.0349755 0.0235913 0.025 -1.45664e+06
0.0358747 0.0241978 0.025 -1.45486e+06
0.0367938 0.0248178 0.025 -1.42075e+06
0.0377331 0.0254513 0.025 -1.39801e+06
0.0386932 0.0260989 0.025 -1.38133e+06
0.0396743 0.0267606 0.025 -1.36777e+06
0.0406769 0.0274369 0.025 -1.3558e+06
0.0417013 0.0281279 0.025 -1.34313e+06
0.042748 0.0288339 0.025 -1.34131e+06
0.0438175 0.0295552 0.025 -1.32751e+06
0.04491 0.0302922 0.025 -1.31139e+06
0.0460262 0.031045 0.025 -1.31541e+06
0.0471662 0.031814 0.025 -1.32206e+06
0.0483306 0.0325995 0.025 -1.30954e+06
0.0495199 0.0334016 0.025 -1.31577e+06
0.0507344 0.0342208 0.025 -1.31175e+06
0.0519746 0.0350573 0.025 -1.3024e+06
0.0532409 0.0359114 0.025 -1.30734e+06
0.0545339 0.0367835 0.025 -1.2921e+06
0.0558538 0.0376739 0.025 -1.29139e+06
0.0572012 0.0385827 0.025 -1.29522e+06
0.0585766 0.0395104 0.025 -1.29411e+06
0.0599804 0.0404573 0.025 -1.30227e+06
0.061413 0.0414236 0.025 -1.28415e+06
0.0628748 0.0424096 0.025 -1.30892e+06
0.0643665 0.0434157 0.025 -1.30909e+06
0.0658883 0.0444422 0.025 -1.286e+06
0.0674408 0.0454894 0.025 -1.27851e+06
0.0690245 0.0465576 0.025 -1.27992e+06
0.0706398 0.0476471 0.025 -1.27338e+06
0.0722871 0.0487582 0.025 -1.27109e+06
0.0739669 0.0498912 0.025 -1.27319e+06
0.0756797 0.0510466 0.025 -1.28224e+06
0.0774258 0.0522244 0.025 -1.29238e+06
0.0792059 0.053425 0.025 -1.28204e+06
0.0810203 0.0546489 0.025 -1.30533e+06
0.0828694 0.0558961 0.025 -1.27662e+06
0.0847537 0.0571671 0.025 -1.31853e+06
0.0866737 0.0584622 0.025 -1.28184e+06
0.0886298 0.0597816 0.025 -1.28321e+06
0.0906224 0.0611256 0.025 -1.29123e+06
0.0926518 0.0624944 0.025 -1.25706e+06
0.0947185 0.0638884 0.025 -1.30045e+06
0.096823 0.065308 0.025 -1.25487e+06
0.0989659 0.0667532 0.025 -1.34356e+06
0.101147 0.0682245 0.025 -1.70045e+06
0.103367 0.0697219 0.025 -1.60779e+06
0.105626 0.0712458 0.025 -1.21089e+06
0.107926 0.0727965 0.025 -1.20709e+06
0.110265 0.074374 0.025 -1.24333e+06
0.112644 0.0759789 0.025 -1.85353e+06
0.115063 0.0776111 0.025 -1.24516e+06
0.117524 0.0792709 0.025 -1.72214e+06
0.120026 0.0809585 0.025 -1.89494e+06
0.122569 0.0826741 0.025 -1.68136e+06
0.125155 0.0844179 0.025 -1.5002e+06
0.127782 0.0861901 0.025 -1.30125e+06
0.130451 0.0879908 0.025 -1.25517e+06
0.133163 0.08982 0.025 -1.23243e+06
0.135918 0.0916781 0.025 -1.20468e+06
0.138716 0.0935651 0.025 -1.2041e+06
0.141556 0.095481 0.025 -1.2125e+06
0.14444 0.097426 0.025 -1.60102e+06
0.147367 0.0994004 0.025 -2.37773e+06
0.150337 0.101404 0.025 -1.68137e+06
0.153351 0.103437 0.025 -1.62871e+06
0.156408 0.105498 0.025 -2.28714e+06
0.159508 0.107589 0.025 -1.03286e+06
0.162651 0.10971 0.025 -1.5306e+06
0.165838 0.111859 0.025 -3.75928e+06
0.169069 0.114039 0.025 -1.60752e+06
0.172343 0.116247 0.025 -2.00416e+06
0.175659 0.118483 0.025 -1.90159e+06
0.179018 0.120749 0.025 -1.89987e+06
0.182421 0.123045 0.025 -1.96406e+06
0.185866 0.125368 0.025 -1.7238e+06
0.189353 0.12772 0.025 -1.75681e+06
0.192882 0.1301 0.025 -1.86606e+06
0.196453 0.132509 0.025 -1.76536e+06
0.200065 0.134946 0.025 -2.18092e+06
0.203718 0.13741 0.025 -1.96712e+06
0.207412 0.139901 0.025 -933267
0.211146 0.14242 0.025 -996898
0.214919 0.144965 0.025 -1.63592e+06
0.218732 0.147537 0.025 -997219
0.222583 0.150134 0.025 -1.96987e+06
0.226472 0.152757 0.025 -985513
0.230399 0.155406 0.025 -1.85615e+06
0.234362 0.15808 0.025 -1.74612e+06
0.238362 0.160777 0.025 -2.37948e+06
0.242396 0.163498 0.025 -1.96673e+06
0.246466 0.166244 0.025 -2.13298e+06
0.250569 0.169012 0.025 -938795
0.254706 0.171801 0.025 -1.54967e+06
0.258874 0.174613 0.025 -1.55695e+06
0.263074 0.177446 0.025 -1.98901e+06
0.267304 0.180299 0.025 -1.60367e+06
0.271564 0.183172 0.025 -957334
0.275852 0.186064 0.025 -1.64729e+06
0.280168 0.188975 0.025 -931310
0.28451 0.191904 0.025 -1.67279e+06
0.288876 0.19485 0.025 -2.30986e+06
0.293268 0.197812 0.025 -1.63086e+06
0.297683 0.20079 0.025 -1.94799e+06
0.302119 0.203782 0.025 -2.27178e+06
0.306577 0.206788 0.025 -1.40233e+06
0.311054 0.209808 0.025 -1.60011e+06
0.315549 0.212841 0.025 -1.17762e+06
0.320063 0.215885 0.025 -2.05525e+06
0.324591 0.218939 0.025 -1.43905e+06
0.329134 0.222003 0.025 -1.42716e+06
0.333691 0.225077 0.025 -2.24557e+06
0.33826 0.228159 0.025 -1.79596e+06
0.342839 0.231248 0.025 -1.84851e+06
0.347428 0.234343 0.025 -882474
0.352025 0.237444 0.025 -1.96969e+06
0.356628 0.240548 0.025 -1.43104e+06
0.361237 0.243658 0.025 -1.16512e+06
0.36585 0.246769 0.025 -2.64331e+06
0.370465 0.249882 0.025 -1.02898e+06
0.375082 0.252996 0.025 -1.45318e+06
0.379698 0.25611 0.025 -2.26493e+06
0.384313 0.259223 0.025 -1.37266e+06
0.388926 0.262333 0.025 -1.7324e+06
0.393534 0.265442 0.025 -1.42501e+06
0.398136 0.268546 0.025 -887470
0.40273 0.271645 0.025 -1.65253e+06
0.407317 0.274739 0.025 -1.70851e+06
0.411894 0.277826 0.025 -2.16013e+06
0.41646 0.280906 0.025 -842093
0.421014 0.283977 0.025 -1.61613e+06
0.425554 0.28704 0.025 -1.91512e+06
0.430079 0.290092 0.025 -1.49861e+06
0.434588 0.293133 0.025 -1.86448e+06
0.439079 0.296162 0.025 -1.29118e+06
0.443551 0.299179 0.025 -1.68876e+06
0.448004 0.302183 0.025 -1.71784e+06
0.452437 0.305172 0.025 -1.67433e+06
0.456846 0.308146 0.025 -1.5545e+06
0.461232 0.311105 0.025 -1.58192e+06
0.465593 0.314047 0.025 -1.46339e+06
0.469929 0.316971 0.025 -1.94933e+06
0.474238 0.319878 0.025 -1.00038e+06
0.47852 0.322766 0.025 -1.12313e+06
0.482773 0.325635 0.025 -890613
0.486996 0.328483 0.025 -1.3434e+06
0.491189 0.331311 0.025 -2.0502e+06
0.49535 0.334118 0.025 -1.30218e+06
