/*--------------------------------*- C++ -*----------------------------------*\
| =========                 |                                                 |
| \\      /  F ield         | OpenFOAM: The Open Source CFD Toolbox           |
|  \\    /   O peration     | Version:  v2012                                 |
|   \\  /    A nd           | Website:  www.openfoam.com                      |
|    \\/     M anipulation  |                                                 |
\*---------------------------------------------------------------------------*/
FoamFile
{
    version     2.0;
    format      ascii;
    class       volScalarField;
    location    "13200";
    object      alphat;
}
// * * * * * * * * * * * * * * * * * * * * * * * * * * * * * * * * * * * * * //

dimensions      [1 -1 -1 0 0 0 0];


internalField   nonuniform List<scalar> 
31383
(
1.68505e-11
1.69979e-11
1.68624e-11
1.57724e-11
3.16593e-11
3.34018e-11
1.49049e-11
2.91169e-11
3.72136e-10
1.57666e-10
1.42697e-11
2.73031e-11
3.39697e-10
2.88164e-09
6.9202e-10
1.37534e-11
2.59796e-11
3.16418e-10
2.62873e-09
1.38424e-08
2.42414e-09
1.33189e-11
2.49054e-11
2.99468e-10
2.44702e-09
1.26277e-08
4.94283e-08
7.15693e-09
1.29567e-11
2.40085e-11
2.85727e-10
2.31471e-09
1.17538e-08
4.51112e-08
1.44925e-07
1.87215e-08
1.2653e-11
2.32628e-11
2.74314e-10
2.20744e-09
1.11173e-08
4.19994e-08
1.32421e-07
3.67986e-07
4.48691e-08
1.23864e-11
2.26386e-11
2.64842e-10
2.11838e-09
1.0601e-08
3.97306e-08
1.23378e-07
3.36997e-07
8.32363e-07
1.00678e-07
1.2147e-11
2.20952e-11
2.56922e-10
2.04447e-09
1.01723e-08
3.78894e-08
1.16774e-07
3.1446e-07
7.65119e-07
1.70174e-06
2.14359e-07
1.19255e-11
2.16072e-11
2.50069e-10
1.98268e-09
9.81659e-09
3.63599e-08
1.11408e-07
2.97956e-07
7.15792e-07
1.57275e-06
3.17074e-06
4.36408e-07
1.17218e-11
2.11568e-11
2.43915e-10
1.92923e-09
9.51916e-09
3.50903e-08
1.06946e-07
2.84515e-07
6.79521e-07
1.47695e-06
2.95071e-06
5.42422e-06
8.51735e-07
1.15335e-11
2.07436e-11
2.38247e-10
1.88125e-09
9.26191e-09
3.40284e-08
1.03239e-07
2.73319e-07
6.4987e-07
1.40612e-06
2.78454e-06
5.08674e-06
8.59867e-06
1.59315e-06
1.1364e-11
2.03622e-11
2.33055e-10
1.83707e-09
9.031e-09
3.31098e-08
1.00137e-07
2.6401e-07
6.25098e-07
1.3479e-06
2.66088e-06
4.82697e-06
8.12636e-06
1.27743e-05
2.84872e-06
1.12122e-11
2.00209e-11
2.2827e-10
1.79661e-09
8.8184e-09
3.22854e-08
9.74528e-08
2.56208e-07
6.04477e-07
1.29903e-06
2.55858e-06
4.63243e-06
7.75499e-06
1.21604e-05
1.78053e-05
4.85014e-06
1.10773e-11
1.97162e-11
2.24004e-10
1.75933e-09
8.62374e-09
3.15262e-08
9.5043e-08
2.4945e-07
5.8715e-07
1.2583e-06
2.47217e-06
4.47025e-06
7.47526e-06
1.16656e-05
1.71358e-05
2.37239e-05
7.86629e-06
1.09563e-11
1.94449e-11
2.20206e-10
1.72611e-09
8.44438e-09
3.08313e-08
9.28231e-08
2.43381e-07
5.72119e-07
1.22395e-06
2.40011e-06
4.33236e-06
7.24021e-06
1.1291e-05
1.65616e-05
2.29282e-05
3.09239e-05
1.21221e-05
1.08496e-11
1.92032e-11
2.16821e-10
1.69654e-09
8.28454e-09
3.01908e-08
9.0791e-08
2.37783e-07
5.5861e-07
1.19409e-06
2.33904e-06
4.21725e-06
7.03913e-06
1.09742e-05
1.61274e-05
2.22135e-05
2.99831e-05
3.96423e-05
1.77026e-05
1.0754e-11
1.89896e-11
2.13819e-10
1.67017e-09
8.14225e-09
2.96201e-08
8.8918e-08
2.32661e-07
5.46119e-07
1.16722e-06
2.28571e-06
4.11918e-06
6.8709e-06
1.07015e-05
1.57359e-05
2.16667e-05
2.90906e-05
3.85445e-05
5.00473e-05
2.44409e-05
1.06691e-11
1.87995e-11
2.1116e-10
1.64681e-09
8.01545e-09
2.9112e-08
8.72484e-08
2.27935e-07
5.34691e-07
1.1423e-06
2.23774e-06
4.03317e-06
6.72709e-06
1.04726e-05
1.53856e-05
2.12001e-05
2.84077e-05
3.74409e-05
4.88217e-05
6.23757e-05
3.12242e-05
1.05932e-11
1.86306e-11
2.08805e-10
1.62611e-09
7.90305e-09
2.86592e-08
8.57617e-08
2.23721e-07
5.24139e-07
1.11951e-06
2.19304e-06
3.95584e-06
6.60034e-06
1.02768e-05
1.50907e-05
2.07977e-05
2.78311e-05
3.6602e-05
4.74906e-05
6.10676e-05
7.68675e-05
3.88499e-05
1.05256e-11
1.84798e-11
2.06714e-10
1.60778e-09
7.80345e-09
2.82577e-08
8.44362e-08
2.19966e-07
5.1472e-07
1.09842e-06
2.15221e-06
3.88345e-06
6.48649e-06
1.01034e-05
1.48382e-05
2.04586e-05
2.73367e-05
3.58941e-05
4.64714e-05
5.94716e-05
7.55418e-05
9.37473e-05
4.74585e-05
1.04649e-11
1.83456e-11
2.04849e-10
1.59149e-09
7.71529e-09
2.7902e-08
8.32609e-08
2.16617e-07
5.06316e-07
1.07957e-06
2.11428e-06
3.81719e-06
6.37946e-06
9.94758e-06
1.46142e-05
2.01704e-05
2.69179e-05
3.52853e-05
4.56118e-05
5.82453e-05
7.365e-05
9.24802e-05
0.000113199
5.71199e-05
1.04102e-11
1.82255e-11
2.03189e-10
1.57698e-09
7.63694e-09
2.75871e-08
8.22192e-08
2.13646e-07
4.98822e-07
1.0627e-06
2.08031e-06
3.75553e-06
6.28126e-06
9.80076e-06
1.44123e-05
1.99124e-05
2.65633e-05
3.47688e-05
4.48715e-05
5.72086e-05
7.21866e-05
9.02674e-05
0.000111972
0.000135274
6.78027e-05
1.036e-11
1.81172e-11
2.01708e-10
1.56407e-09
7.56713e-09
2.73072e-08
8.12968e-08
2.11012e-07
4.92165e-07
1.04766e-06
2.04984e-06
3.70022e-06
6.18976e-06
9.66566e-06
1.42222e-05
1.96778e-05
2.62451e-05
3.43298e-05
4.42409e-05
5.63156e-05
7.09458e-05
8.85394e-05
0.000109432
0.000133605
0.00015963
7.94078e-05
1.03137e-11
1.80178e-11
2.0037e-10
1.55254e-09
7.50498e-09
2.70577e-08
8.04768e-08
2.08678e-07
4.86259e-07
1.03428e-06
2.0227e-06
3.65046e-06
6.10749e-06
9.53987e-06
1.40467e-05
1.9458e-05
2.59552e-05
3.39389e-05
4.37026e-05
5.55535e-05
6.98758e-05
8.7072e-05
0.00010743
0.000130788
0.000157985
0.000186877
9.17736e-05
1.02711e-11
1.79262e-11
1.99143e-10
1.54213e-09
7.44952e-09
2.68356e-08
7.97458e-08
2.06603e-07
4.81024e-07
1.02241e-06
1.99845e-06
3.6062e-06
6.03331e-06
9.42649e-06
1.38834e-05
1.92557e-05
2.5684e-05
3.35809e-05
4.32268e-05
5.49006e-05
6.89671e-05
8.58043e-05
0.000105727
0.00012855
0.000154812
0.000185671
0.000217471
0.000104542
1.02321e-11
1.78421e-11
1.98015e-10
1.53258e-09
7.39943e-09
2.66374e-08
7.90949e-08
2.04753e-07
4.76368e-07
1.01188e-06
1.97694e-06
3.56648e-06
5.96732e-06
9.32405e-06
1.3736e-05
1.90667e-05
2.54334e-05
3.32477e-05
4.27918e-05
5.4323e-05
6.81855e-05
8.47286e-05
0.000104254
0.000126641
0.000152256
0.000182135
0.000217023
0.000251679
0.000116946
1.01968e-11
1.77654e-11
1.96979e-10
1.5238e-09
7.3535e-09
2.64584e-08
7.8514e-08
2.03104e-07
4.72213e-07
1.0025e-06
1.95783e-06
3.53125e-06
5.90793e-06
9.23279e-06
1.36027e-05
1.88967e-05
2.52012e-05
3.29373e-05
4.23846e-05
5.37988e-05
6.74919e-05
8.3806e-05
0.000102999
0.000124989
0.000150066
0.000179233
0.000213132
0.000252434
0.000289761
0.00012773
1.01647e-11
1.76958e-11
1.96035e-10
1.51574e-09
7.31125e-09
2.62943e-08
7.79893e-08
2.01632e-07
4.68508e-07
9.94125e-07
1.9408e-06
3.49985e-06
5.85529e-06
9.15056e-06
1.34837e-05
1.8743e-05
2.499e-05
3.26508e-05
4.20048e-05
5.33055e-05
6.68625e-05
8.29841e-05
0.000101927
0.000123576
0.000148169
0.000176733
0.000209857
0.000248217
0.000292327
0.000331964
0.000136217
1.01361e-11
1.76329e-11
1.9518e-10
1.5084e-09
7.27248e-09
2.61433e-08
7.75079e-08
2.00303e-07
4.65201e-07
9.86654e-07
1.92558e-06
3.47187e-06
5.8082e-06
9.07769e-06
1.33765e-05
1.86056e-05
2.47997e-05
3.23901e-05
4.16529e-05
5.28481e-05
6.6272e-05
8.2235e-05
0.00010097
0.00012237
0.000146542
0.000174561
0.000207015
0.000244548
0.00028785
0.000337159
0.000378498
0.00014613
1.01105e-11
1.75768e-11
1.9441e-10
1.50175e-09
7.23711e-09
2.60047e-08
7.70652e-08
1.99083e-07
4.62211e-07
9.79979e-07
1.91199e-06
3.44683e-06
5.76628e-06
9.01236e-06
1.32815e-05
1.84823e-05
2.46295e-05
3.21548e-05
4.13351e-05
5.24228e-05
6.57248e-05
8.15359e-05
0.000100095
0.000121293
0.000145154
0.000172698
0.000204541
0.000241333
0.000283773
0.000332534
0.000387411
0.000429519
0.000163564
1.00875e-11
1.75268e-11
1.93723e-10
1.49576e-09
7.20511e-09
2.58783e-08
7.66588e-08
1.97961e-07
4.59469e-07
9.73943e-07
1.89984e-06
3.42445e-06
5.72869e-06
8.95419e-06
1.31961e-05
1.8373e-05
2.44767e-05
3.19446e-05
4.10477e-05
5.20392e-05
6.52144e-05
8.08869e-05
9.92797e-05
0.000120307
0.000143914
0.000171106
0.000202414
0.000238523
0.000280153
0.000328046
0.000382821
0.000443585
0.000485096
0.000175462
1.00662e-11
1.74816e-11
1.9311e-10
1.49041e-09
7.17627e-09
2.57639e-08
7.62884e-08
1.96931e-07
4.56945e-07
9.68403e-07
1.88884e-06
3.40443e-06
5.69505e-06
8.90196e-06
1.31201e-05
1.82742e-05
2.43407e-05
3.17555e-05
4.07905e-05
5.16929e-05
6.4755e-05
8.02814e-05
9.85218e-05
0.00011939
0.000142777
0.000169683
0.000200595
0.000236104
0.000276974
0.000323994
0.00037794
0.00043931
0.000506192
0.000545158
0.000176216
1.00464e-11
1.744e-11
1.92557e-10
1.48564e-09
7.15052e-09
2.56608e-08
7.59531e-08
1.95992e-07
4.54627e-07
9.63303e-07
1.87874e-06
3.3863e-06
5.66495e-06
8.85518e-06
1.30518e-05
1.81867e-05
2.4219e-05
3.15875e-05
4.05592e-05
5.13822e-05
6.43406e-05
7.9737e-05
9.78176e-05
0.000118537
0.000141721
0.000168378
0.000198967
0.000234032
0.000274232
0.000320414
0.000373434
0.000434082
0.000502647
0.000575737
0.000609435
0.000172456
1.00263e-11
1.74013e-11
1.92047e-10
1.48134e-09
7.12757e-09
2.55686e-08
7.56505e-08
1.95142e-07
4.52512e-07
9.58618e-07
1.86944e-06
3.36963e-06
5.63765e-06
8.8133e-06
1.29906e-05
1.81077e-05
2.41105e-05
3.14373e-05
4.03538e-05
5.11033e-05
6.39683e-05
7.9246e-05
9.71831e-05
0.000117747
0.000140738
0.000167166
0.000197474
0.000232177
0.00027188
0.000317315
0.000369419
0.000429108
0.000497162
0.000573521
0.000652701
0.000677391
0.000163936
1.00091e-11
1.73618e-11
1.91575e-10
1.47737e-09
7.10685e-09
2.54865e-08
7.53801e-08
1.94374e-07
4.50598e-07
9.54342e-07
1.86089e-06
3.35427e-06
5.61255e-06
8.77528e-06
1.29356e-05
1.80376e-05
2.40126e-05
3.13027e-05
4.01694e-05
5.08553e-05
6.36344e-05
7.88048e-05
9.66109e-05
0.000117033
0.000139828
0.000166037
0.000196086
0.000230473
0.000269771
0.000314655
0.000365931
0.00042463
0.000491722
0.00056793
0.000652656
0.000737505
0.000746507
0.00015066
1.00612e-11
1.73289e-11
1.91088e-10
1.47369e-09
7.08774e-09
2.54124e-08
7.51391e-08
1.93689e-07
4.4887e-07
9.50469e-07
1.85309e-06
3.34015e-06
5.58937e-06
8.74026e-06
1.28859e-05
1.7974e-05
2.39252e-05
3.11818e-05
4.00046e-05
5.06323e-05
6.33373e-05
7.84085e-05
9.60964e-05
0.000116388
0.000139006
0.000164992
0.000194795
0.000228889
0.000267832
0.000312264
0.00036293
0.000420719
0.000486755
0.00056205
0.000647198
0.000740804
0.000830472
0.000812955
0.000132982
1.6349e-11
1.73355e-11
1.90692e-10
1.46991e-09
7.07006e-09
2.5344e-08
7.49214e-08
1.93077e-07
4.47326e-07
9.46971e-07
1.84602e-06
3.32725e-06
5.56804e-06
8.70791e-06
1.284e-05
1.79168e-05
2.38469e-05
3.10733e-05
3.98567e-05
5.04334e-05
6.30702e-05
7.80563e-05
9.56343e-05
0.000115809
0.000138264
0.000164049
0.000193598
0.000227415
0.00026603
0.000310064
0.000360229
0.000417345
0.00048239
0.000556581
0.000640939
0.000735836
0.000838722
0.000931782
0.000876391
0.000111699
1.06381e-11
7.18653e-11
1.89892e-10
1.46683e-09
7.05185e-09
2.52807e-08
7.47205e-08
1.92524e-07
4.45946e-07
9.43845e-07
1.83961e-06
3.31556e-06
5.54858e-06
8.67818e-06
1.27976e-05
1.78637e-05
2.37758e-05
3.09764e-05
3.97238e-05
5.02547e-05
6.28316e-05
7.77397e-05
9.52236e-05
0.000115289
0.000137596
0.000163198
0.000192519
0.00022605
0.000264351
0.000308018
0.000357739
0.000414303
0.000478614
0.000551735
0.000634969
0.000729312
0.000834769
0.000947151
0.0010414
0.00093604
8.82146e-05
1.08143e-11
2.19767e-11
1.08869e-09
1.46011e-09
7.03704e-09
2.52156e-08
7.45346e-08
1.92014e-07
4.447e-07
9.41052e-07
1.83388e-06
3.30494e-06
5.53093e-06
8.65104e-06
1.27587e-05
1.78149e-05
2.37097e-05
3.0888e-05
3.96048e-05
5.00944e-05
6.26175e-05
7.74562e-05
9.48544e-05
0.000114826
0.000136998
0.000162432
0.000191546
0.000224819
0.000262797
0.000306111
0.000355421
0.000411494
0.000475199
0.000547524
0.000629622
0.000722866
0.000828161
0.000944958
0.00106678
0.00115903
0.000990512
6.45339e-05
1.28337e-11
2.37148e-11
2.71687e-10
8.18645e-09
7.00429e-09
2.51626e-08
7.43433e-08
1.91542e-07
4.43549e-07
9.38526e-07
1.82877e-06
3.29545e-06
5.51493e-06
8.6264e-06
1.2723e-05
1.777e-05
2.36492e-05
3.08067e-05
3.94964e-05
4.99499e-05
6.24255e-05
7.72017e-05
9.45232e-05
0.000114409
0.000136464
0.000161745
0.00019067
0.000223709
0.000261396
0.000304345
0.000353261
0.000408875
0.000472038
0.000543704
0.00062495
0.000717008
0.000821301
0.000938554
0.0010674
0.00119818
0.00128395
0.00103799
4.30616e-05
1.16554e-11
3.81752e-11
3.08582e-10
2.12405e-09
3.80979e-08
2.50443e-08
7.4188e-08
1.91056e-07
4.42484e-07
9.36194e-07
1.82415e-06
3.28698e-06
5.50065e-06
8.60405e-06
1.26906e-05
1.7729e-05
2.35932e-05
3.07316e-05
3.9397e-05
4.9819e-05
6.2252e-05
7.6974e-05
9.42257e-05
0.000114036
0.000135984
0.000161133
0.000189884
0.000222709
0.000260133
0.000302756
0.000351259
0.000406431
0.000469087
0.000540158
0.000620694
0.000711859
0.000814947
0.000931395
0.00106162
0.00120306
0.00134179
0.00141502
0.00107657
2.60169e-05
1.03143e-11
3.09422e-11
5.8615e-10
2.44522e-09
1.01699e-08
1.32961e-07
7.38349e-08
1.90662e-07
4.41382e-07
9.34034e-07
1.81988e-06
3.27932e-06
5.48786e-06
8.58416e-06
1.26613e-05
1.76916e-05
2.35424e-05
3.06623e-05
3.93047e-05
4.96985e-05
6.2095e-05
7.67683e-05
9.39594e-05
0.0001137
0.000135554
0.000160581
0.000189183
0.000221813
0.000258996
0.000301323
0.000349459
0.000404167
0.000466329
0.000536842
0.000616731
0.000707141
0.000809311
0.000924583
0.00105435
0.00119853
0.00135291
0.00149775
0.00155045
0.00110476
1.45437e-05
1.00827e-11
2.22549e-11
4.42482e-10
4.67833e-09
1.18825e-08
3.60231e-08
3.83917e-07
1.89743e-07
4.40489e-07
9.31787e-07
1.81592e-06
3.27224e-06
5.47628e-06
8.56636e-06
1.26352e-05
1.7658e-05
2.34961e-05
3.05993e-05
3.92199e-05
4.95868e-05
6.19501e-05
7.65818e-05
9.37195e-05
0.000113399
0.000135167
0.000160087
0.000188553
0.000221013
0.000257977
0.000300031
0.000347836
0.000402133
0.000463775
0.000533737
0.000613014
0.000702726
0.000804111
0.00091847
0.00104716
0.00119143
0.0013505
0.00151777
0.00166589
0.00168771
0.00112231
8.10343e-06
9.87187e-12
2.11661e-11
2.76714e-10
3.4641e-09
2.27143e-08
4.27002e-08
1.05388e-07
9.65899e-07
4.38344e-07
9.29971e-07
1.81182e-06
3.26568e-06
5.46557e-06
8.55014e-06
1.26119e-05
1.76281e-05
2.34544e-05
3.05422e-05
3.91424e-05
4.94841e-05
6.18159e-05
7.64098e-05
9.35014e-05
0.000113128
0.000134819
0.000159642
0.000187987
0.000220294
0.000257067
0.000298874
0.000346372
0.0004003
0.00046148
0.000530863
0.00060953
0.000698577
0.000799219
0.000912778
0.00104061
0.00118402
0.001344
0.0015187
0.00169832
0.00184551
0.0018203
0.00113199
5.02465e-06
9.83247e-12
1.72246e-11
2.55546e-10
2.12077e-09
1.65969e-08
8.16822e-08
1.25453e-07
2.68664e-07
2.17067e-06
9.25432e-07
1.80853e-06
3.25889e-06
5.45564e-06
8.53512e-06
1.25906e-05
1.76013e-05
2.34171e-05
3.04905e-05
3.90725e-05
4.93904e-05
6.16925e-05
7.62503e-05
9.33006e-05
0.000112882
0.000134506
0.000159243
0.000187478
0.000219648
0.000256247
0.000297841
0.000345061
0.000398644
0.000459413
0.000528279
0.000606303
0.000694679
0.000794604
0.000907386
0.00103443
0.00117709
0.00133658
0.00151343
0.00170429
0.00189498
0.0020353
0.0019247
0.0011423
3.75035e-06
9.81827e-12
1.6953e-11
1.878e-10
1.93801e-09
1.0041e-08
5.90686e-08
2.41186e-07
3.17567e-07
6.13955e-07
4.39024e-06
1.7998e-06
3.25347e-06
5.44535e-06
8.52123e-06
1.25709e-05
1.7577e-05
2.33839e-05
3.04441e-05
3.9009e-05
4.93056e-05
6.15803e-05
7.61034e-05
9.3114e-05
0.000112654
0.000134222
0.000158883
0.000187021
0.000219067
0.000255513
0.000296911
0.000343891
0.000397163
0.000457545
0.000525953
0.000603402
0.000691063
0.000790254
0.000902277
0.00102853
0.00117047
0.00132942
0.00150635
0.00170113
0.00190826
0.00210775
0.00223313
0.00200641
0.00116228
3.31842e-06
9.80821e-12
1.69134e-11
1.84393e-10
1.43421e-09
9.10218e-09
3.53532e-08
1.73043e-07
6.17415e-07
7.1333e-07
1.27638e-06
7.99297e-06
3.23827e-06
5.43713e-06
8.5068e-06
1.25526e-05
1.75546e-05
2.33538e-05
3.0403e-05
3.89524e-05
4.92287e-05
6.14784e-05
7.59701e-05
9.29422e-05
0.000112444
0.00013396
0.000158557
0.000186608
0.000218545
0.000254851
0.000296076
0.000342838
0.000395841
0.000455875
0.000523852
0.00060079
0.000687815
0.000786215
0.000897444
0.0010229
0.00116406
0.00132241
0.00149915
0.00169489
0.00190844
0.00213141
0.00233611
0.00243586
0.0020695
0.00114241
3.20515e-06
9.79276e-12
1.68889e-11
1.83475e-10
1.40736e-09
6.84606e-09
3.18061e-08
1.02299e-07
4.40677e-07
1.40727e-06
1.45102e-06
2.43252e-06
1.31495e-05
5.41305e-06
8.49534e-06
1.25335e-05
1.75337e-05
2.33259e-05
3.03657e-05
3.89021e-05
4.91604e-05
6.13862e-05
7.58489e-05
9.27862e-05
0.00011225
0.000133717
0.000158255
0.000186234
0.000218074
0.000254256
0.000295324
0.000341892
0.000394651
0.000454384
0.000521973
0.000598431
0.000684891
0.000782588
0.000892948
0.00101756
0.00115791
0.00131553
0.00149188
0.00168796
0.00190376
0.00213663
0.0023742
0.00257877
0.00263911
0.0021146
0.00102796
3.19251e-06
9.77789e-12
1.68538e-11
1.82971e-10
1.39779e-09
6.71209e-09
2.439e-08
9.13391e-08
2.56615e-07
1.00252e-06
2.88174e-06
2.70725e-06
4.27247e-06
1.97938e-05
8.46049e-06
1.25185e-05
1.75115e-05
2.32999e-05
3.03308e-05
3.88562e-05
4.90996e-05
6.13043e-05
7.57392e-05
9.26442e-05
0.000112073
0.000133493
0.000157975
0.000185888
0.000217646
0.00025372
0.000294649
0.00034104
0.000393582
0.000453042
0.000520295
0.000596321
0.000682247
0.000779324
0.00088891
0.00101257
0.00115203
0.00130885
0.00148459
0.00168062
0.00189756
0.00213452
0.00238676
0.00263658
0.00283349
0.00283698
0.00213851
0.000877048
3.20433e-06
9.76744e-12
1.68201e-11
1.82339e-10
1.39267e-09
6.65709e-09
2.38929e-08
7.17205e-08
2.27954e-07
5.7552e-07
2.05822e-06
5.30381e-06
4.66216e-06
6.96188e-06
2.77432e-05
1.24718e-05
1.74945e-05
2.32723e-05
3.02987e-05
3.88133e-05
4.90441e-05
6.12312e-05
7.56419e-05
9.25151e-05
0.000111912
0.000133289
0.000157717
0.000185567
0.00021725
0.000253232
0.00029404
0.000340276
0.000392619
0.000451837
0.000518785
0.000594437
0.000679883
0.00077637
0.000885277
0.0010081
0.00114653
0.00130243
0.00147743
0.00167304
0.00189044
0.00212969
0.00238862
0.00265956
0.00291782
0.00309679
0.00298698
0.00213648
0.000697638
3.21941e-06
9.75861e-12
1.67967e-11
1.81723e-10
1.38662e-09
6.6281e-09
2.36713e-08
7.02132e-08
1.84004e-07
5.12059e-07
1.17678e-06
3.81939e-06
8.79855e-06
7.46402e-06
1.06203e-05
3.68208e-05
1.74416e-05
2.32512e-05
3.02645e-05
3.87738e-05
4.89921e-05
6.11646e-05
7.55548e-05
9.24004e-05
0.000111762
0.000133104
0.000157483
0.000185271
0.000216883
0.00025278
0.000293484
0.000339584
0.000391753
0.00045075
0.000517428
0.000592742
0.000677773
0.00077373
0.000881988
0.00100407
0.00114159
0.0012964
0.00147047
0.00166546
0.00188276
0.00212322
0.00238606
0.0026673
0.00295529
0.00321622
0.00336368
0.00308791
0.00210726
0.000502713
3.23453e-06
9.74989e-12
1.67776e-11
1.81298e-10
1.38063e-09
6.59476e-09
2.35556e-08
6.95055e-08
1.80071e-07
4.24778e-07
1.05453e-06
2.21879e-06
6.42536e-06
1.33171e-05
1.12133e-05
1.5328e-05
4.69021e-05
2.31864e-05
3.02382e-05
3.8732e-05
4.89442e-05
6.11021e-05
7.54755e-05
9.22978e-05
0.000111629
0.000132937
0.00015727
0.000185003
0.000216545
0.000252362
0.000292971
0.000338954
0.000390972
0.000449772
0.000516206
0.000591219
0.000675876
0.000771373
0.000879048
0.00100042
0.00113714
0.00129097
0.0014639
0.001658
0.00187488
0.00211574
0.00238086
0.00266828
0.00297149
0.00327353
0.00352888
0.00362739
0.00314907
0.00205988
0.000315292
3.24797e-06
9.74203e-12
1.6759e-11
1.80979e-10
1.37652e-09
6.56167e-09
2.34248e-08
6.91383e-08
1.78159e-07
4.15704e-07
8.96994e-07
2.00628e-06
3.87802e-06
9.91006e-06
1.87349e-05
1.59738e-05
2.09782e-05
5.79158e-05
3.0158e-05
3.86993e-05
4.88933e-05
6.10445e-05
7.54011e-05
9.22045e-05
0.000111511
0.000132787
0.000157078
0.000184759
0.000216238
0.000251977
0.000292495
0.000338373
0.000390259
0.00044889
0.000515105
0.000589847
0.000674171
0.000769254
0.000876423
0.000997151
0.0011331
0.00128608
0.00145798
0.00165091
0.00186701
0.00210776
0.00237399
0.00266521
0.00297773
0.0033016
0.00361287
0.00385128
0.003879
0.00317552
0.00201527
0.000164236
3.25874e-06
9.73565e-12
1.67421e-11
1.80684e-10
1.37355e-09
6.53889e-09
2.32945e-08
6.87291e-08
1.77175e-07
4.11175e-07
8.7821e-07
1.74649e-06
3.54063e-06
6.31612e-06
1.42594e-05
2.49762e-05
2.14961e-05
2.76832e-05
6.98311e-05
3.86035e-05
4.88534e-05
6.09831e-05
7.53322e-05
9.21169e-05
0.000111402
0.000132654
0.000156906
0.000184538
0.000215959
0.000251626
0.000292056
0.000337832
0.0003896
0.000448086
0.00051411
0.00058861
0.000672633
0.000767349
0.000874063
0.000994237
0.00112949
0.00128164
0.00145264
0.0016445
0.00185944
0.00209959
0.00236621
0.00265956
0.00297798
0.00331543
0.00365735
0.00397066
0.00417698
0.00406125
0.0031663
0.0019729
6.92318e-05
3.26569e-06
9.73111e-12
1.67288e-11
1.80423e-10
1.37086e-09
6.52287e-09
2.32048e-08
6.8318e-08
1.7608e-07
4.08862e-07
8.68668e-07
1.71143e-06
3.14846e-06
5.82173e-06
9.65597e-06
1.94972e-05
3.20506e-05
2.81048e-05
3.58409e-05
8.26496e-05
4.87444e-05
6.09349e-05
7.52591e-05
9.20354e-05
0.000111301
0.000132532
0.000156752
0.000184341
0.000215707
0.000251308
0.000291658
0.000337333
0.000388987
0.00044734
0.000513204
0.000587492
0.000671246
0.00076563
0.000871941
0.000991619
0.00112627
0.00127767
0.00144778
0.00163871
0.00185257
0.00209164
0.00235796
0.00265241
0.00297441
0.00332063
0.00368185
0.0040374
0.00434257
0.00449723
0.00416513
0.00311324
0.00175388
2.51879e-05
3.2691e-06
9.72254e-12
1.67185e-11
1.80226e-10
1.36853e-09
6.50858e-09
2.31428e-08
6.80367e-08
1.74986e-07
4.06301e-07
8.63822e-07
1.69341e-06
3.08925e-06
5.27584e-06
8.97709e-06
1.39828e-05
2.57091e-05
4.00497e-05
3.61226e-05
4.5745e-05
9.64025e-05
6.08104e-05
7.52013e-05
9.19491e-05
0.000111206
0.000132418
0.000156612
0.000184165
0.000215482
0.000251021
0.000291297
0.000336883
0.000388423
0.000446648
0.000512364
0.000586474
0.000669994
0.00076408
0.000870025
0.000989263
0.00112338
0.00127412
0.00144343
0.00163344
0.00184635
0.00208438
0.00234977
0.00264439
0.00296851
0.00332031
0.0036942
0.00407667
0.00443909
0.00472217
0.00480053
0.00420083
0.00300893
0.00140976
9.46897e-06
3.26951e-06
9.5129e-12
1.67019e-11
1.80078e-10
1.36682e-09
6.49626e-09
2.3088e-08
6.7845e-08
1.74233e-07
4.03729e-07
8.58476e-07
1.68432e-06
3.05855e-06
5.18461e-06
8.26767e-06
1.30935e-05
1.93625e-05
3.30026e-05
4.80109e-05
4.57213e-05
5.76283e-05
0.000111159
7.50535e-05
9.18806e-05
0.000111106
0.000132312
0.000156481
0.000184005
0.000215281
0.000250765
0.000290971
0.000336473
0.000387912
0.00044601
0.000511583
0.000585529
0.000668851
0.000762681
0.000868299
0.000987136
0.00112077
0.00127094
0.00143956
0.00162871
0.00184068
0.00207778
0.00234224
0.00263621
0.00296119
0.00331655
0.00369875
0.00409912
0.00449844
0.0048579
0.0051005
0.0050325
0.00417395
0.00287075
0.00101301
4.75087e-06
3.26868e-06
5.85544e-12
1.6462e-11
1.79871e-10
1.36559e-09
6.4874e-09
2.30412e-08
6.76756e-08
1.73724e-07
4.01964e-07
8.5309e-07
1.67428e-06
3.04315e-06
5.13708e-06
8.13782e-06
1.22186e-05
1.81678e-05
2.55813e-05
4.12179e-05
5.74734e-05
5.71837e-05
7.16965e-05
0.000127038
9.16984e-05
0.000111026
0.000132198
0.000156358
0.000183854
0.000215098
0.000250537
0.000290679
0.000336102
0.000387448
0.000445433
0.000510864
0.00058465
0.000667791
0.000761402
0.000866739
0.000985218
0.00111842
0.00126807
0.00143607
0.0016245
0.00183559
0.00207174
0.00233535
0.00262857
0.00295334
0.00331057
0.00369832
0.0041107
0.00453485
0.00494418
0.00528709
0.00546553
0.00515514
0.00408652
0.00275456
0.000619291
3.48627e-06
3.2666e-06
1.12202e-13
1.16501e-11
1.78517e-10
1.36395e-09
6.48125e-09
2.30079e-08
6.75317e-08
1.7328e-07
4.00781e-07
8.49398e-07
1.66414e-06
3.02618e-06
5.11342e-06
8.06994e-06
1.20445e-05
1.71584e-05
2.40554e-05
3.30789e-05
5.03124e-05
6.91208e-05
7.07576e-05
8.79284e-05
0.000144235
0.000110798
0.00013211
0.000156227
0.000183713
0.000214925
0.000250329
0.00029042
0.000335773
0.000387029
0.000444909
0.000510213
0.00058384
0.000666804
0.000760215
0.000865314
0.000983485
0.00111629
0.00126548
0.00143293
0.00162071
0.00183104
0.00206631
0.00232902
0.00262155
0.00294589
0.00330358
0.00369462
0.00411525
0.00455636
0.00499964
0.00540897
0.00571704
0.00580181
0.00518008
0.0039411
0.00264293
0.000304141
3.17773e-06
3.26365e-06
2.23689e-12
2.34085e-12
1.41763e-10
1.35435e-09
6.47325e-09
2.29852e-08
6.74308e-08
1.72903e-07
3.99755e-07
8.46944e-07
1.6572e-06
3.00891e-06
5.08717e-06
8.03635e-06
1.19538e-05
1.69446e-05
2.28376e-05
3.12035e-05
4.18326e-05
6.14555e-05
8.30353e-05
8.66853e-05
0.000106002
0.00016262
0.00013183
0.000156126
0.000183562
0.000214764
0.000250131
0.000290184
0.000335479
0.000386657
0.000444437
0.000509623
0.000583107
0.000665894
0.000759111
0.000863988
0.000981901
0.00111438
0.00126314
0.00143009
0.00161729
0.00182695
0.00206147
0.00232331
0.00261504
0.00293895
0.0032967
0.00368919
0.00411509
0.00456811
0.00503491
0.00548997
0.00588529
0.0061347
0.00601669
0.00511292
0.0037456
0.00214092
0.000115083
3.10826e-06
3.26155e-06
1.85705e-12
2.77812e-10
4.70634e-11
1.08383e-09
6.42797e-09
2.29568e-08
6.73636e-08
1.7264e-07
3.98882e-07
8.44817e-07
1.65262e-06
2.99711e-06
5.06063e-06
7.99917e-06
1.19092e-05
1.68368e-05
2.25675e-05
2.97328e-05
3.97628e-05
5.23947e-05
7.48979e-05
9.92823e-05
0.000105022
0.000126709
0.000183399
0.000155793
0.000183445
0.000214591
0.000249946
0.000289959
0.00033521
0.000386325
0.000444018
0.000509091
0.000582444
0.000665071
0.000758092
0.000862754
0.000980427
0.00111262
0.00126103
0.00142753
0.0016142
0.00182328
0.00205711
0.00231822
0.00260916
0.00293244
0.00329017
0.00368346
0.0041122
0.00457319
0.00505678
0.00554396
0.00600009
0.00636244
0.00652309
0.00609964
0.00495672
0.00353766
0.00154232
3.63452e-05
3.09384e-06
3.2603e-06
2.23038e-12
8.73935e-11
6.23197e-09
3.67576e-10
5.14567e-09
2.27969e-08
6.72799e-08
1.72469e-07
3.98276e-07
8.43011e-07
1.64864e-06
2.98944e-06
5.04234e-06
7.96144e-06
1.186e-05
1.67844e-05
2.24306e-05
2.93922e-05
3.80969e-05
4.9956e-05
6.50668e-05
9.07283e-05
0.000117952
0.000125269
0.000150352
0.000207842
0.000183049
0.000214457
0.00024975
0.000289749
0.000334956
0.000386021
0.000443643
0.00050862
0.000581847
0.000664328
0.00075717
0.000861616
0.000979052
0.00111099
0.00125909
0.00142521
0.00161141
0.00181994
0.00205318
0.00231362
0.00260389
0.00292654
0.00328394
0.0036778
0.0041084
0.00457421
0.00506941
0.00557984
0.00607921
0.00652132
0.00682586
0.00681608
0.00605938
0.00472018
0.00335734
0.000930966
1.15907e-05
3.09048e-06
3.25939e-06
2.55661e-12
8.49861e-11
1.78091e-09
4.7395e-08
1.74086e-09
1.82576e-08
6.68196e-08
1.72257e-07
3.97888e-07
8.4176e-07
1.64529e-06
2.98272e-06
5.03061e-06
7.93553e-06
1.18098e-05
1.67264e-05
2.23632e-05
2.92197e-05
3.76683e-05
4.81392e-05
6.21458e-05
8.00547e-05
0.000108907
0.000138965
0.00014826
0.000177266
0.000235596
0.000213985
0.000249596
0.000289525
0.000334719
0.000385734
0.000443301
0.000508199
0.000581317
0.000663659
0.000756337
0.000860585
0.000977784
0.00110946
0.00125729
0.00142309
0.00160889
0.00181692
0.00204961
0.00230948
0.00259914
0.00292124
0.00327824
0.00367224
0.00410428
0.00457347
0.00507618
0.0056031
0.00613415
0.00663369
0.00704141
0.00725645
0.00694804
0.00589925
0.00442699
0.00288932
0.000437288
4.98271e-06
3.08962e-06
3.25856e-06
2.96138e-12
9.35408e-11
1.72264e-09
1.41208e-08
2.0898e-07
6.16291e-09
5.36208e-08
1.71122e-07
3.97416e-07
8.40974e-07
1.643e-06
2.97708e-06
5.02037e-06
7.91906e-06
1.17756e-05
1.66675e-05
2.22924e-05
2.91394e-05
3.74572e-05
4.76139e-05
6.01061e-05
7.65712e-05
9.74339e-05
0.000128873
0.000161903
0.000174428
0.000207825
0.00026769
0.000249034
0.000289349
0.000334464
0.000385466
0.000442978
0.000507815
0.000580846
0.000663066
0.00075559
0.000859657
0.000976636
0.00110805
0.0012556
0.00142111
0.00160657
0.00181419
0.00204638
0.00230571
0.00259485
0.00291644
0.0032731
0.00366706
0.00409993
0.00457178
0.00507997
0.00561805
0.00617203
0.00671416
0.00719715
0.00754364
0.00759129
0.00692761
0.00562697
0.00414518
0.00211259
0.000153241
3.3972e-06
3.08937e-06
3.25776e-06
3.29154e-12
1.20124e-10
1.89444e-09
1.35366e-08
7.3279e-08
6.73304e-07
1.81319e-08
1.37957e-07
3.94972e-07
8.40024e-07
1.64155e-06
2.97324e-06
5.01172e-06
7.90463e-06
1.17539e-05
1.66276e-05
2.22196e-05
2.90529e-05
3.73599e-05
4.73577e-05
5.94649e-05
7.42553e-05
9.34104e-05
0.000116765
0.000151486
0.000187875
0.000204151
0.000242442
0.000304746
0.000288681
0.000334263
0.000385178
0.000442675
0.000507452
0.000580416
0.000662539
0.000754929
0.000858825
0.000975603
0.00110678
0.00125404
0.00141925
0.00160441
0.00181169
0.00204346
0.0023023
0.00259094
0.00291211
0.00326843
0.00366237
0.00409574
0.00456939
0.00508196
0.00562838
0.00619841
0.00677188
0.00731133
0.00775512
0.00800606
0.00774476
0.00675798
0.00527153
0.00390313
0.00129318
4.34083e-05
3.05005e-06
3.08928e-06
3.25709e-06
3.6156e-12
1.46948e-10
2.44382e-09
1.48534e-08
6.58452e-08
2.81874e-07
1.76979e-06
4.70584e-08
3.21105e-07
8.35402e-07
1.63981e-06
2.97085e-06
5.00585e-06
7.89238e-06
1.17348e-05
1.66009e-05
2.21692e-05
2.89656e-05
3.72529e-05
4.72439e-05
5.91621e-05
7.34784e-05
9.08098e-05
0.000112559
0.000138641
0.000177173
0.000217227
0.000237847
0.000281576
0.000346956
0.000333468
0.000384948
0.000442349
0.00050711
0.000580009
0.000662059
0.000754341
0.000858088
0.000974678
0.00110564
0.00125264
0.00141754
0.00160238
0.00180934
0.00204077
0.00229921
0.00258739
0.00290813
0.0032642
0.00365808
0.0040919
0.00456685
0.00508258
0.00563572
0.00621795
0.00681394
0.00739556
0.0079132
0.00828803
0.00835002
0.00772187
0.0064449
0.00489362
0.00316521
0.00060759
1.22654e-05
2.98022e-06
3.08919e-06
3.25652e-06
3.95936e-12
1.66694e-10
2.99706e-09
1.92709e-08
7.14901e-08
2.49838e-07
8.75174e-07
4.01617e-06
1.11741e-07
6.88138e-07
1.63214e-06
2.96797e-06
5.00227e-06
7.88418e-06
1.17185e-05
1.65768e-05
2.21398e-05
2.89043e-05
3.71463e-05
4.71199e-05
5.902e-05
7.31181e-05
8.98898e-05
0.000109806
0.000133809
0.000163593
0.000206288
0.00025035
0.000275983
0.000325727
0.000394582
0.000384007
0.000442089
0.000506743
0.000579626
0.000661605
0.000753807
0.000857436
0.000973862
0.00110461
0.00125137
0.00141599
0.0016005
0.00180713
0.00203825
0.00229637
0.00258417
0.00290452
0.00326029
0.00365415
0.00408834
0.0045644
0.00508256
0.00564075
0.00623287
0.00684618
0.00745876
0.00803233
0.00850246
0.00877042
0.00849478
0.00752226
0.00601723
0.00454489
0.00217029
0.000205292
4.83737e-06
2.96736e-06
3.08911e-06
3.25585e-06
4.291e-12