/*--------------------------------*- C++ -*----------------------------------*\
| =========                 |                                                 |
| \\      /  F ield         | OpenFOAM: The Open Source CFD Toolbox           |
|  \\    /   O peration     | Version:  v2012                                 |
|   \\  /    A nd           | Website:  www.openfoam.com                      |
|    \\/     M anipulation  |                                                 |
\*---------------------------------------------------------------------------*/
FoamFile
{
    version     2.0;
    format      ascii;
    class       volScalarField;
    location    ""0"";
    object      betann;
}

// * * * * * * * * * * * * * * * * * * * * * * * * * * * * * * * * * * * * * //

dimensions      [0 0 0 0 0 0 0];

internalField   nonuniform List<scalar>
31383
(
0.9913007590021088
0.9909384350484691
1.0090557584789812
0.9909820677530854
1.0087785510816187
1.0092606900955505
0.9910155335294732
1.0087934515917876
1.0083420655757274
1.00917613770307
0.9910408102576622
1.0088050650434803
1.0083756149995302
1.0073900882607338
1.0090141503597436
0.9910620112541053
1.0088139465576451
1.0084020329333145
1.0074535925408512
1.0061469996226997
1.008801875275505
0.9910800679810406
1.008821392605514
1.0084222739820359
1.007503581125732
1.0062498269275808
1.0046281140968156
1.0085387760613955
0.9910953960901192
1.008827692418723
1.008439279816718
1.007541862039186
1.0063307088691815
1.0047796915360385
1.0028235979794433
1.0082181316003058
0.9911087232995648
1.0088330812993191
1.0084536566953919
1.00757402755137
1.0063926154761098
1.004898846181767
1.0030332314899806
1.0007256091275512
1.0078293971097163
0.9911201726109651
1.0088377253377774
1.0084659581141866
1.0076012164682757
1.0064446269444214
1.0049900484305594
1.0031980387171409
1.0010010804472484
0.9983511020875104
1.0073596623238754
0.991130655403772
1.0088417650300694
1.0084765618231435
1.0076244735652629
1.0064885918701627
1.0050666042689385
1.0033241708915195
1.0012179154443945
0.9986952013213524
0.9941553665993934
1.0067923858936056
0.9911401818958254
1.0088454219358514
1.0084857591298426
1.007644510823771
1.0065261707680064
1.0051313334688987
1.003430074864951
1.001383986468106
0.9989671601517359
0.9947645787631874
0.9881144683258378
1.0061160128117543
0.991148715718453
1.008848776167878
1.0084941027445244
1.0076619033826921
1.0065585632476122
1.005186640530374
1.0035196033799438
1.0015234965842488
0.9991759262648782
0.9952630000186664
0.9891037982347483
0.981981406033517
1.0053163821761881
0.9911567185789659
1.0088518536759588
1.0085017939472858
1.007677667296193
1.0065866684802904
1.0052343358444922
1.0035961100525628
1.0016414581719097
0.9993514626658989
0.9956488670437719
0.9899289305992556
0.9829823151263061
0.9766222637338783
1.0043801350510781
0.9911638357988327
1.0088546883016019
1.0085088489259983
1.0076921965687426
1.0066121252856448
1.0052756999531127
1.0036620739809263
1.0017423847909497
0.9995000278216764
0.9959764196520937
0.9905683586472003
0.9838361493124309
0.977576649317584
0.9722620145979409
1.0033300131266731
0.9911703045479502
1.0088572460451228
1.0085153858403018
1.0077055170687368
1.006635582575492
1.0053131508878421
1.0037193349435145
1.0018293618122187
0.9996272715851792
0.9962548990665345
0.9911140232282221
0.9844982103930342
0.9784114292058499
0.9731351265210333
0.9689221570831785
1.0022143004878519
0.9911761299049788
1.0088595423420055
1.0085212484850619
1.0077178561046456
1.0066570744389247
1.0053476223926583
1.003771104352311
1.0019048813502331
0.9997370759613473
0.9964930386290811
0.9915847345336719
0.9850677811616804
0.9790599075930705
0.9739200834770236
0.9697059700693691
0.9664729700218677
1.001041645061741
0.9911814362869833
1.0088616338693581
1.0085265204850462
1.007728915351986
1.006676973573861
1.00537922187956
1.0038187594997514
1.0019731663759481
0.999832421955379
0.9967001594191393
0.9919780993432004
0.9855628401463752
0.979622500229201
0.9745316175999955
0.9704306181449098
0.967184380686842
0.9647561007254093
0.9998359688881339
0.9911862611193
1.0088635006964457
1.008531310900618
1.0077388735477955
1.0066948253559245
1.0054084542865218
1.003862400384296
1.0020359873392277
0.9999186207856163
0.996879754509155
0.9923263455120974
0.9859732855749652
0.9801125641071791
0.9750643121330633
0.9709952859090205
0.9678590779178166
0.9654020824721281
0.9636460770102852
0.9986289419306644
0.9911906368742397
1.0088651955935244
1.0085355848960347
1.007747915485134
1.00671088573021
1.0054347080591168
1.0039027979965252
1.002093506407206
0.9999980849488362
0.9970432303871053
0.9926291019301777
0.9863397206579471
0.9805188456431401
0.9755293905483587
0.9714861031181112
0.9683838077089341
0.966031397063349
0.9642236652586688
0.9637412061196577
0.9975139177021985
0.9911944449404387
1.0088667035033347
1.0085394642482461
1.007755981045822
1.0067254694887293
1.0054582963053438
1.0039390161690938
1.0021466876304006
1.0000704995127105
0.9971964644965906
0.99290320025151
0.9866616094452885
0.9808825923258947
0.9759141982431777
0.9719175262994003
0.9688354984132911
0.9665216794357419
0.9648160452543815
0.9638399001690855
0.9640470498411234
0.9965087983148648
0.9911980360336533
1.0088680741834368
1.0085429080160937
1.0077633061367084
1.0067384639640224
1.0054797059124465
1.0039715871423276
1.002194393399453
1.0001375966439334
0.9973324697826448
0.9931579319352358
0.9869474812368626
0.981205334539982
0.9762603599473563
0.9722750782884924
0.9692332467206507
0.9669418151831527
0.9652776845939992
0.9640852806875908
0.9641195220687938
0.9644958550992273
0.995604616566564
0.9912013028627886
1.0088693149959407
1.0085460201338166
1.0077698009286424
1.0067502839449165
1.0054988027812939
1.0040011959577553
1.0022373454370141
1.000197820732343
0.9974609327573377
0.9933091355080635
0.9872208071356383
0.9814864013239252
0.9765682959718646
0.9725965886518771
0.9695628760388714
0.9673115015106287
0.9656718810663848
0.9645248077865026
0.9642870651563381
0.9645467092282047
0.9650340668984387
0.994810897219229
0.991204090851311
1.00887043096866
1.0085488289632851
1.0077756852499136
1.0067607750273264
1.0055161837129156
1.004027601840554
1.002276365001697
1.0002520222781666
0.9975761499183753
0.993453153085926
0.9874593254246502
0.9817580650237177
0.9768337155779011
0.9728827282644936
0.969857864131202
0.9676178949967145
0.966017345884363
0.9648979822007958
0.9644175904473815
0.9647044240021292
0.965064813243888
0.9656203511660116
0.994132409922343
0.9912067932367171
1.008871433562569
1.0085513649033926
1.007780991798312
1.0067702784696155
1.0055315995893568
1.0040515656385374
1.002311171646637
1.0003013072042746
0.997680272882981
0.9935822335626575
0.9876862488256039
0.981994816120915
0.9770911583113703
0.9731277849928097
0.9701211170650211
0.9678911200058912
0.9663043661941073
0.9652244486335293
0.9645305830236068
0.9648267931463649
0.9652166631440845
0.9656227405287278
0.9662202075150075
0.993381798652488
0.9912093887332911
1.0088723553550822
1.00855364129534
1.0077857741000715
1.0067788261156432
1.0055455558546602
1.0040729014675012
1.0023428176334728
1.0003453354781957
0.9977747403968388
0.9937004046993048
0.9878902546129462
0.9822185748142063
0.9773146253417393
0.9733638805086569
0.9703458857884945
0.9681360956937565
0.9665589274390597
0.9654959114562663
0.9648171710702796
0.9649317149961745
0.96533421024765
0.9657734887285445
0.9661850347591912
0.9668114091737074
0.9926913494933016
0.9912116477954502
1.0088731977928207
1.008555722697345
1.00779006976096
1.0067865574628991
1.0055581313002804
1.0040922037609106
1.0023709548715172
1.0003853300942562
0.9978591183140522
0.9938052893585263
0.9880781247929022
0.9824205400084074
0.9775243627674041
0.9735690625142893
0.9705601465874251
0.968344692683939
0.9667882115368769
0.965735428676404
0.9650770375881107
0.9650258001929187
0.9654346898602495
0.9658895140905188
0.966337265365192
0.9667403769075223
0.967389749716815
0.9921710777431577
0.9912135824999607
1.008873983122191
1.0085576415887738
1.00779400024905
1.006793494108941
1.0055694915042235
1.004109619581464
1.002396447196449
1.0004209515750941
0.997936083361122
0.9939005677488708
0.9882433681867335
0.9826073003965656
0.977714120147449
0.9737599475742635
0.9707458504894895
0.9685411277369005
0.9669829138512199
0.9659514518695232
0.9653052081174011
0.965100546874478
0.9655238629576175
0.9659886812538228
0.9664545091626567
0.9668936652342308
0.9672892578941104
0.9679604397111135
0.9918090499431761
0.9912155274316085
1.00887470560886
1.0085594112777
1.0077976255053027
1.0067998341235946
1.005579696926576
1.0041253148629516
1.0024194203087426
1.0004531977448505
0.9980042498305306
0.9939872221598169
0.9883955594717888
0.9827708541037014
0.9778905672811089
0.9739329267413032
0.9709176192344416
0.9687106979085012
0.9671639851535757
0.9661356132400509
0.9655113339081077
0.9651680123776598
0.9655949726320507
0.9660760792600066
0.9665541281591586
0.9670122223223688
0.9674429165845368
0.967829334230994
0.9685226282506952
0.9915962360714508
0.9912173001842418
1.0088753646900472
1.0085610425624856
1.0078009599559
1.006805687202166
1.0055890159007337
1.0041394473560066
1.0024401810895958
1.0004823097724989
0.9980662225269308
0.9940640437237405
0.9885321704174573
0.9829232702706785
0.9780448870267899
0.9740937350045342
0.9710725860908309
0.9688662854696255
0.9673200312678174
0.9663043007202382
0.9656869972438125
0.9653664965420603
0.9656580723754385
0.9661461459869759
0.966641675813673
0.9671132136066496
0.9675627636661491
0.967983233746798
0.9683576267092868
0.9690748979668129
0.991533981977585
0.9912190337752121
1.0088759666928866
1.0085625335295694
1.0078040315207049
1.0068110694822074
1.0055976343345236
1.0041523446411222
1.0024588489014958
1.0005086364744773
0.9981220006109435
0.9941342532898485
0.9886553287831229
0.983059281841771
0.9781892499121355
0.9742344008733498
0.9712171374322589
0.9690070153510595
0.9674618092442023
0.9664492477279687
0.9658468028347881
0.9655366251765508
0.9657160449420155
0.9662078502130438
0.9667126931824692
0.9672014166844598
0.9676650799654921
0.9681047333899317
0.9685114188025575
0.9688708349264135
0.9696177737546813
0.9916626303498048
0.9912204769397722
1.0088765205893766
1.0085639001275508
1.007806856121841
1.006816036141882
1.005605527931863
1.004164252125999
1.0024759045022722
1.0005323142289637
0.9981725528833155
0.9941974420572853
0.9887672514590059
0.9831828461792161
0.9783182795139433
0.9743669037597384
0.9713438280220679
0.9691377431121542
0.9675899114608895
0.9665797799680875
0.9659832636311761
0.9656893367070983
0.9657637333685948
0.9662653710802743
0.9667747775889387
0.9672738806423703
0.9677543625561609
0.9682085865628295
0.9686334860430574
0.9690246001603942
0.9693685826011242
0.970151028331605
0.9921059730691598
0.9912220289393162
1.0088770302691679
1.0085651436268106
1.0078094360971226
1.0068205948047924
1.0056128489005343
1.0041752046244965
1.002491637370555
1.0005539434052415
0.9982178332519802
0.9942547033099224
0.988868196480878
0.9832944396975303
0.9784358358931303
0.9744848601242408
0.9714631849880382
0.9692526849094784
0.9677090520501175
0.9666979907746011
0.9661048559858884
0.9658199238498872
0.9658066472430114
0.9663120319187796
0.966832618636208
0.9673370448575765
0.9678270876440953
0.968298355165686
0.968738609591764
0.9691472676181144
0.9695203222347356
0.9698510426313441
0.9706770282163809
0.9929517011374457
0.9912232694894674
1.008877496944148
1.0085662771466721
1.007811785798836
1.0068247657723655
1.0056195662356169
1.0041853040530626
1.0025060968565622
1.000573870871419
0.998259434975234
0.9943060892101206
0.9889601838175047
0.983396083291529
0.9785417336526864
0.9745929989281064
0.9715690279614803
0.9693606840614576
0.9678138389642118
0.9668077275099748
0.9662155912354637
0.9659357730245445
0.9658746628679284
0.9663536021196306
0.9668799005061594
0.9673949214459159
0.9678913989302634
0.9683720206601957
0.9688297290440767
0.9692530739670561
0.9696441054429927
0.969998725657938
0.9703180855093092
0.9711969527265754
0.9940118635636387
0.9912245529534215
1.0088779128792533
1.0085673143003577
1.007813933163801
1.006828564558238
1.0056257121227254
1.0041946074326744
1.0025194547617418
1.000592236743387
0.9982976986001769
0.994353145323705
0.9890428703724335
0.9834889195730638
0.9786390965845806
0.9746910226296073
0.971667312563994
0.9694570070026545
0.9679125412952629
0.966904260357807
0.9663180528196166
0.9660404492924652
0.965986771222177
0.966386469002109
0.9669214378996102
0.9674432903239313
0.9679495262569046
0.9684371417272055
0.9689048600972154
0.9693457455930541
0.9697508538278472
0.9701232541636058
0.9704612101056043
0.9707707326034672
0.9717136884228457
0.9947974640010083
0.9912255991084867
1.0088783176832685
1.0085682609021687
1.0078158870169112
1.0068320336298529
1.0056312824774707
1.004203110150051
1.0025317502814735
1.0006091827203476
0.9983328445308255
0.9943967363842319
0.9891189537173823
0.983572136883387
0.9787282051833227
0.9747812744622388
0.9717566309284376
0.969547109009491
0.9680007008518767
0.9669955940359873
0.9664084279287886
0.9661379261383438
0.9660875669355423
0.9664139246477257
0.9669544120173903
0.9674858747392018
0.9679982544412796
0.9684967724298891
0.9689707614304045
0.9694223028624824
0.9698438466711718
0.9702305581660244
0.9705846195698775
0.970907106063665
0.971210618027584
0.9722290902272912
0.9956647907969708
0.991226909090717
1.0088786979930986
1.0085691570216786
1.0078176916971957
1.0068351993275975
1.0056364222631802
1.0042108673632426
1.0025430044345787
1.0006248146233703
0.9983653784336839
0.9944367790371056
0.9891890265969694
0.983649011941214
0.978808199534749
0.9748638340992167
0.9718385826365811
0.9696291376859673
0.9680834885377847
0.9670769487572168
0.9664937111518834
0.9662238023227743
0.9661814959614131
0.9664384412903655
0.9669819762560268
0.96751881093203
0.9680417520323854
0.968546482138569
0.9690316134012097
0.9694893664798241
0.9699217963463208
0.9703249486126863
0.9706933128520783
0.97102938302776
0.9713369610070945
0.9716387749755447
0.9727430830861528
0.9966210074876211
0.9912277469582343
1.0088790863528723
1.0085699926397071
1.0078193800096205
1.0068381171529643
1.0056410877493565
1.0042179473406792
1.0025532815587097
1.0006390892748804
0.9983953402280158
0.9944737394966371
0.989253353695442
0.9837199031735618
0.9788819744380373
0.9749383927113632
0.9719140240661669
0.9697048510073052
0.9681590716649515
0.9671540175955623
0.9665699260823449
0.9663044801811401
0.9662640266629817
0.96646183828745
0.9670068039785087
0.967547319925468
0.9680760289162909
0.9685901653917026
0.9690825522249598
0.969550424398249
0.9699899651474223
0.9704033319547591
0.9707882724826286
0.9711380093578961
0.9714579412264707
0.9717535329380709
0.9720568778948865
0.9732480335330087
0.9976689859492073
0.9912299400303206
1.0088793953990185
1.0085708624016505
1.007820959109777
1.006840845698082
1.0056454005891633
1.0042244308492965
1.0025626509205696
1.0006521409081655
0.9984226118313554
0.9945078594344406
0.9893129118201122
0.9837851906437929
0.9789504700034936
0.9750068714473445
0.9719825587526243
0.9697741014687187
0.9682293261738246
0.9672244410231685
0.9666423221616868
0.9663772741513766
0.9663423473365422
0.9664813995175043
0.9670303893356734
0.9675723761614257
0.9681047892745527
0.9686253593331285
0.9691267728743117
0.9696024523361554
0.9700523277321376
0.9704724412701224
0.9708675070329337
0.9712330686446724
0.9715656991060241
0.9718711770336558
0.9721562598241917
0.9724676925892326
0.9737402087545489
0.9988116257639124
0.989408628958424
1.0088815282257932
1.0085715229756556
1.0078226011537172
1.006843404433245
1.0056494162878957
1.0042304338980204
1.0025712398827202
1.0006640810207839
0.9984476007912418
0.9945390681460586
0.9893679512876029
0.9838456206977909
0.9790131812083089
0.9750706856641915
0.9720455379751113
0.9698372791132137
0.9682932404154023
0.9672898274709937
0.9667085676325032
0.9664463682216967
0.9664125041411258
0.9665354841924362
0.9670499976925397
0.9675964096748254
0.9681303959302529
0.9686546568995641
0.9691625551156333
0.9696479481407921
0.970105074703505
0.9705357546599509
0.9709370729952954
0.9713128197622752
0.9716610584713982
0.9719783448839846
0.9722694756569061
0.972547185713219
0.9728734646533259
0.9742341280886304
1.0000496097936122
0.9911091086244181
1.0082270537010103
1.00857761767431
1.0078238505450439
1.0068460657666214
1.0056531956664212
1.0042360333702323
1.0025791989689168
1.0006750544762997
0.9984703361373785
0.9945675458230013
0.9894184540282658
0.9839012984016801
0.9790713994742044
0.9751292757035238
0.9721040442172902
0.969895704731367
0.9683521079998989
0.9673495303796877
0.966770412128543
0.9665094762385675
0.9664792141425289
0.9666045228520277
0.9670695089818215
0.967616115832495
0.9681548472532756
0.9686810863177846
0.9691930464825953
0.9696848785183687
0.9701516296934161
0.9705893891322429
0.9710007455659742
0.9713833827370282
0.9717412348276061
0.9720731702722663
0.9723754144173902
0.9726549536946295
0.9729282161005204
0.9732763204269602
0.9747499206613391
1.0013751224850949
0.9910546466652317
1.0088150814391654
1.0069981940768358
1.0078351467375568
1.0068480746327328
1.0056571013374536
1.0042412574561355
1.0025866466253257
1.0006851779041772
0.9984912467124806
0.9945936053015836
0.9894649820592373
0.9839526585983451
0.9791254842957023
0.9751834131055306
0.9721578032976703
0.9699496163429248
0.968406511803564
0.967404982775441
0.9668275400153656
0.9665691440197326
0.9665405348219497
0.9666699957771627
0.9670863356612414
0.9676360244577634
0.968175073362223
0.9687058719268989
0.9692201678253008
0.969716302406623
0.9701891983136833
0.9706371545599298
0.9710557338362963
0.971447586277229
0.9718124449395837
0.9721537660045176
0.9724691922867306
0.9727581681498456
0.9730292371000295
0.9733010382272669
0.973680640352461
0.9753080188865149
1.002764089843065
0.990679185226554
1.0087810178541463
1.0084192691610376
1.0050961917845795
1.0068656923727424
1.0056600784128589
1.0042466928164422
1.0025935838743059
1.000694667299764
0.9985104964113375
0.994617724569719
0.9895069954336502
0.9840002212354826
0.9791749091849967
0.9752340238513229
0.9722076455592632
0.9699998168474706
0.9684566163593198
0.9674557495744213
0.9668797187683842
0.9666234752596083
0.9665982738613748
0.9667300873737289
0.9671038298695313
0.9676531317204393
0.9681947995321707
0.9687268191580171
0.969245148593329
0.9697435940308667
0.9702214997916088
0.9706755536643021
0.9711036984717347
0.9715033216333419
0.9718768540130382
0.9722243580692091
0.9725498099338812
0.9728515279000459
0.9731291783935858
0.9733922512270247
0.9736670770737661
0.9740912205559362
0.9759314529077981
1.0041631579127461
0.9908416079854587
1.0085446466954566
1.0083258735600293
1.0075658980791367
1.002767593231054
1.0056850139813398
1.0042507969397079
1.002600798306038
1.0007035552099435
0.9985284891657152
0.9946396542223208
0.9895459834596628
0.9840433192933351
0.9792213149788157
0.9752805543542363
0.9722539790501079
0.970045768625239
0.9685034964979723
0.9675030734058232
0.9669278141569794
0.9666736884918253
0.9666509572565904
0.9667862422095149
0.9671194822437464
0.9676708172512558
0.9682127918171005
0.9687471108599403
0.9692665956536267
0.9697698177519091
0.970249563128439
0.9707083533213227
0.971143143883967
0.9715516577838921
0.9719328207788794
0.9722895077392232
0.9726205494703148
0.9729309342115997
0.9732200333103215
0.9734885429842677
0.9737463981902383
0.9740285404208012
0.9745103774546711
0.9766452438283801
1.0054792577630987
0.9910836972290522
1.0086369996432014
1.0077225236553309
1.0073917891375266
1.0064735575489312
1.0000527113182784
1.004283982974425
1.0026062537167209
1.0007127765343027
0.9985453854594123
0.994660501614702
0.9895823560196735
0.9840830918351724
0.9792629600427454
0.9753243657212955
0.9722968640259598
0.9700885999446675
0.9685463623565694
0.9675469027113975
0.9669730855967339
0.9667202960929608
0.9666999403679309
0.9668386590008374
0.9671345427478893
0.9676868712190865
0.9682301265294566
0.9687655934178461
0.9692878993341532
0.9697916701377401
0.9702764999993405
0.9707377991942041
0.9711771446696273
0.9715919248515068
0.9719820171369901
0.9723455821751852
0.9726854564548711
0.9730017471097027
0.9732987594887931
0.9735771209157175
0.9738372989207633
0.9740942235235138
0.9743885053356088
0.9749453322855091
0.977487191898096
1.0065899076394509
0.9911146515841458
1.0087830570330338
1.0079694079730026
1.006290470771397
1.0062034402198248
1.0051556150022825
0.9945059627609901
1.002648520230696
1.0007197630065456
0.9985630759876452
0.9946797662405821
0.9896163481452585
0.9841206246027012
0.9793022356138803
0.975363942633044
0.9723374947470897
0.9701287913944951
0.9685863107611075
0.9675871166590044
0.9670146746958693
0.9667634687896774
0.9667450826176631
0.9668867153244376
0.9671492536742995
0.96770209683141
0.9682467747709417
0.9687835527051698
0.9693064885177225
0.9698130346334012
0.9702988254605698
0.9707643794433999
0.9712066457422969
0.9716273269375997
0.9720236043383231
0.9723959080338969
0.9727426042728159
0.9730665487394895
0.9733688598846848
0.973654633969184
0.9739234437789376
0.9741783397774637
0.9744359922521122
0.9747487745137197
0.975400882225507
0.9788267059500873
1.0073966296064785
0.991235443411396
1.008798288471795
1.008351608456321
1.0067556446409927
1.004496420094782
1.0047842169965773
1.0035981078623695
0.9863775814175818
1.000771818854888
0.9985762125094968
0.9947001772403501
0.9896484062671581
0.9841557506454426
0.9793390595669358
0.9754010727364861
0.9723745112450096
0.9701667758459154
0.9686239518910993
0.9676250545347038
0.9670530876279313
0.9668035173283988
0.9667875737026066
0.9669314228406244
0.9671759579495622
0.9677168696589928
0.9682625497201269
0.9687998920779307
0.9693246507933793
0.9698321217279565
0.9703207031848767
0.9707877280686273
0.9712339716358426
0.9716573750703774
0.9720585253701832
0.972437681461098
0.9727927019283583
0.97312363204541
0.9734338340343984
0.9737239355401759
0.9739993463089364
0.9742600177115499
0.9745119780647085
0.9747738448072998
0.9751127355935052
0.9758643457238629
0.9810064514166247
1.007896396355602
0.9912423226347791
1.0088786332680173
1.0083963061053212
1.0074605732781585
1.0052351488513616
1.0023759288183474
1.003132948608594
1.0017886666631306
0.9772605441368731
0.9986699842036818
0.9947152654280399
0.9896816442596378
0.9841889212462518
0.9793741612212469
0.9754361966406997
0.9724091601866998
0.9702015648930502
0.968659455934258
0.9676603827182797
0.9670888272490022
0.9668405982309319
0.9668263117187635
0.9669727644185159
0.9672200616493614
0.9677306725464984
0.9682768621376288
0.9688161615577209
0.9693418891901245
0.9698509844014204
0.9703406723771646
0.9708101677773784
0.9712586994585279
0.9716855099960394
0.9720896021569426
0.9724729431427701
0.972834755938816
0.9731735843147292
0.9734904615220794
0.9737873216174532
0.9740667416574593
0.974333652314525
0.9745892777193593
0.9748399656229831
0.9751110204225901
0.975484081075982
0.9763267434178226
0.9837301902907221
1.0081528799091846
0.9912435988448177
1.0088819831983942
1.0085749025060227
1.0075473899030551
1.0063362790059112
1.0034378938639645
0.9999418397714591
1.0012475484619219
0.9997310460521756
0.9686579662791416
0.9948540676070045
0.9897057980336643
0.984223372659549
0.9794067249392738
0.975469886548491
0.9724428315044511
0.9702345092028194
0.9686923069279109
0.9676942312807405
0.967122542184903
0.9668750933183745
0.9668623656149751
0.9670113988323803
0.9672615688174536
0.9677433173637358
0.9682909023669819
0.9688309794023661
0.9693579495651345
0.9698684638754433
0.9703597131406925
0.97083024764402
0.9712809335264551
0.9717096696098537
0.9721182049393451
0.9725046142204196
0.9728709821801179
0.9732168466774711
0.9735407824517514
0.9738440212798941
0.9741291874296459
0.9743989650216996
0.9746590685317157
0.9749107539927866
0.9751643067850746
0.9754490540875833
0.9758676630386424
0.9768175483136494
0.9867544512740037
1.0082524879518473
0.9912443840399644
1.008882066046973
1.0085812406792316
1.0078350426377745
1.0064767698089414
1.0050017239352091
1.0013688307772364
0.995278046385865
0.9991404059971719
0.9965540803857541
0.9613799381387215
0.9899336371089056
0.9842486299277522
0.9794410150191972
0.9755014862214559
0.9724743642341549
0.9702661463602524
0.9687236719202929
0.9677251948551905
0.9671546898912888
0.9669073910333364
0.9668960680830357
0.9670470610125441
0.9672992927087186
0.9677550432070489
0.9683036924837082
0.9688450650001132
0.969373345756283
0.9698850512755494
0.9703774076830733
0.9708499589182619
0.9713015737690966
0.9717326836756454
0.9721430894315061
0.9725329978997033
0.9729029183351716
0.9732532530731403
0.9735839049391471
0.973894368507546
0.9741854002413962
0.9744610084764765
0.9747228602547061
0.974976812593954
0.9752277465037789
0.9754870699155849
0.9757909372076715
0.9762691488589016
0.9773913934305531
0.9893815792838729
1.008283036987551
0.9912454502039784
1.0088821384758615
1.0085824174211961
1.0078462161554615
1.006871095739624
1.0052061081598114
1.0034536607540858
0.9986912533209363
0.9888259634114143
0.9954288577975657
0.9922642565037353
0.9559098608135423
0.9844923018863505
0.9794656786660978
0.975534909695395
0.9725045359839533
0.9702968021550961
0.9687536888912457
0.967755478068232
0.9671849685287162
0.9669385759098025
0.9669280213190085
0.9670797257251111
0.9673345156574618
0.9677663407456615
0.968315735498758
0.9688582928603121
0.9693875795569998
0.969900303100321
0.9703948599659517
0.9708679621589098
0.9713212312153449
0.9717541505031766
0.9721663137266577
0.9725585690176273
0.9729315878787571
0.9732848887912108
0.973621111475674
0.9739372813888558
0.9742357180661401
0.9745163873406326
0.9747826557930974
0.9750380163809543
0.9752891707820219
0.9755417999894596
0.9758098767025992
0.9761401059675558
0.9766959486797705
0.9780937755819102
0.992333252803834
1.0082900574397011
0.9912465441944097
1.0088823125948534
1.0085830445368749
1.0078493478411863
1.0068887939666027
1.005699007349843
1.0037296983043822
1.0016848117174664
0.9942330101570239
0.9813280006300357
0.9906640811078078
0.9864533950504566
0.952230804762256
0.9797187778693115
0.9755580668297421
0.9725364252422075
0.9703255439331656
0.9687831628356368
0.9677843627650624
0.9672140730874635
0.9669680428179452
0.9669580698638771
0.9671113298546906
0.9673676884701607
0.9677763856887323
0.9683271987722197
0.9688707796901875
0.9694012851678081
0.9699152830293112
0.9704105593200846
0.9708854159004638
0.9713400861063023
0.9717740261718432
0.9721876074912847
0.9725827830212567
0.9729574787967669
0.9733148139596502
0.9736525845678617
0.9739742876491796
0.9742787539596361
0.9745654812031814
0.974836777013422
0.9750952607321999
0.9753458949936942
0.9755974027798552
0.9758535260777091
0.9761358040842751
0.9765007219316207
0.9771400093770978
0.9793420179567944
0.9950490348415314
1.0082906289231386
0.9912470639602501
1.0088824358324016
1.008583893069586
1.0078509735732268
1.0068948648049845
1.0057249988225578
1.0043099133795774
1.0020349019783457
0.9996969989206834
0.9881061006364719
0.9745755472308248
0.9850139903477212
0.9812030804246197
0.9500090320643069
0.9758139377633661
0.9725580627899403
0.9703559843283202
0.9688108499549448
0.9678124916200239
0.9672420922458193
0.9669960762169995
0.9669868637880069
0.9671412575291175
0.9673982530616037
0.9677860329657877
0.9683375817366068
0.9688819006604461
0.9694137568227692
0.9699289222272262
0.9704255274752873
0.9709018781419706
0.9713576206769048
0.9717933453929034
0.9722083988837191
0.9726042870570312
0.9729816720135575
0.9733403840297221
0.9736819483124496
0.9740067378476203
0.9743147997893478
0.9746082976629148
0.9748848130244192
0.9751478434122338
0.9754013278212417
0.9756501726553981
0.9759018650110218
0.9761659613270274
0.9764677927369431
0.9768770377397528
0.9775852294242053
0.9812994245285455
0.9973263689521461
1.0082894523422756
0.9912478261090076
1.0088825166038147
1.0085846542389154
1.0078530172718845
1.0068979982411996
1.005734987597492
1.0043458859325347
1.0026895821176893
1.0001152840951515
0.9965211269314728
0.9817065149783233
0.9690894053576478
0.9799941921924574
0.9767951478049456
0.9492828614149771
0.9728119135946242
0.9703768097471012
0.9688402997105445
0.9678390543897527
0.9672695048716509
0.9670236071131546
0.9670145501688521
0.9671694930813117
0.9674284587378579
0.9677946579114098
0.9683469314592069
0.9688926046155748
0.9694252574299261
0.9699416520945073
0.9704395137320346
0.9709168307879572
0.9713741539197821
0.9718110243474697
0.9722274526688736
0.9726247579147879
0.9730035344187742
0.9733645889959525
0.9737080819752624
0.9740354705211927
0.9743474462152709
0.974644770092403
0.9749269666742472
0.9751953782819535
0.9754519310879162
0.9757019248615086
0.9759498804967802
0.9762059043614206
0.9764815791800723
0.9768090321283631
0.9772749696167383
0.9780525049326124
0.9837311896562774
0.999735195692249
1.0082876366724844
0.9912483163050012
1.0088826219523084
1.0085851713777352
1.007854914958427
1.0069017799894928
1.0057401663781629
1.0043608529616004
1.0027371572061594
1.000830723160605
0.9973754687982488
0.9924194898822165
0.9761251902352425
0.9650424038070868
0.9758462361013953
0.9733348497432917
0.9496050123105837
0.9706269330070848
0.9688595675173013
0.9678681225985842
0.9672953995843566
0.9670505757484066
0.9670412885352994
0.9671967665745778
0.9674564498708951
0.9678035564745985
0.9683563613253685
0.9689022714054437
0.9694362066154915
0.9699540296470793
0.9704527974025983
0.9709312857369047
0.971389533308233
0.9718277106530623
0.9722455658576563
0.9726441793158381
0.9730243086309243
0.9733860586746119
0.9737324293409236
0.9740619196046107
0.9743768436868213
0.9746763592688912
0.9749635705720672
0.9752368838792068
0.9754980808596609
0.9757494189845954
0.9759969637307513
0.9762472611322569
0.9765111421430471
0.9768027214231838
0.977163077075924
0.9777025159358876
0.978601270134557
0.986494491602263
1.0021829184990314
1.0082859348557616
0.9912488197289875
1.0088827323920384
1.0085856101805843
1.007856216624577
1.0069053526190554