/*--------------------------------*- C++ -*----------------------------------*\
| =========                 |                                                 |
| \\      /  F ield         | OpenFOAM: The Open Source CFD Toolbox           |
|  \\    /   O peration     | Version:  v2012                                 |
|   \\  /    A nd           | Website:  www.openfoam.com                      |
|    \\/     M anipulation  |                                                 |
\*---------------------------------------------------------------------------*/
FoamFile
{
    version     2.0;
    format      ascii;
    class       volVectorField;
    location    "13200";
    object      C;
}
// * * * * * * * * * * * * * * * * * * * * * * * * * * * * * * * * * * * * * //

dimensions      [0 1 0 0 0 0 0];


internalField   nonuniform List<vector> 
31383
(
(-2.24217 5e-07 0.27)
(-2.12942 5e-07 0.27)
(-2.24217 1.50599e-06 0.27)
(-2.02231 5e-07 0.27)
(-2.12942 1.50598e-06 0.27)
(-2.24217 2.53001e-06 0.27)
(-1.92055 5e-07 0.27)
(-2.02231 1.50599e-06 0.27)
(-2.12942 2.53001e-06 0.27)
(-2.24217 3.58432e-06 0.27)
(-1.82389 5e-07 0.27)
(-1.92055 1.50599e-06 0.27)
(-2.02231 2.53001e-06 0.27)
(-2.12942 3.58432e-06 0.27)
(-2.24218 4.68156e-06 0.27)
(-1.73207 5e-07 0.27)
(-1.82389 1.50599e-06 0.27)
(-1.92055 2.53e-06 0.27)
(-2.02231 3.58432e-06 0.27)
(-2.12942 4.68156e-06 0.27)
(-2.24217 5.83486e-06 0.27)
(-1.64485 5e-07 0.27)
(-1.73207 1.50598e-06 0.27)
(-1.82389 2.53e-06 0.27)
(-1.92055 3.58432e-06 0.27)
(-2.0223 4.68156e-06 0.27)
(-2.12942 5.83485e-06 0.27)
(-2.24218 7.05802e-06 0.27)
(-1.562 5e-07 0.27)
(-1.64485 1.50598e-06 0.27)
(-1.73207 2.53e-06 0.27)
(-1.82389 3.58432e-06 0.27)
(-1.92055 4.68155e-06 0.27)
(-2.02231 5.83485e-06 0.27)
(-2.12942 7.05802e-06 0.27)
(-2.24217 8.3657e-06 0.27)
(-1.48331 5e-07 0.27)
(-1.562 1.50598e-06 0.27)
(-1.64485 2.53001e-06 0.27)
(-1.73207 3.58432e-06 0.27)
(-1.82389 4.68155e-06 0.27)
(-1.92055 5.83485e-06 0.27)
(-2.02231 7.05801e-06 0.27)
(-2.12942 8.3657e-06 0.27)
(-2.24217 9.77358e-06 0.27)
(-1.40856 5e-07 0.27)
(-1.4833 1.50598e-06 0.27)
(-1.562 2.53e-06 0.27)
(-1.64485 3.58432e-06 0.27)
(-1.73207 4.68155e-06 0.27)
(-1.82389 5.83485e-06 0.27)
(-1.92055 7.05801e-06 0.27)
(-2.02231 8.36569e-06 0.27)
(-2.12942 9.77355e-06 0.27)
(-2.24218 1.12985e-05 0.27)
(-1.33756 5e-07 0.27)
(-1.40855 1.50599e-06 0.27)
(-1.48331 2.53e-06 0.27)
(-1.562 3.58432e-06 0.27)
(-1.64485 4.68155e-06 0.27)
(-1.73207 5.83484e-06 0.27)
(-1.82389 7.05801e-06 0.27)
(-1.92055 8.36568e-06 0.27)
(-2.0223 9.77352e-06 0.27)
(-2.12942 1.12984e-05 0.27)
(-2.24217 1.29586e-05 0.27)
(-1.27013 5e-07 0.27)
(-1.33756 1.50599e-06 0.27)
(-1.40855 2.53e-06 0.27)
(-1.48331 3.58432e-06 0.27)
(-1.562 4.68155e-06 0.27)
(-1.64485 5.83484e-06 0.27)
(-1.73207 7.058e-06 0.27)
(-1.82389 8.36568e-06 0.27)
(-1.92055 9.77352e-06 0.27)
(-2.0223 1.12984e-05 0.27)
(-2.12942 1.29586e-05 0.27)
(-2.24218 1.4774e-05 0.27)
(-1.20608 5e-07 0.27)
(-1.27013 1.50598e-06 0.27)
(-1.33756 2.53e-06 0.27)
(-1.40855 3.58432e-06 0.27)
(-1.48331 4.68155e-06 0.27)
(-1.562 5.83484e-06 0.27)
(-1.64485 7.058e-06 0.27)
(-1.73207 8.36567e-06 0.27)
(-1.82389 9.77352e-06 0.27)
(-1.92055 1.12984e-05 0.27)
(-2.02231 1.29586e-05 0.27)
(-2.12942 1.47739e-05 0.27)
(-2.24217 1.67662e-05 0.27)
(-1.14538 5e-07 0.27)
(-1.20608 1.50599e-06 0.27)
(-1.27013 2.53001e-06 0.27)
(-1.33756 3.58432e-06 0.27)
(-1.40856 4.68155e-06 0.27)
(-1.48331 5.83484e-06 0.27)
(-1.562 7.05799e-06 0.27)
(-1.64485 8.36567e-06 0.27)
(-1.73207 9.77351e-06 0.27)
(-1.82389 1.12984e-05 0.27)
(-1.92055 1.29586e-05 0.27)
(-2.02231 1.4774e-05 0.27)
(-2.12942 1.67662e-05 0.27)
(-2.24217 1.89593e-05 0.27)
(-1.08787 5e-07 0.27)
(-1.14539 1.50599e-06 0.27)
(-1.20608 2.53e-06 0.27)
(-1.27013 3.58432e-06 0.27)
(-1.33756 4.68155e-06 0.27)
(-1.40855 5.83483e-06 0.27)
(-1.4833 7.05799e-06 0.27)
(-1.562 8.36566e-06 0.27)
(-1.64485 9.77351e-06 0.27)
(-1.73207 1.12984e-05 0.27)
(-1.82389 1.29585e-05 0.27)
(-1.92055 1.47739e-05 0.27)
(-2.02231 1.67662e-05 0.27)
(-2.12942 1.89592e-05 0.27)
(-2.24218 2.13793e-05 0.27)
(-1.03323 5e-07 0.27)
(-1.08787 1.50599e-06 0.27)
(-1.14538 2.53e-06 0.27)
(-1.20608 3.58432e-06 0.27)
(-1.27013 4.68155e-06 0.27)
(-1.33756 5.83484e-06 0.27)
(-1.40856 7.05799e-06 0.27)
(-1.48331 8.36566e-06 0.27)
(-1.562 9.7735e-06 0.27)
(-1.64485 1.12984e-05 0.27)
(-1.73207 1.29585e-05 0.27)
(-1.82389 1.47738e-05 0.27)
(-1.92055 1.67661e-05 0.27)
(-2.0223 1.89592e-05 0.27)
(-2.12942 2.13793e-05 0.27)
(-2.24217 2.40554e-05 0.27)
(-0.981323 5e-07 0.27)
(-1.03323 1.50598e-06 0.27)
(-1.08787 2.53e-06 0.27)
(-1.14538 3.58432e-06 0.27)
(-1.20608 4.68155e-06 0.27)
(-1.27013 5.83483e-06 0.27)
(-1.33756 7.05798e-06 0.27)
(-1.40855 8.36565e-06 0.27)
(-1.4833 9.7735e-06 0.27)
(-1.562 1.12983e-05 0.27)
(-1.64485 1.29585e-05 0.27)
(-1.73207 1.47739e-05 0.27)
(-1.82389 1.67661e-05 0.27)
(-1.92055 1.89591e-05 0.27)
(-2.02231 2.13792e-05 0.27)
(-2.12942 2.40553e-05 0.27)
(-2.24217 2.70196e-05 0.27)
(-0.932013 5e-07 0.27)
(-0.981322 1.50599e-06 0.27)
(-1.03323 2.53e-06 0.27)
(-1.08787 3.58432e-06 0.27)
(-1.14538 4.68155e-06 0.27)
(-1.20608 5.83483e-06 0.27)
(-1.27013 7.05798e-06 0.27)
(-1.33756 8.36565e-06 0.27)
(-1.40856 9.7735e-06 0.27)
(-1.48331 1.12983e-05 0.27)
(-1.562 1.29585e-05 0.27)
(-1.64485 1.47739e-05 0.27)
(-1.73207 1.67661e-05 0.27)
(-1.82389 1.89591e-05 0.27)
(-1.92055 2.13791e-05 0.27)
(-2.0223 2.40553e-05 0.27)
(-2.12942 2.70194e-05 0.27)
(-2.24217 3.03072e-05 0.27)
(-0.885173 5e-07 0.27)
(-0.932013 1.50599e-06 0.27)
(-0.981322 2.53e-06 0.27)
(-1.03323 3.58432e-06 0.27)
(-1.08787 4.68155e-06 0.27)
(-1.14539 5.83483e-06 0.27)
(-1.20608 7.05798e-06 0.27)
(-1.27013 8.36564e-06 0.27)
(-1.33756 9.7735e-06 0.27)
(-1.40856 1.12983e-05 0.27)
(-1.48331 1.29585e-05 0.27)
(-1.562 1.47738e-05 0.27)
(-1.64485 1.6766e-05 0.27)
(-1.73207 1.89591e-05 0.27)
(-1.82389 2.13791e-05 0.27)
(-1.92055 2.40552e-05 0.27)
(-2.0223 2.70193e-05 0.27)
(-2.12942 3.03071e-05 0.27)
(-2.24218 3.39577e-05 0.27)
(-0.84068 5e-07 0.27)
(-0.885173 1.50599e-06 0.27)
(-0.932014 2.53001e-06 0.27)
(-0.981323 3.58432e-06 0.27)
(-1.03323 4.68154e-06 0.27)
(-1.08787 5.83483e-06 0.27)
(-1.14538 7.05798e-06 0.27)
(-1.20608 8.36564e-06 0.27)
(-1.27013 9.77347e-06 0.27)
(-1.33756 1.12983e-05 0.27)
(-1.40856 1.29585e-05 0.27)
(-1.48331 1.47738e-05 0.27)
(-1.562 1.6766e-05 0.27)
(-1.64485 1.8959e-05 0.27)
(-1.73207 2.13791e-05 0.27)
(-1.82389 2.40551e-05 0.27)
(-1.92055 2.70193e-05 0.27)
(-2.02231 3.0307e-05 0.27)
(-2.12942 3.39576e-05 0.27)
(-2.24218 3.8015e-05 0.27)
(-0.798416 5e-07 0.27)
(-0.84068 1.50598e-06 0.27)
(-0.885173 2.53001e-06 0.27)
(-0.932014 3.58432e-06 0.27)
(-0.981322 4.68154e-06 0.27)
(-1.03323 5.83482e-06 0.27)
(-1.08787 7.05797e-06 0.27)
(-1.14539 8.36564e-06 0.27)
(-1.20608 9.77344e-06 0.27)
(-1.27013 1.12983e-05 0.27)
(-1.33756 1.29584e-05 0.27)
(-1.40855 1.47738e-05 0.27)
(-1.48331 1.6766e-05 0.27)
(-1.562 1.8959e-05 0.27)
(-1.64485 2.1379e-05 0.27)
(-1.73207 2.40551e-05 0.27)
(-1.82389 2.70192e-05 0.27)
(-1.92055 3.03069e-05 0.27)
(-2.0223 3.39575e-05 0.27)
(-2.12942 3.80148e-05 0.27)
(-2.24217 4.25274e-05 0.27)
(-0.758473 5e-07 0.27)
(-0.798416 1.50599e-06 0.27)
(-0.84068 2.53001e-06 0.27)
(-0.885173 3.58432e-06 0.27)
(-0.932013 4.68154e-06 0.27)
(-0.981322 5.83483e-06 0.27)
(-1.03323 7.05797e-06 0.27)
(-1.08787 8.36563e-06 0.27)
(-1.14538 9.77344e-06 0.27)
(-1.20608 1.12983e-05 0.27)
(-1.27013 1.29584e-05 0.27)
(-1.33756 1.47738e-05 0.27)
(-1.40856 1.6766e-05 0.27)
(-1.48331 1.8959e-05 0.27)
(-1.562 2.1379e-05 0.27)
(-1.64485 2.4055e-05 0.27)
(-1.73207 2.70191e-05 0.27)
(-1.82389 3.03067e-05 0.27)
(-1.92055 3.39573e-05 0.27)
(-2.02231 3.80146e-05 0.27)
(-2.12942 4.25272e-05 0.27)
(-2.24218 4.7549e-05 0.27)
(-0.720911 5e-07 0.27)
(-0.758473 1.50599e-06 0.27)
(-0.798416 2.53e-06 0.27)
(-0.84068 3.58432e-06 0.27)
(-0.885173 4.68154e-06 0.27)
(-0.932014 5.83483e-06 0.27)
(-0.981322 7.05797e-06 0.27)
(-1.03323 8.36563e-06 0.27)
(-1.08787 9.77344e-06 0.27)
(-1.14538 1.12983e-05 0.27)
(-1.20608 1.29584e-05 0.27)
(-1.27013 1.47737e-05 0.27)
(-1.33756 1.67659e-05 0.27)
(-1.40855 1.89589e-05 0.27)
(-1.4833 2.13789e-05 0.27)
(-1.562 2.40549e-05 0.27)
(-1.64485 2.7019e-05 0.27)
(-1.73207 3.03067e-05 0.27)
(-1.82389 3.39572e-05 0.27)
(-1.92055 3.80144e-05 0.27)
(-2.0223 4.2527e-05 0.27)
(-2.12942 4.75488e-05 0.27)
(-2.24217 5.314e-05 0.27)
(-0.685558 5e-07 0.27)
(-0.720911 1.50598e-06 0.27)
(-0.758473 2.53001e-06 0.27)
(-0.798416 3.58431e-06 0.27)
(-0.84068 4.68154e-06 0.27)
(-0.885174 5.83482e-06 0.27)
(-0.932013 7.05797e-06 0.27)
(-0.981323 8.36562e-06 0.27)
(-1.03323 9.77343e-06 0.27)
(-1.08787 1.12983e-05 0.27)
(-1.14538 1.29584e-05 0.27)
(-1.20608 1.47737e-05 0.27)
(-1.27013 1.6766e-05 0.27)
(-1.33756 1.89589e-05 0.27)
(-1.40856 2.13789e-05 0.27)
(-1.48331 2.40549e-05 0.27)
(-1.562 2.70189e-05 0.27)
(-1.64485 3.03066e-05 0.27)
(-1.73207 3.39571e-05 0.27)
(-1.82389 3.80143e-05 0.27)
(-1.92055 4.25268e-05 0.27)
(-2.02231 4.75485e-05 0.27)
(-2.12942 5.31398e-05 0.27)
(-2.24218 5.93674e-05 0.27)
(-0.652245 5e-07 0.27)
(-0.685557 1.50598e-06 0.27)
(-0.720911 2.53e-06 0.27)
(-0.758473 3.58432e-06 0.27)
(-0.798416 4.68154e-06 0.27)
(-0.84068 5.83483e-06 0.27)
(-0.885173 7.05797e-06 0.27)
(-0.932013 8.36562e-06 0.27)
(-0.981322 9.77343e-06 0.27)
(-1.03323 1.12983e-05 0.27)
(-1.08787 1.29584e-05 0.27)
(-1.14539 1.47737e-05 0.27)
(-1.20608 1.67659e-05 0.27)
(-1.27013 1.89589e-05 0.27)
(-1.33756 2.13788e-05 0.27)
(-1.40855 2.40548e-05 0.27)
(-1.4833 2.70189e-05 0.27)
(-1.562 3.03064e-05 0.27)
(-1.64485 3.3957e-05 0.27)
(-1.73207 3.80142e-05 0.27)
(-1.82389 4.25266e-05 0.27)
(-1.92055 4.75483e-05 0.27)
(-2.0223 5.31394e-05 0.27)
(-2.12942 5.9367e-05 0.27)
(-2.24218 6.63057e-05 0.27)
(-0.620811 5e-07 0.27)
(-0.652245 1.50599e-06 0.27)
(-0.685558 2.53001e-06 0.27)
(-0.720912 3.58431e-06 0.27)
(-0.758473 4.68154e-06 0.27)
(-0.798416 5.83482e-06 0.27)
(-0.84068 7.05797e-06 0.27)
(-0.885174 8.36562e-06 0.27)
(-0.932013 9.77343e-06 0.27)
(-0.981322 1.12983e-05 0.27)
(-1.03323 1.29584e-05 0.27)
(-1.08787 1.47737e-05 0.27)
(-1.14539 1.67659e-05 0.27)
(-1.20608 1.89589e-05 0.27)
(-1.27013 2.13788e-05 0.27)
(-1.33756 2.40548e-05 0.27)
(-1.40856 2.70188e-05 0.27)
(-1.48331 3.03064e-05 0.27)
(-1.562 3.39569e-05 0.27)
(-1.64485 3.8014e-05 0.27)
(-1.73207 4.25264e-05 0.27)
(-1.82389 4.75481e-05 0.27)
(-1.92055 5.31391e-05 0.27)
(-2.02231 5.93667e-05 0.27)
(-2.12942 6.63052e-05 0.27)
(-2.24218 7.40379e-05 0.27)
(-0.591171 5e-07 0.27)
(-0.620811 1.50599e-06 0.27)
(-0.652245 2.53e-06 0.27)
(-0.685558 3.58431e-06 0.27)
(-0.720912 4.68154e-06 0.27)
(-0.758473 5.83482e-06 0.27)
(-0.798416 7.05796e-06 0.27)
(-0.84068 8.36562e-06 0.27)
(-0.885173 9.77343e-06 0.27)
(-0.932014 1.12982e-05 0.27)
(-0.981322 1.29584e-05 0.27)
(-1.03323 1.47737e-05 0.27)
(-1.08787 1.67658e-05 0.27)
(-1.14538 1.89588e-05 0.27)
(-1.20608 2.13788e-05 0.27)
(-1.27013 2.40547e-05 0.27)
(-1.33756 2.70187e-05 0.27)
(-1.40855 3.03063e-05 0.27)
(-1.48331 3.39568e-05 0.27)
(-1.562 3.80139e-05 0.27)
(-1.64485 4.25262e-05 0.27)
(-1.73207 4.75478e-05 0.27)
(-1.82389 5.31389e-05 0.27)
(-1.92055 5.93663e-05 0.27)
(-2.02231 6.63048e-05 0.27)
(-2.12942 7.40373e-05 0.27)
(-2.24218 8.26566e-05 0.27)
(-0.563165 5e-07 0.27)
(-0.591171 1.50599e-06 0.27)
(-0.620812 2.53e-06 0.27)
(-0.652245 3.58432e-06 0.27)
(-0.685558 4.68154e-06 0.27)
(-0.720912 5.83482e-06 0.27)
(-0.758473 7.05796e-06 0.27)
(-0.798416 8.36561e-06 0.27)
(-0.84068 9.77343e-06 0.27)
(-0.885173 1.12982e-05 0.27)
(-0.932014 1.29584e-05 0.27)
(-0.981322 1.47737e-05 0.27)
(-1.03323 1.67658e-05 0.27)
(-1.08787 1.89588e-05 0.27)
(-1.14538 2.13787e-05 0.27)
(-1.20608 2.40547e-05 0.27)
(-1.27013 2.70187e-05 0.27)
(-1.33756 3.03062e-05 0.27)
(-1.40856 3.39567e-05 0.27)
(-1.48331 3.80137e-05 0.27)
(-1.562 4.25261e-05 0.27)
(-1.64485 4.75476e-05 0.27)
(-1.73207 5.31386e-05 0.27)
(-1.82389 5.9366e-05 0.27)
(-1.92055 6.63044e-05 0.27)
(-2.02231 7.40369e-05 0.27)
(-2.12942 8.2656e-05 0.27)
(-2.24218 9.22652e-05 0.27)
(-0.536572 5e-07 0.27)
(-0.563165 1.50599e-06 0.27)
(-0.591171 2.53e-06 0.27)
(-0.620811 3.58432e-06 0.27)
(-0.652244 4.68154e-06 0.27)
(-0.685557 5.83482e-06 0.27)
(-0.720912 7.05796e-06 0.27)
(-0.758473 8.36561e-06 0.27)
(-0.798416 9.77342e-06 0.27)
(-0.84068 1.12982e-05 0.27)
(-0.885174 1.29584e-05 0.27)
(-0.932013 1.47737e-05 0.27)
(-0.981323 1.67659e-05 0.27)
(-1.03323 1.89588e-05 0.27)
(-1.08787 2.13788e-05 0.27)
(-1.14539 2.40547e-05 0.27)
(-1.20608 2.70186e-05 0.27)
(-1.27013 3.03062e-05 0.27)
(-1.33756 3.39566e-05 0.27)
(-1.40856 3.80136e-05 0.27)
(-1.48331 4.25259e-05 0.27)
(-1.562 4.75475e-05 0.27)
(-1.64485 5.31384e-05 0.27)
(-1.73207 5.93657e-05 0.27)
(-1.82389 6.6304e-05 0.27)
(-1.92055 7.40363e-05 0.27)
(-2.0223 8.26554e-05 0.27)
(-2.12942 9.22645e-05 0.27)
(-2.24218 0.000102979 0.27)
(-0.51125 5e-07 0.27)
(-0.536572 1.50598e-06 0.27)
(-0.563165 2.53001e-06 0.27)
(-0.591171 3.58431e-06 0.27)
(-0.620811 4.68154e-06 0.27)
(-0.652245 5.83482e-06 0.27)
(-0.685557 7.05796e-06 0.27)
(-0.720912 8.36561e-06 0.27)
(-0.758473 9.77343e-06 0.27)
(-0.798416 1.12982e-05 0.27)
(-0.84068 1.29583e-05 0.27)
(-0.885174 1.47737e-05 0.27)
(-0.932013 1.67659e-05 0.27)
(-0.981323 1.89587e-05 0.27)
(-1.03323 2.13787e-05 0.27)
(-1.08787 2.40546e-05 0.27)
(-1.14539 2.70186e-05 0.27)
(-1.20608 3.03061e-05 0.27)
(-1.27013 3.39565e-05 0.27)
(-1.33756 3.80135e-05 0.27)
(-1.40856 4.25258e-05 0.27)
(-1.48331 4.75473e-05 0.27)
(-1.562 5.31382e-05 0.27)
(-1.64485 5.93654e-05 0.27)
(-1.73207 6.63037e-05 0.27)
(-1.82389 7.40359e-05 0.27)
(-1.92055 8.26549e-05 0.27)
(-2.02231 9.22638e-05 0.27)
(-2.12942 0.000102978 0.27)
(-2.24217 0.000114925 0.27)
(-0.487058 5e-07 0.27)
(-0.51125 1.50599e-06 0.27)
(-0.536572 2.53e-06 0.27)
(-0.563165 3.58431e-06 0.27)
(-0.591171 4.68154e-06 0.27)
(-0.620812 5.83482e-06 0.27)
(-0.652245 7.05796e-06 0.27)
(-0.685557 8.3656e-06 0.27)
(-0.720911 9.77342e-06 0.27)
(-0.758473 1.12982e-05 0.27)
(-0.798416 1.29583e-05 0.27)
(-0.84068 1.47736e-05 0.27)
(-0.885174 1.67658e-05 0.27)
(-0.932013 1.89587e-05 0.27)
(-0.981322 2.13786e-05 0.27)
(-1.03323 2.40546e-05 0.27)
(-1.08787 2.70185e-05 0.27)
(-1.14538 3.0306e-05 0.27)
(-1.20608 3.39564e-05 0.27)
(-1.27013 3.80134e-05 0.27)
(-1.33756 4.25256e-05 0.27)
(-1.40856 4.75471e-05 0.27)
(-1.48331 5.3138e-05 0.27)
(-1.562 5.93652e-05 0.27)
(-1.64485 6.63033e-05 0.27)
(-1.73207 7.40355e-05 0.27)
(-1.82389 8.26544e-05 0.27)
(-1.92055 9.22631e-05 0.27)
(-2.02231 0.000102977 0.27)
(-2.12942 0.000114924 0.27)
(-2.24218 0.000128248 0.27)
(-0.463863 5e-07 0.27)
(-0.487058 1.50598e-06 0.27)
(-0.51125 2.53001e-06 0.27)
(-0.536572 3.58431e-06 0.27)
(-0.563165 4.68154e-06 0.27)
(-0.591171 5.83482e-06 0.27)
(-0.620812 7.05796e-06 0.27)
(-0.652244 8.36561e-06 0.27)
(-0.685557 9.77342e-06 0.27)
(-0.720911 1.12982e-05 0.27)
(-0.758473 1.29583e-05 0.27)
(-0.798416 1.47736e-05 0.27)
(-0.84068 1.67658e-05 0.27)
(-0.885173 1.89587e-05 0.27)
(-0.932014 2.13786e-05 0.27)
(-0.981322 2.40545e-05 0.27)
(-1.03323 2.70185e-05 0.27)
(-1.08787 3.0306e-05 0.27)
(-1.14538 3.39564e-05 0.27)
(-1.20608 3.80133e-05 0.27)
(-1.27013 4.25255e-05 0.27)
(-1.33756 4.75469e-05 0.27)
(-1.40855 5.31377e-05 0.27)
(-1.48331 5.93649e-05 0.27)
(-1.562 6.6303e-05 0.27)
(-1.64485 7.40351e-05 0.27)
(-1.73207 8.26538e-05 0.27)
(-1.82389 9.22625e-05 0.27)
(-1.92055 0.000102976 0.27)
(-2.0223 0.000114923 0.27)
(-2.12942 0.000128246 0.27)
(-2.24218 0.000143106 0.27)
(-0.441525 5e-07 0.27)
(-0.463862 1.50599e-06 0.27)
(-0.487059 2.53e-06 0.27)
(-0.51125 3.58431e-06 0.27)
(-0.536572 4.68154e-06 0.27)
(-0.563165 5.83482e-06 0.27)
(-0.591171 7.05795e-06 0.27)
(-0.620811 8.3656e-06 0.27)
(-0.652244 9.77342e-06 0.27)
(-0.685557 1.12982e-05 0.27)
(-0.720912 1.29584e-05 0.27)
(-0.758473 1.47736e-05 0.27)
(-0.798416 1.67658e-05 0.27)
(-0.84068 1.89587e-05 0.27)
(-0.885174 2.13786e-05 0.27)
(-0.932014 2.40545e-05 0.27)
(-0.981322 2.70185e-05 0.27)
(-1.03323 3.03059e-05 0.27)
(-1.08787 3.39563e-05 0.27)
(-1.14539 3.80132e-05 0.27)
(-1.20608 4.25254e-05 0.27)
(-1.27013 4.75468e-05 0.27)
(-1.33756 5.31376e-05 0.27)
(-1.40855 5.93646e-05 0.27)
(-1.48331 6.63027e-05 0.27)
(-1.562 7.40347e-05 0.27)
(-1.64485 8.26534e-05 0.27)
(-1.73207 9.22619e-05 0.27)
(-1.82389 0.000102976 0.27)
(-1.92055 0.000114922 0.27)
(-2.0223 0.000128246 0.27)
(-2.12942 0.000143104 0.27)
(-2.24217 0.000159678 0.27)
(-0.419914 5e-07 0.27)
(-0.441525 1.50598e-06 0.27)
(-0.463863 2.53e-06 0.27)
(-0.487059 3.58431e-06 0.27)
(-0.51125 4.68153e-06 0.27)
(-0.536572 5.83482e-06 0.27)
(-0.563165 7.05795e-06 0.27)
(-0.591171 8.3656e-06 0.27)
(-0.620811 9.77342e-06 0.27)
(-0.652244 1.12983e-05 0.27)
(-0.685558 1.29583e-05 0.27)
(-0.720911 1.47736e-05 0.27)
(-0.758473 1.67658e-05 0.27)
(-0.798416 1.89587e-05 0.27)
(-0.84068 2.13786e-05 0.27)
(-0.885173 2.40545e-05 0.27)
(-0.932013 2.70184e-05 0.27)
(-0.981322 3.03059e-05 0.27)
(-1.03323 3.39562e-05 0.27)
(-1.08787 3.80131e-05 0.27)
(-1.14539 4.25253e-05 0.27)
(-1.20608 4.75466e-05 0.27)
(-1.27013 5.31374e-05 0.27)
(-1.33756 5.93644e-05 0.27)
(-1.40856 6.63024e-05 0.27)
(-1.48331 7.40343e-05 0.27)
(-1.562 8.26529e-05 0.27)
(-1.64485 9.22613e-05 0.27)
(-1.73207 0.000102975 0.27)
(-1.82389 0.000114922 0.27)
(-1.92055 0.000128244 0.27)
(-2.0223 0.000143103 0.27)
(-2.12942 0.000159676 0.27)
(-2.24217 0.000178162 0.27)
(-0.398896 5e-07 0.27)
(-0.419914 1.50598e-06 0.27)
(-0.441525 2.53001e-06 0.27)
(-0.463862 3.58431e-06 0.27)
(-0.487058 4.68153e-06 0.27)
(-0.51125 5.83481e-06 0.27)
(-0.536572 7.05796e-06 0.27)
(-0.563165 8.3656e-06 0.27)
(-0.591171 9.77342e-06 0.27)
(-0.620812 1.12983e-05 0.27)
(-0.652245 1.29584e-05 0.27)
(-0.685558 1.47736e-05 0.27)
(-0.720911 1.67657e-05 0.27)
(-0.758473 1.89586e-05 0.27)
(-0.798416 2.13785e-05 0.27)
(-0.84068 2.40545e-05 0.27)
(-0.885173 2.70183e-05 0.27)
(-0.932013 3.03058e-05 0.27)
(-0.981323 3.39561e-05 0.27)
(-1.03323 3.8013e-05 0.27)
(-1.08787 4.25251e-05 0.27)
(-1.14539 4.75465e-05 0.27)
(-1.20608 5.31372e-05 0.27)
(-1.27013 5.93642e-05 0.27)
(-1.33756 6.63021e-05 0.27)
(-1.40856 7.4034e-05 0.27)
(-1.48331 8.26525e-05 0.27)
(-1.562 9.22608e-05 0.27)
(-1.64485 0.000102974 0.27)
(-1.73207 0.00011492 0.27)
(-1.82389 0.000128243 0.27)
(-1.92055 0.000143102 0.27)
(-2.0223 0.000159675 0.27)
(-2.12942 0.00017816 0.27)
(-2.24217 0.000198779 0.27)
(-0.378338 5e-07 0.27)
(-0.398896 1.50598e-06 0.27)
(-0.419914 2.53e-06 0.27)
(-0.441526 3.58431e-06 0.27)
(-0.463862 4.68153e-06 0.27)
(-0.487059 5.83481e-06 0.27)
(-0.51125 7.05795e-06 0.27)
(-0.536572 8.36559e-06 0.27)
(-0.563165 9.77342e-06 0.27)
(-0.591171 1.12983e-05 0.27)
(-0.620811 1.29584e-05 0.27)
(-0.652245 1.47736e-05 0.27)
(-0.685558 1.67658e-05 0.27)
(-0.720911 1.89587e-05 0.27)
(-0.758473 2.13785e-05 0.27)
(-0.798416 2.40544e-05 0.27)
(-0.84068 2.70183e-05 0.27)
(-0.885174 3.03058e-05 0.27)
(-0.932013 3.39561e-05 0.27)
(-0.981322 3.80129e-05 0.27)
(-1.03323 4.25251e-05 0.27)
(-1.08787 4.75463e-05 0.27)
(-1.14538 5.3137e-05 0.27)
(-1.20608 5.9364e-05 0.27)
(-1.27013 6.63018e-05 0.27)
(-1.33756 7.40336e-05 0.27)
(-1.40856 8.2652e-05 0.27)
(-1.48331 9.22603e-05 0.27)
(-1.562 0.000102973 0.27)
(-1.64485 0.00011492 0.27)
(-1.73207 0.000128242 0.27)
(-1.82389 0.000143101 0.27)
(-1.92055 0.000159673 0.27)
(-2.02231 0.000178158 0.27)
(-2.12942 0.000198777 0.27)
(-2.24218 0.000221777 0.27)
(-0.358104 5e-07 0.27)
(-0.378338 1.50599e-06 0.27)
(-0.398896 2.53e-06 0.27)
(-0.419915 3.58431e-06 0.27)
(-0.441526 4.68153e-06 0.27)
(-0.463863 5.83481e-06 0.27)
(-0.487058 7.05795e-06 0.27)
(-0.511249 8.36559e-06 0.27)
(-0.536572 9.77341e-06 0.27)
(-0.563165 1.12982e-05 0.27)
(-0.591171 1.29583e-05 0.27)
(-0.620812 1.47736e-05 0.27)
(-0.652245 1.67658e-05 0.27)
(-0.685557 1.89586e-05 0.27)
(-0.720912 2.13785e-05 0.27)
(-0.758473 2.40544e-05 0.27)
(-0.798416 2.70183e-05 0.27)
(-0.84068 3.03057e-05 0.27)
(-0.885174 3.3956e-05 0.27)
(-0.932014 3.80129e-05 0.27)
(-0.981322 4.2525e-05 0.27)
(-1.03323 4.75462e-05 0.27)
(-1.08787 5.31368e-05 0.27)
(-1.14538 5.93638e-05 0.27)
(-1.20608 6.63016e-05 0.27)
(-1.27013 7.40333e-05 0.27)
(-1.33756 8.26517e-05 0.27)
(-1.40856 9.22598e-05 0.27)
(-1.48331 0.000102973 0.27)
(-1.562 0.000114919 0.27)
(-1.64485 0.000128241 0.27)
(-1.73207 0.0001431 0.27)
(-1.82389 0.000159672 0.27)
(-1.92055 0.000178157 0.27)
(-2.0223 0.000198775 0.27)
(-2.12942 0.000221775 0.27)
(-2.24217 0.000247431 0.27)
(-0.33806 5e-07 0.27)
(-0.358104 1.50599e-06 0.27)
(-0.378338 2.53e-06 0.27)
(-0.398897 3.58431e-06 0.27)
(-0.419914 4.68153e-06 0.27)
(-0.441526 5.83481e-06 0.27)
(-0.463862 7.05795e-06 0.27)
(-0.487059 8.36559e-06 0.27)
(-0.51125 9.77342e-06 0.27)
(-0.536572 1.12982e-05 0.27)
(-0.563165 1.29583e-05 0.27)
(-0.591171 1.47736e-05 0.27)
(-0.620812 1.67657e-05 0.27)
(-0.652245 1.89586e-05 0.27)
(-0.685558 2.13785e-05 0.27)
(-0.720911 2.40544e-05 0.27)
(-0.758473 2.70183e-05 0.27)
(-0.798416 3.03057e-05 0.27)
(-0.84068 3.39559e-05 0.27)
(-0.885174 3.80128e-05 0.27)
(-0.932014 4.25249e-05 0.27)
(-0.981323 4.75461e-05 0.27)
(-1.03323 5.31367e-05 0.27)
(-1.08787 5.93636e-05 0.27)
(-1.14539 6.63013e-05 0.27)
(-1.20608 7.4033e-05 0.27)
(-1.27013 8.26513e-05 0.27)
(-1.33756 9.22593e-05 0.27)
(-1.40856 0.000102972 0.27)
(-1.48331 0.000114919 0.27)
(-1.562 0.000128241 0.27)
(-1.64485 0.000143099 0.27)
(-1.73207 0.000159671 0.27)
(-1.82389 0.000178155 0.27)
(-1.92055 0.000198773 0.27)
(-2.02231 0.000221772 0.27)
(-2.12942 0.000247428 0.27)
(-2.24218 0.000276047 0.27)
(-0.318069 5e-07 0.27)
(-0.33806 1.50599e-06 0.27)
(-0.358104 2.53e-06 0.27)
(-0.378338 3.58431e-06 0.27)
(-0.398896 4.68153e-06 0.27)
(-0.419915 5.83481e-06 0.27)
(-0.441526 7.05795e-06 0.27)
(-0.463862 8.36559e-06 0.27)
(-0.487059 9.77341e-06 0.27)
(-0.51125 1.12982e-05 0.27)
(-0.536572 1.29583e-05 0.27)
(-0.563165 1.47736e-05 0.27)
(-0.591171 1.67657e-05 0.27)
(-0.620812 1.89586e-05 0.27)
(-0.652244 2.13785e-05 0.27)
(-0.685558 2.40543e-05 0.27)
(-0.720912 2.70183e-05 0.27)
(-0.758473 3.03056e-05 0.27)
(-0.798416 3.39559e-05 0.27)
(-0.84068 3.80127e-05 0.27)
(-0.885173 4.25248e-05 0.27)
(-0.932013 4.7546e-05 0.27)
(-0.981322 5.31366e-05 0.27)
(-1.03323 5.93634e-05 0.27)
(-1.08787 6.63011e-05 0.27)
(-1.14539 7.40327e-05 0.27)
(-1.20608 8.26509e-05 0.27)
(-1.27013 9.22589e-05 0.27)
(-1.33756 0.000102972 0.27)
(-1.40855 0.000114917 0.27)
(-1.48331 0.00012824 0.27)
(-1.562 0.000143098 0.27)
(-1.64485 0.000159669 0.27)
(-1.73207 0.000178153 0.27)
(-1.82389 0.000198771 0.27)
(-1.92055 0.00022177 0.27)
(-2.02231 0.000247425 0.27)
(-2.12942 0.000276044 0.27)
(-2.24217 0.000307968 0.27)
(-0.296781 5.03789e-07 0.27)
(-0.318069 1.50599e-06 0.27)
(-0.33806 2.53e-06 0.27)
(-0.358105 3.58431e-06 0.27)
(-0.378338 4.68153e-06 0.27)
(-0.398896 5.83481e-06 0.27)
(-0.419915 7.05795e-06 0.27)
(-0.441526 8.36559e-06 0.27)
(-0.463863 9.77341e-06 0.27)
(-0.487058 1.12983e-05 0.27)
(-0.51125 1.29584e-05 0.27)
(-0.536572 1.47736e-05 0.27)
(-0.563165 1.67657e-05 0.27)
(-0.591171 1.89586e-05 0.27)
(-0.620811 2.13785e-05 0.27)
(-0.652245 2.40543e-05 0.27)
(-0.685558 2.70182e-05 0.27)
(-0.720911 3.03056e-05 0.27)
(-0.758473 3.39559e-05 0.27)
(-0.798416 3.80127e-05 0.27)
(-0.84068 4.25247e-05 0.27)
(-0.885173 4.75459e-05 0.27)
(-0.932014 5.31364e-05 0.27)
(-0.981322 5.93632e-05 0.27)
(-1.03323 6.63009e-05 0.27)
(-1.08787 7.40325e-05 0.27)
(-1.14539 8.26506e-05 0.27)
(-1.20608 9.22585e-05 0.27)
(-1.27013 0.000102971 0.27)
(-1.33756 0.000114917 0.27)
(-1.40855 0.000128239 0.27)
(-1.48331 0.000143097 0.27)
(-1.562 0.000159669 0.27)
(-1.64485 0.000178152 0.27)
(-1.73207 0.000198769 0.27)
(-1.82389 0.000221768 0.27)
(-1.92055 0.000247422 0.27)
(-2.02231 0.00027604 0.27)
(-2.12942 0.000307965 0.27)
(-2.24218 0.000343578 0.27)
(-0.275109 5.07973e-07 0.27)
(-0.296749 1.52184e-06 0.27)
(-0.318069 2.53e-06 0.27)
(-0.33806 3.58431e-06 0.27)
(-0.358104 4.68153e-06 0.27)
(-0.378338 5.83481e-06 0.27)
(-0.398896 7.05794e-06 0.27)
(-0.419914 8.36559e-06 0.27)
(-0.441525 9.77341e-06 0.27)
(-0.463863 1.12982e-05 0.27)
(-0.487059 1.29583e-05 0.27)
(-0.51125 1.47736e-05 0.27)
(-0.536572 1.67657e-05 0.27)
(-0.563165 1.89585e-05 0.27)
(-0.591171 2.13785e-05 0.27)
(-0.620811 2.40543e-05 0.27)
(-0.652244 2.70182e-05 0.27)
(-0.685558 3.03056e-05 0.27)
(-0.720912 3.39558e-05 0.27)
(-0.758473 3.80126e-05 0.27)
(-0.798416 4.25246e-05 0.27)
(-0.84068 4.75458e-05 0.27)
(-0.885173 5.31363e-05 0.27)
(-0.932013 5.93631e-05 0.27)
(-0.981323 6.63007e-05 0.27)
(-1.03323 7.40322e-05 0.27)
(-1.08787 8.26503e-05 0.27)
(-1.14539 9.22581e-05 0.27)
(-1.20608 0.000102971 0.27)
(-1.27013 0.000114916 0.27)
(-1.33756 0.000128238 0.27)
(-1.40855 0.000143096 0.27)
(-1.48331 0.000159667 0.27)
(-1.562 0.000178151 0.27)
(-1.64485 0.000198768 0.27)
(-1.73207 0.000221766 0.27)
(-1.82389 0.00024742 0.27)
(-1.92055 0.000276037 0.27)
(-2.02231 0.000307961 0.27)
(-2.12942 0.000343574 0.27)
(-2.24217 0.000383302 0.27)
(-0.254997 5.0906e-07 0.27)
(-0.275106 1.53928e-06 0.27)
(-0.296727 2.56576e-06 0.27)
(-0.318069 3.58431e-06 0.27)
(-0.33806 4.68153e-06 0.27)
(-0.358105 5.83481e-06 0.27)
(-0.378338 7.05794e-06 0.27)
(-0.398896 8.36558e-06 0.27)
(-0.419914 9.77341e-06 0.27)
(-0.441525 1.12982e-05 0.27)
(-0.463862 1.29583e-05 0.27)
(-0.487058 1.47736e-05 0.27)
(-0.51125 1.67657e-05 0.27)
(-0.536572 1.89586e-05 0.27)
(-0.563165 2.13785e-05 0.27)
(-0.591171 2.40543e-05 0.27)
(-0.620811 2.70181e-05 0.27)
(-0.652245 3.03055e-05 0.27)
(-0.685557 3.39558e-05 0.27)
(-0.720912 3.80126e-05 0.27)
(-0.758473 4.25245e-05 0.27)
(-0.798416 4.75457e-05 0.27)
(-0.84068 5.31362e-05 0.27)
(-0.885174 5.93629e-05 0.27)
(-0.932013 6.63005e-05 0.27)
(-0.981323 7.4032e-05 0.27)
(-1.03323 8.265e-05 0.27)
(-1.08787 9.22577e-05 0.27)
(-1.14539 0.00010297 0.27)
(-1.20608 0.000114916 0.27)
(-1.27013 0.000128237 0.27)
(-1.33756 0.000143095 0.27)
(-1.40855 0.000159667 0.27)
(-1.48331 0.00017815 0.27)
(-1.562 0.000198767 0.27)
(-1.64485 0.000221764 0.27)
(-1.73207 0.000247418 0.27)
(-1.82389 0.000276034 0.27)
(-1.92055 0.000307957 0.27)
(-2.02231 0.00034357 0.27)
(-2.12942 0.000383297 0.27)
(-2.24218 0.000427616 0.27)
(-0.236367 5.08461e-07 0.27)
(-0.254991 1.54407e-06 0.27)
(-0.275104 2.60498e-06 0.27)
(-0.296713 3.64596e-06 0.27)
(-0.318069 4.68153e-06 0.27)
(-0.33806 5.83481e-06 0.27)
(-0.358105 7.05795e-06 0.27)
(-0.378338 8.36558e-06 0.27)
(-0.398896 9.77341e-06 0.27)
(-0.419915 1.12982e-05 0.27)
(-0.441526 1.29583e-05 0.27)
(-0.463863 1.47735e-05 0.27)
(-0.487058 1.67657e-05 0.27)
(-0.51125 1.89585e-05 0.27)
(-0.536572 2.13784e-05 0.27)
(-0.563165 2.40543e-05 0.27)
(-0.591171 2.70181e-05 0.27)
(-0.620812 3.03055e-05 0.27)
(-0.652244 3.39557e-05 0.27)
(-0.685558 3.80125e-05 0.27)
(-0.720911 4.25245e-05 0.27)
(-0.758473 4.75456e-05 0.27)
(-0.798416 5.3136e-05 0.27)
(-0.84068 5.93628e-05 0.27)
(-0.885173 6.63003e-05 0.27)
(-0.932014 7.40317e-05 0.27)
(-0.981322 8.26497e-05 0.27)
(-1.03323 9.22573e-05 0.27)
(-1.08787 0.00010297 0.27)
(-1.14538 0.000114915 0.27)
(-1.20608 0.000128237 0.27)
(-1.27013 0.000143094 0.27)
(-1.33756 0.000159665 0.27)
(-1.40856 0.000178148 0.27)
(-1.48331 0.000198765 0.27)
(-1.562 0.000221762 0.27)
(-1.64485 0.000247415 0.27)
(-1.73207 0.000276032 0.27)
(-1.82389 0.000307954 0.27)
(-1.92055 0.000343566 0.27)
(-2.02231 0.000383292 0.27)
(-2.12942 0.000427609 0.27)
(-2.24217 0.000477049 0.27)
(-0.219088 5.06026e-07 0.27)
(-0.23638 1.5411e-06 0.27)
(-0.254986 2.61616e-06 0.27)
(-0.275102 3.71346e-06 0.27)
(-0.296703 4.77397e-06 0.27)
(-0.318069 5.83481e-06 0.27)
(-0.33806 7.05794e-06 0.27)
(-0.358104 8.36558e-06 0.27)
(-0.378338 9.77341e-06 0.27)
(-0.398897 1.12983e-05 0.27)
(-0.419915 1.29583e-05 0.27)
(-0.441526 1.47735e-05 0.27)
(-0.463862 1.67657e-05 0.27)
(-0.487058 1.89585e-05 0.27)
(-0.511249 2.13784e-05 0.27)
(-0.536572 2.40542e-05 0.27)
(-0.563165 2.70181e-05 0.27)
(-0.591171 3.03054e-05 0.27)
(-0.620812 3.39557e-05 0.27)
(-0.652244 3.80125e-05 0.27)
(-0.685557 4.25244e-05 0.27)
(-0.720912 4.75455e-05 0.27)
(-0.758473 5.31359e-05 0.27)
(-0.798416 5.93626e-05 0.27)
(-0.84068 6.63001e-05 0.27)
(-0.885174 7.40315e-05 0.27)
(-0.932014 8.26494e-05 0.27)
(-0.981323 9.2257e-05 0.27)
(-1.03323 0.000102969 0.27)
(-1.08787 0.000114915 0.27)
(-1.14539 0.000128236 0.27)
(-1.20608 0.000143094 0.27)
(-1.27013 0.000159664 0.27)
(-1.33756 0.000178147 0.27)
(-1.40855 0.000198764 0.27)
(-1.48331 0.00022176 0.27)
(-1.562 0.000247413 0.27)
(-1.64485 0.000276029 0.27)
(-1.73207 0.000307951 0.27)
(-1.82389 0.000343562 0.27)
(-1.92055 0.000383287 0.27)
(-2.02231 0.000427604 0.27)
(-2.12942 0.000477043 0.27)
(-2.24218 0.000532196 0.27)
(-0.20307 5.04145e-07 0.27)
(-0.219098 1.52965e-06 0.27)
(-0.236388 2.60879e-06 0.27)
(-0.254984 3.73309e-06 0.27)
(-0.275101 4.87504e-06 0.27)
(-0.296696 5.96232e-06 0.27)
(-0.318069 7.05794e-06 0.27)
(-0.33806 8.36558e-06 0.27)
(-0.358105 9.77339e-06 0.27)
(-0.378338 1.12982e-05 0.27)
(-0.398896 1.29583e-05 0.27)
(-0.419915 1.47735e-05 0.27)
(-0.441526 1.67656e-05 0.27)
(-0.463863 1.89586e-05 0.27)
(-0.487059 2.13784e-05 0.27)
(-0.51125 2.40542e-05 0.27)
(-0.536572 2.70181e-05 0.27)
(-0.563165 3.03054e-05 0.27)
(-0.591171 3.39556e-05 0.27)
(-0.620811 3.80124e-05 0.27)
(-0.652245 4.25243e-05 0.27)
(-0.685557 4.75454e-05 0.27)
(-0.720912 5.31358e-05 0.27)
(-0.758473 5.93625e-05 0.27)
(-0.798416 6.63e-05 0.27)
(-0.84068 7.40313e-05 0.27)
(-0.885173 8.26492e-05 0.27)
(-0.932013 9.22567e-05 0.27)
(-0.981322 0.000102969 0.27)
(-1.03323 0.000114914 0.27)
(-1.08787 0.000128236 0.27)
(-1.14539 0.000143093 0.27)
(-1.20608 0.000159664 0.27)
(-1.27013 0.000178146 0.27)
(-1.33756 0.000198762 0.27)
(-1.40856 0.000221759 0.27)
(-1.48331 0.000247412 0.27)
(-1.562 0.000276027 0.27)
(-1.64485 0.000307948 0.27)
(-1.73207 0.000343558 0.27)
(-1.82389 0.000383283 0.27)
(-1.92055 0.000427598 0.27)
(-2.02231 0.000477036 0.27)
(-2.12942 0.000532188 0.27)
(-2.24218 0.000593715 0.27)
(-0.188224 5.02765e-07 0.27)
(-0.203075 1.52089e-06 0.27)
(-0.219105 2.58111e-06 0.27)
(-0.236394 3.71977e-06 0.27)
(-0.254982 4.90478e-06 0.27)
(-0.275101 6.1016e-06 0.27)
(-0.296692 7.22459e-06 0.27)
(-0.318069 8.36558e-06 0.27)
(-0.33806 9.77336e-06 0.27)