/*--------------------------------*- C++ -*----------------------------------*\
| =========                 |                                                 |
| \\      /  F ield         | OpenFOAM: The Open Source CFD Toolbox           |
|  \\    /   O peration     | Version:  v2012                                 |
|   \\  /    A nd           | Website:  www.openfoam.com                      |
|    \\/     M anipulation  |                                                 |
\*---------------------------------------------------------------------------*/
FoamFile
{
    version     2.0;
    format      ascii;
    class       volScalarField;
    location    "13200";
    object      Cy;
}
// * * * * * * * * * * * * * * * * * * * * * * * * * * * * * * * * * * * * * //

dimensions      [0 1 0 0 0 0 0];


internalField   nonuniform List<scalar> 
31383
(
5e-07
5e-07
1.50599e-06
5e-07
1.50598e-06
2.53001e-06
5e-07
1.50599e-06
2.53001e-06
3.58432e-06
5e-07
1.50599e-06
2.53001e-06
3.58432e-06
4.68156e-06
5e-07
1.50599e-06
2.53e-06
3.58432e-06
4.68156e-06
5.83486e-06
5e-07
1.50598e-06
2.53e-06
3.58432e-06
4.68156e-06
5.83485e-06
7.05802e-06
5e-07
1.50598e-06
2.53e-06
3.58432e-06
4.68155e-06
5.83485e-06
7.05802e-06
8.3657e-06
5e-07
1.50598e-06
2.53001e-06
3.58432e-06
4.68155e-06
5.83485e-06
7.05801e-06
8.3657e-06
9.77358e-06
5e-07
1.50598e-06
2.53e-06
3.58432e-06
4.68155e-06
5.83485e-06
7.05801e-06
8.36569e-06
9.77355e-06
1.12985e-05
5e-07
1.50599e-06
2.53e-06
3.58432e-06
4.68155e-06
5.83484e-06
7.05801e-06
8.36568e-06
9.77352e-06
1.12984e-05
1.29586e-05
5e-07
1.50599e-06
2.53e-06
3.58432e-06
4.68155e-06
5.83484e-06
7.058e-06
8.36568e-06
9.77352e-06
1.12984e-05
1.29586e-05
1.4774e-05
5e-07
1.50598e-06
2.53e-06
3.58432e-06
4.68155e-06
5.83484e-06
7.058e-06
8.36567e-06
9.77352e-06
1.12984e-05
1.29586e-05
1.47739e-05
1.67662e-05
5e-07
1.50599e-06
2.53001e-06
3.58432e-06
4.68155e-06
5.83484e-06
7.05799e-06
8.36567e-06
9.77351e-06
1.12984e-05
1.29586e-05
1.4774e-05
1.67662e-05
1.89593e-05
5e-07
1.50599e-06
2.53e-06
3.58432e-06
4.68155e-06
5.83483e-06
7.05799e-06
8.36566e-06
9.77351e-06
1.12984e-05
1.29585e-05
1.47739e-05
1.67662e-05
1.89592e-05
2.13793e-05
5e-07
1.50599e-06
2.53e-06
3.58432e-06
4.68155e-06
5.83484e-06
7.05799e-06
8.36566e-06
9.7735e-06
1.12984e-05
1.29585e-05
1.47738e-05
1.67661e-05
1.89592e-05
2.13793e-05
2.40554e-05
5e-07
1.50598e-06
2.53e-06
3.58432e-06
4.68155e-06
5.83483e-06
7.05798e-06
8.36565e-06
9.7735e-06
1.12983e-05
1.29585e-05
1.47739e-05
1.67661e-05
1.89591e-05
2.13792e-05
2.40553e-05
2.70196e-05
5e-07
1.50599e-06
2.53e-06
3.58432e-06
4.68155e-06
5.83483e-06
7.05798e-06
8.36565e-06
9.7735e-06
1.12983e-05
1.29585e-05
1.47739e-05
1.67661e-05
1.89591e-05
2.13791e-05
2.40553e-05
2.70194e-05
3.03072e-05
5e-07
1.50599e-06
2.53e-06
3.58432e-06
4.68155e-06
5.83483e-06
7.05798e-06
8.36564e-06
9.7735e-06
1.12983e-05
1.29585e-05
1.47738e-05
1.6766e-05
1.89591e-05
2.13791e-05
2.40552e-05
2.70193e-05
3.03071e-05
3.39577e-05
5e-07
1.50599e-06
2.53001e-06
3.58432e-06
4.68154e-06
5.83483e-06
7.05798e-06
8.36564e-06
9.77347e-06
1.12983e-05
1.29585e-05
1.47738e-05
1.6766e-05
1.8959e-05
2.13791e-05
2.40551e-05
2.70193e-05
3.0307e-05
3.39576e-05
3.8015e-05
5e-07
1.50598e-06
2.53001e-06
3.58432e-06
4.68154e-06
5.83482e-06
7.05797e-06
8.36564e-06
9.77344e-06
1.12983e-05
1.29584e-05
1.47738e-05
1.6766e-05
1.8959e-05
2.1379e-05
2.40551e-05
2.70192e-05
3.03069e-05
3.39575e-05
3.80148e-05
4.25274e-05
5e-07
1.50599e-06
2.53001e-06
3.58432e-06
4.68154e-06
5.83483e-06
7.05797e-06
8.36563e-06
9.77344e-06
1.12983e-05
1.29584e-05
1.47738e-05
1.6766e-05
1.8959e-05
2.1379e-05
2.4055e-05
2.70191e-05
3.03067e-05
3.39573e-05
3.80146e-05
4.25272e-05
4.7549e-05
5e-07
1.50599e-06
2.53e-06
3.58432e-06
4.68154e-06
5.83483e-06
7.05797e-06
8.36563e-06
9.77344e-06
1.12983e-05
1.29584e-05
1.47737e-05
1.67659e-05
1.89589e-05
2.13789e-05
2.40549e-05
2.7019e-05
3.03067e-05
3.39572e-05
3.80144e-05
4.2527e-05
4.75488e-05
5.314e-05
5e-07
1.50598e-06
2.53001e-06
3.58431e-06
4.68154e-06
5.83482e-06
7.05797e-06
8.36562e-06
9.77343e-06
1.12983e-05
1.29584e-05
1.47737e-05
1.6766e-05
1.89589e-05
2.13789e-05
2.40549e-05
2.70189e-05
3.03066e-05
3.39571e-05
3.80143e-05
4.25268e-05
4.75485e-05
5.31398e-05
5.93674e-05
5e-07
1.50598e-06
2.53e-06
3.58432e-06
4.68154e-06
5.83483e-06
7.05797e-06
8.36562e-06
9.77343e-06
1.12983e-05
1.29584e-05
1.47737e-05
1.67659e-05
1.89589e-05
2.13788e-05
2.40548e-05
2.70189e-05
3.03064e-05
3.3957e-05
3.80142e-05
4.25266e-05
4.75483e-05
5.31394e-05
5.9367e-05
6.63057e-05
5e-07
1.50599e-06
2.53001e-06
3.58431e-06
4.68154e-06
5.83482e-06
7.05797e-06
8.36562e-06
9.77343e-06
1.12983e-05
1.29584e-05
1.47737e-05
1.67659e-05
1.89589e-05
2.13788e-05
2.40548e-05
2.70188e-05
3.03064e-05
3.39569e-05
3.8014e-05
4.25264e-05
4.75481e-05
5.31391e-05
5.93667e-05
6.63052e-05
7.40379e-05
5e-07
1.50599e-06
2.53e-06
3.58431e-06
4.68154e-06
5.83482e-06
7.05796e-06
8.36562e-06
9.77343e-06
1.12982e-05
1.29584e-05
1.47737e-05
1.67658e-05
1.89588e-05
2.13788e-05
2.40547e-05
2.70187e-05
3.03063e-05
3.39568e-05
3.80139e-05
4.25262e-05
4.75478e-05
5.31389e-05
5.93663e-05
6.63048e-05
7.40373e-05
8.26566e-05
5e-07
1.50599e-06
2.53e-06
3.58432e-06
4.68154e-06
5.83482e-06
7.05796e-06
8.36561e-06
9.77343e-06
1.12982e-05
1.29584e-05
1.47737e-05
1.67658e-05
1.89588e-05
2.13787e-05
2.40547e-05
2.70187e-05
3.03062e-05
3.39567e-05
3.80137e-05
4.25261e-05
4.75476e-05
5.31386e-05
5.9366e-05
6.63044e-05
7.40369e-05
8.2656e-05
9.22652e-05
5e-07
1.50599e-06
2.53e-06
3.58432e-06
4.68154e-06
5.83482e-06
7.05796e-06
8.36561e-06
9.77342e-06
1.12982e-05
1.29584e-05
1.47737e-05
1.67659e-05
1.89588e-05
2.13788e-05
2.40547e-05
2.70186e-05
3.03062e-05
3.39566e-05
3.80136e-05
4.25259e-05
4.75475e-05
5.31384e-05
5.93657e-05
6.6304e-05
7.40363e-05
8.26554e-05
9.22645e-05
0.000102979
5e-07
1.50598e-06
2.53001e-06
3.58431e-06
4.68154e-06
5.83482e-06
7.05796e-06
8.36561e-06
9.77343e-06
1.12982e-05
1.29583e-05
1.47737e-05
1.67659e-05
1.89587e-05
2.13787e-05
2.40546e-05
2.70186e-05
3.03061e-05
3.39565e-05
3.80135e-05
4.25258e-05
4.75473e-05
5.31382e-05
5.93654e-05
6.63037e-05
7.40359e-05
8.26549e-05
9.22638e-05
0.000102978
0.000114925
5e-07
1.50599e-06
2.53e-06
3.58431e-06
4.68154e-06
5.83482e-06
7.05796e-06
8.3656e-06
9.77342e-06
1.12982e-05
1.29583e-05
1.47736e-05
1.67658e-05
1.89587e-05
2.13786e-05
2.40546e-05
2.70185e-05
3.0306e-05
3.39564e-05
3.80134e-05
4.25256e-05
4.75471e-05
5.3138e-05
5.93652e-05
6.63033e-05
7.40355e-05
8.26544e-05
9.22631e-05
0.000102977
0.000114924
0.000128248
5e-07
1.50598e-06
2.53001e-06
3.58431e-06
4.68154e-06
5.83482e-06
7.05796e-06
8.36561e-06
9.77342e-06
1.12982e-05
1.29583e-05
1.47736e-05
1.67658e-05
1.89587e-05
2.13786e-05
2.40545e-05
2.70185e-05
3.0306e-05
3.39564e-05
3.80133e-05
4.25255e-05
4.75469e-05
5.31377e-05
5.93649e-05
6.6303e-05
7.40351e-05
8.26538e-05
9.22625e-05
0.000102976
0.000114923
0.000128246
0.000143106
5e-07
1.50599e-06
2.53e-06
3.58431e-06
4.68154e-06
5.83482e-06
7.05795e-06
8.3656e-06
9.77342e-06
1.12982e-05
1.29584e-05
1.47736e-05
1.67658e-05
1.89587e-05
2.13786e-05
2.40545e-05
2.70185e-05
3.03059e-05
3.39563e-05
3.80132e-05
4.25254e-05
4.75468e-05
5.31376e-05
5.93646e-05
6.63027e-05
7.40347e-05
8.26534e-05
9.22619e-05
0.000102976
0.000114922
0.000128246
0.000143104
0.000159678
5e-07
1.50598e-06
2.53e-06
3.58431e-06
4.68153e-06
5.83482e-06
7.05795e-06
8.3656e-06
9.77342e-06
1.12983e-05
1.29583e-05
1.47736e-05
1.67658e-05
1.89587e-05
2.13786e-05
2.40545e-05
2.70184e-05
3.03059e-05
3.39562e-05
3.80131e-05
4.25253e-05
4.75466e-05
5.31374e-05
5.93644e-05
6.63024e-05
7.40343e-05
8.26529e-05
9.22613e-05
0.000102975
0.000114922
0.000128244
0.000143103
0.000159676
0.000178162
5e-07
1.50598e-06
2.53001e-06
3.58431e-06
4.68153e-06
5.83481e-06
7.05796e-06
8.3656e-06
9.77342e-06
1.12983e-05
1.29584e-05
1.47736e-05
1.67657e-05
1.89586e-05
2.13785e-05
2.40545e-05
2.70183e-05
3.03058e-05
3.39561e-05
3.8013e-05
4.25251e-05
4.75465e-05
5.31372e-05
5.93642e-05
6.63021e-05
7.4034e-05
8.26525e-05
9.22608e-05
0.000102974
0.00011492
0.000128243
0.000143102
0.000159675
0.00017816
0.000198779
5e-07
1.50598e-06
2.53e-06
3.58431e-06
4.68153e-06
5.83481e-06
7.05795e-06
8.36559e-06
9.77342e-06
1.12983e-05
1.29584e-05
1.47736e-05
1.67658e-05
1.89587e-05
2.13785e-05
2.40544e-05
2.70183e-05
3.03058e-05
3.39561e-05
3.80129e-05
4.25251e-05
4.75463e-05
5.3137e-05
5.9364e-05
6.63018e-05
7.40336e-05
8.2652e-05
9.22603e-05
0.000102973
0.00011492
0.000128242
0.000143101
0.000159673
0.000178158
0.000198777
0.000221777
5e-07
1.50599e-06
2.53e-06
3.58431e-06
4.68153e-06
5.83481e-06
7.05795e-06
8.36559e-06
9.77341e-06
1.12982e-05
1.29583e-05
1.47736e-05
1.67658e-05
1.89586e-05
2.13785e-05
2.40544e-05
2.70183e-05
3.03057e-05
3.3956e-05
3.80129e-05
4.2525e-05
4.75462e-05
5.31368e-05
5.93638e-05
6.63016e-05
7.40333e-05
8.26517e-05
9.22598e-05
0.000102973
0.000114919
0.000128241
0.0001431
0.000159672
0.000178157
0.000198775
0.000221775
0.000247431
5e-07
1.50599e-06
2.53e-06
3.58431e-06
4.68153e-06
5.83481e-06
7.05795e-06
8.36559e-06
9.77342e-06
1.12982e-05
1.29583e-05
1.47736e-05
1.67657e-05
1.89586e-05
2.13785e-05
2.40544e-05
2.70183e-05
3.03057e-05
3.39559e-05
3.80128e-05
4.25249e-05
4.75461e-05
5.31367e-05
5.93636e-05
6.63013e-05
7.4033e-05
8.26513e-05
9.22593e-05
0.000102972
0.000114919
0.000128241
0.000143099
0.000159671
0.000178155
0.000198773
0.000221772
0.000247428
0.000276047
5e-07
1.50599e-06
2.53e-06
3.58431e-06
4.68153e-06
5.83481e-06
7.05795e-06
8.36559e-06
9.77341e-06
1.12982e-05
1.29583e-05
1.47736e-05
1.67657e-05
1.89586e-05
2.13785e-05
2.40543e-05
2.70183e-05
3.03056e-05
3.39559e-05
3.80127e-05
4.25248e-05
4.7546e-05
5.31366e-05
5.93634e-05
6.63011e-05
7.40327e-05
8.26509e-05
9.22589e-05
0.000102972
0.000114917
0.00012824
0.000143098
0.000159669
0.000178153
0.000198771
0.00022177
0.000247425
0.000276044
0.000307968
5.03789e-07
1.50599e-06
2.53e-06
3.58431e-06
4.68153e-06
5.83481e-06
7.05795e-06
8.36559e-06
9.77341e-06
1.12983e-05
1.29584e-05
1.47736e-05
1.67657e-05
1.89586e-05
2.13785e-05
2.40543e-05
2.70182e-05
3.03056e-05
3.39559e-05
3.80127e-05
4.25247e-05
4.75459e-05
5.31364e-05
5.93632e-05
6.63009e-05
7.40325e-05
8.26506e-05
9.22585e-05
0.000102971
0.000114917
0.000128239
0.000143097
0.000159669
0.000178152
0.000198769
0.000221768
0.000247422
0.00027604
0.000307965
0.000343578
5.07973e-07
1.52184e-06
2.53e-06
3.58431e-06
4.68153e-06
5.83481e-06
7.05794e-06
8.36559e-06
9.77341e-06
1.12982e-05
1.29583e-05
1.47736e-05
1.67657e-05
1.89585e-05
2.13785e-05
2.40543e-05
2.70182e-05
3.03056e-05
3.39558e-05
3.80126e-05
4.25246e-05
4.75458e-05
5.31363e-05
5.93631e-05
6.63007e-05
7.40322e-05
8.26503e-05
9.22581e-05
0.000102971
0.000114916
0.000128238
0.000143096
0.000159667
0.000178151
0.000198768
0.000221766
0.00024742
0.000276037
0.000307961
0.000343574
0.000383302
5.0906e-07
1.53928e-06
2.56576e-06
3.58431e-06
4.68153e-06
5.83481e-06
7.05794e-06
8.36558e-06
9.77341e-06
1.12982e-05
1.29583e-05
1.47736e-05
1.67657e-05
1.89586e-05
2.13785e-05
2.40543e-05
2.70181e-05
3.03055e-05
3.39558e-05
3.80126e-05
4.25245e-05
4.75457e-05
5.31362e-05
5.93629e-05
6.63005e-05
7.4032e-05
8.265e-05
9.22577e-05
0.00010297
0.000114916
0.000128237
0.000143095
0.000159667
0.00017815
0.000198767
0.000221764
0.000247418
0.000276034
0.000307957
0.00034357
0.000383297
0.000427616
5.08461e-07
1.54407e-06
2.60498e-06
3.64596e-06
4.68153e-06
5.83481e-06
7.05795e-06
8.36558e-06
9.77341e-06
1.12982e-05
1.29583e-05
1.47735e-05
1.67657e-05
1.89585e-05
2.13784e-05
2.40543e-05
2.70181e-05
3.03055e-05
3.39557e-05
3.80125e-05
4.25245e-05
4.75456e-05
5.3136e-05
5.93628e-05
6.63003e-05
7.40317e-05
8.26497e-05
9.22573e-05
0.00010297
0.000114915
0.000128237
0.000143094
0.000159665
0.000178148
0.000198765
0.000221762
0.000247415
0.000276032
0.000307954
0.000343566
0.000383292
0.000427609
0.000477049
5.06026e-07
1.5411e-06
2.61616e-06
3.71346e-06
4.77397e-06
5.83481e-06
7.05794e-06
8.36558e-06
9.77341e-06
1.12983e-05
1.29583e-05
1.47735e-05
1.67657e-05
1.89585e-05
2.13784e-05
2.40542e-05
2.70181e-05
3.03054e-05
3.39557e-05
3.80125e-05
4.25244e-05
4.75455e-05
5.31359e-05
5.93626e-05
6.63001e-05
7.40315e-05
8.26494e-05
9.2257e-05
0.000102969
0.000114915
0.000128236
0.000143094
0.000159664
0.000178147
0.000198764
0.00022176
0.000247413
0.000276029
0.000307951
0.000343562
0.000383287
0.000427604
0.000477043
0.000532196
5.04145e-07
1.52965e-06
2.60879e-06
3.73309e-06
4.87504e-06
5.96232e-06
7.05794e-06
8.36558e-06
9.77339e-06
1.12982e-05
1.29583e-05
1.47735e-05
1.67656e-05
1.89586e-05
2.13784e-05
2.40542e-05
2.70181e-05
3.03054e-05
3.39556e-05
3.80124e-05
4.25243e-05
4.75454e-05
5.31358e-05
5.93625e-05
6.63e-05
7.40313e-05
8.26492e-05
9.22567e-05
0.000102969
0.000114914
0.000128236
0.000143093
0.000159664
0.000178146
0.000198762
0.000221759
0.000247412
0.000276027
0.000307948
0.000343558
0.000383283
0.000427598
0.000477036
0.000532188
0.000593715
5.02765e-07
1.52089e-06
2.58111e-06
3.71977e-06
4.90478e-06
6.1016e-06
7.22459e-06
8.36558e-06
9.77336e-06
1.12982e-05
1.29583e-05
1.47735e-05
1.67656e-05
1.89585e-05
2.13784e-05
2.40542e-05
2.7018e-05
3.03054e-05
3.39556e-05
3.80123e-05
4.25243e-05
4.75453e-05
5.31358e-05
5.93624e-05
6.62998e-05
7.40311e-05
8.26489e-05
9.22564e-05
0.000102969
0.000114914
0.000128235
0.000143092
0.000159663
0.000178145
0.000198761
0.000221757
0.000247409
0.000276024
0.000307945
0.000343555
0.000383279
0.000427593
0.00047703
0.000532181
0.000593706
0.000662344
5.0191e-07
1.51454e-06
2.56005e-06
3.67035e-06
4.88428e-06
6.14288e-06
7.40644e-06
8.5754e-06
9.77336e-06
1.12982e-05
1.29583e-05
1.47735e-05
1.67657e-05
1.89585e-05
2.13784e-05
2.40542e-05
2.7018e-05
3.03054e-05
3.39556e-05
3.80123e-05
4.25242e-05
4.75453e-05
5.31357e-05
5.93622e-05
6.62997e-05
7.40309e-05
8.26487e-05
9.22561e-05
0.000102968
0.000114913
0.000128235
0.000143091
0.000159662
0.000178144
0.00019876
0.000221755
0.000247407
0.000276022
0.000307943
0.000343551
0.000383274
0.000427588
0.000477024
0.000532173
0.000593697
0.000662333
0.000738904
5.01553e-07
1.51055e-06
2.5449e-06
3.63292e-06
4.80869e-06
6.11411e-06
7.46055e-06
8.80417e-06
1.00306e-05
1.12982e-05
1.29582e-05
1.47735e-05
1.67656e-05
1.89585e-05
2.13784e-05
2.40542e-05
2.7018e-05
3.03053e-05
3.39555e-05
3.80123e-05
4.25241e-05
4.75452e-05
5.31356e-05
5.93622e-05
6.62995e-05
7.40307e-05
8.26485e-05
9.22558e-05
0.000102968
0.000114913
0.000128234
0.000143091
0.000159661
0.000178143
0.000198758
0.000221754
0.000247406
0.00027602
0.00030794
0.000343548
0.000383271
0.000427584
0.000477019
0.000532167
0.00059369
0.000662324
0.000738892
0.000824311
5.0134e-07
1.5088e-06
2.53532e-06
3.60609e-06
4.7516e-06
6.00854e-06
7.42251e-06
8.87234e-06
1.03108e-05
1.16073e-05
1.29582e-05
1.47735e-05
1.67657e-05
1.89585e-05
2.13784e-05
2.40542e-05
2.7018e-05
3.03053e-05
3.39555e-05
3.80123e-05
4.25241e-05
4.75452e-05
5.31355e-05
5.9362e-05
6.62994e-05
7.40306e-05
8.26483e-05
9.22556e-05
0.000102968
0.000114912
0.000128233
0.00014309
0.00015966
0.000178142
0.000198757
0.000221753
0.000247404
0.000276018
0.000307937
0.000343545
0.000383267
0.000427579
0.000477013
0.000532161
0.000593682
0.000662314
0.000738881
0.000824298
0.00091959
5.0126e-07
1.50773e-06
2.53099e-06
3.58909e-06
4.71079e-06
5.92895e-06
7.28342e-06
8.82402e-06
1.03942e-05
1.19438e-05
1.33243e-05
1.47735e-05
1.67656e-05
1.89585e-05
2.13783e-05
2.40542e-05
2.7018e-05
3.03053e-05
3.39555e-05
3.80122e-05
4.25241e-05
4.75451e-05
5.31354e-05
5.93619e-05
6.62993e-05
7.40305e-05
8.26481e-05
9.22553e-05
0.000102967
0.000114912
0.000128233
0.000143089
0.000159659
0.000178141
0.000198756
0.000221752
0.000247402
0.000276016
0.000307935
0.000343542
0.000383263
0.000427575
0.000477008
0.000532155
0.000593674
0.000662305
0.00073887
0.000824285
0.000919574
0.00102588
5.01163e-07
1.50727e-06
2.52832e-06
3.58131e-06
4.68491e-06
5.87218e-06
7.1787e-06
8.64796e-06
1.03346e-05
1.20437e-05
1.37222e-05
1.52019e-05
1.67656e-05
1.89585e-05
2.13783e-05
2.40541e-05
2.7018e-05
3.03053e-05
3.39554e-05
3.80121e-05
4.2524e-05
4.7545e-05
5.31353e-05
5.93618e-05
6.62991e-05
7.40303e-05
8.26479e-05
9.22551e-05
0.000102967
0.000114912
0.000128233
0.000143089
0.000159659
0.00017814
0.000198755
0.00022175
0.000247401
0.000276014
0.000307933
0.000343539
0.00038326
0.000427571
0.000477004
0.000532149
0.000593667
0.000662297
0.00073886
0.000824273
0.000919559
0.00102586
0.00114445
5.01038e-07
1.50677e-06
2.52711e-06
3.57648e-06
4.67298e-06
5.83614e-06
7.10412e-06
8.51554e-06
1.0118e-05
1.19716e-05
1.38399e-05
1.56671e-05
1.72626e-05
1.89585e-05
2.13783e-05
2.40541e-05
2.70179e-05
3.03052e-05
3.39554e-05
3.80121e-05
4.2524e-05
4.7545e-05
5.31353e-05
5.93617e-05
6.62991e-05
7.40302e-05
8.26477e-05
9.22549e-05
0.000102967
0.000114912
0.000128232
0.000143088
0.000159658
0.00017814
0.000198754
0.000221749
0.000247399
0.000276012
0.000307931
0.000343537
0.000383257
0.000427567
0.000476999
0.000532143
0.000593661
0.000662289
0.00073885
0.000824261
0.000919545
0.00102584
0.00114443
0.00127673
5.00955e-07
1.50618e-06
2.52584e-06
3.57426e-06
4.66556e-06
5.81949e-06
7.05677e-06
8.42131e-06
9.95526e-06
1.17109e-05
1.37541e-05
1.58036e-05
1.78012e-05
1.95307e-05
2.13783e-05
2.40541e-05
2.70179e-05
3.03052e-05
3.39553e-05
3.80121e-05
4.25239e-05
4.75449e-05
5.31352e-05
5.93617e-05
6.6299e-05
7.403e-05
8.26475e-05
9.22547e-05
0.000102966
0.000114911
0.000128232
0.000143088
0.000159658
0.000178139
0.000198754
0.000221748
0.000247398
0.000276011
0.000307929
0.000343535
0.000383254
0.000427564
0.000476995
0.000532138
0.000593654
0.000662281
0.000738841
0.00082425
0.000919532
0.00102583
0.00114442
0.00127671
0.0014243
5.00909e-07
1.50578e-06
2.52439e-06
3.57194e-06
4.6621e-06
5.80911e-06
7.03486e-06
8.36151e-06
9.83951e-06
1.1515e-05
1.34451e-05
1.57027e-05
1.7958e-05
2.01499e-05
2.20336e-05
2.40541e-05
2.70179e-05
3.03052e-05
3.39554e-05
3.80121e-05
4.25239e-05
4.75449e-05
5.31351e-05
5.93616e-05
6.62988e-05
7.40299e-05
8.26474e-05
9.22545e-05
0.000102966
0.000114911
0.000128231
0.000143087
0.000159657
0.000178138
0.000198752
0.000221747
0.000247397
0.000276009
0.000307927
0.000343532
0.000383251
0.000427561
0.000476991
0.000532133
0.000593649
0.000662274
0.000738832
0.00082424
0.00091952
0.00102582
0.0011444
0.00127669
0.00142427
0.00158892
5.00871e-07
1.50555e-06
2.52341e-06
3.56937e-06
4.65854e-06
5.80424e-06
7.02119e-06
8.33383e-06
9.76607e-06
1.13756e-05
1.32131e-05
1.53413e-05
1.78404e-05
2.03281e-05
2.27409e-05
2.48009e-05
2.70179e-05
3.03052e-05
3.39554e-05
3.8012e-05
4.25238e-05
4.75448e-05
5.31351e-05
5.93615e-05
6.62987e-05
7.40298e-05
8.26473e-05
9.22543e-05
0.000102966
0.000114911
0.000128231
0.000143087
0.000159656
0.000178138
0.000198752
0.000221746
0.000247396
0.000276008
0.000307925
0.00034353
0.000383249
0.000427557
0.000476986
0.000532128
0.000593643
0.000662267
0.000738824
0.00082423
0.000919508
0.0010258
0.00114438
0.00127667
0.00142425
0.00158889
0.00177257
5.00835e-07
1.50535e-06
2.52283e-06
3.56761e-06
4.65462e-06
5.79926e-06
7.01476e-06
8.31656e-06
9.73213e-06
1.12873e-05
1.30481e-05
1.50699e-05
1.74218e-05
2.01922e-05
2.29419e-05
2.56049e-05
2.78659e-05
3.03051e-05
3.39553e-05
3.8012e-05
4.25238e-05
4.75448e-05
5.3135e-05
5.93614e-05
6.62986e-05
7.40297e-05
8.26471e-05
9.22541e-05
0.000102966
0.00011491
0.000128231
0.000143087
0.000159656
0.000178137
0.000198751
0.000221745
0.000247394
0.000276006
0.000307924
0.000343528
0.000383247
0.000427555
0.000476983
0.000532123
0.000593637
0.000662261
0.000738816
0.00082422
0.000919496
0.00102578
0.00114436
0.00127664
0.00142422
0.00158886
0.00177253
0.00197744
5.00811e-07
1.50519e-06
2.52236e-06
3.56657e-06
4.65193e-06
5.79381e-06
7.00823e-06
8.30844e-06
9.71093e-06
1.12466e-05
1.29435e-05
1.48767e-05
1.71074e-05
1.97111e-05
2.27855e-05
2.58298e-05
2.8776e-05
3.1265e-05
3.39552e-05
3.8012e-05
4.25238e-05
4.75447e-05
5.3135e-05
5.93614e-05
6.62986e-05
7.40296e-05
8.2647e-05
9.2254e-05
0.000102966
0.00011491
0.00012823
0.000143087
0.000159656
0.000178136
0.00019875
0.000221744
0.000247394
0.000276005
0.000307922
0.000343526
0.000383244
0.000427552
0.00047698
0.00053212
0.000593632
0.000662255
0.000738808
0.000824211
0.000919485
0.00102577
0.00114434
0.00127663
0.0014242
0.00158884
0.0017725
0.00197741
0.002206
5.00804e-07
1.50508e-06
2.52195e-06
3.56572e-06
4.65035e-06
5.79007e-06
7.00106e-06
8.30018e-06
9.70099e-06
1.12211e-05
1.28954e-05
1.47545e-05
1.68835e-05
1.93499e-05
2.22364e-05
2.56506e-05
2.90257e-05
3.22916e-05
3.5039e-05
3.80119e-05
4.25237e-05
4.75447e-05
5.31349e-05
5.93613e-05
6.62985e-05
7.40295e-05
8.26469e-05
9.22538e-05
0.000102965
0.00011491
0.00012823
0.000143086
0.000159655
0.000178136
0.000198749
0.000221743
0.000247392
0.000276004
0.00030792
0.000343524
0.000383242
0.000427549
0.000476976
0.000532116
0.000593627
0.000662249
0.000738801
0.000824202
0.000919475
0.00102576
0.00114433
0.00127661
0.00142418
0.00158881
0.00177247
0.00197737
0.00220596
0.00246096
5.00795e-07
1.50503e-06
2.5217e-06
3.56501e-06
4.64906e-06
5.78787e-06
6.99617e-06
8.2912e-06
9.69089e-06
1.12092e-05
1.28654e-05
1.46984e-05
1.6742e-05
1.90923e-05
2.18239e-05
2.50274e-05
2.88212e-05
3.25671e-05
3.61936e-05
3.92329e-05
4.25237e-05
4.75446e-05
5.31349e-05
5.93612e-05
6.62984e-05
7.40294e-05
8.26467e-05
9.22536e-05
0.000102965
0.00011491
0.00012823
0.000143085
0.000159654
0.000178135
0.000198749
0.000221742
0.000247391
0.000276002
0.000307919
0.000343523
0.00038324
0.000427546
0.000476973
0.000532111
0.000593623
0.000662243
0.000738795
0.000824194
0.000919465
0.00102575
0.00114432
0.00127659
0.00142416
0.00158879
0.00177244
0.00197733
0.00220591
0.00246092
0.0027454
5.00786e-07
1.505e-06
2.52159e-06
3.56457e-06
4.64798e-06
5.78608e-06
6.9933e-06
8.28502e-06
9.67988e-06
1.11972e-05
1.28514e-05
1.46635e-05
1.66772e-05
1.89297e-05
2.15296e-05
2.4559e-05
2.8117e-05
3.23343e-05
3.64955e-05
4.05281e-05
4.3897e-05
4.75446e-05
5.31348e-05
5.93612e-05
6.62983e-05
7.40293e-05
8.26466e-05
9.22535e-05
0.000102965
0.000114909
0.00012823
0.000143086
0.000159654
0.000178135
0.000198749
0.000221742
0.000247391
0.000276001
0.000307918
0.000343521
0.000383238
0.000427544
0.00047697
0.000532108
0.000593618
0.000662238
0.000738788
0.000824187
0.000919456
0.00102574
0.0011443
0.00127658
0.00142414
0.00158876
0.00177241
0.0019773
0.00220587
0.00246087
0.00274535
0.00306272
5.00789e-07
1.50497e-06
2.52151e-06
3.56437e-06
4.64731e-06
5.78459e-06
6.99095e-06
8.28141e-06
9.67234e-06
1.1184e-05
1.28372e-05
1.46473e-05
1.6637e-05
1.88556e-05
2.1344e-05
2.42242e-05
2.75875e-05
3.15418e-05
3.6231e-05
4.08567e-05
4.53467e-05
4.9087e-05
5.31347e-05
5.93611e-05
6.62982e-05
7.40292e-05
8.26465e-05
9.22534e-05
0.000102965
0.000114909
0.000128229
0.000143085
0.000159654
0.000178134
0.000198748
0.000221741
0.000247389
0.000276
0.000307916
0.000343519
0.000383236
0.000427542
0.000476967
0.000532104
0.000593614
0.000662233
0.000738782
0.000824179
0.000919447
0.00102573
0.00114429
0.00127656
0.00142412
0.00158874
0.00177239
0.00197727
0.00220583
0.00246082
0.00274529
0.00306265
0.0034167
5.00795e-07
1.50497e-06
2.52145e-06
3.56424e-06
4.64702e-06
5.78368e-06
6.98901e-06
8.27848e-06
9.66794e-06
1.1175e-05
1.28217e-05
1.46308e-05
1.66185e-05
1.88098e-05
2.12597e-05
2.40136e-05
2.72086e-05
3.09455e-05
3.53421e-05
4.05567e-05
4.5702e-05
5.07065e-05
5.4865e-05
5.9361e-05
6.62981e-05
7.40291e-05
8.26464e-05
9.22532e-05
0.000102965
0.000114909
0.000128229
0.000143085
0.000159653
0.000178134
0.000198747
0.00022174
0.000247389
0.000275999
0.000307915
0.000343518
0.000383234
0.000427539
0.000476964
0.000532101
0.00059361
0.000662228
0.000738777
0.000824172
0.000919439
0.00102572
0.00114428
0.00127655
0.0014241
0.00158871
0.00177236
0.00197723
0.00220579
0.00246078
0.00274524
0.00306259
0.00341663
0.0038116
5.00788e-07
1.50501e-06
2.52146e-06
3.56414e-06
4.64682e-06
5.78328e-06
6.98784e-06
8.27607e-06
9.66441e-06
1.11697e-05
1.28111e-05
1.46127e-05
1.65996e-05
1.87887e-05
2.12078e-05
2.39184e-05
2.69704e-05
3.05181e-05
3.46729e-05
3.95628e-05
4.5362e-05
5.10878e-05
5.66711e-05
6.13002e-05
6.62981e-05
7.4029e-05
8.26462e-05
9.22531e-05
0.000102965
0.000114909
0.000128229
0.000143085
0.000159653
0.000178134
0.000198747
0.00022174
0.000247388
0.000275999
0.000307914
0.000343516
0.000383232
0.000427537
0.000476962
0.000532098
0.000593606
0.000662223
0.000738771
0.000824166
0.000919431
0.00102571
0.00114427
0.00127653
0.00142409
0.0015887
0.00177234
0.00197721
0.00220576
0.00246073
0.00274519
0.00306253
0.00341656
0.00381152
0.00425214
5.00778e-07
1.50498e-06
2.52154e-06
3.56416e-06
4.64669e-06
5.78302e-06
6.98734e-06
8.27461e-06
9.66148e-06
1.11655e-05
1.2805e-05
1.46005e-05
1.65788e-05
1.87672e-05
2.11841e-05
2.38598e-05
2.68634e-05
3.025e-05
3.41924e-05
3.8814e-05
4.42536e-05
5.07029e-05
5.70772e-05
6.33114e-05
6.84695e-05
7.40289e-05
8.26461e-05
9.2253e-05
0.000102964
0.000114909
0.000128229
0.000143084
0.000159653
0.000178133
0.000198746
0.000221739
0.000247388
0.000275998
0.000307913
0.000343515
0.000383231
0.000427535
0.00047696
0.000532095
0.000593603
0.000662219
0.000738766
0.00082416
0.000919423
0.0010257
0.00114426
0.00127652
0.00142407
0.00158868
0.00177232
0.00197718
0.00220573
0.0024607
0.00274514
0.00306247
0.00341649
0.00381143
0.00425205
0.00474361
5.0078e-07
1.50493e-06
2.52147e-06
3.5643e-06
4.64672e-06
5.78285e-06
6.98701e-06
8.27401e-06
9.6597e-06
1.11621e-05
1.28001e-05
1.45935e-05
1.65647e-05
1.87435e-05
2.11598e-05
2.38334e-05
2.67978e-05
3.01302e-05
3.38915e-05
3.82752e-05
4.34178e-05
4.94696e-05
5.66416e-05
6.374e-05
7.0706e-05
7.64587e-05
8.2646e-05
9.22529e-05
0.000102964
0.000114908
0.000128228
0.000143084
0.000159652
0.000178133
0.000198746
0.000221739
0.000247387
0.000275997
0.000307912
0.000343514
0.000383229
0.000427534
0.000476958
0.000532093
0.000593599
0.000662215
0.000738761
0.000824154
0.000919416
0.00102569
0.00114424
0.00127651
0.00142405
0.00158866
0.00177229
0.00197715
0.00220569
0.00246066
0.0027451
0.00306242
0.00341642
0.00381136
0.00425196
0.0047435
0.00529187
5.008e-07
1.50495e-06
2.52136e-06
3.56419e-06
4.64694e-06
5.78291e-06
6.9868e-06
8.27362e-06
9.659e-06
1.116e-05
1.2796e-05
1.45878e-05
1.65567e-05
1.87275e-05
2.11328e-05
2.38061e-05
2.67684e-05
3.00569e-05
3.37578e-05
3.79385e-05
4.28152e-05
4.85391e-05
5.52725e-05
6.32472e-05
7.11541e-05
7.89425e-05
8.53633e-05
9.22527e-05
0.000102964
0.000114908
0.000128228
0.000143084
0.000159652
0.000178132
0.000198746
0.000221738
0.000247386
0.000275996
0.000307911
0.000343513
0.000383228
0.000427532
0.000476955
0.00053209
0.000593596
0.000662211
0.000738756
0.000824148
0.000919409
0.00102568
0.00114424
0.00127649
0.00142404
0.00158864
0.00177227
0.00197713
0.00220566
0.00246062
0.00274505
0.00306237
0.00341636
0.00381129
0.00425187
0.00474339
0.00529174
0.00590349
5.00808e-07
1.50502e-06
2.52142e-06
3.564e-06
4.64678e-06
5.78323e-06
6.9869e-06
8.27338e-06
9.65856e-06
1.11592e-05
1.27937e-05
1.45832e-05
1.65503e-05
1.87184e-05
2.11148e-05
2.37758e-05
2.6738e-05
3.00244e-05
3.36764e-05
3.77898e-05
4.24394e-05
4.78666e-05
5.42385e-05
6.17305e-05
7.05967e-05
7.94058e-05
8.81189e-05
9.52899e-05
0.000102964
0.000114908
0.000128228
0.000143083
0.000159652
0.000178132
0.000198745
0.000221738
0.000247386
0.000275995
0.00030791
0.000343511
0.000383226
0.00042753
0.000476953
0.000532088
0.000593593
0.000662207
0.000738752
0.000824143
0.000919403
0.00102567
0.00114423
0.00127648
0.00142403
0.00158863
0.00177225
0.0019771
0.00220564
0.00246059
0.00274501
0.00306232
0.0034163
0.00381121
0.00425178
0.00474329
0.00529162
0.00590335
0.00658581
5.00808e-07
1.50507e-06
2.52158e-06
3.56409e-06
4.64649e-06
5.78302e-06
6.98733e-06
8.27353e-06
9.65831e-06
1.11587e-05
1.27927e-05
1.45804e-05
1.6545e-05
1.87112e-05
2.11048e-05
2.37555e-05
2.6704e-05
2.99906e-05
3.36407e-05
3.76996e-05
4.22745e-05
4.74481e-05
5.34896e-05
6.05838e-05
6.89195e-05
7.87754e-05
8.85915e-05
9.83437e-05
0.000106357
0.000114908
0.000128228
0.000143083
0.000159652
0.000178132
0.000198745
0.000221737
0.000247385
0.000275995
0.000307909
0.000343511
0.000383225
0.000427528
0.000476951
0.000532085
0.000593591
0.000662204
0.000738747
0.000824138
0.000919397
0.00102567
0.00114422
0.00127647
0.00142401
0.00158861
0.00177223
0.00197708
0.00220561
0.00246056
0.00274497
0.00306227
0.00341625
0.00381115
0.0042517
0.00474319
0.00529151
0.00590322
0.00658565
0.007347
5.00809e-07
1.50507e-06
2.52169e-06
3.56439e-06
4.64665e-06
5.78263e-06
6.98707e-06
8.27409e-06
9.65853e-06
1.11585e-05
1.27922e-05
1.45794e-05
1.65419e-05
1.87052e-05
2.10966e-05
2.37443e-05
2.66813e-05
2.99527e-05
3.36033e-05
3.76604e-05
4.21748e-05
4.72657e-05
5.30245e-05
5.97512e-05
6.76503e-05
7.69239e-05
8.78784e-05
9.88182e-05
0.000109738
0.000118697
0.000128228
0.000143083
0.000159651
0.000178131
0.000198744
0.000221737
0.000247384
0.000275994
0.000307908
0.000343509
0.000383224
0.000427527
0.000476949
0.000532083
0.000593588
0.000662201
0.000738744
0.000824133
0.000919391
0.00102566
0.00114421
0.00127646
0.001424
0.0015886
0.00177222
0.00197706
0.00220559
0.00246053
0.00274494
0.00306223
0.0034162
0.00381109
0.00425163
0.0047431
0.0052914
0.00590309
0.0065855
0.00734681
0.00819615
5.00821e-07
1.5051e-06
2.5217e-06
3.56458e-06
4.6471e-06
5.78284e-06
6.98657e-06
8.27378e-06
9.65925e-06
1.11588e-05
1.2792e-05
1.45789e-05
1.65409e-05
1.87018e-05
2.10899e-05
2.37353e-05
2.6669e-05
2.99275e-05
3.35609e-05
3.76192e-05
4.21321e-05
4.71559e-05
5.28232e-05
5.92353e-05
6.67261e-05
7.55215e-05
8.58381e-05
9.80116e-05
0.000110205
0.000122437
0.000132458
0.000143083
0.000159651
0.000178131
0.000198744
0.000221736
0.000247384
0.000275993
0.000307907
0.000343509
0.000383222
0.000427526
0.000476948
0.000532081
0.000593585
0.000662198
0.00073874
0.000824128
0.000919385
0.00102565
0.0011442
0.00127645
0.00142399
0.00158858
0.0017722
0.00197704
0.00220556
0.0024605
0.0027449
0.00306219
0.00341615
0.00381103
0.00425156
0.00474302
0.0052913
0.00590297
0.00658535
0.00734664
0.00819595
0.00914345
5.0082e-07
1.50511e-06
2.52175e-06
3.5646e-06
4.6474e-06
5.78349e-06
6.98687e-06
8.27317e-06
9.65887e-06