/*--------------------------------*- C++ -*----------------------------------*\
| =========                 |                                                 |
| \\      /  F ield         | OpenFOAM: The Open Source CFD Toolbox           |
|  \\    /   O peration     | Version:  v2012                                 |
|   \\  /    A nd           | Website:  www.openfoam.com                      |
|    \\/     M anipulation  |                                                 |
\*---------------------------------------------------------------------------*/
FoamFile
{
    version     2.0;
    format      ascii;
    class       volScalarField;
    location    "13200";
    object      Fs;
}
// * * * * * * * * * * * * * * * * * * * * * * * * * * * * * * * * * * * * * //

dimensions      [0 0 0 0 0 0 0];


internalField   nonuniform List<scalar> 
31383
(
9.88105e-07
4.53751e-05
1.03192e-06
4.53545e-05
4.54179e-05
1.04296e-06
4.542e-05
4.53548e-05
4.54164e-05
1.04575e-06
4.53986e-05
4.54014e-05
4.53388e-05
4.54206e-05
1.0418e-06
4.53507e-05
4.53973e-05
4.53942e-05
4.53162e-05
4.54193e-05
1.03335e-06
4.53643e-05
4.5369e-05
4.53919e-05
4.53904e-05
4.5291e-05
4.54068e-05
1.02186e-06
4.53758e-05
4.53761e-05
4.53738e-05
4.53872e-05
4.53834e-05
4.52625e-05
4.54007e-05
1.01083e-06
4.5396e-05
4.53814e-05
4.53779e-05
4.53697e-05
4.53814e-05
4.53771e-05
4.52305e-05
4.54153e-05
1.00356e-06
4.53916e-05
4.53923e-05
4.53804e-05
4.53736e-05
4.53646e-05
4.53755e-05
4.53703e-05
4.51942e-05
4.54026e-05
1.00736e-06
4.53812e-05
4.5391e-05
4.5387e-05
4.53757e-05
4.53686e-05
4.53585e-05
4.53689e-05
4.53628e-05
4.51517e-05
4.53833e-05
1.03351e-06
4.53802e-05
4.53853e-05
4.5387e-05
4.53829e-05
4.53715e-05
4.53627e-05
4.53513e-05
4.53617e-05
4.53546e-05
4.5104e-05
4.53962e-05
1.17388e-06
4.53772e-05
4.53875e-05
4.53837e-05
4.53829e-05
4.53789e-05
4.53666e-05
4.53558e-05
4.53432e-05
4.53535e-05
4.53453e-05
4.50495e-05
4.54893e-05
1.36994e-06
4.5377e-05
4.53845e-05
4.53877e-05
4.5379e-05
4.53787e-05
4.53743e-05
4.53612e-05
4.53482e-05
4.53343e-05
4.53441e-05
4.53345e-05
4.49926e-05
4.561e-05
1.61891e-06
4.53835e-05
4.53828e-05
4.53852e-05
4.53814e-05
4.53741e-05
4.53739e-05
4.53695e-05
4.53551e-05
4.53396e-05
4.53245e-05
4.53339e-05
4.53234e-05
4.49246e-05
4.57327e-05
1.90028e-06
4.53888e-05
4.53859e-05
4.53821e-05
4.53797e-05
4.53752e-05
4.53688e-05
4.53688e-05
4.5364e-05
4.53481e-05
4.53299e-05
4.53142e-05
4.53231e-05
4.53117e-05
4.49288e-05
4.60241e-05
2.09903e-06
4.5396e-05
4.53888e-05
4.53837e-05
4.53769e-05
4.53735e-05
4.53689e-05
4.53629e-05
4.53631e-05
4.53579e-05
4.53401e-05
4.53199e-05
4.53037e-05
4.53123e-05
4.52994e-05
4.50751e-05
4.64134e-05
2.27807e-06
4.53996e-05
4.53936e-05
4.53855e-05
4.5379e-05
4.53713e-05
4.53673e-05
4.53623e-05
4.53565e-05
4.53567e-05
4.53512e-05
4.53313e-05
4.53096e-05
4.5293e-05
4.53015e-05
4.52883e-05
4.52485e-05
4.69166e-05
2.4643e-06
4.54004e-05
4.53955e-05
4.53889e-05
4.53811e-05
4.53738e-05
4.53652e-05
4.53603e-05
4.53545e-05
4.53497e-05
4.53493e-05
4.5344e-05
4.53219e-05
4.52994e-05
4.52831e-05
4.52914e-05
4.5278e-05
4.53632e-05
4.74837e-05
2.68254e-06
4.53988e-05
4.53962e-05
4.53907e-05
4.53845e-05
4.53765e-05
4.53684e-05
4.53585e-05
4.53525e-05
4.5346e-05
4.53418e-05
4.53415e-05
4.53363e-05
4.53131e-05
4.529e-05
4.52734e-05
4.52818e-05
4.52671e-05
4.54395e-05
4.80681e-05
2.87298e-06
4.54e-05
4.53959e-05
4.53915e-05
4.53869e-05
4.53798e-05
4.53713e-05
4.53622e-05
4.53509e-05
4.5344e-05
4.53383e-05
4.53334e-05
4.53338e-05
4.53285e-05
4.53048e-05
4.52812e-05
4.52643e-05
4.52716e-05
4.52559e-05
4.55007e-05
4.86437e-05
3.0691e-06
4.53877e-05
4.53965e-05
4.53912e-05
4.53879e-05
4.53824e-05
4.53749e-05
4.53654e-05
4.53553e-05
4.53427e-05
4.53349e-05
4.53289e-05
4.53243e-05
4.53259e-05
4.53212e-05
4.52965e-05
4.52729e-05
4.52556e-05
4.52604e-05
4.52439e-05
4.55515e-05
4.92139e-05
3.28434e-06
4.53616e-05
4.53901e-05
4.53915e-05
4.53876e-05
4.53837e-05
4.53778e-05
4.53695e-05
4.53597e-05
4.5348e-05
4.53338e-05
4.53245e-05
4.53192e-05
4.53151e-05
4.53184e-05
4.5314e-05
4.52894e-05
4.52648e-05
4.52454e-05
4.52474e-05
4.52304e-05
4.55975e-05
4.97938e-05
3.50049e-06
4.53385e-05
4.53759e-05
4.53893e-05
4.53887e-05
4.53841e-05
4.53795e-05
4.53728e-05
4.53635e-05
4.53526e-05
4.53398e-05
4.53244e-05
4.53141e-05
4.53101e-05
4.53066e-05
4.53114e-05
4.53077e-05
4.52823e-05
4.52559e-05
4.5234e-05
4.52325e-05
4.52158e-05
4.56422e-05
5.03812e-05
3.71379e-06
4.53328e-05
4.5363e-05
4.53804e-05
4.53864e-05
4.53857e-05
4.53802e-05
4.53749e-05
4.53673e-05
4.5357e-05
4.53444e-05
4.5331e-05
4.53139e-05
4.53051e-05
4.53009e-05
4.52988e-05
4.5305e-05
4.53014e-05
4.52745e-05
4.52455e-05
4.52203e-05
4.5215e-05
4.52e-05
4.56867e-05
5.09684e-05
3.92937e-06
4.53439e-05
4.53603e-05
4.53718e-05
4.53785e-05
4.53841e-05
4.53823e-05
4.5376e-05
4.53698e-05
4.53614e-05
4.53495e-05
4.53369e-05
4.53219e-05
4.53034e-05
4.52954e-05
4.52927e-05
4.52913e-05
4.52991e-05
4.52947e-05
4.52656e-05
4.52333e-05
4.52045e-05
4.51955e-05
4.51826e-05
4.57304e-05
5.1535e-05
4.15596e-06
4.53592e-05
4.53665e-05
4.53704e-05
4.53712e-05
4.53769e-05
4.53812e-05
4.53786e-05
4.53714e-05
4.53642e-05
4.53546e-05
4.53415e-05
4.53279e-05
4.53125e-05
4.52945e-05
4.52855e-05
4.52845e-05
4.52847e-05
4.52925e-05
4.52871e-05
4.52552e-05
4.52191e-05
4.51864e-05
4.51732e-05
4.51621e-05
4.57661e-05
5.20968e-05
4.40691e-06
4.53656e-05
4.53749e-05
4.53752e-05
4.53706e-05
4.53692e-05
4.53746e-05
4.5378e-05
4.53744e-05
4.53662e-05
4.53579e-05
4.53471e-05
4.53331e-05
4.53191e-05
4.53035e-05
4.52849e-05
4.52774e-05
4.52769e-05
4.52777e-05
4.5285e-05
4.52783e-05
4.52428e-05
4.52028e-05
4.51655e-05
4.5148e-05
4.51381e-05
4.57934e-05
5.26441e-05
4.70605e-06
4.53465e-05
4.53784e-05
4.53816e-05
4.53752e-05
4.53701e-05
4.53665e-05
4.53721e-05
4.53744e-05
4.53696e-05
4.53605e-05
4.53513e-05
4.53402e-05
4.53249e-05
4.53108e-05
4.52947e-05
4.5276e-05
4.52691e-05
4.52692e-05
4.52695e-05
4.52763e-05
4.52677e-05
4.52284e-05
4.51841e-05
4.51418e-05
4.51196e-05
4.511e-05
4.58385e-05
5.31599e-05
5.0929e-06
4.53007e-05
4.53674e-05
4.53838e-05
4.5381e-05
4.53746e-05
4.5367e-05
4.53642e-05
4.53693e-05
4.53703e-05
4.53644e-05
4.53542e-05
4.5344e-05
4.53324e-05
4.5317e-05
4.5303e-05
4.52868e-05
4.52679e-05
4.52604e-05
4.52606e-05
4.52602e-05
4.52662e-05
4.52555e-05
4.5212e-05
4.5163e-05
4.5115e-05
4.5088e-05
4.50785e-05
4.59615e-05
5.36526e-05
5.62035e-06
4.52676e-05
4.53421e-05
4.53753e-05
4.53827e-05
4.53794e-05
4.53709e-05
4.5362e-05
4.5362e-05
4.5366e-05
4.53657e-05
4.53585e-05
4.53477e-05
4.5337e-05
4.5325e-05
4.53095e-05
4.52958e-05
4.52792e-05
4.52596e-05
4.52514e-05
4.5251e-05
4.52499e-05
4.52542e-05
4.52416e-05
4.51933e-05
4.51393e-05
4.50852e-05
4.50528e-05
4.50435e-05
4.60609e-05
5.41281e-05
6.30494e-06
4.52634e-05
4.53228e-05
4.53583e-05
4.5375e-05
4.53799e-05
4.53746e-05
4.53641e-05
4.53584e-05
4.53595e-05
4.53625e-05
4.53608e-05
4.53527e-05
4.53416e-05
4.53307e-05
4.53185e-05
4.53026e-05
4.52887e-05
4.52712e-05
4.52502e-05
4.52411e-05
4.52402e-05
4.5238e-05
4.52409e-05
4.52254e-05
4.51723e-05
4.5113e-05
4.50525e-05
4.5014e-05
4.50048e-05
4.61666e-05
5.45798e-05
6.89544e-06
4.5215e-05
4.53196e-05
4.53452e-05
4.53593e-05
4.53733e-05
4.53764e-05
4.53688e-05
4.53598e-05
4.53572e-05
4.5357e-05
4.53587e-05
4.53559e-05
4.53468e-05
4.53357e-05
4.53245e-05
4.53122e-05
4.52962e-05
4.52816e-05
4.5263e-05
4.524e-05
4.52295e-05
4.52281e-05
4.52245e-05
4.52257e-05
4.52071e-05
4.51492e-05
4.50837e-05
4.5016e-05
4.49709e-05
4.4962e-05
4.62633e-05
5.49434e-05
6.93362e-06
4.50301e-05
4.52982e-05
4.53407e-05
4.53471e-05
4.53602e-05
4.53706e-05
4.53742e-05
4.53669e-05
4.53589e-05
4.53558e-05
4.53542e-05
4.53548e-05
4.53509e-05
4.53415e-05
4.53303e-05
4.53191e-05
4.53066e-05
4.52896e-05
4.5274e-05
4.52538e-05
4.52293e-05
4.5217e-05
4.52146e-05
4.52089e-05
4.52085e-05
4.51867e-05
4.51233e-05
4.50509e-05
4.49758e-05
4.49233e-05
4.49147e-05
4.63604e-05
5.51235e-05
7.09474e-06
4.50592e-05
4.51899e-05
4.5332e-05
4.53401e-05
4.53495e-05
4.53589e-05
4.53687e-05
4.53719e-05
4.53654e-05
4.53575e-05
4.53538e-05
4.53512e-05
4.53512e-05
4.53465e-05
4.53365e-05
4.53255e-05
4.53142e-05
4.53008e-05
4.52825e-05
4.52655e-05
4.52434e-05
4.52169e-05
4.52028e-05
4.51994e-05
4.51918e-05
4.51893e-05
4.51642e-05
4.50947e-05
4.50147e-05
4.49311e-05
4.48706e-05
4.48622e-05
4.64563e-05
5.51019e-05
7.61696e-06
4.50976e-05
4.5195e-05
4.52717e-05
4.53358e-05
4.53424e-05
4.53517e-05
4.53537e-05
4.53671e-05
4.53689e-05
4.53625e-05
4.53553e-05
4.53517e-05
4.53489e-05
4.53481e-05
4.53426e-05
4.53324e-05
4.53213e-05
4.53092e-05
4.52946e-05
4.52747e-05
4.52563e-05
4.52322e-05
4.52035e-05
4.51872e-05
4.51819e-05
4.51731e-05
4.51679e-05
4.51392e-05
4.50627e-05
4.49749e-05
4.48816e-05
4.48125e-05
4.48034e-05
4.65489e-05
5.48844e-05
8.50993e-06
4.50748e-05
4.52162e-05
4.52584e-05
4.52826e-05
4.53382e-05
4.53485e-05
4.53563e-05
4.53487e-05
4.5365e-05
4.5366e-05
4.53599e-05
4.53531e-05
4.53498e-05
4.5347e-05
4.53456e-05
4.53395e-05
4.53288e-05
4.53172e-05
4.53038e-05
4.5288e-05
4.52662e-05
4.52461e-05
4.52196e-05
4.51883e-05
4.51699e-05
4.5163e-05
4.51522e-05
4.51444e-05
4.51112e-05
4.50275e-05
4.49306e-05
4.48272e-05
4.47485e-05
4.47376e-05
4.66386e-05
5.44176e-05
9.77324e-06
4.52038e-05
4.5208e-05
4.52666e-05
4.52542e-05
4.53047e-05
4.53451e-05
4.53623e-05
4.53553e-05
4.53489e-05
4.53628e-05
4.53628e-05
4.53572e-05
4.5351e-05
4.53483e-05
4.53456e-05
4.53438e-05
4.53369e-05
4.53251e-05
4.53126e-05
4.52983e-05
4.52803e-05
4.52563e-05
4.52345e-05
4.52053e-05
4.51716e-05
4.51508e-05
4.51428e-05
4.5129e-05
4.51182e-05
4.508e-05
4.49884e-05
4.48819e-05
4.47673e-05
4.46779e-05
4.46631e-05
4.67262e-05
5.36126e-05
1.15819e-05
4.52483e-05
4.52826e-05
4.52715e-05
4.52561e-05
4.52553e-05
4.53417e-05
4.53539e-05
4.53818e-05
4.53482e-05
4.53496e-05
4.53602e-05
4.53601e-05
4.53549e-05
4.53494e-05
4.53475e-05
4.53449e-05
4.53425e-05
4.53343e-05
4.53214e-05
4.53077e-05
4.52916e-05
4.52719e-05
4.52458e-05
4.52218e-05
4.51899e-05
4.51535e-05
4.513e-05
4.51196e-05
4.51037e-05
4.50891e-05
4.50458e-05
4.49454e-05
4.48282e-05
4.47011e-05
4.46003e-05
4.45788e-05
4.68081e-05
5.23376e-05
1.41636e-05
4.49014e-05
4.53576e-05
4.53126e-05
4.52708e-05
4.52549e-05
4.52758e-05
4.53772e-05
4.53668e-05
4.53839e-05
4.53327e-05
4.53494e-05
4.53581e-05
4.5358e-05
4.53534e-05
4.53485e-05
4.53473e-05
4.53448e-05
4.53412e-05
4.53316e-05
4.53169e-05
4.5302e-05
4.52842e-05
4.52626e-05
4.52339e-05
4.52075e-05
4.51727e-05
4.51336e-05
4.51074e-05
4.50944e-05
4.50753e-05
4.5057e-05
4.50077e-05
4.48977e-05
4.47691e-05
4.46285e-05
4.45145e-05
4.44835e-05
4.68808e-05
5.04078e-05
1.78858e-05
4.47355e-05
4.50673e-05
4.54813e-05
4.53246e-05
4.52796e-05
4.5269e-05
4.5325e-05
4.54199e-05
4.54169e-05
4.53554e-05
4.53149e-05
4.53491e-05
4.53565e-05
4.53562e-05
4.53524e-05
4.53482e-05
4.53476e-05
4.53446e-05
4.53395e-05
4.5328e-05
4.53121e-05
4.52956e-05
4.5276e-05
4.52522e-05
4.52207e-05
4.5192e-05
4.51542e-05
4.51116e-05
4.50826e-05
4.50669e-05
4.50444e-05
4.50214e-05
4.49656e-05
4.48456e-05
4.47042e-05
4.45483e-05
4.44196e-05
4.43771e-05
4.69226e-05
4.75864e-05
2.32048e-05
4.45978e-05
4.50168e-05
4.51074e-05
4.55884e-05
4.53347e-05
4.53028e-05
4.53082e-05
4.53876e-05
4.54697e-05
4.5448e-05
4.53052e-05
4.53131e-05
4.53486e-05
4.53556e-05
4.53553e-05
4.53521e-05
4.53485e-05
4.53475e-05
4.53444e-05
4.53375e-05
4.53241e-05
4.53066e-05
4.52883e-05
4.52667e-05
4.52405e-05
4.52065e-05
4.51752e-05
4.5134e-05
4.50877e-05
4.5055e-05
4.50362e-05
4.50105e-05
4.49824e-05
4.49196e-05
4.47881e-05
4.46328e-05
4.446e-05
4.43145e-05
4.42593e-05
4.69168e-05
4.35638e-05
3.04419e-05
4.46502e-05
4.49372e-05
4.50963e-05
4.50674e-05
4.57195e-05
4.53452e-05
4.53503e-05
4.53726e-05
4.54514e-05
4.54673e-05
4.53929e-05
4.52758e-05
4.53181e-05
4.5349e-05
4.53555e-05
4.53553e-05
4.53521e-05
4.53488e-05
4.53478e-05
4.53436e-05
4.53351e-05
4.53196e-05
4.53002e-05
4.52801e-05
4.52563e-05
4.52275e-05
4.51905e-05
4.51567e-05
4.51117e-05
4.50615e-05
4.50251e-05
4.50028e-05
4.49731e-05
4.49394e-05
4.48687e-05
4.47249e-05
4.45545e-05
4.43629e-05
4.41976e-05
4.41275e-05
4.66414e-05
3.80447e-05
3.91893e-05
4.44154e-05
4.51257e-05
4.51037e-05
4.50672e-05
4.49983e-05
4.5852e-05
4.53556e-05
4.543e-05
4.54433e-05
4.54981e-05
4.54145e-05
4.53083e-05
4.52803e-05
4.53272e-05
4.535e-05
4.53561e-05
4.53556e-05
4.53522e-05
4.53488e-05
4.53474e-05
4.53418e-05
4.53316e-05
4.53141e-05
4.52929e-05
4.52708e-05
4.52447e-05
4.52134e-05
4.51736e-05
4.51359e-05
4.5087e-05
4.50324e-05
4.49924e-05
4.49662e-05
4.4932e-05
4.48921e-05
4.48131e-05
4.46558e-05
4.44682e-05
4.4255e-05
4.40665e-05
4.39774e-05
4.61009e-05
3.0801e-05
5.10335e-05
4.45722e-05
4.47613e-05
4.53344e-05
4.5122e-05
4.50206e-05
4.49237e-05
4.59886e-05
4.53663e-05
4.54793e-05
4.55006e-05
4.54466e-05
4.53717e-05
4.52482e-05
4.52841e-05
4.53364e-05
4.5352e-05
4.53571e-05
4.53554e-05
4.53519e-05
4.53483e-05
4.53462e-05
4.53397e-05
4.53273e-05
4.53077e-05
4.52843e-05
4.52608e-05
4.52321e-05
4.51979e-05
4.51546e-05
4.51138e-05
4.50608e-05
4.50008e-05
4.49566e-05
4.49261e-05
4.48872e-05
4.48404e-05
4.47516e-05
4.45796e-05
4.43731e-05
4.41365e-05
4.39191e-05
4.38025e-05
4.52576e-05
2.23858e-05
6.46862e-05
4.47483e-05
4.49317e-05
4.48653e-05
4.54552e-05
4.51252e-05
4.49537e-05
4.48625e-05
4.61188e-05
4.53836e-05
4.54666e-05
4.5485e-05
4.53654e-05
4.53261e-05
4.5214e-05
4.52924e-05
4.53419e-05
4.53544e-05
4.53579e-05
4.53554e-05
4.53509e-05
4.53475e-05
4.53444e-05
4.53365e-05
4.5322e-05
4.53006e-05
4.52752e-05
4.52495e-05
4.52182e-05
4.5181e-05
4.51335e-05
4.50887e-05
4.50313e-05
4.49668e-05
4.49179e-05
4.48828e-05
4.48382e-05
4.47841e-05
4.46849e-05
4.44965e-05
4.42687e-05
4.40041e-05
4.37518e-05
4.35934e-05
4.40018e-05
1.38265e-05
7.6427e-05
4.51047e-05
4.503e-05
4.51121e-05
4.47946e-05
4.55671e-05
4.51329e-05
4.48651e-05
4.48211e-05
4.62259e-05
4.53861e-05
4.54369e-05
4.53915e-05
4.53055e-05
4.52509e-05
4.52342e-05
4.53093e-05
4.5348e-05
4.53574e-05
4.53585e-05
4.53554e-05
4.535e-05
4.53457e-05
4.5342e-05
4.53322e-05
4.5316e-05
4.52923e-05
4.52653e-05
4.52368e-05
4.52026e-05
4.5162e-05
4.51108e-05
4.50618e-05
4.49989e-05
4.49294e-05
4.48754e-05
4.48352e-05
4.47849e-05
4.47221e-05
4.46115e-05
4.44046e-05
4.41533e-05
4.38567e-05
4.35598e-05
4.33361e-05
4.21672e-05
8.28501e-06
8.12353e-05
4.52523e-05
4.52352e-05
4.51939e-05
4.51443e-05
4.47025e-05
4.57198e-05
4.51439e-05
4.47532e-05
4.48209e-05
4.63023e-05
4.53776e-05
4.53929e-05
4.52873e-05
4.52756e-05
4.52119e-05
4.5293e-05
4.53259e-05
4.5353e-05
4.536e-05
4.53594e-05
4.5354e-05
4.53484e-05
4.53434e-05
4.53386e-05
4.5327e-05
4.5309e-05
4.52831e-05
4.52538e-05
4.5223e-05
4.51858e-05
4.51414e-05
4.5086e-05
4.50325e-05
4.49645e-05
4.48886e-05
4.48291e-05
4.47831e-05
4.47263e-05
4.46546e-05
4.45306e-05
4.43037e-05
4.40254e-05
4.36915e-05
4.33382e-05
4.30033e-05
3.95778e-05
4.8371e-06
7.44168e-05
4.56264e-05
4.53196e-05
4.53093e-05
4.52272e-05
4.51558e-05
4.45865e-05
4.58858e-05
4.51566e-05
4.46244e-05
4.48651e-05
4.63423e-05
4.53637e-05
4.53035e-05
4.52493e-05
4.52625e-05
4.52617e-05
4.53181e-05
4.53395e-05
4.53573e-05
4.53624e-05
4.53594e-05
4.53524e-05
4.53454e-05
4.53398e-05
4.5334e-05
4.5321e-05
4.53007e-05
4.52731e-05
4.52413e-05
4.52074e-05
4.5167e-05
4.51183e-05
4.50586e-05
4.5e-05
4.49267e-05
4.48446e-05
4.47791e-05
4.47273e-05
4.46626e-05
4.45802e-05
4.44419e-05
4.4192e-05
4.38833e-05
4.35052e-05
4.3081e-05
4.25432e-05
3.61372e-05
2.91484e-06
6.86697e-05
4.59983e-05
4.55278e-05
4.53726e-05
4.53025e-05
4.52485e-05
4.51579e-05
4.44535e-05
4.60584e-05
4.5182e-05
4.44801e-05
4.49528e-05
4.63415e-05
4.53444e-05
4.52136e-05
4.52673e-05
4.52826e-05
4.53068e-05
4.5323e-05
4.53497e-05
4.53608e-05
4.53637e-05
4.53583e-05
4.53496e-05
4.53417e-05
4.53352e-05
4.53283e-05
4.53137e-05
4.52914e-05
4.52613e-05
4.52272e-05
4.51902e-05
4.51464e-05
4.50933e-05
4.50285e-05
4.49651e-05
4.48855e-05
4.47968e-05
4.4725e-05
4.46659e-05
4.45933e-05
4.44992e-05
4.43445e-05
4.40693e-05
4.37244e-05
4.32941e-05
4.27873e-05
4.18768e-05
3.18529e-05
2.1645e-06
6.59575e-05
4.6332e-05
4.57376e-05
4.54844e-05
4.53722e-05
4.52924e-05
4.5272e-05
4.51585e-05
4.43163e-05
4.61996e-05
4.51765e-05
4.43308e-05
4.50664e-05
4.63186e-05
4.53408e-05
4.5221e-05
4.52909e-05
4.53168e-05
4.52998e-05
4.53233e-05
4.53573e-05
4.53641e-05
4.53637e-05
4.53567e-05
4.53464e-05
4.53372e-05
4.533e-05
4.53216e-05
4.53054e-05
4.52809e-05
4.52482e-05
4.52119e-05
4.51715e-05
4.51233e-05
4.50661e-05
4.49959e-05
4.49268e-05
4.4841e-05
4.47447e-05
4.46661e-05
4.45995e-05
4.45178e-05
4.44105e-05
4.42371e-05
4.39328e-05
4.3547e-05
4.3053e-05
4.24528e-05
4.08972e-05
2.71299e-05
2.12166e-06
6.41784e-05
4.66258e-05
4.59247e-05
4.56327e-05
4.54711e-05
4.53715e-05
4.52853e-05
4.52965e-05
4.51449e-05
4.41815e-05
4.62835e-05
4.51583e-05
4.42062e-05
4.51677e-05
4.62831e-05
4.53426e-05
4.52744e-05
4.53156e-05
4.5325e-05
4.53133e-05
4.53346e-05
4.53628e-05
4.53667e-05
4.53642e-05
4.53542e-05
4.53425e-05
4.53319e-05
4.53239e-05
4.53143e-05
4.52958e-05
4.52688e-05
4.5234e-05
4.51943e-05
4.51508e-05
4.50988e-05
4.5036e-05
4.49609e-05
4.48856e-05
4.47926e-05
4.46887e-05
4.46021e-05
4.45273e-05
4.44345e-05
4.43125e-05
4.41185e-05
4.37807e-05
4.33465e-05
4.27751e-05
4.2067e-05
3.94872e-05
2.27837e-05
2.59896e-06
6.23601e-05
4.68337e-05
4.60868e-05
4.57647e-05
4.56125e-05
4.54363e-05
4.53905e-05
4.5275e-05
4.53302e-05
4.51656e-05
4.40838e-05
4.63218e-05
4.51435e-05
4.41515e-05
4.5213e-05
4.6225e-05
4.53521e-05
4.52907e-05
4.53195e-05
4.53232e-05
4.53365e-05
4.53521e-05
4.53681e-05
4.53687e-05
4.53634e-05
4.53508e-05
4.53375e-05
4.53258e-05
4.53159e-05
4.5305e-05
4.52849e-05
4.52553e-05
4.52178e-05
4.51756e-05
4.51282e-05
4.50714e-05
4.5004e-05
4.49225e-05
4.48408e-05
4.47399e-05
4.46278e-05
4.45322e-05
4.44482e-05
4.43438e-05
4.42053e-05
4.3987e-05
4.3611e-05
4.31198e-05
4.24523e-05
4.15949e-05
3.75555e-05
1.84991e-05
3.71293e-06
6.02276e-05
4.70064e-05
4.62028e-05
4.58759e-05
4.57364e-05
4.55758e-05
4.54047e-05
4.54293e-05
4.5264e-05
4.53905e-05
4.51276e-05
4.40294e-05
4.62289e-05
4.51463e-05
4.41936e-05
4.51779e-05
4.61449e-05
4.53631e-05
4.52951e-05
4.53142e-05
4.5333e-05
4.53427e-05
4.5365e-05
4.53725e-05
4.53705e-05
4.53614e-05
4.53468e-05
4.53318e-05
4.53181e-05
4.53073e-05
4.52948e-05
4.52723e-05
4.52403e-05
4.52002e-05
4.51544e-05
4.51035e-05
4.50419e-05
4.49684e-05
4.48808e-05
4.47921e-05
4.46835e-05
4.45618e-05
4.44572e-05
4.4362e-05
4.42446e-05
4.40868e-05
4.38409e-05
4.34203e-05
4.28606e-05
4.20754e-05
4.09647e-05
3.50396e-05
1.4528e-05
6.09238e-06
5.71951e-05
4.71346e-05
4.62979e-05
4.59556e-05
4.58393e-05
4.5696e-05
4.55451e-05
4.53723e-05
4.54881e-05
4.52528e-05
4.54372e-05
4.51203e-05
4.39722e-05
4.60606e-05
4.51926e-05
4.43985e-05
4.50465e-05
4.60316e-05
4.53749e-05
4.53005e-05
4.53211e-05
4.53408e-05
4.53552e-05
4.53746e-05
4.53765e-05
4.53712e-05
4.53589e-05
4.53421e-05
4.53251e-05
4.53101e-05
4.52975e-05
4.52829e-05
4.52582e-05
4.52236e-05
4.51804e-05
4.51316e-05
4.5076e-05
4.50093e-05
4.493e-05
4.4836e-05
4.47393e-05
4.46224e-05
4.44902e-05
4.4375e-05
4.42684e-05
4.41354e-05
4.39551e-05
4.36776e-05
4.32052e-05
4.25632e-05
4.16405e-05
4.00697e-05
3.19129e-05
1.10485e-05
1.13198e-05
5.41416e-05
4.72362e-05
4.63732e-05
4.60203e-05
4.59134e-05
4.57949e-05
4.56628e-05
4.55148e-05
4.53456e-05
4.55449e-05
4.5244e-05
4.54537e-05
4.5101e-05
4.40638e-05
4.5981e-05
4.52129e-05
4.47271e-05
4.48022e-05
4.58397e-05
4.54034e-05
4.53092e-05
4.53267e-05
4.53473e-05
4.53721e-05
4.53812e-05
4.538e-05
4.53713e-05
4.53552e-05
4.53365e-05
4.53171e-05
4.53002e-05
4.52861e-05
4.527e-05
4.52425e-05
4.52053e-05
4.51591e-05
4.51064e-05
4.50464e-05
4.49744e-05
4.48884e-05
4.47869e-05
4.46819e-05
4.45556e-05
4.44126e-05
4.42858e-05
4.41659e-05
4.40153e-05
4.38096e-05
4.34946e-05
4.29599e-05
4.22176e-05
4.11469e-05
3.88085e-05
2.82557e-05
8.19984e-06
2.11069e-05
5.17705e-05
4.72782e-05
4.64276e-05
4.60727e-05
4.59731e-05
4.58664e-05
4.57582e-05
4.5631e-05
4.54887e-05
4.53312e-05
4.54753e-05
4.52146e-05
4.54584e-05
4.50167e-05
4.42194e-05
4.58209e-05
4.51298e-05
4.51122e-05
4.45117e-05
4.54749e-05
4.5437e-05
4.53183e-05
4.53322e-05
4.53576e-05
4.53845e-05
4.53867e-05
4.53826e-05
4.53703e-05
4.53511e-05
4.5329e-05
4.5308e-05
4.52894e-05
4.52736e-05
4.52552e-05
4.52255e-05
4.51851e-05
4.51358e-05
4.50796e-05
4.50142e-05
4.49363e-05
4.48432e-05
4.47334e-05
4.46204e-05
4.44834e-05
4.43283e-05
4.41887e-05
4.40535e-05
4.38827e-05
4.36474e-05
4.32881e-05
4.26799e-05
4.18149e-05
4.05691e-05
3.71005e-05
2.43665e-05
6.12883e-06
3.3866e-05
5.02036e-05
4.72704e-05
4.64486e-05
4.61117e-05
4.60192e-05
4.59249e-05
4.58269e-05
4.57223e-05
4.56024e-05
4.5468e-05
4.54091e-05
4.54314e-05
4.5175e-05
4.54769e-05
4.5013e-05
4.44223e-05
4.57147e-05
4.50246e-05
4.56488e-05
4.39878e-05
4.53209e-05
4.54625e-05
4.53265e-05
4.53415e-05
4.537e-05
4.53925e-05
4.53908e-05
4.53845e-05
4.53685e-05
4.53454e-05
4.53213e-05
4.52982e-05
4.52775e-05
4.52593e-05
4.52388e-05
4.5206e-05
4.51631e-05
4.51103e-05
4.50496e-05
4.49791e-05
4.48948e-05
4.47945e-05
4.46762e-05
4.45534e-05
4.4405e-05
4.42368e-05
4.40825e-05
4.39295e-05
4.37352e-05
4.34659e-05
4.30542e-05
4.23565e-05
4.13415e-05
3.98214e-05
3.48792e-05
2.06456e-05
5.11654e-06
4.20131e-05
4.94222e-05
4.71542e-05
4.64462e-05
4.61294e-05
4.60572e-05
4.59742e-05
4.58839e-05
4.57887e-05
4.56908e-05
4.5579e-05
4.54534e-05
4.54687e-05
4.54093e-05
4.51529e-05
4.54749e-05
4.50231e-05
4.47891e-05
4.55624e-05
4.49073e-05
4.68139e-05
4.40403e-05
4.56175e-05
4.54823e-05
4.53377e-05
4.53526e-05
4.53819e-05
4.53978e-05
4.53946e-05
4.53854e-05
4.53656e-05
4.53388e-05
4.53116e-05
4.52867e-05
4.52636e-05
4.52437e-05
4.52207e-05
4.51852e-05
4.51386e-05
4.5082e-05
4.50168e-05
4.4941e-05
4.48497e-05
4.4741e-05
4.46141e-05
4.44803e-05
4.43198e-05
4.41372e-05
4.39662e-05
4.37932e-05
4.35711e-05
4.32613e-05
4.27863e-05
4.19802e-05
4.0793e-05
3.87696e-05
3.20748e-05
1.72046e-05
5.71104e-06
4.36527e-05
4.89508e-05
4.72526e-05
4.64221e-05
4.61339e-05
4.60763e-05
4.60124e-05
4.59337e-05
4.58447e-05
4.57535e-05
4.56634e-05
4.55619e-05
4.54475e-05
4.54436e-05
4.53742e-05
4.51438e-05
4.54485e-05
4.50752e-05
4.52121e-05
4.53603e-05
4.48431e-05
4.78212e-05
4.25308e-05
4.60206e-05
4.55032e-05
4.53457e-05
4.53636e-05
4.5389e-05
4.54012e-05
4.53967e-05
4.5384e-05
4.53601e-05
4.53305e-05
4.53011e-05
4.52736e-05
4.52483e-05
4.52264e-05
4.52004e-05
4.51619e-05
4.51119e-05
4.50513e-05
4.49816e-05
4.48994e-05
4.48006e-05
4.46838e-05
4.45463e-05
4.4401e-05
4.42269e-05
4.40285e-05
4.38384e-05
4.36423e-05
4.33883e-05
4.30296e-05
4.2479e-05
4.15405e-05
4.01565e-05
3.72891e-05
2.87001e-05
1.38883e-05
8.94327e-06
4.41409e-05
4.86275e-05
4.37294e-05
4.69655e-05
4.6162e-05
4.60841e-05
4.60308e-05
4.59724e-05
4.58938e-05
4.5808e-05
4.57222e-05
4.56411e-05
4.55522e-05
4.54484e-05
4.54477e-05
4.5345e-05
4.5165e-05
4.54198e-05
4.51708e-05
4.54362e-05
4.50091e-05
4.49119e-05
4.87855e-05
4.14409e-05
4.6443e-05
4.55213e-05
4.53476e-05
4.53707e-05
4.5393e-05
4.54032e-05
4.5398e-05
4.53817e-05
4.53537e-05
4.53209e-05
4.52888e-05
4.52595e-05
4.52321e-05
4.52074e-05
4.51788e-05
4.5137e-05
4.50833e-05
4.50183e-05
4.49432e-05
4.48541e-05
4.47476e-05
4.46213e-05
4.44727e-05
4.43152e-05
4.41262e-05
4.39091e-05
4.36985e-05
4.34747e-05
4.31825e-05
4.27664e-05
4.21219e-05
4.10233e-05
3.93683e-05
3.53193e-05
2.49296e-05
1.09149e-05
1.64795e-05
4.50121e-05
4.83434e-05
3.98577e-05
4.18213e-05
4.75862e-05
4.61544e-05
4.60395e-05
4.59921e-05
4.5933e-05
4.58562e-05
4.57747e-05
4.56965e-05
4.56269e-05
4.55518e-05
4.54542e-05
4.54852e-05
4.53548e-05
4.52164e-05
4.53819e-05
4.53704e-05
4.56059e-05
4.45e-05
4.50996e-05
4.96497e-05
4.04123e-05
4.68955e-05
4.55472e-05
4.53482e-05
4.53755e-05
4.53962e-05
4.54043e-05
4.53985e-05
4.53786e-05
4.53451e-05
4.53104e-05
4.52757e-05
4.52439e-05
4.52138e-05
4.51867e-05
4.51553e-05
4.511e-05
4.50522e-05
4.49825e-05
4.49013e-05
4.48046e-05
4.46898e-05
4.45531e-05
4.43926e-05
4.42214e-05
4.40162e-05
4.37785e-05
4.35427e-05
4.32879e-05
4.29495e-05
4.24633e-05
4.17059e-05
4.04194e-05
3.82983e-05
3.2847e-05
2.11974e-05
8.77813e-06
2.84458e-05
4.55955e-05
4.79764e-05
5.05325e-05
4.24515e-05
4.03286e-05
4.83964e-05
4.60981e-05
4.60038e-05
4.59531e-05
4.58949e-05
4.5821e-05
4.57473e-05
4.56786e-05
4.56196e-05
4.55573e-05
4.54622e-05
4.53762e-05
4.53714e-05
4.52703e-05
4.53215e-05
4.55927e-05
4.59014e-05
4.40779e-05
4.53704e-05
5.04535e-05
3.95062e-05
4.74305e-05
4.55609e-05
4.5349e-05
4.53795e-05
4.53983e-05
4.54051e-05
4.53956e-05
4.53724e-05
4.53358e-05
4.5298e-05
4.52608e-05
4.52263e-05
4.51939e-05
4.5164e-05
4.51296e-05
4.50805e-05
4.50183e-05
4.49433e-05
4.48556e-05
4.47506e-05
4.46271e-05
4.44785e-05
4.43054e-05
4.41193e-05
4.38949e-05
4.36342e-05
4.33701e-05
4.30784e-05
4.26855e-05
4.21131e-05
4.12154e-05
3.97115e-05
3.68232e-05
2.98553e-05
1.8018e-05
8.35064e-06
3.87161e-05
4.54629e-05
4.80959e-05
4.49662e-05
5.15186e-05
4.27441e-05
4.01462e-05
4.92566e-05
4.60471e-05
4.59674e-05
4.59151e-05
4.58592e-05
4.57913e-05
4.57267e-05
4.56691e-05
4.56202e-05
4.55593e-05
4.5464e-05
4.54264e-05
4.53788e-05
4.53264e-05
4.52312e-05
4.57836e-05
4.59926e-05
4.36423e-05
4.56653e-05
5.11736e-05
3.86849e-05
4.80299e-05
4.55899e-05
4.53493e-05
4.53839e-05
4.53994e-05
4.54042e-05
4.53926e-05
4.53645e-05
4.53241e-05
4.5284e-05
4.52448e-05
4.52076e-05
4.51727e-05
4.51395e-05
4.51016e-05
4.50479e-05
4.49809e-05
4.49007e-05
4.48063e-05
4.46926e-05
4.45585e-05
4.43984e-05
4.42106e-05
4.40068e-05
4.37625e-05
4.34753e-05
4.31778e-05
4.28412e-05
4.23822e-05
4.17051e-05
4.06358e-05
3.88133e-05
3.4877e-05
2.63898e-05
1.52371e-05
1.09158e-05
4.2691e-05
4.54041e-05
4.83698e-05
4.51091e-05
4.51546e-05
5.12024e-05
4.33018e-05
3.9615e-05
5.02077e-05
4.60179e-05
4.59315e-05
4.58788e-05
4.58273e-05
4.57693e-05
4.57146e-05
4.56643e-05
4.56198e-05
4.55561e-05
4.54577e-05
4.54723e-05
4.53688e-05
4.53852e-05
4.51938e-05
4.59419e-05
4.5965e-05
4.32232e-05
4.60629e-05
5.17982e-05
3.79653e-05
4.85206e-05
4.5602e-05
4.53486e-05
4.53877e-05
4.54006e-05
4.5401e-05
4.53885e-05
4.53551e-05
4.53115e-05
4.52687e-05
4.52268e-05
4.51873e-05
4.51491e-05
4.51121e-05
4.50712e-05
4.5013e-05
4.49407e-05
4.48547e-05
4.47523e-05
4.46292e-05
4.44839e-05
4.43096e-05
4.41069e-05
4.38842e-05
4.3616e-05
4.32985e-05
4.29615e-05
4.25718e-05
4.20316e-05
4.12253e-05
3.99527e-05
3.75936e-05
3.24238e-05
2.28529e-05
1.26615e-05
1.85446e-05
4.37825e-05
4.52378e-05
4.86747e-05
4.48064e-05
4.51784e-05
4.49507e-05
5.16868e-05
4.35144e-05
3.9266e-05
5.12516e-05
4.60417e-05
4.58972e-05
4.58469e-05
4.58043e-05
4.57557e-05
4.57064e-05
4.56571e-05
4.56105e-05
4.55458e-05
4.54514e-05
4.54464e-05
4.53503e-05
4.54431e-05
4.52169e-05
4.6091e-05
4.58999e-05
4.27547e-05
4.67202e-05
5.23051e-05
3.73421e-05
4.89114e-05
4.56306e-05
4.53476e-05
4.53898e-05
4.53995e-05
4.53985e-05
4.53806e-05
4.53437e-05
4.52972e-05
4.52517e-05
4.52071e-05
4.51645e-05
4.51234e-05
4.50836e-05
4.50381e-05
4.49751e-05
4.48976e-05
4.48037e-05
4.46937e-05
4.45596e-05
4.44023e-05
4.42141e-05
4.39925e-05
4.37494e-05
4.34533e-05
4.31016e-05
4.27174e-05
4.22632e-05
4.16234e-05
4.0658e-05
3.91101e-05
3.59522e-05
2.94837e-05
1.98158e-05
1.10703e-05
3.09472e-05
4.42603e-05
4.52821e-05
4.90699e-05
4.51743e-05
4.48311e-05
4.52187e-05
4.52355e-05
5.18183e-05
4.37598e-05
3.88767e-05
5.24624e-05
4.60689e-05
4.58667e-05
4.58224e-05
4.57893e-05
4.57464e-05
4.56975e-05
4.56437e-05
4.55913e-05
4.55316e-05
4.54733e-05
4.54276e-05
4.534e-05
4.55073e-05
4.52931e-05
4.62646e-05
4.58303e-05
4.2294e-05
4.70058e-05
5.26836e-05
3.6823e-05
4.92048e-05
4.56461e-05
4.53465e-05
4.53914e-05
4.53973e-05
4.5394e-05
4.53706e-05
4.53302e-05
4.52808e-05
4.52332e-05
4.51857e-05
4.51403e-05
4.50955e-05
4.50519e-05
4.50021e-05
4.49336e-05
4.48498e-05
4.47492e-05
4.46294e-05
4.44841e-05
4.43128e-05
4.41083e-05
4.38669e-05
4.35998e-05
4.32734e-05
4.28801e-05
4.24402e-05
4.19078e-05
4.11443e-05
3.99862e-05
3.8002e-05
3.38429e-05
2.61395e-05
1.72716e-05
1.2432e-05
4.03685e-05
4.44501e-05
4.53697e-05
4.95739e-05
4.49762e-05
4.54051e-05
4.48802e-05
4.51461e-05
4.50648e-05
5.23612e-05
4.55893e-05
3.84836e-05
5.3781e-05
4.61222e-05
4.58435e-05
4.58067e-05
4.57778e-05
4.5736e-05
4.5681e-05
4.56214e-05
4.55711e-05
4.55204e-05
4.54942e-05
4.54214e-05
4.53356e-05
4.55557e-05
4.5379e-05
4.64418e-05
4.57604e-05
4.19144e-05
4.69724e-05
5.29141e-05
3.6411e-05
4.94105e-05
4.56674e-05
4.5345e-05
4.53889e-05
4.5395e-05
4.53858e-05
4.53588e-05
4.53157e-05
4.52633e-05
4.52129e-05
4.51624e-05
4.51134e-05
4.50651e-05
4.50174e-05
4.49629e-05
4.48892e-05
4.47981e-05
4.46887e-05
4.45585e-05
4.4401e-05
4.42152e-05
4.39919e-05
4.37287e-05
4.3434e-05
4.30713e-05
4.26303e-05
4.21229e-05
4.14945e-05
4.05788e-05
3.91606e-05
3.65205e-05
3.12524e-05
2.28979e-05
1.4895e-05
1.91149e-05
4.38579e-05
4.44314e-05
4.54033e-05
5.02186e-05
4.50672e-05
4.51836e-05
4.5293e-05
4.48014e-05
4.50876e-05
4.51327e-05
5.20684e-05
4.95074e-05
3.79556e-05
5.53137e-05
4.61727e-05
4.58295e-05
4.57956e-05
4.57658e-05
4.57169e-05
4.56531e-05
4.55976e-05
4.55528e-05
4.5532e-05
4.54825e-05
4.54135e-05
4.53366e-05
4.55677e-05
4.54614e-05
4.66215e-05
4.56923e-05
4.15823e-05
4.72489e-05
5.30016e-05
3.60712e-05
4.95283e-05
4.56923e-05
4.53412e-05
4.53875e-05
4.539e-05
4.5377e-05
4.53463e-05
4.52988e-05
4.52436e-05
4.51907e-05
4.51371e-05
4.50849e-05
4.50327e-05
4.49806e-05
4.49201e-05
4.48405e-05
4.47415e-05
4.46228e-05
4.44817e-05
4.43104e-05
4.41081e-05
4.38636e-05
4.35745e-05
4.32487e-05
4.28445e-05
4.23458e-05
4.17561e-05
4.10069e-05
3.9904e-05
3.80864e-05
3.46097e-05
2.82452e-05
2.02763e-05
1.35386e-05
3.12268e-05
4.47566e-05
4.43774e-05
4.5439e-05
5.10991e-05
4.51447e-05
4.51352e-05
4.51185e-05
4.53242e-05
4.47366e-05
4.50953e-05
4.52348e-05
4.99348e-05
5.20228e-05
3.76535e-05
5.70239e-05
4.6239e-05
4.58199e-05
4.57834e-05
4.5744e-05
4.56861e-05
4.5622e-05
4.5575e-05
4.55349e-05
4.55634e-05
4.54687e-05
4.54068e-05
4.53577e-05
4.55764e-05
4.55334e-05
4.67793e-05
4.56312e-05
4.12795e-05
4.75466e-05
5.29654e-05
3.58915e-05
4.94798e-05
4.57079e-05
4.53377e-05
4.53867e-05
4.53828e-05