/*--------------------------------*- C++ -*----------------------------------*\
| =========                 |                                                 |
| \\      /  F ield         | OpenFOAM: The Open Source CFD Toolbox           |
|  \\    /   O peration     | Version:  v2012                                 |
|   \\  /    A nd           | Website:  www.openfoam.com                      |
|    \\/     M anipulation  |                                                 |
\*---------------------------------------------------------------------------*/
FoamFile
{
    version     2.0;
    format      ascii;
    class       volScalarField;
    location    "13200";
    object      I1_4;
}
// * * * * * * * * * * * * * * * * * * * * * * * * * * * * * * * * * * * * * //

dimensions      [0 0 0 0 0 0 0];


internalField   nonuniform List<scalar> 
31383
(
-48.1921
-57.6828
-4.62524
-593.452
-341.485
-0.00685857
-25.7397
-1040.23
-501.592
-0.00344284
-246.22
-3.59602
-200.29
-499.004
-0.00198754
-34.3865
-5.96384
-0.987903
-16.8663
-186.351
-0.00126823
-78.4819
-14.3987
-1.02983
-0.318468
-4.09618
-63.0532
-0.000877339
-50.9993
-40.8579
-115.776
-0.283043
-0.127344
-1.43271
-5.88642
-0.000633409
-729.437
-41.902
-15528.6
-18.0271
-0.104123
-0.0577144
-0.601021
-1.93134
-0.000468308
-80765.2
-6.65547
-24.9932
-10.8564
-1.8279
-0.0448468
-0.0285197
-0.282078
-0.823213
-0.000348521
-2332.33
-255.601
-0.954298
-1.62465
-1.77039
-0.478596
-0.0215227
-0.0150031
-0.139947
-0.423789
-0.000248738
-3817.37
-2273.24
-23.3836
-0.246634
-0.352477
-0.530161
-0.174776
-0.0110444
-0.00828708
-0.0714608
-0.431589
-0.0109335
-4147.65
-3176.37
-1220.25
-5.27214
-0.0836587
-0.115956
-0.205937
-0.0755968
-0.00599876
-0.00488877
-0.0388293
-0.950428
-0.0086705
-4656.87
-2012.78
-2513.3
-81.8126
-1.69967
-0.0341885
-0.0468254
-0.092646
-0.0363516
-0.00340365
-0.00285421
-0.0219236
-0.0333702
-0.000121047
-11322.1
-1863.3
-1.45668e+06
-177.345
-18.5398
-0.676866
-0.0156528
-0.0214011
-0.0463823
-0.0189132
-0.00200404
-0.00181189
-0.012771
-0.0065651
-0.00391241
-42626.6
-7061.08
-11769.3
-793.548
-45.0211
-6.24749
-0.305709
-0.00776896
-0.0106163
-0.0240727
-0.010512
-0.00123387
-0.00115936
-0.00793241
-0.00171424
-0.0154396
-207593
-607567
-108526
-3827.03
-139.268
-16.1032
-2.56296
-0.150393
-0.00408722
-0.00554017
-0.0134642
-0.0060996
-0.000795227
-0.000788197
-0.00476526
-0.000741082
-0.00423701
-13792.6
-3145.68
-4119.91
-1118.79
-338.779
-43.2832
-6.95574
-1.18533
-0.0786202
-0.00224991
-0.00304836
-0.00776615
-0.00369284
-0.000534253
-0.00055678
-0.00289996
-0.000373328
-0.00331561
-7021.58
-976.634
-585.703
-500.417
-206.535
-86.2991
-17.1626
-3.346
-0.595495
-0.0435311
-0.00129656
-0.0017784
-0.00471636
-0.00235614
-0.000373173
-0.000405233
-0.00182049
-0.000212636
-0.0131282
-9641.54
-559.501
-263.459
-164.68
-130.882
-63.8164
-31.0037
-7.84766
-1.71795
-0.321197
-0.0248017
-0.000779073
-0.0010988
-0.00302821
-0.00159336
-0.000269811
-0.0003084
-0.00123919
-0.000136916
-0.0129305
-6572.77
-467.244
-159.818
-85.9717
-60.7259
-46.5604
-24.9424
-13.1845
-3.83943
-0.929664
-0.175409
-0.0146522
-0.000487875
-0.000712722
-0.00206013
-0.00112461
-0.000203498
-0.000238534
-0.0008883
-0.1465
-0.0131222
-672.574
-209.455
-118.117
-54.491
-34.7952
-26.0939
-19.7639
-11.2136
-6.24622
-1.9517
-0.510601
-0.0996618
-0.00906893
-0.000317241
-0.000477042
-0.00145948
-0.000820699
-0.000156929
-0.000190307
-0.000666913
-0.10832
-0.00409208
-6.16167
-256.93
-58.5804
-40.023
-22.5249
-15.8565
-12.3522
-9.30915
-5.46246
-3.14785
-1.08196
-0.2959
-0.0600668
-0.00589504
-0.000216667
-0.00033692
-0.00105602
-0.000621464
-0.000124578
-0.000155149
-0.000521826
-5.46115e-05
-0.00382182
-0.223932
-1.48094
-9801.62
-20.3393
-15.8549
-10.4005
-7.83057
-6.27378
-4.67698
-2.83599
-1.67341
-0.623665
-0.180261
-0.0383156
-0.00402615
-0.000153565
-0.000245209
-0.000797391
-0.000484839
-0.000101275
-0.000129173
-0.000418014
-4.32166e-05
-0.0398323
-1.41807e-05
-0.0526845
-1.27646
-74.9092
-7.95202
-7.08311
-5.17917
-4.092
-3.33898
-2.4832
-1.56563
-0.929305
-0.375519
-0.114189
-0.0256349
-0.00285533
-0.000112742
-0.000185179
-0.00062091
-0.000388647
-8.40942e-05
-0.000109436
-0.000343298
-0.0226596
-0.058975
-0.00646477
-3.33077e-06
-0.0373027
-1.3295
-11.9312
-3.55923
-3.45628
-2.72894
-2.23681
-1.82336
-1.36831
-0.882221
-0.541995
-0.235764
-0.0760678
-0.0179417
-0.00208879
-8.55198e-05
-0.000144342
-0.000496913
-0.000319351
-7.11594e-05
-9.42202e-05
-0.00028866
-0.0188908
-0.0444297
-0.0657069
-0.00150669
-2.34586e-06
-0.031465
-1.94667
-3.52306
-1.72826
-1.7895
-1.49445
-1.26136
-1.02621
-0.77722
-0.517371
-0.333983
-0.155328
-0.0526516
-0.0129929
-0.00157987
-6.67489e-05
-0.000115611
-0.000407293
-0.000267826
-2.27276
-8.08305e-05
-0.000248548
-2.53422e-05
-0.113069
-2.57724
-0.0150519
-0.00109928
-1.90948e-06
-0.030466
-5.39063
-1.34605
-0.891951
-0.963861
-0.844439
-0.733167
-0.610827
-0.46293
-0.320143
-0.216637
-0.106983
-0.0378327
-0.00970474
-0.00123002
-5.35303e-05
-9.48757e-05
-0.000341007
-0.000228992
-1.98302
-7.11987e-05
-0.000215252
-0.00729362
-1.05998
-5.60838
-0.590357
-0.0120409
-0.000950589
-1.83204e-06
-0.0329606
-2425.87
-0.595057
-0.482679
-0.537954
-0.484207
-0.434225
-0.374542
-0.289751
-0.208798
-0.147106
-0.0759624
-0.0281744
-0.00750145
-0.000982101
-4.40224e-05
-7.94786e-05
-0.000291188
-0.000201903
-4.72305e-05
-6.3277e-05
-0.000187819
-0.00641986
-0.660963
-4.57604
-1.27311
-0.495989
-0.0121075
-0.000974949
-1.94886e-06
-0.0424473
-2.16995
-0.288634
-0.270094
-0.310355
-0.287858
-0.266758
-0.237369
-0.190269
-0.141946
-0.10385
-0.0562624
-0.0216854
-0.00595365
-0.000803695
-3.69457e-05
-6.77883e-05
-0.000252381
-0.000177473
-4.2072e-05
-5.66015e-05
-0.000165765
-0.00370838
-0.100063
-5.77017
-1.01517
-0.889851
-0.533849
-0.0151911
-0.00117592
-2.30014e-06
-0.0786272
-0.388677
-0.148777
-0.156628
-0.184179
-0.178896
-0.170075
-0.157405
-0.129839
-0.100626
-0.0762218
-0.0430503
-0.0171784
-0.00484216
-0.000672635
-3.15281e-05
-5.87644e-05
-0.000221519
-0.000157647
-3.77641e-05
-5.09646e-05
-0.000146094
-0.0119323
-0.0382269
-10.3922
-1.24337
-0.657902
-0.732781
-0.742919
-0.0257892
-0.00155675
-3.12994e-06
-0.464349
-0.120947
-0.0801623
-0.0917453
-0.111612
-0.114365
-0.113132
-0.108328
-0.0921718
-0.0742434
-0.0580084
-0.0339316
-0.0139437
-0.00402733
-0.00057341
-2.73332e-05
-5.15843e-05
-0.000196547
-0.000141139
-3.40967e-05
-4.60349e-05
-0.000129757
-0.00863385
-0.0151265
-8.31769
-2.23301
-0.784706
-0.486003
-0.694524
-1.39562
-0.0576658
-0.00242735
-7.03002e-06
-0.336646
-0.0475171
-0.0451124
-0.0561652
-0.0705401
-0.0759559
-0.0778074
-0.0771072
-0.068005
-0.0565993
-0.0454258
-0.0275032
-0.0115681
-0.00341672
-0.000495882
-2.40003e-05
-4.57541e-05
-1.03588
-0.000125234
-3.09826e-05
-4.17491e-05
-0.000115362
-0.00626653
-0.00678289
-2.81578
-1.89693
-1.38457
-0.560033
-0.398865
-0.713916
-8.01503
-0.970238
-0.00987525
-0.000320869
-0.0245424
-0.0218021
-0.0267512
-0.035807
-0.046905
-0.0524912
-0.0558107
-0.0571318
-0.0518892
-0.0443494
-0.0366065
-0.0227713
-0.00979692
-0.00294947
-0.000434724
-2.13129e-05
-4.09758e-05
-0.934727
-0.000113643
-2.82851e-05
-3.79274e-05
-0.0303717
-0.00461773
-0.00191393
-3.84655
-0.552872
-1.21172
-0.952787
-0.442685
-0.352782
-0.838594
-4.8165
-0.0450339
-0.017944
-5.45157e-06
-0.00636459
-0.0109888
-0.0165503
-0.0239239
-0.0323031
-0.0375632
-0.0414628
-0.043691
-0.0407809
-0.035729
-0.0302154
-0.0192368
-0.00842548
-0.00257849
-0.000385615
-1.90884e-05
-3.84782e-05
-0.000144266
-0.000103726
-2.59096e-05
-3.4527e-05
-0.0267741
-0.0074749
-0.00102891
-5.15824
-0.733059
-0.355508
-0.879046
-0.717552
-0.374932
-0.327302
-1.30608
-0.385702
-0.00597375
-0.000889784
-8.26807e-07
-0.00231878
-0.00609737
-0.0107054
-0.0164541
-0.0229204
-0.0277852
-0.0317219
-0.0344248
-0.0328724
-0.0294035
-0.0254319
-0.0165039
-0.00736533
-0.0022803
-0.000345256
-1.72139e-05
-3.49301e-05
-0.000131671
-9.51167e-05
-2.38099e-05
-3.19659e-05
-8.05974e-05
-0.0103607
-0.00147568
-2.62189
-0.976523
-0.443495
-0.254782
-0.6887
-0.588344
-0.341769
-0.305268
-3.87794
-0.0946716
-0.00163342
-0.000201512
-2.53288e-07
-0.00105935
-0.00365382
-0.00720057
-0.0117488
-0.0169018
-0.0212822
-0.0249195
-0.0277356
-0.0270734
-0.0247565
-0.0217917
-0.0143937
-0.00651186
-0.00203545
-0.000311134
-1.56362e-05
-3.19095e-05
-0.000120772
-8.75518e-05
-2.19345e-05
-0.042271
-7.10972e-05
-0.00780171
-0.00162323
-85.0337
-0.501927
-0.586671
-0.29674
-0.198665
-0.570427
-0.535162
-0.346359
-0.313792
-203.687
-0.0335421
-0.000604872
-7.20376e-05
-1.06171e-07
-0.000566294
-0.00233792
-0.00507869
-0.0086716
-0.0128949
-0.0166999
-0.020147
-0.0229333
-0.0228189
-0.0212274
-0.0189351
-0.0127019
-0.0058011
-0.00183401
-0.000282307
-1.42901e-05
-2.92646e-05
-0.00011122
-8.08068e-05
-2.02417e-05
-0.0384364
-0.00759272
-0.00587868
-0.0013783
-79.8869
-17.6332
-0.31053
-0.379142
-0.209216
-0.172395
-0.521135
-0.581546
-0.357637
-0.393515
-1.22773
-0.0138924
-0.000270028
-3.23095e-05
-5.35023e-08
-0.000335667
-0.00157679
-0.00372905
-0.00659784
-0.0101029
-0.0134797
-0.0166738
-0.019318
-0.019543
-0.0184462
-0.0166765
-0.0113131
-0.00522247
-0.00166106
-0.00025779
-1.31098e-05
-2.69815e-05
-0.000102833
-7.48462e-05
-1.91663e-05
-2.40179e-05
-0.00660214
-0.00678832
-0.0016881
-0.0654213
-5.56884
-9.9406
-0.210653
-0.258773
-0.158853
-0.169438
-0.510533
-0.807226
-0.399253
-0.689939
-0.230929
-0.00652361
-0.000134663
-1.68424e-05
-3.06449e-08
-0.000214963
-0.00111971
-0.00282774
-0.00518808
-0.0081222
-0.0111185
-0.0140288
-0.0165269
-0.0170117
-0.0162694
-0.0148411
-0.0101688
-0.00473034
-0.00151482
-0.000236447
-1.20864e-05
-0.19861
-9.36869e-05
-6.94236e-05
-1.77092e-05
-2.20641e-05
-0.00367417
-0.0101176
-0.00252878
-13.7461
-0.163934
-1.27248
-6.34308
-0.152518
-0.191487
-0.133672
-0.183529
-0.592579
-1.18601
-0.425236
-2.75076
-0.0761081
-0.0034775
-7.55663e-05
-9.80538e-06
-1.91716e-08
-0.000147923
-0.000835335
-0.00221375
-0.00417534
-0.00669377
-0.00934806
-0.0120099
-0.0143742
-0.0149831
-0.0144636
-0.0133177
-0.00919774
-0.00431099
-0.00138912
-0.000217994
-1.11929e-05
-0.184264
-8.71122e-05
-6.45195e-05
-1.63586e-05
-1.98726e-05
-0.00312085
-0.00791406
-0.00661461
-24.6993
-15.3693
-0.0883583
-0.395714
-4.32074
-0.120684
-0.154823
-0.132846
-0.248937
-1.43945
-1.42782
-0.534121
-14.2832
-0.0327025
-0.00199839
-4.62165e-05
-6.2231e-06
-1.3017e-08
-0.000106472
-0.00064254
-0.00177265
-0.00343301
-0.00562547
-0.00799916
-0.0104439
-0.0126549
-0.0133198
-0.0129796
-0.0120418
-0.00837505
-0.00395087
-0.00127836
-0.000201628
-1.11131e-05
-2.16165e-05
-8.11715e-05
-6.00174e-05
-1.50934e-05
-1.80754e-05
-0.00170101
-0.00583589
-0.0159818
-33.0563
-10.9021
-80.3805
-0.0585962
-0.154896
-3.15354
-0.105251
-0.146526
-0.15586
-0.462262
-6.58156
-1.21762
-1.10166
-0.501912
-0.0166153
-0.00122758
-3.02947e-05
-4.2463e-06
-9.24091e-09
-8.00761e-05
-0.000508529
-0.00145512
-0.00288608
-0.00480834
-0.00695344
-0.00920714
-0.0112772
-0.011939
-0.0117258
-0.0109567
-0.00767785
-0.00363315
-0.00118171
-0.000187272
-0.132872
-1.93358e-05
-7.57565e-05
-0.0297592
-0.015381
-0.00611759
-0.00497647
-0.00460737
-0.103941
-113.365
-2561.44
-2.27347
-3.76299
-0.065006
-0.0695899
-2.48712
-0.110239
-0.168884
-0.259403
-0.948864
-26.7453
-1.47215
-10.9512
-0.132268
-0.00953755
-0.000811124
-2.10576e-05
-3.05479e-06
-6.92563e-09
-6.28582e-05
-0.000414893
-0.00122123
-15.5851
-0.00410044
-0.00612733
-0.00818969
-0.0100985
-0.010813
-0.0106645
-0.0100208
-0.00706604
-0.00336317
-0.00109723
-0.000174492
-0.124045
-1.80784e-05
-7.07949e-05
-0.0276909
-0.014131
-0.00540589
-0.00327207
-0.00345476
-0.251197
-34.2966
-69.0054
-1530.24
-0.561421
-0.279683
-2.36209
-0.0346051
-2.10479
-0.155458
-0.258934
-0.510845
-1.97974
-19.4583
-3.6117
-2.91487
-0.0548928
-0.00599157
-0.000570766
-1.52759e-05
-2.28952e-06
-5.40536e-09
-5.05291e-05
-0.000346309
-0.00104299
-13.5682
-0.00360432
-0.00544737
-0.00734344
-0.00913042
-0.00981713
-0.00975393
-0.00922201
-0.00652621
-0.00312163
-0.00102144
-0.000166029
-9.08324e-06
-1.69364e-05
-6.73559e-05
-4.9143e-05
-1.16808e-05
-1.26486e-05
-0.0021302
-0.0015081
-0.228694
-2.10663
-20.8366
-22.3177
-1.7255
-0.161541
-0.0591003
-0.0071033
-0.0188589
-1.94476
-0.259124
-0.586405
-0.968219
-49269
-15.9419
-143.053
-0.375458
-0.029052
-0.00402676
-0.00041866
-1.15967e-05
-1.77167e-06
-4.35202e-09
-4.18069e-05
-0.000294494
-0.000942627
-0.00189159
-0.00320281
-0.00488217
-0.00662725
-0.00831199
-0.00899153
-0.00896975
-0.00851058
-0.00605078
-0.0029041
-0.00095377
-0.000155386
-8.51116e-06
-1.58744e-05
-6.29917e-05
-4.56396e-05
-1.06352e-05
-0.00214062
-0.00297066
-0.00153027
-0.162298
-0.461187
-1.02767
-7.97003
-8.67246
-0.490742
-0.0588724
-0.0206416
-0.000498227
-0.0114331
-2.16532
-0.485766
-1.54315
-1.48585
-172433
-19.127
-3.22366
-0.128728
-0.0174186
-0.0028806
-0.000318398
-9.08741e-06
-1.4288e-06
-3.57616e-09
-3.53151e-05
-0.000254065
-0.00083006
-0.00167773
-0.00287491
-2.60758
-0.00596934
-0.00761103
-0.00826716
-0.00828916
-0.00788673
-0.00563519
-0.00271171
-0.000892236
-0.000145773
-7.98965e-06
-1.48981e-05
-0.0163608
-4.15823e-05
-0.00445023
-0.00184042
-0.00206066
-0.00543651
-0.0625204
-0.787379
-0.154862
-0.324362
-4.41571
-3.9981
-0.154274
-0.0269121
-0.00949528
-8.66259e-05
-0.00804526
-2.28779
-1.15047
-18210.5
-2.53982
-30.2147
-27.7574
-0.561139
-0.0626503
-0.0114876
-0.00214176
-0.000251566
-7.32159e-06
-1.17457e-06
-3.00181e-09
-3.03899e-05
-0.000222478
-0.000737513
-0.00150571
-0.0025914
-2.36947
-0.00545256
-0.00698551
-0.00762883
-0.00768346
-0.00734159
-0.00526533
-0.00253991
-0.000837338
-0.000136914
-7.51337e-06
-1.39839e-05
-0.0152836
-0.00687956
-0.00400158
-0.00101401
-0.00124501
-0.00961462
-0.0271857
-0.0322707
-0.183457
-0.0733228
-0.13855
-3.99551
-2.39008
-0.05836
-0.015152
-0.00534998
-3.816e-05
-0.00678972
-2.60772
-29665.1
-19689.6
-5.79563
-64844.9
-1.53443
-0.206489
-0.0366449
-0.00810444
-0.00165825
-0.000202327
-6.07846e-06
-9.9109e-07
-2.58099e-09
-2.65193e-05
-0.000197241
-0.000658963
-0.0013578
-0.00239681
-0.00366936
-0.00502022
-0.00645033
-0.00707817
-0.00714628
-0.229614
-0.00490366
-0.00238135
-0.0629829
-0.0390839
-6.58553e-06
-0.0152148
-5.0485e-05
-0.00633269
-0.00230821
-0.0030356
-0.00150989
-0.00742558
-0.0252292
-2.15005e-05
-0.00660772
-0.0988579
-0.0525375
-0.0724676
-23116.2
-2.24334
-0.028982
-25.7916
-0.00388724
-2.94007e-05
-0.00716238
-2.76921
-25839.7
-6.07033
-96.8971
-3.56638
-0.451926
-0.10294
-0.0240517
-0.00603067
-0.00133254
-0.000168446
-5.14359e-06
-8.51914e-07
-2.25608e-09
-2.34557e-05
-0.000176413
-0.000596046
-0.00123539
-0.00219105
-0.00337049
-0.00463485
-0.00598715
-0.00658225
-0.00667343
-0.215112
-0.117136
-0.00222504
-0.0592729
-0.0367847
-6.19525e-06
-0.0142677
-4.7825e-05
-3.29146e-05
-0.00204034
-0.00200094
-0.00102889
-0.00165071
-0.0428715
-0.00124781
-4.65295e-06
-0.00382939
-0.0667992
-0.061472
-0.0388722
-41432.8
-4.76423
-0.0190351
-20.4105
-0.00373795
-2.89725e-05
-0.00994865
-3.10905
-1.81637
-240.606
-22466.4
-0.833701
-0.209297
-0.0608933
-0.016832
-0.00473031
-0.00109508
-0.000142403
-4.43279e-06
-7.42561e-07
-1.99204e-09
-2.09278e-05
-0.000158848
-0.00054175
-0.00112813
-0.00201286
-0.00311488
-0.0042955
-0.00556924
-0.270648
-0.00623944
-0.00602161
-0.110005
-0.0021064
-0.000703413
-0.000112109
-0.0139182
-1.15411e-05
-0.00516552
-0.00275406
-0.00115534
-0.00280312
-0.00158367
-0.000333399
-0.0617459
-0.00218956
-0.000283947
-2.66288e-06
-0.00234508
-0.0460381
-0.0354915
-0.0260691
-0.887877
-404.551
-0.0158282
-0.00798501
-0.00474073
-2.78451e-05
-0.0210623
-4.48364
-5.47905
-6.05842
-3421.74
-0.363659
-0.118918
-0.0400281
-0.0125943
-0.00379463
-0.000922955
-0.000122536
-3.87233e-06
-6.53903e-07
-1.77201e-09
-1.88121e-05
-0.000144267
-0.000493735
-0.00103781
-0.00185771
-0.00288046
-0.00400204
-0.0051899
-0.253748
-0.00585281
-0.00568449
-0.00407144
-0.00198492
-0.000663609
-0.000105721
-0.0130895
-1.08007e-05
-0.00478023
-0.00249018
-0.000999953
-0.00330376
-0.00217116
-1.40853e-05
-0.0962227
-4.98742e-05
-0.000493717
-0.000159374
-1.71216e-06
-0.0018038
-0.0365322
-0.0346836
-0.0248083
-0.216303
-9.39
-0.0166557
-16.3056
-0.0112807
-2.28346e-05
-0.136371
-8.56653
-221.868
-1.1434
-0.433784
-0.185507
-0.0751808
-0.028443
-0.00987825
-0.00314742
-0.000792954
-0.000107283
-3.41768e-06
-5.85282e-07
-1.59662e-09
-1.70484e-05
-0.000131843
-0.000453834
-0.000954697
-0.00172135
-0.00268133
-0.00372945
-0.0048926
-0.0053978
-0.00551057
-0.00535307
-0.00384344
-0.0337655
-0.000620131
-0.000101469
-5.52895e-06
-0.00487544
-3.78088e-05
-0.00145082
-0.00055396
-0.00210567
-0.00210833
-0.000164603
-0.138131
-2837.88
-4.72418e-05
-0.00028232
-0.00010258
-1.25034e-06
-0.00156595
-0.0358311
-0.0402593
-0.0269616
-0.111077
-8.17088
-0.0269789
-42.34
-0.328373
-1.65474e-05
-0.187281
-47.4013
-2.57997
-0.466218
-0.228625
-0.112101
-0.0517471
-0.0215893
-0.00800265
-0.00268152
-0.000691022
-9.49021e-05
-3.0646e-06
-5.25783e-07
-1.44995e-09
-1.55856e-05
-0.000121089
-0.000419009
-0.000885569
-0.00159924
-0.00250004
-0.00349368
-0.00459144
-0.00507393
-0.0843676
-0.00502532
-0.00362599
-0.0319002
-0.000584949
-9.55645e-05
-5.18711e-06
-0.00453668
-0.00210755
-0.00128857
-0.00360577
-0.0020591
-0.00256615
-0.00011394
-0.199517
-0.0035153
-619.406
-2.76313e-05
-0.000184943
-7.44695e-05
-9.97689e-07
-0.00153102
-0.0542736
-0.0363794
-0.0268082
-0.0964377
-5.40432
-0.102354
-2.57871
-0.0170442
-1.10177e-05
-0.0155246
-128.01
-0.68169
-0.247174
-0.139109
-0.0755397
-0.0380503
-0.0170972
-0.00666298
-0.00231055
-0.000608657
-8.46782e-05
-2.74949e-06
-4.75675e-07
-1.31798e-09
-1.42808e-05
-0.000111782
-0.00038849
-0.000822852
-0.00149307
-0.00234198
-0.00327686
-0.12631
-0.00475082
-0.0792984
-0.00474632
-0.00344396
-0.00167185
-0.000551764
-0.00741426
-0.00450821
-8.69355e-06
-0.00191852
-0.000739339
-0.00255561
-0.00196083
-0.00352498
-0.000119268
-0.487704
-0.00071295
-0.000614789
-0.000318545
-1.83575e-05
-0.0001347
-5.88777e-05
-1.54851e-05
-0.00173623
-0.233366
-0.0536808
-0.0262357
-0.0995284
-0.165302
-0.427393
-0.03586
-0.00300428
-7.19108e-06
-0.00501733
-7.62425
-0.287503
-0.151967
-0.0936165
-0.0543332
-0.0293718
-0.0139807
-0.00566253
-0.00202543
-0.000540811
-7.63535e-05
-2.50329e-06
-4.34458e-07
-1.20627e-09
-1.31529e-05
-0.00010357
-0.000360954
-0.000768232
-0.00139555
-0.00219586
-0.00308135
-0.11891
-0.00451524
-0.00461978
-0.0044871
-0.00325533
-0.00157896
-0.00941789
-0.00696476
-0.00420866
-0.00201794
-0.00112837
-0.00226913
-0.00152814
-0.00173786
-0.00468659
-3.88328e-05
-1.31997
-0.00173748
-0.000158488
-0.000360888
-0.000212666
-1.33605e-05
-0.000105952
-1.85083e-05
-7.27427e-07
-0.0021734
-1.00673
-0.0495602
-0.0216104
-0.370775
-0.0365943
-0.0262182
-0.00640411
-0.00109546
-4.63336e-06
-0.00246767
-2.03392
-0.158495
-0.103295
-0.0671955
-0.0412056
-0.0236094
-0.0117697
-0.00493156
-0.00178738
-0.00048901
-6.92914e-05
-2.28552e-06
-3.97741e-07
-1.11484e-09
-1.21562e-05
-9.62208e-05
-0.00033659
-0.000717016
-0.00130786
-0.00206324
-0.00293087
-0.00384196
-0.00426266
-0.0043702
-0.00424598
-0.00307774
-0.00149084
-0.008872
-7.92752e-05
-4.22129e-06
-0.00185026
-0.00356396
-0.00156837
-0.00272523
-0.001238
-0.0045014
-0.000109045
-3.25513
-0.00990057
-0.000384224
-9.29775e-05
-0.000242395
-0.000156219
-1.07707e-05
-6.36119e-05
-8.01673e-05
-1.6146e-06
-0.0024731
-0.201749
-0.0311454
-0.015197
-1.85134
-0.0129804
-0.00725072
-0.00277133
-0.000535721
-3.01745e-06
-0.00152135
-0.847803
-0.0994618
-0.0746765
-0.0514502
-0.0327651
-0.0196158
-0.0100804
-0.00432831
-0.00159734
-0.000441051
-6.30615e-05
-2.09317e-06
-3.66864e-07
-1.03277e-09
-1.13276e-05
-8.9684e-05
-0.000314622
-0.000673194
-0.145348
-0.0019177
-0.00276294
-0.00362699
-0.0040312
-0.0041366
-0.00401775
-0.0152333
-0.00942669
-0.00046066
-0.0032061
-0.00188554
-0.0010918
-0.00254201
-0.00229437
-0.00179491
-0.000886291
-0.00282282
-0.00101237
-5.19754
-1.40962
-0.00222611
-0.000226201
-6.22223e-05
-0.000177451
-94.9596
-2.22402e-06
-0.000100774
-3.51672e-05
-263.338
-0.00090031
-0.126638
-0.0116429
-0.0102172
-0.0682294
-0.00652088
-0.0033032
-0.0016337
-0.000342898
-4.94684e-06
-0.00105845
-0.456462
-0.0691664
-0.0571717
-0.0408475
-0.0267206
-0.0165354
-0.00875863
-0.00381966
-0.00143874
-0.000402449
-5.78895e-05
-1.93216e-06
-3.40059e-07
-9.56926e-10
-1.05556e-05
-8.4003e-05
-0.0002954
-0.000633563
-0.136896
-0.00180949
-0.0590259
-0.0034036
-0.00381865
-0.00391814
-0.0176939
-0.0143814
-0.00888769
-0.00427148
-0.0029855
-0.00624339
-0.00353789
-0.00179534
-0.00278322
-0.00154958
-0.00116762
-0.000386777
-0.00394993
-7.20101
-2652.23
-0.297725
-0.00129636
-0.000151566
-4.5264e-05
-0.000134522
-75.9768
-1.65146e-06
-6.16134e-05
-3.16989e-05
-253.383
-1447.97
-0.195906
-0.00480667
-0.00630319
-0.0211945
-0.00377163
-0.00185571
-0.00122426
-0.108924
-0.562555
-0.000808257
-0.284968
-0.0505595
-0.0453612
-0.0333916
-0.0224398
-0.014324
-0.00770339
-0.00343808
-0.00131208
-0.000368561
-5.35488e-05
-1.78929e-06
-3.16328e-07
-8.9403e-10
-9.88855e-06
-7.8879e-05
-0.000277945
-0.00061193
-0.00109244
-0.00171045
-0.0558119
-0.00322433
-0.00361949
-0.00371378
-0.0167658
-0.00259773
-0.00124809
-0.00399975
-0.00181444
-0.00128025
-0.00254921
-0.00125307
-0.00178484
-0.00185834
-0.00203992
-5.73639e-05
-0.00121679
-8.92663
-5.97171e+06
-323.325
-0.161247
-0.000864841
-0.000110997
-3.48158e-05
-0.0001364
-8.25578e-05
-1.36155e-06
-5.49353e-05
-1.54725e-05
-6.32439e-06
-1656.38
-6.72395
-0.00286159
-0.00369572
-0.00868855
-0.561524
-0.00148574
-0.00108159
-0.0853881
-0.429072
-0.000663354
-0.196664
-0.0393997
-0.0370136
-0.0281027
-0.0192942
-0.0125646
-0.00687812
-0.00310174
-0.00120357
-0.000340287
-4.96041e-05
-1.65887e-06
-2.94632e-07
-8.37222e-10
-9.26608e-06
-7.41148e-05
-0.000261671
-0.000577086
-0.00103261
-0.00163805
-0.00233941
-0.00305567
-0.0199991
-0.0151037
-0.00340203
-0.0024471
-0.00464549
-0.0025395
-0.00167799
-0.000754256
-0.0018191
-0.00184403
-0.00171202
-0.00125675
-0.00289951
-7.90176e-05
-0.00353497
-10.1667
-2.85893e+07
-249619
-84.7582
-0.0988464
-0.000614985
-8.41193e-05
-2.77116e-05
-0.000112104
-6.91847e-05
-1.21083e-06
-5.16039e-05
-7.53615e-06
-4.78886e-06
-0.000396423
-0.104941
-0.00195416
-17.904
-0.00467062
-0.45499
-0.00131187
-0.000966479
-0.000161714
-1.08317e-06
-0.00058061
-0.146108
-0.0318804
-0.0310538
-0.0239549
-0.0168323
-0.0110897
-0.00619311
-0.00283312
-0.00110316
-0.00031442
-4.60887e-05
-1.54969e-06
-2.75539e-07
-7.84358e-10
-8.70329e-06
-6.97647e-05
-0.000246823
-0.000545184
-0.000977718
-0.00155218
-0.00221834
-0.00289732
-0.0189518
-0.0143005
-0.00321307
-0.00637487
-0.00433636
-0.00236072
-0.00101299
-0.00243964
-0.00128458
-0.0022538
-0.00157604
-0.000906698
-0.00369946
-0.000109264
-0.00526862
-17.08
-5.16017e+07
-1.55786e+07
-52608.9
-28.8614
-0.0658857
-0.00048617
-6.72461e-05
-2.28065e-05
-9.56504e-05
-6.13117e-05
-1.14073e-06
-4.34592e-05
-2.51592e-05
-1.17377e-05
-0.000403267
-0.0438968
-0.001166
-10.5075
-0.00325039
-0.00194803
-0.52631
-0.000916792
-0.000143959
-9.18349e-07
-0.019695
-0.113235
-0.0262689
-0.0265062
-0.0208833
-0.014869
-0.00993546
-0.00561868
-0.00258828
-0.00101953
-0.000292742
-4.30617e-05
-1.44921e-06
-2.58451e-07
-7.37092e-10
-8.19533e-06
-6.58003e-05
-0.0691446
-0.000502053
-0.00092702
-0.00147069
-0.00210661
-0.0163721
-0.0030789
-0.00315112
-0.00764323
-0.00598204
-0.00102923
-0.00152515
-0.00319468
-0.00175395
-0.00193814
-0.00221455
-0.00134546
-0.000563035
-0.00215491
-0.00256448
-0.213672
-20.3063
-1.90126e+08
-3.12459e+06
-2.08574e+07
-9014.13
-11.5181
-0.0440386
-0.000378683
-5.52374e-05
-1.93986e-05
-8.42044e-05
-5.77206e-05
-1.15985e-06
-6.13741e-05
-45.5237
-2.47497e-06
-0.000424967
-0.026056
-31.5389
-0.000838518
-0.0025798
-0.001792
-0.485034
-0.000927151
-0.0265768
-1.04677e-06
-0.0188461
-0.0907018
-0.0222681
-0.0228415
-0.0184646
-0.0132964
-0.00899229
-0.00513127
-0.00239487
-0.645833
-0.000295909
-4.02663e-05
-1.35572e-06
-2.42858e-07
-0.136498
-5.5947e-06
-6.23069e-05
-0.0654548
-0.000475228
-0.000877936
-0.0214244
-0.0019765
-0.0155138
-0.00291851
-0.00806927
-0.00721775
-0.00433158
-0.00241222
-0.00426486
-0.00233325
-0.00270405
-0.00243766
-0.00205001
-0.00148084
-0.00135539
-3.35271e-05
-0.0263797
-0.482234
-18.683
-7.04042e+08
-9.64466e+08
-1.18435e+06
-5.51898e+09
-2266.18
-5.42979
-0.0314354
-0.00030851
-4.65834e-05
-1.70174e-05
-7.82565e-05
-4.97109e-05
-1.1126e-06
-5.60729e-05
-49.8534
-2.62816e-08
-0.000540842
-0.0153319
-22.966
-0.000597533
-0.00208616
-0.00178635
-0.000996089
-0.000888223
-0.026481
-0.0847263
-0.000507283
-0.0736965
-0.0192991
-0.0200872
-0.0163765
-0.0119693
-0.00818903
-0.00471207
-0.00221877
-0.60147
-0.000276929
-3.77207e-05
-1.27584e-06
-2.29304e-07
-0.128762
-5.28621e-06
-0.0547402
-0.000200126
-0.00045053
-0.000832668
-0.020337
-0.0129119
-0.00246738
-0.00832034
-0.00761493
-0.00532353
-0.00402778
-0.0057294
-0.00108263
-0.00169097
-0.00204434
-0.00160861
-0.00128737
-0.00107643
-0.00281051
-0.00246421
-0.294462
-0.243115
-16.2084
-5.94644e+07
-1.2544e+08
-5.02752e+07
-607898
-6.55406e+06
-793.715
-2.70693
-0.0228236
-0.000260552
-4.11699e-05
-1.57184e-05
-7.48372e-05
-5.55871e-05
-1.17369e-06
-3.85963e-05
-2.44442e-05
-7.33009e-07
-0.000452326
-596.107
-0.000495502
-0.000458675
-0.275139
-0.00178581
-0.000933175
-0.000897882
-0.000138997
-0.0783979
-0.000513948
-0.0624009
-0.0168376
-0.0178928
-0.0146931
-0.0108362
-0.00749269
-0.00434999
-0.00199534
-0.000821309
-0.270385
-4.30618e-05
-1.2027e-06
0
0
-5.00309e-06
-0.051791
-0.000190028
-0.0225694
-0.000790105
-0.0012581
-0.0122261
-0.0023384
-0.00786781
-0.00264491
-0.00498827
-0.00304457
-0.00439158
-0.000720821
-0.00259157
-0.00131374
-0.00157002
-0.00110316
-0.000513666
-0.00395128
-0.0045419
-2.27818
-0.313694
-13.8202
-3.33277e+07
-5.06017e+06
-5.65884e+11
-5.36361e+06
-361971
-1.06066e+06
-322.134
-1.48958
-0.0167875
-0.000224013
-3.74717e-05
-1.51127e-05
-7.56828e-05
-5.86319e-05
-1.32678e-06
-5.33123e-05
-2.15086e-05
-1.88638e-06
-0.000536226
-356.307
-0.000412842
-0.000368865
-0.247787
-0.00180084
-0.000946813
-0.000938372
-0.0154914
-1.26409e-06
-0.000531459
-0.0526263
-0.0149557
-0.0159593
-0.013349
-0.00992978
-0.00692009
-0.00405182
-0.0018656
-0.000768907
-0.254322
-4.05211e-05
-1.13576e-06
0
-2.81775e-18
-6.45751e-06
-5.81233e-05
-0.000180068
-0.0214325
-0.0130351
-0.00119366
-0.00170396
-0.0067958
-0.00246018
-0.00469431
-0.00382643
-0.00591022
-0.00336174
-0.00353209
-0.0019706
-0.00162171
-0.00145314
-0.00122342
-0.000708283
-0.00149483
-0.000129943
-4.39223
-0.582459
-11.7096
-1.29319e+07
-1.02892e+08
-2.82493e+06
-4.23057e+07
-1.01683e+06
-246311
-290256
-149.434
-0.866027
-0.013129
-0.000209446
-3.60714e-05
-1.52285e-05
-7.96017e-05
-6.09618e-05
-1.46981e-06
-5.61949e-05
-2.46628e-05
-2.56434e-07
-0.00101137
-0.00376779
-0.000360033
-0.000295551
-0.00154129
-0.00184257
-0.00101573
-0.00100078
-0.0169905
-0.0355732
-0.000561656
-0.0456144
-0.013432
-0.0144705
-0.0122172
-0.00915148
-0.00642058
-0.00377269
-0.00174601
-0.000688246
-0.000229627
-3.83142e-05
-1.07434e-06
-2.99902e-18
0
-0.0331681
-5.02809e-05
-0.000178668
-0.000386094
-0.0123806
-0.00790248
-0.00159906
-0.00641251
-0.00474336
-0.00438759
-0.00713194
-0.00464503
-0.00257288
-0.00274328
-0.00127966
-0.00160367
-0.00123277
-0.000729905
-0.00253078
-0.00179593
-0.0117364
-4.23064
-0.0157592
-9.55221
-5.2355e+07
-7.13474e+06
-9.35995e+07
-1.84298e+06
-5.96416e+06
-361960
-176237
-80033.6
-73.0017
-0.507202
-0.0100781
-0.000197647
-3.6469e-05
-1.62203e-05
-8.81772e-05
-7.40202e-05
-1.58759e-06
-6.71816e-05
-2.783e-05
-1.60918e-06
-0.00126864
-0.00264863
-0.000295167
-0.000260339
-0.00147957
-0.00195216
-0.00105179
-0.0557233
-0.000185044
-0.0333155
-0.000600446
-0.0396697
-0.0121284
-0.0131923
-0.011225
-0.00843991
-0.00593723
-0.00353474
-0.00164413
-0.000648222
-0.000216933
-3.61841e-05
-1.01531e-06
0
-1.637e-18
-0.0314734
-4.77866e-05
-0.000169776
-0.000376056
-0.000676089
-0.00747475
-0.00522532
-0.00459158
-0.00443934
-0.00341614
-0.00303451
-0.00367139
-0.00197543
-0.00184581
-0.00157732
-0.00149584
-0.00133683
-0.000330489
-0.00484289
-0.00934185
-0.608121
-3.91555
-0.64525
-7.72115
-7.6272e+07
-6.43265e+06
-3.47191e+06
-8.20609e+07
-1.48593e+06
-1.52963e+06
-124274
-129959
-23600.8
-38.5336
-0.317592
-0.00819041
-0.00019618
-3.81924e-05
-1.78468e-05
-0.000100089
-8.07876e-05
-2.06736e-06
-7.53592e-05
-3.19808e-05
-9.02461e-07
-0.00178763
-0.0018723
-0.000264085
-0.000235884
-0.00144885
-0.00210201
-0.00110197
-0.0621021
-0.00021108
-1.05725e-06
-0.000652001
-0.0349681
-0.010947
-0.0120282
-0.0103629
-0.00784933
-0.00557361
-0.00332104
-0.00154538
-0.000613407
-0.000204698
-3.42429e-05
-0.0498157
-0.0363888
-5.00606e-10
-5.61547e-06
-4.53144e-05
-0.010457
-0.000347329
-0.000652647
-0.00101681
-0.0049298
-0.00432882
-0.00339769
-0.00614483
-0.00244913
-0.00290798
-0.00151378
-0.00228917
-0.00156247
-0.00127082
-0.00095989
-0.000986689
-0.00132274
-0.0089254
-1.33712
-3.68105
-0.830924
-5.7294
-1.7203e+07
-9.91243e+06
-4.82389e+06
-2.27195e+06
-7.95528e+09
-1.43138e+06
-467560
-53660.8
-94429.3
-9205.59
-20.2686
-0.205855
-0.00676278
-0.000210091
-4.22604e-05
-2.01678e-05
-0.000115179
-9.8432e-05
-2.36885e-06
-17.0803
-7.29919e-05
-39.5953
-452.71
-0.00117959
-0.000238183
-0.267353
-0.00145944
-0.0598475
-0.00119026
-0.00139988
-0.0109871
-1.20839e-06
-0.000722368
-0.030973
-0.0100124
-0.011079
-0.0096595
-0.00732657
-0.00520945
-0.00312868
-0.00146049
-0.00057965
-0.000194552
-3.24583e-05
-0.0472418
-0.0346081
-4.7481e-10
-5.3328e-06
-4.31085e-05
-0.00992423
-0.00605729
-0.00475047
-0.00394476
-0.00347907
-0.00322853
-0.0064723
-0.00491443
-0.00365705
-0.00230816
-0.00197109
-0.00156099
-0.00146252
-0.00109549
-0.000344497
-0.00481658
-0.00789808
-0.0509436
-1.4219
-3.99598
-0.733095
-4.34285
-2.80119e+07
-2.3768e+07
-1.06575e+07
-3.734e+06
-2.09616e+06
-3.71145e+09
-1.98401e+06
-177866
-24473.5
-71566.6
-3940.71
-11.0433
-0.138993
-0.00578615