/*--------------------------------*- C++ -*----------------------------------*\
| =========                 |                                                 |
| \\      /  F ield         | OpenFOAM: The Open Source CFD Toolbox           |
|  \\    /   O peration     | Version:  v2012                                 |
|   \\  /    A nd           | Website:  www.openfoam.com                      |
|    \\/     M anipulation  |                                                 |
\*---------------------------------------------------------------------------*/
FoamFile
{
    version     2.0;
    format      ascii;
    class       volScalarField;
    location    "13200";
    object      I2_2;
}
// * * * * * * * * * * * * * * * * * * * * * * * * * * * * * * * * * * * * * //

dimensions      [0 0 0 0 0 0 0];


internalField   nonuniform List<scalar> 
31383
(
-1.47042e-19
-3.63799e-25
-1.10808e-14
-5.97469e-25
-2.74346e-11
-3.04998e-16
-5.05333e-16
1.03982e-19
-1.50253e-08
-9.27324e-14
-4.43828e-16
2.44553e-19
-1.21904e-08
7.07176e-14
-1.58877e-08
-6.54574e-25
-1.64382e-11
5.83646e-16
-7.88927e-07
1.70761e-12
-2.27546e-07
-3.99336e-25
-1.47531e-11
4.08743e-16
-6.80814e-07
3.07348e-12
-0.000139638
-1.54451e-09
-3.32861e-16
2.89534e-20
-8.29476e-09
7.50503e-14
-1.28046e-05
4.50662e-11
-0.000633358
-1.23266e-08
-3.10146e-16
3.36442e-20
-7.57613e-09
4.46577e-14
-1.15533e-05
6.06631e-11
-0.000558656
-2.21808e-10
-5.20808e-05
1.33477e-26
-1.15482e-11
1.48875e-16
-5.06612e-07
1.93827e-12
-9.78888e-05
4.47312e-10
-0.0017073
-1.79606e-09
-0.000190052
-1.36523e-25
-1.08474e-11
1.52363e-16
-4.71016e-07
1.61305e-12
-9.06635e-05
3.34497e-10
-0.00157855
4.25469e-09
-0.00703726
-1.13711e-06
-2.5995e-16
2.21296e-20
-6.17025e-09
2.98909e-14
-9.17655e-06
2.55194e-11
-0.00044051
1.5153e-09
-0.00357432
9.46406e-09
-0.0100288
-3.23478e-06
-2.46943e-16
2.40683e-20
-5.83824e-09
2.54037e-14
-8.6683e-06
2.17197e-11
-0.000416064
1.11275e-09
-0.00340636
1.38208e-08
-0.00963068
3.02568e-09
-0.00323019
-1.89525e-25
-9.22362e-12
1.00227e-16
-3.96971e-07
1.09044e-12
-7.60694e-05
1.7382e-10
-0.00134322
3.5348e-09
-0.00611547
2.53601e-08
-0.0122243
3.60357e-08
-0.00563214
-1.10855e-25
-8.79466e-12
7.73766e-17
-3.78031e-07
8.58392e-13
-7.27015e-05
1.61247e-10
-0.00128989
3.03807e-09
-0.00592847
2.01341e-08
-0.0119757
3.30472e-08
-0.0154778
-1.68999e-05
-2.1629e-16
9.53228e-21
-5.04078e-09
1.52689e-14
-7.51325e-06
1.39857e-11
-0.000365063
7.72007e-10
-0.00305061
7.24313e-09
-0.00890166
3.1924e-08
-0.0139331
4.99467e-08
-0.0161815
-2.09645e-05
-2.08616e-16
1.4125e-20
-4.83344e-09
1.17549e-14
-7.20626e-06
1.23913e-11
-0.00035231
6.73231e-10
-0.00296697
6.51712e-09
-0.00873702
2.53425e-08
-0.0137887
7.35727e-08
-0.0160506
4.08616e-07
-0.0110671
6.81012e-26
-7.81026e-12
5.16996e-17
-3.32517e-07
5.32052e-13
-6.46236e-05
1.00489e-10
-0.00117138
2.20681e-09
-0.00551267
1.25887e-08
-0.0114504
3.63665e-08
-0.0150969
9.30179e-08
-0.0165265
6.66455e-07
-0.0124966
7.29608e-26
-7.562e-12
5.81645e-17
-3.20811e-07
5.07137e-13
-6.24169e-05
8.65718e-11
-0.00113949
1.85648e-09
-0.00540895
1.17294e-08
-0.0113202
3.21714e-08
-0.0150093
7.58106e-08
-0.0164648
2.03964e-07
-0.0169193
-3.34854e-05
-1.9098e-16
2.51119e-20
-4.35734e-09
1.13283e-14
-6.46914e-06
8.54573e-12
-0.00032037
4.25867e-10
-0.00276724
4.53414e-09
-0.00834009
1.91178e-08
-0.0134499
4.29633e-08
-0.0158334
9.40874e-08
-0.0167543
2.63743e-07
-0.0168475
-3.61115e-05
-1.86519e-16
2.2467e-20
-4.2379e-09
1.13554e-14
-6.28115e-06
8.12673e-12
-0.000311738
3.7273e-10
-0.0027074
4.03602e-09
-0.00822931
1.70826e-08
-0.0133619
3.96673e-08
-0.0157882
7.68057e-08
-0.0167308
1.68922e-07
-0.016774
1.87613e-06
-0.0169074
-7.47027e-26
-6.99341e-12
4.97888e-17
-2.93862e-07
4.80445e-13
-5.722e-05
6.78779e-11
-0.00105853
1.26594e-09
-0.00514202
7.91141e-09
-0.0110007
2.48725e-08
-0.0148155
5.05279e-08
-0.0163479
9.4248e-08
-0.0168322
2.01069e-07
-0.0166116
2.43085e-06
-0.0177132
-3.63646e-25
-6.84789e-12
4.65763e-17
-2.86994e-07
4.55246e-13
-5.58767e-05
6.6541e-11
-0.00103687
1.22899e-09
-0.00506562
7.02207e-09
-0.0109104
2.14358e-08
-0.0147613
4.74677e-08
-0.0163175
8.37623e-08
-0.0168246
1.63682e-07
-0.0166248
4.94869e-07
-0.0162943
-3.83471e-05
-1.76078e-16
-2.92866e-20
-3.95928e-09
9.2582e-15
-5.84304e-06
7.43384e-12
-0.000291305
3.3341e-10
-0.00256464
3.09002e-09
-0.00794998
1.16149e-08
-0.0131366
2.88083e-08
-0.0156774
5.92798e-08
-0.0166674
1.01237e-07
-0.0167836
1.92696e-07
-0.0164097
5.97177e-07
-0.0160802
-3.77231e-05
-1.73348e-16
-6.13252e-20
-3.88789e-09
7.21994e-15
-5.73091e-06
6.91981e-12
-0.000286041
3.24549e-10
-0.00252629
2.94591e-09
-0.00787031
1.05115e-08
-0.0130718
2.56231e-08
-0.0156491
5.32009e-08
-0.0166486
9.39302e-08
-0.016784
1.59792e-07
-0.0164231
3.26209e-07
-0.0159221
4.74258e-06
-0.0186316
-5.6947e-25
-6.50559e-12
-4.15344e-17
-2.70977e-07
3.46914e-13
-5.27463e-05
5.78588e-11
-0.000985447
1.10812e-09
-0.00487688
5.93373e-09
-0.01067
1.53912e-08
-0.0146229
3.27937e-08
-0.0162438
6.54364e-08
-0.0167985
1.12112e-07
-0.0166488
1.86913e-07
-0.0161787
3.80042e-07
-0.0157858
5.76792e-06
-0.0185894
-4.02877e-25
-6.41353e-12
-5.01315e-17
-2.66807e-07
1.85427e-13
-5.19323e-05
5.69106e-11
-0.000971945
1.05868e-09
-0.00482674
5.72673e-09
-0.0106026
1.50293e-08
-0.0145804
2.91032e-08
-0.0162245
5.64985e-08
-0.0167898
1.05339e-07
-0.0166544
1.66658e-07
-0.0161938
3.01934e-07
-0.0157909
1.01809e-06
-0.0157713
-3.30599e-05
-1.66529e-16
-3.61114e-20
-3.71636e-09
-3.33695e-15
-5.46578e-06
3.92983e-12
-0.000273513
2.87887e-10
-0.0024348
2.67397e-09
-0.00767616
9.55046e-09
-0.0128955
2.02384e-08
-0.0155642
3.62892e-08
-0.0166042
6.84348e-08
-0.0167829
1.2453e-07
-0.0164546
1.93551e-07
-0.0159642
3.48326e-07
-0.0157101
1.20122e-06
-0.0157411
-3.04969e-05
-1.6465e-16
-2.85167e-20
-3.66936e-09
-1.29119e-15
-5.39595e-06
1.51661e-12
-0.000270232
2.66452e-10
-0.00241066
2.55974e-09
-0.00762129
9.40056e-09
-0.0128476
1.96185e-08
-0.015539
3.29088e-08
-0.0165911
6.05959e-08
-0.0167828
1.11681e-07
-0.0164651
1.79921e-07
-0.0159762
2.8877e-07
-0.0157141
5.94318e-07
-0.0155941
9.77854e-06
-0.0181832
-1.07834e-24
-6.1831e-12
-3.89762e-18
-2.56596e-07
7.17405e-14
-4.99942e-05
2.13625e-11
-0.000939798
9.29007e-10
-0.00470465
5.14187e-09
-0.0104357
1.38172e-08
-0.014472
2.5125e-08
-0.0161653
4.04101e-08
-0.0167724
7.22256e-08
-0.016668
1.30793e-07
-0.0162271
2.07866e-07
-0.0158125
3.32059e-07
-0.0156521
6.85743e-07
-0.0155426
1.14543e-05
-0.0183994
-1.46326e-24
-6.12053e-12
-4.03009e-17
-2.53764e-07
1.41118e-13
-4.94686e-05
1.43158e-11
-0.000931269
7.80321e-10
-0.00467211
5.04826e-09
-0.0103918
1.33595e-08
-0.0144411
2.43021e-08
-0.0161479
3.94135e-08
-0.0167661
6.38929e-08
-0.0166721
1.12733e-07
-0.0162375
1.95987e-07
-0.015817
2.96123e-07
-0.0156555
5.26917e-07
-0.0155378
2.06615e-06
-0.0156991
-1.846e-05
-1.6008e-16
-1.68837e-19
-3.55207e-09
-2.74853e-15
-5.22056e-06
2.42971e-12
-0.000262266
1.02443e-10
-0.00235247
2.09274e-09
-0.00749305
8.58203e-09
-0.0127283
1.82023e-08
-0.0154737
3.03011e-08
-0.016554
4.74821e-08
-0.0167829
7.50537e-08
-0.0164853
1.30876e-07
-0.0160008
2.25936e-07
-0.0157239
3.39491e-07
-0.0155945
6.01e-07
-0.0154868
2.46617e-06
-0.0157044
-1.42888e-05
-1.58883e-16
-1.78275e-19
-3.52046e-09
-1.21447e-14
-5.17182e-06
2.58622e-12
-0.000260044
9.84207e-11
-0.00233686
1.70186e-09
-0.0074586
8.33889e-09
-0.0126946
1.76916e-08
-0.0154541
3.00607e-08
-0.0165428
4.64806e-08
-0.0167827
6.80894e-08
-0.0164915
1.15031e-07
-0.0160086
2.02163e-07
-0.0157265
3.15979e-07
-0.0155979
4.93943e-07
-0.0154894
1.03822e-06
-0.0154305
1.7765e-05
-0.0170674
-4.23503e-24
-5.96921e-12
-1.9033e-16
-2.46777e-07
-2.80303e-13
-4.81418e-05
2.69947e-11
-0.000910085
4.76419e-10
-0.00459272
3.76868e-09
-0.0102802
1.24959e-08
-0.014366
2.28447e-08
-0.0161048
3.70501e-08
-0.0167512
5.53209e-08
-0.0166833
7.93089e-08
-0.01626
1.32434e-07
-0.0158296
2.3258e-07
-0.0156624
3.60683e-07
-0.0155431
5.59749e-07
-0.0154445
1.18836e-06
-0.0154067
2.01797e-05
-0.0155466
-3.90809e-24
-5.92904e-12
-2.29208e-16
-2.44913e-07
-5.07167e-13
-4.7777e-05
1.52079e-11
-0.000904138
5.67218e-10
-0.00457098
3.46599e-09
-0.01025
1.17846e-08
-0.0143464
2.25979e-08
-0.0160935
3.63168e-08
-0.0167474
5.38146e-08
-0.0166863
7.72748e-08
-0.0162685
1.15325e-07
-0.0158353
1.9926e-07
-0.0156663
3.40671e-07
-0.0155448
4.98022e-07
-0.0154462
8.73417e-07
-0.0153775
4.08505e-06
-0.0157694
-1.18604e-05
-1.55893e-16
-4.95507e-19
-3.44471e-09
-2.73017e-14
-5.05297e-06
-4.61088e-12
-0.000254494
1.12019e-10
-0.00229706
1.59915e-09
-0.00737389
6.39533e-09
-0.0126147
1.64956e-08
-0.0154113
2.85165e-08
-0.0165167
4.42168e-08
-0.0167813
6.33795e-08
-0.0165083
8.94072e-08
-0.016028
1.32028e-07
-0.0157328
2.28252e-07
-0.0156045
3.8783e-07
-0.0154917
5.61729e-07
-0.0154071
9.83918e-07
-0.0153499
4.80953e-06
-0.0158034
-8.65647e-06
-1.54961e-16
-4.42438e-19
-3.42391e-09
-5.88745e-14
-5.02171e-06
-5.78271e-12
-0.000252977
-3.61898e-11
-0.0022859
1.65522e-09
-0.00734963
6.22486e-09
-0.012592
1.53678e-08
-0.015398
2.85591e-08
-0.0165086
4.35931e-08
-0.0167806
6.35467e-08
-0.0165117
8.78687e-08
-0.0160338
1.19724e-07
-0.0157375
1.98455e-07
-0.0156072
3.4579e-07
-0.0154937
5.23915e-07
-0.0154068
7.95548e-07
-0.0153444
1.7687e-06
-0.0153741
2.75591e-05
-0.0136284
-2.2484e-24
-5.82365e-12
-5.07889e-16
-2.40386e-07
-1.4493e-12
-4.68928e-05
-4.12227e-12
-0.000889309
8.67952e-11
-0.00451534
3.54681e-09
-0.0101752
9.8926e-09
-0.0142948
2.06271e-08
-0.0160635
3.56796e-08
-0.0167353
5.24296e-08
-0.016692
7.42414e-08
-0.0162846
1.00827e-07
-0.0158451
1.36661e-07
-0.0156714
2.26084e-07
-0.0155482
3.91436e-07
-0.0154478
5.88494e-07
-0.0153692
8.88717e-07
-0.015319
2.01575e-06
-0.0153802
2.99318e-05
-0.0130124
-3.78688e-24
-5.79459e-12
-4.90516e-16
-2.39119e-07
-2.44185e-12
-4.66564e-05
-2.16872e-11
-0.000885315
2.49197e-11
-0.00449976
3.14184e-09
-0.0101537
1.00034e-08
-0.0142811
1.999e-08
-0.0160552
3.53917e-08
-0.016732
5.24192e-08
-0.0166929
7.3848e-08
-0.0162904
9.83603e-08
-0.0158485
1.33656e-07
-0.0156728
1.94254e-07
-0.0155514
3.33483e-07
-0.0154486
5.57421e-07
-0.0153692
7.86544e-07
-0.0153162
1.38696e-06
-0.0152994
7.79521e-06
-0.0161716
6.74602e-06
-5.85738e-16
-1.45261e-18
-3.36889e-09
-6.7147e-14
-4.94318e-06
-2.57413e-11
-0.000249321
5.81505e-11
-0.00225835
-2.46039e-10
-0.0072888
5.80815e-09
-0.0125358
1.44257e-08
-0.0153673
2.61484e-08
-0.01649
4.39201e-08
-0.0167778
6.23389e-08
-0.0165234
8.59745e-08
-0.0160481
1.12849e-07
-0.0157422
1.51835e-07
-0.0156128
2.19021e-07
-0.0154982
3.7482e-07
-0.0154066
6.24207e-07
-0.0153391
8.73294e-07
-0.0152919
1.54916e-06
-0.0152941
9.15417e-06
-0.0164655
1.32102e-05
-1.83303e-16
-7.62934e-18
-3.41663e-09
-4.4181e-14
-4.91878e-06
-2.76463e-11
-0.000248319
4.52316e-10
-0.00225096
7.20531e-10
-0.00727219
4.32722e-09
-0.0125201
1.43292e-08
-0.0153592
2.53298e-08
-0.0164852
4.28383e-08
-0.0167787
6.32919e-08
-0.0165259
8.58171e-08
-0.0160504
1.14346e-07
-0.0157441
1.50321e-07
-0.0156145
1.98005e-07
-0.015499
3.22374e-07
-0.0154087
5.53801e-07
-0.0153382
8.15111e-07
-0.0152887
1.21249e-06
-0.0152721
2.98813e-06
-0.0154484
3.40566e-05
-0.0107381
-1.30218e-23
-9.37156e-12
-3.90835e-15
-2.3971e-07
-1.29241e-12
-4.60332e-05
-1.09755e-10
-0.000875531
2.60693e-09
-0.00446182
-2.2081e-09
-0.0101001
7.47843e-09
-0.0142444
1.93555e-08
-0.0160349
3.25359e-08
-0.0167234
5.27412e-08
-0.0166969
7.49747e-08
-0.0163014
9.95487e-08
-0.0158551
1.31262e-07
-0.0156774
1.70743e-07
-0.015556
2.21756e-07
-0.015453
3.59455e-07
-0.0153699
6.17211e-07
-0.0153096
9.0135e-07
-0.015271
1.33617e-06
-0.015262
3.42009e-06
-0.0154914
3.24834e-05
-0.00974425
-1.96675e-23
-9.90999e-12
4.51755e-15
-1.54767e-06
-2.94887e-11
-4.58629e-05
-3.83978e-11
-0.000872758
2.17451e-09
-0.00445127
5.09768e-09
-0.0100847
1.80795e-09
-0.014233
1.86789e-08
-0.0160283
3.24178e-08
-0.0167217
5.19337e-08
-0.0166962
7.64902e-08
-0.0163032
1.00288e-07
-0.0158563
1.32066e-07
-0.0156802
1.67207e-07
-0.0155577
2.17468e-07
-0.0154537
3.04569e-07
-0.0153702
5.20535e-07
-0.0153097
8.56265e-07
-0.0152667
1.16864e-06
-0.0152508
2.13951e-06
-0.0153056
1.43923e-05
-0.0175596
2.78364e-05
-2.36351e-16
-3.08658e-18
-6.9487e-09
1.09584e-12
-2.70541e-05
-4.92563e-10
-0.000245643
4.97008e-10
-0.00223239
7.48858e-09
-0.0072305
-2.07839e-09
-0.0124793
6.31206e-09
-0.015336
2.46962e-08
-0.0164721
4.06074e-08
-0.0167753
6.29831e-08
-0.0165304
8.99865e-08
-0.0160602
1.16092e-07
-0.0157473
1.51386e-07
-0.0156174
1.89538e-07
-0.0155018
2.4241e-07
-0.0154116
3.36421e-07
-0.0153389
5.75371e-07
-0.0152839
9.44454e-07
-0.0152526
1.27737e-06
-0.0152445
2.37598e-06
-0.0153238
1.61625e-05
-0.0179542
2.86004e-05
-1.66681e-16
-2.29609e-18
-1.08121e-08
-1.16177e-12
-9.5444e-06
2.03533e-10
-0.000247071
-2.41385e-10
-0.00222659
7.63118e-09
-0.00721892
5.84166e-09
-0.0124688
-3.63892e-09
-0.0153288
2.25835e-08
-0.0164687
4.06049e-08
-0.016775
6.10173e-08
-0.0165333
9.0256e-08
-0.0160622
1.18784e-07
-0.0157489
1.52926e-07
-0.015617
1.93955e-07
-0.0155046
2.42249e-07
-0.0154111
3.01032e-07
-0.0153403
4.84511e-07
-0.015285
8.31731e-07
-0.0152491
1.19059e-06
-0.0152362
1.75238e-06
-0.0152658
5.20818e-06
-0.0156766
-2.25581e-06
-0.00515133
-8.44161e-24
-8.15156e-12
-1.39603e-15
-7.99525e-07
-4.7539e-11
-8.15354e-05
2.06789e-09
-0.000870848
-2.46274e-10
-0.00442401
1.28721e-08
-0.0100475
1.44736e-09
-0.0142078
2.46879e-10
-0.0160124
2.98842e-08
-0.0167164
4.99329e-08
-0.0166985
7.34578e-08
-0.0163107
1.05765e-07
-0.0158606
1.37775e-07
-0.0156822
1.75145e-07
-0.0155592
2.19234e-07
-0.0154564
2.68664e-07
-0.0153729
3.30417e-07
-0.0153088
5.30969e-07
-0.0152613
9.11955e-07
-0.0152361
1.29603e-06
-0.0152305
1.90303e-06
-0.0152762
6.00726e-06
-0.015759
-3.48356e-05
-0.00319305
-3.66912e-24
-7.52286e-12
-1.04698e-16
-5.73472e-07
-2.5251e-11
-0.000101166
5.83068e-09
-0.00269414
-7.46859e-08
-0.0044163
8.1613e-09
-0.0100374
-2.6791e-09
-0.0142002
-1.57835e-08
-0.0160078
2.67394e-08
-0.0167135
4.98078e-08
-0.0167004
7.22857e-08
-0.0163132
1.04916e-07
-0.0158631
1.41713e-07
-0.015683
1.77523e-07
-0.0155603
2.22343e-07
-0.0154572
2.65318e-07
-0.0153749
3.25334e-07
-0.0153101
4.3988e-07
-0.0152609
7.58129e-07
-0.0152312
1.23658e-06
-0.0152225
1.62382e-06
-0.0152477
3.22905e-06
-0.0154218
1.95999e-05
-0.0187717
8.1749e-06
-1.46224e-16
-4.00925e-19
-4.85479e-09
1.64652e-13
-1.16964e-05
-3.18024e-10
-0.000499636
2.68132e-08
-0.00567362
-1.86634e-07
-0.00718789
7.52475e-09
-0.01244
-7.90626e-09
-0.0153139
2.10825e-09
-0.0164572
3.5978e-08
-0.0167731
6.10487e-08
-0.0165367
8.58232e-08
-0.016067
1.22776e-07
-0.0157499
1.63908e-07
-0.0156203
2.02369e-07
-0.0155062
2.50952e-07
-0.0154133
2.94757e-07
-0.0153385
3.55541e-07
-0.0152844
4.74533e-07
-0.0152449
8.21967e-07
-0.0152224
1.33958e-06
-0.0152199
1.73987e-06
-0.0152573
3.56279e-06
-0.0154753
1.86334e-05
-0.0183454
9.7253e-07
-1.45611e-16
-2.16077e-19
-3.23028e-09
-1.13423e-13
-8.13053e-06
1.2564e-10
-0.000676253
-2.19992e-08
-0.00303752
8.47994e-08
-0.0071873
-1.47357e-09
-0.0124314
-1.39752e-08
-0.0153085
-8.47019e-09
-0.0164558
2.96698e-08
-0.0167721
6.07818e-08
-0.0165382
8.59029e-08
-0.0160698
1.19283e-07
-0.0157511
1.65872e-07
-0.0156203
2.08753e-07
-0.0155064
2.55566e-07
-0.0154143
3.05655e-07
-0.0153395
3.57459e-07
-0.015283
4.19006e-07
-0.0152423
6.73906e-07
-0.0152188
1.16677e-06
-0.0152155
1.61534e-06
-0.0152391
2.37503e-06
-0.0153425
8.93097e-06
-0.0168432
-0.00014885
-6.62175e-06
8.17891e-24
-5.3886e-12
-1.14301e-16
-2.24597e-07
-2.42031e-12
-7.36599e-05
1.24611e-09
-0.0021117
-6.1563e-08
-0.00559386
1.52143e-07
-0.010012
-3.59138e-09
-0.0141819
-9.63061e-09
-0.0159979
9.11228e-09
-0.0167091
4.19315e-08
-0.0167001
7.3921e-08
-0.016318
1.00409e-07
-0.0158662
1.38708e-07
-0.0156864
1.90791e-07
-0.0155616
2.36907e-07
-0.015459
2.87262e-07
-0.0153746
3.38468e-07
-0.0153094
3.89297e-07
-0.0152601
4.47212e-07
-0.0152269
7.19886e-07
-0.0152111
1.25399e-06
-0.0152119
1.7186e-06
-0.0152483
2.52779e-06
-0.0153785
9.84283e-06
-0.0174173
-0.000166253
-3.79704e-07
1.3012e-23
-5.36462e-12
4.0823e-16
-2.16549e-07
-5.32812e-13
-6.51493e-05
1.95538e-09
-0.00168303
-2.29085e-08
-0.00621933
3.05282e-07
-0.0152872
-6.93384e-07
-0.014176
-2.43516e-08
-0.0159936
1.1367e-08
-0.0167075
2.90111e-08
-0.0167003
7.24098e-08
-0.0163193
1.0282e-07
-0.0158667
1.35794e-07
-0.0156871
1.9003e-07
-0.0155627
2.45283e-07
-0.015457
2.93967e-07
-0.0153756
3.48409e-07
-0.0153103
3.87871e-07
-0.0152614
4.44832e-07
-0.0152248
5.74848e-07
-0.0152063
1.01761e-06
-0.0152049
1.6504e-06
-0.0152329
2.04801e-06
-0.0153142
4.78995e-06
-0.0156957
-4.65553e-06
-0.0134425
4.03614e-10
-1.43851e-16
1.54294e-18
-3.05732e-09
4.95049e-14
-4.46706e-06
-1.87041e-12
-0.000327413
9.67022e-09
-0.00393238
-5.05622e-08
-0.00913484
4.08106e-07
-0.0167618
-7.64209e-07
-0.0152972
-9.28864e-09
-0.0164477
1.98248e-08
-0.016772
4.28009e-08
-0.0165395
8.81571e-08
-0.0160738
1.20177e-07
-0.0157537
1.57272e-07
-0.0156219
2.18382e-07
-0.015508
2.77673e-07
-0.0154148
3.28991e-07
-0.0153401
3.86627e-07
-0.015282
4.21819e-07
-0.0152397
4.72191e-07
-0.0152139
6.0124e-07
-0.0152
1.07528e-06
-0.0152085
1.74497e-06
-0.0152422
2.11729e-06
-0.0153444
5.32148e-06
-0.0158482
-1.99222e-05
-0.0118455
7.39821e-11
-1.43396e-16
2.05038e-18
-3.03342e-09
1.43363e-13
-4.40065e-06
-2.82194e-12
-0.000232852
7.69477e-10
-0.00286706
5.66411e-08
-0.0116678
-2.64869e-07
-0.0133346
3.5348e-07
-0.0152858
8.74806e-09
-0.0164459
1.72606e-08
-0.016771
4.18473e-08
-0.0165398
8.74783e-08
-0.0160752
1.23957e-07
-0.0157528
1.58173e-07
-0.0156235
2.11863e-07
-0.0155089
2.82506e-07
-0.0154141
3.39873e-07
-0.0153386
3.98028e-07
-0.0152823
4.45921e-07
-0.0152405
4.81731e-07
-0.0152112
5.14231e-07
-0.0151975
8.39411e-07
-0.0152018
1.49284e-06
-0.0152291
1.95034e-06
-0.0153036
2.86876e-06
-0.0155349
8.40591e-06
-0.018943
-0.000116034
-2.13092e-09
2.40588e-23
-5.27822e-12
2.31043e-15
-2.1013e-07
4.0661e-12
-4.12997e-05
5.39958e-11
-0.000827386
4.4255e-09
-0.00528146
9.9795e-08
-0.0143028
-2.7316e-07
-0.0147535
3.88111e-07
-0.0159774
1.956e-08
-0.0167032
2.13499e-08
-0.0167006
5.54965e-08
-0.0163225
1.06817e-07
-0.01587
1.44951e-07
-0.0156873
1.82311e-07
-0.0155648
2.41594e-07
-0.015459
3.18162e-07
-0.0153753
3.79914e-07
-0.0153093
4.40316e-07
-0.0152584
4.82484e-07
-0.0152242
5.09545e-07
-0.0152016
5.25483e-07
-0.0151955
8.63927e-07
-0.015205
1.55331e-06
-0.0152409
1.9801e-06
-0.0153307
2.89584e-06
-0.015607
4.72455e-06
-0.0192923
-7.90629e-05
-7.48892e-10
2.66185e-23
-5.26105e-12
2.75331e-15
-2.08242e-07
6.65561e-12
-4.09649e-05
-2.49856e-11
-0.000806885
1.20625e-09
-0.00487292
1.2987e-07
-0.0131302
-1.56696e-07
-0.0150096
3.788e-07
-0.0176504
-4.72441e-07
-0.0167022
9.21724e-09
-0.0167021
5.22628e-08
-0.0163242
1.05823e-07
-0.0158703
1.50444e-07
-0.0156871
1.88132e-07
-0.0155647
2.36523e-07
-0.0154586
3.1775e-07
-0.0153763
3.92521e-07
-0.0153096
4.54129e-07
-0.0152584
5.07107e-07
-0.0152227
5.18669e-07
-0.0151994
5.33575e-07
-0.0151911
6.36684e-07
-0.0151982
1.2005e-06
-0.01523
1.93108e-06
-0.0152985
2.08994e-06
-0.0154691
6.06843e-06
-0.017475
-0.000102489
-0.00575152
1.13989e-12
-1.42293e-16
3.09247e-18
-2.98157e-09
3.53172e-13
-4.28279e-06
7.94637e-11
-0.000221209
-3.06612e-10
-0.00209104
3.64765e-09
-0.00765384
1.80993e-07
-0.0149057
-1.33823e-07
-0.0157828
2.88167e-07
-0.0175005
-2.4793e-07
-0.0167697
1.91225e-08
-0.0165422
6.81884e-08
-0.0160783
1.30201e-07
-0.0157546
1.77754e-07
-0.0156231
2.16715e-07
-0.01551
2.67159e-07
-0.0154153
3.57647e-07
-0.0153391
4.37197e-07
-0.0152824
5.00354e-07
-0.0152389
5.5054e-07
-0.0152108
5.46011e-07
-0.0151911
5.39789e-07
-0.0151909
6.25079e-07
-0.0152017
1.20993e-06
-0.0152431
1.93546e-06
-0.0153277
1.93207e-06
-0.0155256
5.09866e-06
-0.0181631
-0.000141242
-0.00325958
1.28417e-13
-1.42012e-16
3.33634e-18
-2.97063e-09
4.01747e-13
-4.25439e-06
1.08503e-10
-0.000219339
9.67616e-10
-0.00206801
3.79446e-09
-0.00701282
3.11305e-08
-0.0129912
8.08239e-08
-0.0168657
2.54371e-08
-0.0164232
2.80244e-07
-0.0167657
9.24584e-08
-0.0165426
5.85375e-08
-0.0160788
1.30055e-07
-0.0157559
1.85386e-07
-0.0156238
2.27005e-07
-0.0155108
2.7006e-07
-0.0154156
3.48073e-07
-0.015338
4.466e-07
-0.0152803
5.18481e-07
-0.0152386
5.78017e-07
-0.0152084
5.92228e-07
-0.0151918
5.65383e-07
-0.0151884
4.96002e-07
-0.015199
8.51403e-07
-0.0152296
1.59149e-06
-0.0153026
1.75158e-06
-0.0154457
2.73244e-06
-0.0161912
-2.92559e-05
-0.0166803
8.52272e-07
-9.27673e-13
3.09041e-23
-5.21838e-12
3.74633e-15
-2.05168e-07
1.23724e-11
-3.99453e-05
6.86748e-10
-0.00078502
2.48727e-09
-0.00416886
2.12703e-09
-0.00984005
3.62845e-08
-0.0145243
1.36415e-08
-0.0168292
1.76745e-07
-0.0165436
8.40366e-08
-0.0166965
1.29024e-07
-0.0163256
7.82312e-08
-0.0158719
1.59874e-07
-0.0156895
2.19264e-07
-0.0155645
2.60247e-07
-0.0154591
3.06066e-07
-0.0153752
3.89183e-07
-0.0153092
4.94135e-07
-0.0152562
5.71287e-07
-0.0152197
6.27582e-07
-0.0151979
6.26247e-07
-0.015185
5.69354e-07
-0.0151866
4.54503e-07
-0.015207
7.96283e-07
-0.0152451
1.52753e-06
-0.0153299
1.49195e-06
-0.0154987
2.26931e-06
-0.0167972
-5.06578e-05
-0.0146522
1.63063e-07
-3.13084e-15
3.00286e-23
-5.21057e-12
3.92749e-15
-2.04456e-07
1.37842e-11
-3.97621e-05
8.5728e-10
-0.000778899
5.06349e-09
-0.00414915
1.05832e-08
-0.00975511
-3.37477e-09
-0.0143376
1.23534e-07
-0.0164151
1.42809e-08
-0.0167431
1.5188e-07
-0.0168591
9.70513e-07
-0.0163261
6.31929e-08
-0.0158727
1.47957e-07
-0.0156882
2.26149e-07
-0.0155642
2.79883e-07
-0.0154603
3.17344e-07
-0.0153754
3.79362e-07
-0.0153083
4.95218e-07
-0.0152561
5.90255e-07
-0.0152215
6.55329e-07
-0.0151979
6.78608e-07
-0.0151825
5.9916e-07
-0.0151846
4.83913e-07
-0.0151998
4.5659e-07
-0.0152378
1.03508e-06
-0.0153093
1.56354e-06
-0.0154415
6.17395e-07
-0.0157905
-9.41782e-06
-0.0198685
-0.000178281
-9.73291e-07
6.56764e-23
-1.32512e-16
3.78708e-18
-2.94877e-09
5.04121e-13
-4.20192e-06
1.72184e-10
-0.000215165
3.42496e-09
-0.00202833
1.04735e-08
-0.00685527
1.29518e-08
-0.012205
-1.37069e-08
-0.0153751
5.22075e-08
-0.0164364
6.12333e-08
-0.0167114
2.42642e-07
-0.0166513
1.76337e-06
-0.0160815
8.31843e-08
-0.0157558
1.81008e-07
-0.0156256
2.65756e-07
-0.0155097
3.19251e-07
-0.0154158
3.5783e-07
-0.015341
4.22526e-07
-0.0152819
5.4589e-07
-0.0152377
6.46431e-07
-0.0152075
7.11159e-07
-0.0151868
7.1623e-07
-0.0151827
5.97899e-07
-0.0151874
4.25181e-07
-0.01521
3.31764e-07
-0.0152535
8.76538e-07
-0.0153387
1.23496e-06
-0.015491
-1.77315e-07
-0.0160908
-2.23985e-05
-0.0198638
-0.000116269
-2.97687e-08
1.87901e-18
-3.11792e-17
1.01985e-17
-2.94101e-09
5.23089e-13
-4.19135e-06
1.87881e-10
-0.000214341
4.01147e-09
-0.00201888
1.53256e-08
-0.00682929
1.46624e-08
-0.0121674
-1.9288e-08
-0.0152187
-3.75438e-08
-0.01634
-1.51526e-07
-0.017026
7.15587e-07
-0.0160555
-1.31994e-06
-0.0160777
2.72014e-07
-0.0157563
1.63629e-07
-0.0156251
2.68878e-07
-0.0155105
3.44131e-07
-0.0154165
3.78488e-07
-0.0153407
4.29304e-07
-0.0152813
5.32883e-07
-0.015238
6.60562e-07
-0.0152047
7.4081e-07
-0.0151865
7.73238e-07
-0.0151772
6.91742e-07
-0.0151836
4.89599e-07
-0.0152038
1.58088e-07
-0.0152434
3.67408e-07
-0.0153173
8.62731e-07
-0.0154463
-3.77596e-07
-0.0156903
-6.79579e-06
-0.0191963
-0.000161671
-0.0048972
-5.63865e-13
-3.03126e-16
8.12646e-28
-1.20061e-12
2.51295e-14
-2.03061e-07
1.64296e-11
-3.9371e-05
1.23377e-09
-0.000769194
1.11916e-08
-0.00409034
2.62033e-08
-0.00965919
2.23373e-08
-0.013991
-2.11519e-08
-0.0159251
-9.91704e-08
-0.0165295
-2.73141e-07
-0.016933
1.00128e-06
-0.0158397
-2.05958e-06
-0.0158761
3.42646e-07
-0.0156888
1.97684e-07
-0.0155657
3.13693e-07
-0.0154613
3.95078e-07
-0.0153766
4.267e-07
-0.0153087
4.77758e-07
-0.0152558
5.87576e-07
-0.0152186
7.23275e-07
-0.015192
8.01984e-07
-0.0151798
8.16058e-07
-0.0151784
6.92355e-07
-0.0151879
4.18895e-07
-0.0152146
-2.30688e-08
-0.0152626
9.17488e-08
-0.0153489
3.88621e-07
-0.015497
-1.53207e-06
-0.0158357
-1.47967e-05
-0.0198784
-0.000199779
-0.0014479
-5.87816e-16
-5.10274e-18
3.51263e-26
-2.37636e-17
5.60987e-15
-1.92029e-07
2.35355e-11
-3.93107e-05
1.31245e-09
-0.000767106
1.27427e-08
-0.00408051
3.46668e-08
-0.00963049
3.96774e-08
-0.0139759
7.31601e-09
-0.0159092
-2.49535e-08
-0.0166389
-1.62624e-07
-0.0165786
-3.31742e-07
-0.0161152
6.91604e-07
-0.0161774
4.73893e-06
-0.0156891
1.47324e-07
-0.0155658
3.00527e-07
-0.0154597
4.14348e-07
-0.0153763
4.62877e-07
-0.015307
4.98317e-07
-0.0152579
5.73871e-07
-0.015219
7.25061e-07
-0.0151917
8.35813e-07
-0.0151771
8.7585e-07
-0.0151758
7.96384e-07
-0.0151863
4.92686e-07
-0.0152112
5.55704e-08
-0.015254
-3.80928e-07
-0.0153278
-1.85295e-07
-0.0154576
-1.01378e-06
-0.0156712
-7.54709e-06
-0.0182813
-0.000102116
-0.0133675
-5.90579e-08
-1.79673e-23
2.64624e-21
-1.3862e-19
4.82175e-21
-3.88322e-14
1.76006e-12
-3.97091e-06
3.15945e-10
-0.00021292
5.34962e-09
-0.00200297
2.70202e-08
-0.00677088
5.20718e-08
-0.0121005
5.09817e-08
-0.0151621
2.78577e-08
-0.0163875
-2.93386e-08
-0.0166989
-2.23478e-07
-0.0164052
-5.52195e-07
-0.0158944
9.45495e-07
-0.0160564
6.01565e-06
-0.0156243
1.75326e-07
-0.0155111
3.49834e-07
-0.0154172
4.74083e-07
-0.0153408
5.16763e-07
-0.0152798
5.54428e-07
-0.0152343
6.3303e-07
-0.0152023
7.91376e-07
-0.0151831
8.98806e-07
-0.0151748
9.27892e-07
-0.0151769
7.99551e-07
-0.0151905
4.08403e-07
-0.0152227
-1.60576e-07
-0.0152745
-7.85475e-07
-0.0153612
-8.43106e-07
-0.0155082
-2.42131e-06
-0.0157771
-1.40058e-05
-0.019198
-0.000141385
-0.00970079
-3.34194e-10
-2.53254e-16
4.42754e-24
-3.87659e-19
1.7239e-21
-1.36903e-13
1.9132e-16
-1.30283e-06
3.54647e-09
-0.000212529
5.68435e-09
-0.00199979
2.97902e-08
-0.00675969
6.12585e-08
-0.0120859
6.749e-08
-0.015151
4.52622e-08
-0.0163807
-3.22408e-08
-0.0167484
-4.37108e-07
-0.016391
-6.22659e-07
-0.0160484
2.30809e-06
-0.0155236
-4.3225e-06
-0.015633
6.10049e-07
-0.0155095
3.34326e-07
-0.0154166
4.80286e-07
-0.0153384
5.69023e-07
-0.0152816
5.90422e-07
-0.015235
6.43707e-07
-0.0152031
7.68629e-07
-0.0151834
9.22873e-07
-0.0151725
9.84681e-07
-0.0151744
9.07104e-07
-0.0151881
5.76794e-07
-0.0152202
-2.40284e-08
-0.0152656
-9.94928e-07
-0.0153447
-1.4544e-06
-0.0154747
-2.47289e-06
-0.0156716
-9.00593e-06
-0.0176651
-7.63535e-05
-0.0175701
-6.00588e-05
-8.0627e-11
1.99532e-19
6.45789e-25
-8.31394e-26
-1.23222e-14
4.10973e-18
-8.39908e-12
4.57892e-14
-1.41123e-05
3.04687e-08
-0.000763557
1.61467e-08
-0.00405994
5.14716e-08
-0.00958772
8.26126e-08
-0.0139311
7.82835e-08
-0.015883
5.00864e-08
-0.0166741
-5.07658e-08
-0.0166879
-5.3236e-07
-0.0161532
-8.41526e-07
-0.0158589
3.15183e-06
-0.0154391
-5.10865e-06
-0.0155766
7.39856e-07
-0.0154621
3.9084e-07
-0.0153751
5.50419e-07
-0.0153074
6.36333e-07
-0.0152556
6.53167e-07
-0.0152173
7.04273e-07
-0.0151907
8.38865e-07
-0.0151748
9.92584e-07
-0.0151714
1.03578e-06
-0.0151778
9.10453e-07
-0.0151984
4.90016e-07
-0.0152323
-2.79262e-07
-0.01529
-1.51666e-06
-0.0153788
-2.33123e-06
-0.0155258
-4.18513e-06
-0.015765
-1.49852e-05
-0.0186149
-0.000110295
-0.0146943
-5.43592e-06
-4.94525e-16
4.69783e-21
-4.47042e-25
-4.98698e-26
-2.09394e-14
5.77453e-18
-1.23656e-10
3.38984e-14
-1.20697e-08
2.32153e-08
-0.000741508
3.56522e-08
-0.00405692
5.54608e-08
-0.00957844
9.37604e-08
-0.0139242
1.01432e-07
-0.0158756
7.23786e-08
-0.0166722
3.93454e-08
-0.0167056
-3.868e-08
-0.0162692
-4.1939e-07
-0.0157599
-1.64176e-06
-0.015613
1.97609e-06
-0.0157585
9.8397e-06
-0.0154612
2.82549e-07
-0.0153752
5.37729e-07
-0.0153085
6.811e-07
-0.0152567
7.08557e-07
-0.0152168
7.40345e-07
-0.0151897
8.20992e-07
-0.0151755
1.00238e-06
-0.0151671
1.09306e-06
-0.0151755
1.03655e-06
-0.0151942
6.82515e-07
-0.0152298
-1.17751e-07
-0.015281
-1.30933e-06
-0.0153644
-2.88601e-06
-0.015493
-4.50055e-06
-0.0156821
-1.0818e-05
-0.0173346
-6.47775e-05
-0.0194211
-0.000187288
-7.29598e-06
4.12996e-18
-1.1695e-21
6.65688e-24
-9.46498e-19
1.99198e-21
-1.05488e-11
1.37417e-15
-4.74138e-09
9.94593e-14
-1.90918e-07
1.49435e-07
-0.00195055
8.94005e-08
-0.00674057
8.28097e-08
-0.0120569
1.1581e-07
-0.0151272
1.10089e-07
-0.0163684
7.82114e-08
-0.0167636
3.90604e-08
-0.0165528
-4.67232e-08
-0.0160277
-4.49369e-07
-0.015685
-2.10597e-06
-0.0155455
2.33342e-06
-0.0157352
1.1069e-05
-0.0154173
3.28287e-07
-0.0153407
6.14727e-07
-0.0152804
7.58741e-07
-0.0152349
7.83129e-07
-0.0152022
8.10263e-07
-0.0151814
8.88116e-07
-0.0151691
1.07359e-06
-0.0151689
1.15037e-06
-0.0151811
1.03984e-06
-0.0152051
5.82287e-07
-0.0152471
-4.16755e-07
-0.0153088
-1.92982e-06
-0.015401
-4.01002e-06
-0.0155449
-6.58043e-06
-0.0157775
-1.69149e-05
-0.0182623
-9.69511e-05
-0.0171505
-8.44029e-05
-2.99564e-09
2.0647e-17
-7.02325e-23
4.51735e-23
-1.17134e-18
-9.50996e-21
-1.39925e-11
-2.37134e-15
-1.21253e-08
7.12174e-12
-9.06084e-13
1.86031e-09
-0.00112133
1.507e-06
-0.00673628
9.03578e-08
-0.0120517
1.26216e-07
-0.0151242
1.2633e-07
-0.0163659
9.19765e-08
-0.016763
9.59463e-08
-0.0165585
-1.04459e-07
-0.0160676
-7.37209e-07
-0.0156768
-1.57462e-06
-0.0156703
4.65804e-06
-0.0152301
-7.50878e-06
-0.0154291
1.2243e-06
-0.0153392
5.99907e-07
-0.0152808
7.89138e-07
-0.015233
8.65069e-07
-0.0152012
8.7021e-07
-0.0151794
9.11075e-07
-0.0151678
1.05158e-06
-0.0151653
1.19645e-06
-0.0151796
1.14458e-06
-0.0152019
7.86905e-07
-0.015242
-1.02269e-07
-0.0153007
-1.62343e-06
-0.0153866
-4.11356e-06
-0.0155144
-6.91012e-06
-0.0156988
-1.40547e-05
-0.0172234
-6.05146e-05
-0.0199965
-0.000220439
-0.000821222
3.22748e-16
-1.1848e-16
-4.58854e-25
-1.75687e-22
-1.04946e-25
-3.83342e-14
-1.67247e-17
-1.06214e-09
-9.48713e-14
-2.1255e-07
1.50261e-10
-7.12842e-11
2.1158e-08
-0.00259651
3.15998e-06
-0.00956424
1.21687e-07
-0.0139097
1.4354e-07
-0.0158647
1.31798e-07
-0.0166627
9.49805e-08
-0.0167086
1.00162e-07
-0.0163449
-1.10234e-07
-0.0158607
-8.14748e-07
-0.0156003
-1.81106e-06
-0.0156284
5.36158e-06
-0.0151791
-8.13568e-06
-0.0153883
1.42574e-06
-0.0153073
6.91075e-07
-0.0152539
8.80594e-07
-0.0152169
9.51621e-07
-0.0151903
9.47273e-07
-0.0151712
9.85676e-07
-0.015163
1.12468e-06
-0.0151689
1.25225e-06
-0.0151843
1.15515e-06
-0.0152161
6.6912e-07
-0.0152617
-4.39024e-07
-0.0153298
-2.34289e-06
-0.0154269
-5.4843e-06
-0.015569
-9.41794e-06
-0.0158099