/*--------------------------------*- C++ -*----------------------------------*\
| =========                 |                                                 |
| \\      /  F ield         | OpenFOAM: The Open Source CFD Toolbox           |
|  \\    /   O peration     | Version:  v2012                                 |
|   \\  /    A nd           | Website:  www.openfoam.com                      |
|    \\/     M anipulation  |                                                 |
\*---------------------------------------------------------------------------*/
FoamFile
{
    version     2.0;
    format      ascii;
    class       volScalarField;
    location    "13200";
    object      I2_3;
}
// * * * * * * * * * * * * * * * * * * * * * * * * * * * * * * * * * * * * * //

dimensions      [0 0 0 0 0 0 0];


internalField   nonuniform List<scalar> 
31383
(
2.78565e-13
8.2368e-11
4.97007e-10
7.09891e-11
9.09632e-08
3.49811e-08
6.34432e-11
7.86164e-08
6.08905e-06
6.70379e-07
5.81848e-11
7.03936e-08
5.29677e-06
9.714e-05
6.32117e-06
5.40763e-11
6.46501e-08
4.76517e-06
8.53803e-05
0.000671141
3.72849e-05
5.07345e-11
6.01528e-08
4.39144e-06
7.73901e-05
0.000597894
0.00269155
0.000155467
4.80296e-11
5.64889e-08
4.09766e-06
7.17229e-05
0.000547324
0.00243519
0.00737507
0.000510905
4.58188e-11
5.35205e-08
3.85743e-06
6.72377e-05
0.000511057
0.00225499
0.00678312
0.0152837
0.00139586
4.39196e-11
5.1091e-08
3.66229e-06
6.35502e-05
0.000482071
0.002124
0.00635876
0.0142848
0.0256838
0.00330917
4.2249e-11
4.90025e-08
3.50202e-06
6.05374e-05
0.000458059
0.00201816
0.00604556
0.0135573
0.0243448
0.0367228
0.00728136
4.07311e-11
4.71635e-08
3.3641e-06
5.80572e-05
0.000438315
0.00192967
0.00578945
0.0130114
0.0233773
0.0352917
0.0465051
0.0141467
3.93609e-11
4.54923e-08
3.24231e-06
5.59112e-05
0.000421977
0.00185639
0.00557322
0.0125597
0.0226391
0.0342556
0.0452659
0.0540167
0.021881
3.81132e-11
4.39812e-08
3.13153e-06
5.40139e-05
0.000407777
0.00179531
0.00539288
0.012174
0.0220218
0.0334415
0.0443398
0.053066
0.0590566
0.0316981
3.7009e-11
4.26068e-08
3.03114e-06
5.2282e-05
0.00039517
0.00174192
0.00524125
0.0118495
0.0214934
0.0327563
0.0435872
0.0523441
0.0583999
0.0621067
0.0417565
3.60322e-11
4.13884e-08
2.9399e-06
5.071e-05
0.000383606
0.00169431
0.00510793
0.0115749
0.0210341
0.032188
0.0429517
0.051755
0.0579026
0.0616678
0.0639748
0.0460335
3.51749e-11
4.03119e-08
2.85872e-06
4.92735e-05
0.000373084
0.00165044
0.00498827
0.0113314
0.0206479
0.0316456
0.0424204
0.0512534
0.0575017
0.0613463
0.0636296
0.0651839
0.0497375
3.4415e-11
3.9365e-08
2.78696e-06
4.79964e-05
0.000363448
0.00161038
0.00487765
0.0111122
0.0203023
0.0312062
0.0419122
0.0508018
0.0571496
0.0610835
0.063403
0.064881
0.0657954
0.0539362
3.37525e-11
3.85263e-08
2.72378e-06
4.68633e-05
0.000354845
0.0015735
0.00477595
0.0109095
0.01999
0.0308135
0.0414892
0.0504161
0.056831
0.0608469
0.0632109
0.0647195
0.0655541
0.065903
0.0597513
3.31634e-11
3.7794e-08
2.66777e-06
4.58655e-05
0.000347188
0.00154048
0.00468203
0.0107193
0.0197105
0.0304491
0.0411257
0.0500659
0.0565559
0.0606495
0.0630544
0.0645951
0.065476
0.0657147
0.0657152
0.0633518
3.26449e-11
3.71433e-08
2.61879e-06
4.49771e-05
0.000340428
0.00151099
0.00459755
0.0105445
0.0194253
0.0301261
0.0407607
0.0497702
0.0563091
0.0604776
0.0629344
0.0644979
0.0654147
0.0657024
0.0655269
0.065335
0.065973
3.21853e-11
3.65701e-08
2.5753e-06
4.42006e-05
0.000334399
0.0014849
0.00452194
0.0103865
0.0191721
0.0297913
0.0404359
0.049463
0.0560839
0.0603222
0.0628309
0.064413
0.0653626
0.0656787
0.0655416
0.0651029
0.0648309
0.06805
3.17786e-11
3.6061e-08
2.53689e-06
4.35093e-05
0.000329121
0.00146157
0.00445476
0.0102443
0.0189426
0.0294954
0.0401241
0.0491918
0.0558741
0.060175
0.0627282
0.0643332
0.0653021
0.065659
0.0655518
0.0651379
0.0645252
0.0642641
0.0693818
3.1415e-11
3.56108e-08
2.50271e-06
4.28994e-05
0.000324409
0.00144104
0.00439439
0.0101176
0.0187363
0.0292244
0.0398331
0.048939
0.0556744
0.0600497
0.0626396
0.0642562
0.0652495
0.0656329
0.0655522
0.0651637
0.0645747
0.0638686
0.0636978
0.0700984
3.10894e-11
3.52091e-08
2.47253e-06
4.23561e-05
0.000320245
0.0014227
0.00434129
0.0100035
0.0185491
0.0289887
0.0395665
0.0486903
0.0554911
0.0599152
0.0625642
0.0641941
0.0652004
0.0656126
0.0655532
0.0651833
0.0646101
0.0639267
0.0632879
0.0632424
0.0703724
3.07918e-11
3.48491e-08
2.44554e-06
4.1875e-05
0.000316531
0.00140646
0.00429366
0.00990274
0.0183812
0.0287582
0.0393353
0.0484667
0.0553081
0.0597983
0.0624811
0.0641394
0.0651587
0.0655912
0.0655546
0.0652007
0.0646442
0.0639674
0.0633305
0.0629258
0.0629867
0.070262
3.05189e-11
3.45195e-08
2.42135e-06
4.14443e-05
0.000313239
0.00139195
0.00425139
0.00981208
0.0182327
0.0285607
0.0391057
0.0482624
0.0551433
0.0596824
0.0624074
0.0640885
0.0651224
0.0655685
0.0655569
0.0652155
0.0646694
0.0640071
0.0633686
0.0629405
0.0627202
0.0628713
0.0698561
3.02687e-11
3.42173e-08
2.39926e-06
4.10581e-05
0.00031029
0.00137905
0.00421359
0.00973136
0.0180985
0.0283811
0.0389131
0.0480757
0.054991
0.0595759
0.0623378
0.0640307
0.0650845
0.0655573
0.0655505
0.0652359
0.0646927
0.0640412
0.0634006
0.0629619
0.0627255
0.0625601
0.0627873
0.069404
3.00406e-11
3.39408e-08
2.379e-06
4.07054e-05
0.000307642
0.00136751
0.00417982
0.00965903
0.0179787
0.0282195
0.0387274
0.0479115
0.0548548
0.0594761
0.0622703
0.0639794
0.0650502
0.0655385
0.0655502
0.0652452
0.0647204
0.0640726
0.0634325
0.0629813
0.0627363
0.0625617
0.0624137
0.0627235
0.0692155
2.98345e-11
3.36877e-08
2.36032e-06
4.038e-05
0.000305211
0.0013571
0.00414961
0.00959451
0.0178711
0.028077
0.0385684
0.0477545
0.0547289
0.0593863
0.0622062
0.0639324
0.0650108
0.0655233
0.0655529
0.065251
0.0647434
0.064095
0.0634594
0.0629983
0.0627494
0.062571
0.0624105
0.0622755
0.0626818
0.0697517
2.96484e-11
3.346e-08
2.34341e-06
4.00824e-05
0.000302981
0.00134758
0.0041223
0.00953638
0.0177749
0.0279474
0.0384237
0.0476204
0.0546183
0.0593017
0.0621485
0.0638866
0.0649809
0.065507
0.0655514
0.0652619
0.0647585
0.0641224
0.063481
0.0630104
0.0627602
0.0625803
0.0624136
0.0622651
0.0621581
0.0626623
0.0710562
2.94821e-11
3.32533e-08
2.32802e-06
3.98117e-05
0.000300939
0.00133879
0.00409727
0.00948393
0.0176881
0.0278306
0.0382918
0.0474917
0.0545148
0.0592268
0.0620958
0.0638478
0.0649533
0.0654925
0.0655506
0.0652743
0.0647734
0.0641437
0.0634977
0.0630267
0.0627626
0.062588
0.0624174
0.0622697
0.0621284
0.0620579
0.062671
0.0708884
2.9335e-11
3.30695e-08
2.3142e-06
3.95651e-05
0.000299063
0.00133071
0.0040741
0.00943575
0.0176098
0.0277256
0.0381743
0.0473783
0.0544183
0.059158
0.0620434
0.0638064
0.0649241
0.065482
0.0655502
0.0652849
0.0647895
0.0641634
0.0635185
0.0630339
0.0627697
0.0625949
0.0624267
0.0622695
0.0621361
0.0620179
0.0619723
0.0627012
0.0663221
2.92017e-11
3.29062e-08
2.30182e-06
3.93432e-05
0.000297368
0.00132337
0.0040529
0.0093912
0.0175376
0.0276299
0.038069
0.0472789
0.0543352
0.0590957
0.0620021
0.063773
0.0648983
0.065468
0.065548
0.065291
0.0648116
0.0641817
0.0635387
0.0630439
0.0627777
0.062599
0.0624374
0.0622802
0.0621399
0.0620156
0.0619238
0.0619073
0.0627538
0.0623219
2.90794e-11
3.27584e-08
2.29076e-06
3.91448e-05
0.000295835
0.00131668
0.00403354
0.00935025
0.0174709
0.0275427
0.0379737
0.0471863
0.0542609
0.059042
0.0619651
0.063743
0.0648789
0.0654582
0.0655499
0.0652988
0.0648227
0.0642043
0.063552
0.063059
0.062781
0.0626094
0.0624392
0.0622849
0.0621418
0.0620206
0.0619115
0.0618347
0.0618615
0.0628251
0.0601224
2.89658e-11
3.2623e-08
2.28088e-06
3.89676e-05
0.000294463
0.00131062
0.00401592
0.00931277
0.0174093
0.0274613
0.0378848
0.047105
0.0541898
0.0589894
0.0619286
0.0637156
0.0648556
0.065448
0.0655465
0.0653051
0.0648336
0.0642201
0.0635699
0.0630668
0.0627868
0.0626164
0.0624445
0.0622905
0.0621427
0.062025
0.0619156
0.0618244
0.0617602
0.0618267
0.0629093
0.0586427
2.88502e-11
3.2497e-08
2.27169e-06
3.88085e-05
0.000293248
0.00130518
0.00399995
0.00927868
0.0173529
0.0273864
0.0378016
0.0470275
0.0541247
0.0589449
0.0618931
0.0636878
0.0648345
0.065437
0.0655447
0.0653103
0.0648424
0.0642319
0.0635852
0.0630771
0.0627994
0.0626178
0.0624518
0.0622906
0.0621482
0.0620225
0.061915
0.0618179
0.0617466
0.0617063
0.0618139
0.0630313
0.0570598
2.87525e-11
3.23691e-08
2.26319e-06
3.8661e-05
0.000292146
0.00130038
0.00398566
0.00924773
0.0173015
0.0273187
0.0377256
0.0469563
0.0540687
0.0589005
0.0618651
0.0636638
0.0648195
0.0654266
0.0655416
0.0653137
0.0648552
0.0642466
0.0636014
0.0630853
0.0628017
0.0626232
0.0624582
0.0622942
0.0621542
0.0620253
0.0619166
0.061814
0.061737
0.0616781
0.0616559
0.0618277
0.0633126
0.055312
2.90558e-11
3.22613e-08
2.25456e-06
3.85251e-05
0.000291125
0.00129601
0.00397285
0.00922002
0.0172549
0.0272559
0.0376562
0.0468904
0.054014
0.0588628
0.0618381
0.0636418
0.0648024
0.065418
0.0655405
0.0653162
0.0648665
0.0642617
0.0636121
0.0630943
0.0628063
0.0626269
0.0624604
0.062303
0.0621552
0.0620275
0.0619171
0.0618142
0.0617329
0.0616711
0.0616214
0.0616225
0.0618594
0.0638665
0.0533651
7.00061e-11
3.25895e-08
2.24728e-06
3.83867e-05
0.000290182
0.00129199
0.00396132
0.00919527
0.0172131
0.0271984
0.0375927
0.0468274
0.0539635
0.0588247
0.0618108
0.0636221
0.0647857
0.0654103
0.0655374
0.0653186
0.0648732
0.0642717
0.0636231
0.0631015
0.0628119
0.0626337
0.0624669
0.0623075
0.0621608
0.0620306
0.061915
0.0618168
0.0617334
0.0616628
0.0616055
0.0615808
0.0616073
0.061913
0.0646356
0.0511609
3.22686e-11
1.54115e-07
2.26847e-06
3.82701e-05
0.000289227
0.00128825
0.00395069
0.00917278
0.0171756
0.0271473
0.0375356
0.0467732
0.0539186
0.0587911
0.0617891
0.0636015
0.0647732
0.0654037
0.0655397
0.0653232
0.0648798
0.0642812
0.0636292
0.0631054
0.0628169
0.0626373
0.0624715
0.0623123
0.062163
0.0620344
0.0619206
0.0618182
0.061731
0.0616617
0.0615975
0.0615586
0.0615507
0.0616007
0.0619995
0.0655289
0.0486041
3.32518e-11
4.44503e-08
8.63049e-06
3.85885e-05
0.000288423
0.00128444
0.00394073
0.00915196
0.0171416
0.0271024
0.0374814
0.0467252
0.0538748
0.0587619
0.0617672
0.0635882
0.0647602
0.0653956
0.0655374
0.0653265
0.0648826
0.0642907
0.0636394
0.0631119
0.0628176
0.0626394
0.0624727
0.0623153
0.062166
0.0620397
0.0619174
0.0618166
0.0617316
0.0616539
0.0615904
0.0615496
0.0615255
0.061523
0.0616075
0.0621096
0.0664909
0.0455346
4.59987e-11
4.6137e-08
3.46655e-06
0.000133799
0.000290427
0.00128127
0.00393062
0.00913263
0.0171102
0.0270596
0.037434
0.0466776
0.0538371
0.0587305
0.0617437
0.0635707
0.0647502
0.0653912
0.0655328
0.0653248
0.0648875
0.0642956
0.0636452
0.0631149
0.0628256
0.0626468
0.0624735
0.0623199
0.0621721
0.0620417
0.0619225
0.0618175
0.0617279
0.0616546
0.0615895
0.0615383
0.0615073
0.0614943
0.0615187
0.0616347
0.062237
0.0674898
0.0416491
3.82271e-11
6.31649e-08
3.64141e-06
6.1281e-05
0.000901202
0.00128823
0.00392226
0.00911303
0.017081
0.0270219
0.037392
0.0466335
0.0538014
0.0587056
0.0617268
0.0635537
0.0647388
0.0653859
0.0655308
0.0653325
0.0648915
0.0643044
0.0636549
0.0631214
0.0628253
0.0626485
0.0624793
0.0623229
0.0621705
0.0620468
0.061929
0.0618214
0.0617336
0.0616564
0.0615851
0.0615346
0.0614999
0.0614779
0.0614768
0.0615246
0.0616821
0.0624029
0.0685259
0.0365063
3.02871e-11
5.1669e-08
4.88962e-06
6.58038e-05
0.00044995
0.00353424
0.00393749
0.0090967
0.0170514
0.0269855
0.037352
0.0465986
0.0537713
0.058682
0.0617076
0.0635435
0.0647299
0.0653798
0.0655301
0.0653323
0.0648992
0.064312
0.0636601
0.0631282
0.0628296
0.0626546
0.0624782
0.0623214
0.0621779
0.0620432
0.0619275
0.0618218
0.0617374
0.061656
0.0615884
0.0615311
0.0614909
0.0614681
0.061455
0.061473
0.0615312
0.0617416
0.0625903
0.0695495
0.0297224
2.89858e-11
4.05036e-08
3.93679e-06
8.61433e-05
0.000501423
0.0018803
0.00950545
0.00911945
0.0170262
0.0269491
0.037316
0.0465628
0.0537413
0.0586614
0.0616958
0.0635289
0.0647198
0.0653775
0.0655287
0.0653307
0.0649049
0.0643152
0.0636692
0.0631264
0.0628337
0.0626521
0.062483
0.0623238
0.0621794
0.062049
0.0619331
0.0618251
0.0617294
0.0616529
0.0615815
0.0615245
0.0614856
0.0614556
0.0614388
0.0614395
0.0614717
0.0615585
0.061826
0.0628063
0.0704308
0.021595
2.79674e-11
3.83933e-08
3.05911e-06
6.90253e-05
0.000638735
0.00217115
0.00541574
0.0193618
0.0170489
0.0269178
0.0372777
0.0465314
0.0537155
0.0586403
0.0616784
0.0635166
0.0647122
0.0653698
0.0655265
0.0653357
0.0649061
0.0643217
0.0636733
0.0631329
0.0628327
0.062654
0.0624872
0.0623267
0.0621806
0.062051
0.0619338
0.0618305
0.0617335
0.0616565
0.0615831
0.0615236
0.0614793
0.0614428
0.061425
0.0614181
0.0614387
0.0614843
0.0616049
0.0619383
0.0632737
0.0708204
0.0115132
2.77553e-11
3.17523e-08
2.86713e-06
5.3682e-05
0.000515269
0.00270004
0.00629659
0.0118457
0.0318106
0.0269299
0.037245
0.0464969
0.0536884
0.058621
0.0616676
0.063506
0.0647
0.0653651
0.0655251
0.0653357
0.064908
0.0643277
0.063673
0.0631342
0.0628323
0.06266
0.0624871
0.0623295
0.0621823
0.06205
0.0619334
0.0618235
0.0617327
0.0616536
0.0615874
0.0615271
0.0614807
0.0614414
0.0614189
0.0614063
0.0614109
0.061439
0.0615096
0.0616606
0.062079
0.0642618
0.0698554
0.00270756
2.76777e-11
3.08821e-08
2.18521e-06
4.99132e-05
0.000404339
0.0022127
0.00770443
0.0135372
0.0209735
0.0443333
0.0372442
0.0464705
0.0536637
0.0586055
0.0616532
0.0634974
0.0646962
0.0653616
0.0655226
0.0653342
0.0649119
0.0643298
0.0636803
0.0631354
0.0628355
0.0626569
0.0624869
0.0623323
0.0621828
0.0620496
0.0619361
0.0618273
0.0617355
0.061652
0.0615836
0.0615262
0.0614739
0.0614387
0.0614097
0.0613976
0.0613994
0.0614136
0.0614616
0.0615471
0.0617337
0.0622495
0.0656689
0.0665563
0.000350277
2.7622e-11
3.07362e-08
2.13066e-06
3.6949e-05
0.000374075
0.00175719
0.00645393
0.0164597
0.0232319
0.0315112
0.0546428
0.0464546
0.0536444
0.05859
0.0616441
0.0634905
0.0646859
0.0653585
0.0655261
0.0653349
0.064914
0.0643345
0.0636843
0.0631412
0.0628393
0.0626632
0.0624912
0.0623303
0.062185
0.0620557
0.0619348
0.0618296
0.0617382
0.0616547
0.061587
0.061522
0.0614735
0.0614323
0.0614046
0.0613888
0.0613781
0.0613893
0.0614291
0.0614862
0.0615963
0.0618293
0.0624472
0.067174
0.0617097
5.19775e-05
2.75366e-11
3.0645e-08
2.11539e-06
3.6061e-05
0.00027765
0.0016191
0.00517519
0.014149
0.0282099
0.0338196
0.0417023
0.0615952
0.053619
0.0585736
0.0616339
0.0634792
0.0646834
0.0653542
0.0655229
0.0653355
0.0649187
0.0643378
0.0636906
0.0631425
0.0628382
0.062665
0.0624915
0.0623331
0.0621906
0.0620506
0.0619389
0.0618322
0.0617338
0.0616571
0.0615837
0.0615254
0.0614758
0.0614269
0.0614014
0.0613764
0.0613658
0.061371
0.0613968
0.0614451
0.0615182
0.0616613
0.0619454
0.0626607
0.0686136
0.0570241
1.33291e-05
2.74542e-11
3.05207e-08
2.10649e-06
3.57371e-05
0.000271236
0.00123348
0.0047504
0.0114035
0.0249135
0.0407172
0.0436992
0.050134
0.065495
0.0585486
0.0616228
0.0634706
0.064675
0.0653492
0.0655223
0.0653359
0.0649153
0.0643437
0.063691
0.0631426
0.0628423
0.0626621
0.0624912
0.0623315
0.0621869
0.0620545
0.0619373
0.0618299
0.0617369
0.0616581
0.0615809
0.0615223
0.0614672
0.0614311
0.0613975
0.0613709
0.0613593
0.0613576
0.0613806
0.0614195
0.0614699
0.0615709
0.061742
0.0620814
0.0630671
0.0699456
0.0524181
4.03069e-06
2.73963e-11
3.04002e-08
2.0955e-06
3.55566e-05
0.000268541
0.00120692
0.00378489
0.0104825
0.0201815
0.0368992
0.0514432
0.0516645
0.0562312
0.0672883
0.0615941
0.0634647
0.0646704
0.065345
0.0655198
0.065335
0.0649161
0.064345
0.0636946
0.0631496
0.0628401
0.0626647
0.0624956
0.0623348
0.0621894
0.0620553
0.0619355
0.0618327
0.0617329
0.0616532
0.0615817
0.0615179
0.0614692
0.0614282
0.0613904
0.0613766
0.061353
0.0613541
0.0613632
0.0613902
0.0614349
0.0615138
0.061634
0.0618336
0.0622437
0.0640248
0.0711688
0.0470968
1.63344e-06
2.73471e-11
3.0315e-08
2.08472e-06
3.53448e-05
0.00026708
0.00119481
0.00371154
0.0088133
0.0187879
0.0303272
0.0476916
0.0589228
0.0573013
0.0601526
0.0678593
0.0634379
0.0646637
0.0653431
0.0655193
0.0653363
0.0649193
0.0643463
0.0636978
0.0631513
0.0628459
0.0626656
0.0624972
0.0623387
0.0621912
0.0620558
0.0619398
0.0618314
0.0617338
0.0616543
0.0615818
0.0615174
0.0614651
0.0614252
0.0613957
0.0613643
0.0613502
0.0613475
0.061351
0.0613716
0.061405
0.0614663
0.0615628
0.0617068
0.0619442
0.0624351
0.0655556
0.0721104
0.0405173
8.12891e-07
2.72988e-11
3.02493e-08
2.07711e-06
3.51328e-05
0.000265406
0.00118834
0.00367621
0.0086671
0.0165774
0.0287425
0.0403294
0.055656
0.0632034
0.0608487
0.0624362
0.0677895
0.0646438
0.0653405
0.0655155
0.06534
0.0649181
0.0643508
0.0637007
0.0631522
0.0628456
0.0626651
0.0624966
0.0623386
0.0621885
0.0620549
0.0619388
0.061834
0.0617362
0.0616549
0.0615812
0.0615173
0.0614707
0.061421
0.0613866
0.0613585
0.0613463
0.0613362
0.0613408
0.0613542
0.0613903
0.0614379
0.0615106
0.0616211
0.0617963
0.0620757
0.062644
0.0673462
0.0721126
0.032259
3.19958e-07
2.72556e-11
3.01854e-08
2.07155e-06
3.49864e-05
0.000263725
0.001181
0.00365764
0.00859321
0.0163521
0.0263441
0.0388376
0.0488627
0.0605664
0.0651666
0.0629203
0.0637839
0.0674054
0.0653238
0.0655164
0.0653368
0.0649225
0.0643504
0.0637029
0.0631532
0.0628447
0.0626674
0.0624943
0.0623416
0.0621922
0.0620575
0.0619388
0.061832
0.0617343
0.0616554
0.0615817
0.0615172
0.0614648
0.0614207
0.061389
0.0613636
0.061336
0.061337
0.0613357
0.0613404
0.0613637
0.0614135
0.0614731
0.0615664
0.0616996
0.061899
0.0622267
0.0630411
0.0691311
0.0700501
0.0220344
7.89848e-08
2.72197e-11
3.01286e-08
2.06649e-06
3.48809e-05
0.000262557
0.0011736
0.003637
0.00855245
0.0162318
0.0260581
0.0366377
0.0476635
0.0552624
0.0631176
0.0657665
0.0642705
0.0646103
0.0668817
0.0655061
0.0653379
0.0649234
0.0643487
0.0637041
0.0631534
0.0628482
0.0626693
0.0624961
0.0623429
0.0621945
0.0620617
0.0619396
0.0618317
0.0617313
0.0616526
0.0615762
0.0615118
0.0614639
0.0614135
0.0613824
0.0613605
0.0613377
0.0613296
0.0613287
0.0613317
0.0613571
0.061388
0.0614378
0.0615171
0.061632
0.0617907
0.0620163
0.0623985
0.0639931
0.0707933
0.0657787
0.0100096
9.17353e-09
2.71952e-11
3.00855e-08
2.06194e-06
3.47861e-05
0.000261747
0.00116854
0.00361565
0.00850981
0.016165
0.0259027
0.0363353
0.0459196
0.0544228
0.0595288
0.0642264
0.0656714
0.065135
0.0649262
0.0663134
0.0653248
0.0649267
0.0643545
0.0637034
0.0631564
0.0628466
0.0626715
0.0625013
0.0623379
0.0621948
0.0620561
0.0619368
0.0618312
0.0617348
0.0616537
0.0615771
0.0615111
0.0614571
0.0614129
0.0613816
0.0613541
0.0613293
0.0613196
0.0613248
0.0613239
0.0613386
0.0613789
0.0614192
0.0614798
0.0615788
0.0617058
0.0618902
0.0621592
0.0626021
0.0655917
0.0723196
0.0604598
0.00160489
1.94151e-10
2.71472e-11
3.00555e-08
2.05862e-06
3.47056e-05
0.000261016
0.00116496
0.00360113
0.00846551
0.0160944
0.025821
0.0361723
0.045655
0.0532095
0.0590178
0.0620741
0.0645896
0.065563
0.0654462
0.0647592
0.0657483
0.0649044
0.0643554
0.0637076
0.0631585
0.0628484
0.0626679
0.0624971
0.0623372
0.0621935
0.0620593
0.0619357
0.0618318
0.0617336
0.0616514
0.061579
0.0615109
0.0614619
0.0614178
0.0613744
0.0613539
0.0613296
0.0613127
0.0613178
0.0613184
0.0613324
0.0613599
0.0613979
0.0614612
0.0615352
0.0616514
0.0618052
0.0620067
0.0623204
0.0629375
0.0675772
0.0735583
0.0534723
9.83091e-05
2.65219e-17
2.59918e-11
3.00019e-08
2.05633e-06
3.46461e-05
0.000260394
0.00116182
0.0035907
0.00843434
0.0160235
0.0257301
0.0360869
0.0455132
0.05301
0.0582692
0.0618317
0.0635186
0.0646456
0.0658877
0.0653631
0.0642759
0.0652093
0.0643356
0.0637108
0.0631608
0.0628481
0.0626676
0.0625009
0.0623357
0.0621913
0.0620583
0.0619399
0.0618361
0.0617393
0.0616548
0.0615804
0.061512
0.0614612
0.0614167
0.0613798
0.0613467
0.061324
0.0613094
0.061313
0.0613155
0.0613262
0.0613502
0.0613876
0.0614312
0.0615037
0.0616008
0.061731
0.0619111
0.0621408
0.0624889
0.0637405
0.0697087
0.0736469
0.0429743
9.63222e-06
1.08921e-11
9.90626e-12
2.87569e-08
2.05272e-06
3.46063e-05
0.000259957
0.00115917
0.00358153
0.00841333
0.0159737
0.0256391
0.0359956
0.0454389
0.0529011
0.0581392
0.0614117
0.0635223
0.0643924
0.0647882
0.0661823
0.0650017
0.0636418
0.0647109
0.0636944
0.0631626
0.0628494
0.0626706
0.0624997
0.0623436
0.0621934
0.0620605
0.0619417
0.0618331
0.0617385
0.0616497
0.0615787
0.0615144
0.061462
0.0614161
0.0613723
0.0613455
0.061323
0.0613042
0.061298
0.0613077
0.0613158
0.0613391
0.0613709
0.0614155
0.0614778
0.0615578
0.0616749
0.0618257
0.0620205
0.0622918
0.0626773
0.0652159
0.0717999
0.0706066
0.0290361
8.70258e-07
5.08769e-11
3.48681e-15
1.12962e-08
1.97163e-06
3.45475e-05
0.000259673
0.00115731
0.00357415
0.00839503
0.0159414
0.0255763
0.0358979
0.0453551
0.0528442
0.0580628
0.0613367
0.0632979
0.0646013
0.0648897
0.0650465
0.0659414
0.0644554
0.06307
0.0642901
0.0631581
0.0628543
0.0626696
0.0625008
0.062341
0.0621901
0.0620618
0.0619419
0.0618348
0.0617395
0.0616524
0.0615772
0.0615101
0.0614574
0.0614098
0.0613716
0.0613379
0.061316
0.0613049
0.0613012
0.0613012
0.0613115
0.0613276
0.0613557
0.0614001
0.0614515
0.0615301
0.0616321
0.0617607
0.0619366
0.062158
0.0624507
0.0630697
0.0672008
0.0735563
0.0643585
0.0128421
9.1549e-09
3.71502e-12
2.30097e-14
8.26541e-12
8.11952e-07
3.32841e-05
0.000259253
0.00115613
0.003569
0.00837983
0.0159137
0.0255353
0.0358354
0.0452652
0.0527755
0.0580211
0.0612878
0.0632555
0.0645353
0.0651758
0.0650835
0.0650186
0.0652456
0.0637969
0.0627203
0.063972
0.0628555
0.0626696
0.0625034
0.0623413
0.0621957
0.0620575
0.0619428
0.0618337
0.061734
0.0616479
0.0615805
0.0615157
0.06146
0.0614108
0.0613652
0.0613371
0.0613146
0.0612976
0.0612963
0.061294
0.0613089
0.0613229
0.0613464
0.0613907
0.0614421
0.0615075
0.0615907
0.0617056
0.0618575
0.0620534
0.0623119
0.062631
0.0640525
0.0694666
0.0744208
0.0569603
0.00169438
1.40191e-16
5.95888e-14
2.67845e-13
2.84163e-11
1.14668e-09
1.46231e-05
0.000250752
0.00115447
0.00356568
0.00836932
0.0158896
0.025501
0.03579
0.0452133
0.0527069
0.057977
0.0612593
0.063219
0.0645172
0.0652565
0.0653327
0.064965
0.0645647
0.064369
0.0632118
0.0624691
0.0636545
0.0626721
0.0624967
0.0623378
0.0621952
0.062062
0.0619434
0.0618344
0.0617386
0.0616529
0.0615745
0.0615114
0.0614522
0.0614074
0.0613658
0.0613369
0.0613138
0.0612974
0.0612911
0.0612909
0.0612968
0.0613115
0.0613342
0.0613774
0.0614222
0.0614889
0.0615634
0.0616664
0.0617964
0.061967
0.062191
0.062469
0.0629188
0.0657339
0.0718184
0.0729583
0.0460181
3.29494e-05
3.86767e-11
1.02985e-15
5.3166e-13
2.43405e-10
2.65617e-09
3.85688e-08
0.00011928
0.00112149
0.0035613
0.00836277
0.0158728
0.0254696
0.0357505
0.0451683
0.0526645
0.0579321
0.0612293
0.0632056
0.0644991
0.0652631
0.0654609
0.0651917
0.0645271
0.0638794
0.0636261
0.0628732
0.0622259
0.0632765
0.0625019
0.0623444
0.062191
0.0620591
0.0619419
0.0618336
0.0617319
0.0616522
0.0615793
0.0615114
0.0614539
0.0614052
0.061368
0.0613316
0.0613143
0.0612969
0.0612848
0.0612804
0.06129
0.0613098
0.0613274
0.0613607
0.061415
0.061466
0.0615391
0.0616292
0.0617538
0.0619078
0.0621029
0.0623395
0.0626353
0.0636377
0.0678902
0.0738547
0.0680934
0.02847
1.91685e-07
3.42117e-11
8.2222e-17
7.38745e-13
5.33488e-10
1.42455e-08
4.13141e-08
5.81067e-07
0.000583918
0.00347581
0.00835392
0.0158631
0.0254494
0.0357183
0.045131
0.0526306
0.0578969
0.061202
0.0631859
0.0644967
0.0652671
0.0654931
0.0653033
0.0647901
0.0639016
0.0632322
0.0631253
0.0626647
0.0619989
0.0629951
0.0623479
0.0621975
0.0620642
0.0619372
0.0618305
0.0617346
0.0616485
0.0615713
0.0615093
0.0614533
0.0614062
0.0613664
0.0613343
0.061309
0.0612911
0.0612788
0.0612816
0.0612812
0.0612989
0.0613176
0.0613551
0.0613948
0.0614482
0.0615266
0.0616056
0.0617154
0.0618469
0.0620286
0.0622428
0.0625043
0.0628907
0.0650409
0.0703403
0.0747695
0.060637
0.00866506
7.11282e-11
1.35642e-12
2.03474e-17
8.83362e-13
7.59701e-10
3.31161e-08
2.48203e-07
1.79148e-07
5.26034e-06
0.0019913
0.0081912
0.0158494
0.0254368
0.0356965
0.0451018
0.0526037
0.0578778
0.061176
0.0631662
0.0644846
0.0652621
0.0655012
0.0653495
0.0648938
0.0642079
0.0632904
0.0628621
0.0628819
0.0624579
0.0617964
0.0628714
0.0622004
0.0620602
0.0619413
0.0618309
0.0617313
0.0616514
0.06158
0.061512
0.0614508
0.0614048
0.0613668
0.0613317
0.061305
0.061293
0.0612796
0.0612699
0.0612785
0.0612927
0.0613108
0.0613434
0.0613835
0.0614407
0.0614994
0.0615811
0.0616818
0.061809
0.0619628
0.0621564
0.0623885
0.062669
0.063527
0.0670421
0.0727956
0.0726379
0.0496587
0.000377749
5.30845e-12
9.75668e-15
4.18032e-18
9.64006e-13
9.08244e-10
4.80989e-08
5.7288e-07
2.82224e-06
2.05523e-07
3.31413e-05
0.00516691
0.0156082
0.0254206
0.0356831
0.0450815
0.0525801
0.0578594
0.061165
0.0631511
0.0644668
0.0652507
0.0655003
0.0653609
0.0649505
0.06432
0.0635709
0.0628815
0.0626636
0.0627515
0.062277
0.0616047
0.0628117
0.0620644
0.0619421
0.0618289
0.0617381
0.0616529
0.0615757
0.0615091
0.0614534
0.061402
0.0613653
0.0613322
0.061309
0.061289
0.0612755
0.0612721
0.0612746
0.0612845
0.0613077
0.0613352
0.0613728
0.0614266
0.0614879
0.0615643
0.0616567
0.0617661
0.0619094
0.0620796
0.0622991
0.0625511
0.062931
0.0648308
0.0694471
0.0745312
0.067034
0.0311808
2.10787e-06
2.59943e-11
1.7053e-15
2.81826e-20
1.11119e-12
9.88306e-10
5.80672e-08
8.33168e-07
5.27788e-06
2.0128e-05
9.2863e-09
0.000157798
0.0107891
0.0251289
0.0356675
0.0450704
0.0525651
0.0578468
0.061157
0.0631398
0.0644601
0.0652398
0.0654987
0.0653577
0.064965
0.0643907
0.0636751
0.0630615
0.0626392
0.0624888
0.0626276
0.0621107
0.0614353
0.062768
0.0619435
0.0618338
0.0617345
0.061653
0.0615769
0.061504
0.061448
0.0614037
0.0613623
0.0613306
0.0613036
0.0612874
0.0612721
0.0612679
0.0612649
0.061283
0.0613034
0.06133
0.0613638
0.0614096
0.0614734
0.0615433
0.0616345
0.0617429
0.0618698
0.0620221
0.0622191
0.0624575
0.0627209
0.0636045
0.0667604
0.0720308
0.0740102
0.058936
0.00883365
1.85445e-09
1.70033e-11
2.53258e-15
3.69292e-20
1.28381e-12
1.1369e-09
6.39392e-08
1.04101e-06
7.37171e-06
3.56151e-05
9.22922e-05
1.70714e-07
0.000593377
0.0188812
0.0353681
0.0450566
0.0525561
0.0578373
0.0611492
0.0631371
0.0644502
0.065237
0.0654934
0.0653569
0.0649716
0.0644051
0.0637475
0.0631272
0.062767
0.0624354
0.0623327
0.0625175
0.0619315
0.0612974
0.0627256
0.0618314
0.0617336
0.0616487
0.061575
0.0615042
0.061448
0.0614045
0.0613639
0.0613329
0.0613019
0.0612812
0.0612643
0.0612592
0.0612689
0.0612746
0.0612909
0.0613157
0.0613501
0.0614022
0.0614621
0.0615268
0.0616109
0.0617139
0.0618306
0.0619805
0.0621531
0.0623699
0.0626186
0.0630263
0.0649284
0.0691468
0.0741706
0.0700032
0.0453078
0.000283103
1.90983e-15
5.86391e-13
1.81059e-16
5.22819e-21
1.44635e-12
1.31187e-09
7.34139e-08
1.18493e-06
1.0182e-05
4.85701e-05
0.000168145
0.000276222
1.81535e-05
0.00181036
0.0285578
0.0447919
0.0525469
0.0578304
0.0611408
0.0631281
0.0644461
0.0652423
0.0654928
0.0653684
0.0649742
0.064424
0.0637793
0.0631799
0.0628172
0.0625743
0.0622429
0.0621869
0.0624146
0.0617637
0.0611818
0.0626898
0.0617302
0.0616479
0.0615708
0.0615081
0.0614483
0.0614049
0.0613636
0.0613273
0.0613045
0.0612853
0.0612652
0.0612581
0.0612604
0.0612676
0.0612917
0.061312
0.0613393
0.0613883
0.0614431
0.0615166
0.0615919
0.0616856
0.0618043
0.0619435
0.062105
0.0623006
0.0625229
0.0627911
0.0638142
0.0668731
0.0717909
0.074405
0.0631284
0.022485
7.1515e-07
1.59466e-11
5.1357e-15
4.13126e-20
1.59899e-21
1.61187e-12
1.47518e-09
8.50955e-08
1.3746e-06
1.28072e-05
6.93793e-05
0.000226265
0.000543015
0.000543303
0.000175701
0.00454017
0.0383662
0.0523346
0.057821
0.0611393
0.0631242
0.0644394
0.065235
0.0655006
0.065381
0.0649848
0.0644455
0.0637893
0.0632261
0.0628466
0.0626314
0.0623873
0.0620622
0.062057
0.0623167
0.0616146
0.0610802
0.0626725
0.0616375
0.0615758
0.0615033
0.0614463
0.0613978
0.0613573
0.0613273
0.0612987
0.0612753
0.0612702
0.0612598
0.061261
0.0612674
0.0612787
0.0613026
0.0613418
0.0613844
0.0614314
0.061494
0.0615711
0.0616711
0.0617838
0.0619079
0.0620647
0.0622409
0.0624566
0.0626876
0.0631805
0.0652584
0.0692949
0.0740363
0.0710285
0.0519199
0.0029433
1.48697e-11
9.76417e-13
2.43998e-18
2.64754e-18
3.77768e-20
1.79209e-12
1.64045e-09
9.62065e-08
1.60162e-06
1.53272e-05
8.96442e-05
0.000316384
0.000721801
0.00118889
0.000715368
0.000678019
0.00948372
0.0469256
0.0576691
0.0611337
0.0631236
0.0644439
0.0652372
0.0654951
0.0653787
0.0649928
0.0644468
0.0638011
0.0632327
0.0628797
0.0626617
0.0624509
0.0622138
0.0618927
0.0619503
0.0622205
0.0614655
0.0610143
0.0626627
0.0615646
0.0615078
0.0614462
0.0613947
0.0613556
0.0613262
0.0612979
0.0612755
0.0612657
0.0612521
0.061257
0.0612621
0.0612739
0.0612995
0.061328
0.0613709
0.0614204
0.0614845
0.0615582
0.061643
0.0617518
0.0618838
0.0620243
0.0621981
0.0623902
0.0626187
0.0629195
0.0641554
0.0672848
0.0719581
0.0742943
0.0645741
0.030871
1.0954e-05
9.2226e-12
4.79219e-18
2.23918e-18
4.16402e-20
2.73455e-22
1.97942e-12
1.81943e-09
1.07527e-07
1.82069e-06
1.82264e-05
0.000107338
0.000399225
0.000949175
0.00155998
0.00180169
0.000659373
0.00162142
0.0167175
0.0534868
0.0610266
0.0631215
0.0644399
0.0652355
0.0654973
0.0653756
0.0649969
0.0644377
0.0638198
0.0632291
0.0628903
0.0626763
0.0624869
0.0622783
0.0620511
0.0617438
0.061854
0.0621389
0.0613299
0.06096
0.0626614
0.0614926
0.0614509
0.0614009
0.0613583
0.0613251
0.0612969
0.0612755
0.0612666
0.0612555
0.0612555
0.0612585
0.0612707
0.0612965
0.0613216
0.0613624
0.0614053
0.0614681
0.0615481
0.0616274
0.0617347
0.0618527
0.0619846
0.062154
0.062343
0.0625517
0.0627741
0.0635019
0.0657977
0.0697775
0.074092
0.0709029
0.054342
0.00618642
3.03936e-10
6.00111e-14
3.69189e-16
7.00958e-20
2.27905e-20
1.2853e-19
2.16477e-12
2.00627e-09
1.19997e-07
2.06273e-06
2.11853e-05
0.000126985
0.000466804
0.00113143
0.00189091
0.00234732
0.00200379
0.00044722
0.00296495
0.025367
0.0579512
0.0630485
0.0644363
0.0652331
0.0654944
0.0653736
0.0649992
0.0644444
0.0638188
0.063249
0.0628907
0.0626871
0.0625009
0.0623198
0.0621097
0.0618967
0.0616084
0.0617703
0.0620574
0.0612022
0.0609258
0.0626789
0.0614208
0.0614
0.0613524
0.0613217
0.0612946
0.0612735
0.0612595
0.0612496
0.0612461
0.0612596
0.0612692
0.0612888
0.0613158
0.0613521
0.0614017
0.0614544
0.061536
0.0616122
0.0617132
0.0618332
0.0619651
0.0621104
0.0622923
0.0624968