/*--------------------------------*- C++ -*----------------------------------*\
| =========                 |                                                 |
| \\      /  F ield         | OpenFOAM: The Open Source CFD Toolbox           |
|  \\    /   O peration     | Version:  v2012                                 |
|   \\  /    A nd           | Website:  www.openfoam.com                      |
|    \\/     M anipulation  |                                                 |
\*---------------------------------------------------------------------------*/
FoamFile
{
    version     2.0;
    format      ascii;
    class       volScalarField;
    location    "13200";
    object      I2_4;
}
// * * * * * * * * * * * * * * * * * * * * * * * * * * * * * * * * * * * * * //

dimensions      [0 0 0 0 0 0 0];


internalField   nonuniform List<scalar> 
31383
(
580.62
831.826
5.34822
88046.3
29153
1.176e-05
165.634
270522
62898.6
2.96328e-06
15156.1
3.23283
10029
62251.2
9.87575e-07
295.609
8.89184
0.243988
71.1178
8681.65
4.02103e-07
1539.85
51.8309
0.265139
0.0253554
4.19468
993.926
1.92431e-07
650.231
417.342
3351.01
0.0200283
0.0040541
0.513162
8.66249
1.00302e-07
133020
438.944
6.02845e+07
81.2439
0.00271038
0.000832738
0.0903065
0.932521
5.48281e-08
1.63076e+09
11.0738
156.165
29.4655
0.835303
0.000502809
0.000203343
0.0198921
0.16942
3.03667e-08
1.35995e+06
16333
0.227671
0.659869
0.783568
0.0572635
0.000115807
5.62731e-05
0.00489628
0.0448993
1.54676e-08
3.64307e+06
1.29191e+06
136.698
0.0152071
0.03106
0.0702677
0.00763669
3.04948e-05
1.71689e-05
0.00127666
0.0465672
2.98854e-05
4.30074e+06
2.52234e+06
372251
6.94887
0.0017497
0.00336142
0.0106025
0.00142872
8.99628e-06
5.97501e-06
0.000376929
0.225828
1.87944e-05
5.42161e+06
1.01282e+06
1.57917e+06
1673.32
0.722219
0.000292213
0.000548154
0.00214582
0.000330359
2.89621e-06
2.03663e-06
0.000120161
0.000278393
3.66309e-09
3.20475e+07
867973
5.30481e+11
7862.78
85.9306
0.114537
6.12523e-05
0.000114502
0.000537829
8.94269e-05
1.00405e-06
8.20732e-07
4.07744e-05
1.07751e-05
3.82674e-06
4.54258e+08
1.24647e+07
3.4629e+07
157429
506.725
9.7578
0.0233646
1.50892e-05
2.81763e-05
0.000144874
2.76254e-05
3.80608e-07
3.36028e-07
1.57308e-05
7.34653e-07
5.95957e-05
1.07737e+10
9.22843e+10
2.94448e+09
3.66153e+06
4848.87
64.8284
1.64219
0.00565449
4.17634e-06
7.67337e-06
4.5321e-05
9.30127e-06
1.58097e-07
1.55314e-07
5.67692e-06
1.37301e-07
4.48807e-06
4.75591e+07
2.47383e+06
4.24341e+06
312925
28692.8
468.36
12.0956
0.351254
0.00154528
1.26552e-06
2.32313e-06
1.50783e-05
3.40927e-06
7.13566e-08
7.75009e-08
2.10244e-06
3.48434e-08
2.74832e-06
1.23256e+07
238453
85762
62604.4
10664.2
1861.88
73.6391
2.79892
0.0886535
0.000473738
4.20268e-07
7.90678e-07
5.56101e-06
1.38785e-06
3.48145e-08
4.10535e-08
8.28548e-07
1.13036e-08
4.30871e-05
2.32398e+07
78260.3
17352.7
6779.88
4282.51
1018.13
240.307
15.3964
0.737842
0.0257918
0.000153781
1.51739e-07
3.0184e-07
2.29252e-06
6.347e-07
1.81995e-08
2.37777e-08
3.839e-07
4.68649e-09
4.17997e-05
1.08003e+07
54579.3
6385.49
1847.78
921.909
541.969
155.53
43.458
3.68531
0.216069
0.00769212
5.36721e-05
5.95056e-08
1.26993e-07
1.06103e-06
3.16184e-07
1.03529e-08
1.42246e-08
1.97269e-07
0.00536558
4.3048e-05
113089
10967.9
3487.91
742.318
302.676
170.223
97.6526
31.4363
9.75383
0.95228
0.0651785
0.00248312
2.05614e-05
2.51605e-08
5.68923e-08
5.32523e-07
1.68387e-07
6.15669e-09
9.05417e-09
1.11193e-07
0.00293333
4.18627e-06
9.49155
16503.3
857.917
400.461
126.843
62.8568
38.144
21.665
7.45962
2.47724
0.292661
0.0218892
0.000902006
8.68787e-06
1.17362e-08
2.83788e-08
2.78797e-07
9.65542e-08
3.87989e-09
6.01782e-09
6.80757e-08
7.45604e-10
3.65157e-06
0.0125364
0.548297
2.40179e+07
103.422
62.8448
27.0426
15.3295
9.84008
5.46854
2.01071
0.700071
0.0972395
0.00812353
0.000367021
4.05246e-06
5.89558e-09
1.50318e-08
1.58958e-07
5.87673e-08
2.56416e-09
4.17142e-09
4.36839e-08
4.6692e-10
0.000396654
5.02732e-11
0.000693913
0.407337
1402.85
15.8087
12.5426
6.70595
4.18611
2.7872
1.54157
0.6128
0.215902
0.0352536
0.00325978
0.000164287
2.03822e-06
3.1777e-09
8.57281e-09
9.63824e-08
3.77617e-08
1.76796e-09
2.99408e-09
2.94634e-08
0.000128364
0.000869512
1.04483e-05
2.7735e-12
0.000347873
0.441893
35.5887
3.16703
2.98647
1.86178
1.25083
0.831159
0.468071
0.194578
0.0734397
0.0138962
0.00144658
8.04758e-05
1.09076e-06
1.82841e-09
5.20865e-09
6.17307e-08
2.54962e-08
1.26591e-09
2.21936e-09
2.08311e-08
8.92157e-05
0.0004935
0.00107935
5.67526e-07
1.37576e-12
0.000247512
0.947378
3.10298
0.746716
0.800576
0.558347
0.397755
0.263279
0.151018
0.0669182
0.0278862
0.00603167
0.000693048
4.22036e-05
6.23996e-07
1.11385e-09
3.34146e-09
4.1472e-08
1.79326e-08
1.29136
1.63339e-09
1.5444e-08
1.60557e-10
0.00319615
1.66054
5.66397e-05
3.02106e-07
9.11532e-13
0.000232045
7.26471
0.45296
0.198894
0.232257
0.178269
0.134383
0.0932775
0.0535761
0.0256228
0.0117328
0.00286133
0.000357829
2.35455e-05
3.78239e-07
7.16373e-10
2.25035e-09
2.90714e-08
1.31093e-08
0.983093
1.26731e-09
1.15834e-08
1.32992e-05
0.280887
7.86347
0.0871304
3.6246e-05
2.25905e-07
8.39094e-13
0.0002716
1.47121e+06
0.0885233
0.0582448
0.0723487
0.058614
0.0471379
0.0350704
0.0209889
0.0108991
0.00541001
0.00144257
0.000198449
1.40679e-05
2.41131e-07
4.84494e-10
1.57921e-09
2.11976e-08
1.01913e-08
5.57681e-10
1.00099e-09
8.81897e-09
1.03036e-05
0.109218
5.23505
0.405204
0.0615012
3.66478e-05
2.37631e-07
9.49515e-13
0.000450443
1.17717
0.0208274
0.0182377
0.0240801
0.0207155
0.01779
0.014086
0.00905053
0.00503715
0.00269621
0.000791365
0.000117564
8.8615e-06
1.61482e-07
3.41246e-10
1.14881e-09
1.5924e-08
7.87413e-09
4.42513e-10
8.00933e-10
6.86948e-09
3.43802e-06
0.00250315
8.32371
0.257644
0.197959
0.0712486
5.76923e-05
3.45698e-07
1.32266e-12
0.00154556
0.0377674
0.00553364
0.0061331
0.00848048
0.00800092
0.00723137
0.00619405
0.00421452
0.00253138
0.00145244
0.000463331
7.37748e-05
5.86162e-06
1.13109e-07
2.48505e-10
8.63313e-10
1.22677e-08
6.21315e-09
3.56532e-10
6.49347e-10
5.33584e-09
3.55947e-05
0.000365324
26.9994
0.386493
0.108209
0.134242
0.137982
0.00016627
6.05866e-07
2.44913e-12
0.0539049
0.00365704
0.0016065
0.0021043
0.0031143
0.00326982
0.00319973
0.00293373
0.00212391
0.00137802
0.000841243
0.000287839
4.86065e-05
4.05485e-06
8.21999e-08
1.86776e-10
6.65235e-10
9.65767e-09
4.98002e-09
2.90647e-10
5.29802e-10
4.20925e-09
1.86358e-05
5.72027e-05
17.296
1.24659
0.153941
0.0590497
0.120591
0.486938
0.000831337
1.47301e-06
1.23553e-11
0.0283326
0.000564468
0.000508781
0.000788633
0.00124398
0.00144232
0.0015135
0.00148638
0.00115617
0.000800869
0.000515877
0.000189106
3.3455e-05
2.91849e-06
6.14747e-08
1.44004e-10
5.2336e-10
0.268262
3.92092e-09
2.3998e-10
4.35747e-10
3.32708e-09
9.81734e-06
1.15019e-05
1.98215
0.899587
0.479256
0.0784092
0.0397734
0.127419
16.0602
0.23534
2.43801e-05
2.57393e-08
0.000150583
0.000118833
0.000178906
0.000320535
0.000550019
0.000688832
0.000778709
0.000816012
0.000673123
0.000491717
0.000335009
0.000129633
2.39949e-05
2.17484e-06
4.72463e-08
1.1356e-10
4.19753e-10
0.218429
3.22867e-09
2.00012e-10
3.59622e-10
0.000230611
5.33086e-06
9.15785e-07
3.69898
0.0764168
0.367066
0.226951
0.0489926
0.0311138
0.17581
5.79966
0.000507013
8.04972e-05
7.4299e-12
1.0127e-05
3.01887e-05
6.84781e-05
0.000143088
0.000260873
0.000352749
0.000429791
0.000477226
0.00041577
0.000319141
0.000228243
9.25132e-05
1.77472e-05
1.66215e-06
3.71748e-08
9.10914e-11
3.70144e-10
5.20314e-09
2.68979e-09
1.67827e-10
2.98028e-10
0.000179213
1.39685e-05
2.64665e-07
6.65185
0.134344
0.0315964
0.193181
0.12872
0.0351435
0.0267816
0.426459
0.0371915
8.92142e-06
1.97929e-07
1.70902e-13
1.34419e-06
9.29448e-06
2.86516e-05
6.7684e-05
0.000131336
0.000193005
0.000251569
0.000296266
0.000270149
0.000216141
0.000161696
6.80943e-05
1.3562e-05
1.29994e-06
2.98005e-08
7.408e-11
3.05028e-10
4.33434e-09
2.2618e-09
1.41728e-10
2.55455e-10
1.62398e-09
2.68361e-05
5.44406e-07
1.71857
0.238399
0.0491719
0.0162285
0.118577
0.0865371
0.0292015
0.0232971
3.7596
0.00224068
6.67011e-07
1.01517e-08
1.60387e-14
2.80555e-07
3.3376e-06
1.2962e-05
3.45086e-05
7.1418e-05
0.000113233
0.000155245
0.000192316
0.000183242
0.000153221
0.000118719
5.17947e-05
1.06011e-05
1.03576e-06
2.42011e-08
6.11225e-11
2.54555e-10
3.64645e-09
1.91633e-09
1.20281e-10
0.000446709
1.2637e-09
1.52167e-05
6.5872e-07
1807.68
0.0629827
0.0860456
0.0220137
0.00986692
0.0813467
0.0715997
0.0299911
0.0246164
10372.1
0.000281268
9.14676e-08
1.29735e-09
2.81809e-15
8.01722e-08
1.36647e-06
6.44828e-06
1.87992e-05
4.15695e-05
6.9722e-05
0.000101475
0.000131484
0.000130176
0.000112651
8.96342e-05
4.03345e-05
8.4132e-06
8.40898e-07
1.99244e-08
5.10518e-11
2.14105e-10
3.0925e-09
1.63244e-09
1.02431e-10
0.000369338
1.44124e-05
8.63972e-06
4.74926e-07
1595.48
77.7323
0.0241072
0.0359372
0.0109429
0.00743003
0.0678954
0.0845489
0.0319761
0.0387135
0.376828
4.82496e-05
1.82288e-08
2.60975e-10
7.15623e-16
2.81681e-08
6.21569e-07
3.47645e-06
1.08829e-05
2.55174e-05
4.54253e-05
6.95041e-05
9.32965e-05
9.54827e-05
8.50655e-05
6.95264e-05
3.19965e-05
6.81856e-06
6.89779e-07
1.6614e-08
4.29667e-11
1.82e-10
2.64368e-09
1.40049e-09
9.18363e-11
1.44215e-10
1.08971e-05
1.15203e-05
7.12419e-07
0.00106999
7.753
24.7039
0.0110937
0.0167408
0.00630853
0.00717734
0.0651609
0.162903
0.0398508
0.119004
0.013332
1.06394e-05
4.53354e-09
7.09168e-11
2.34777e-16
1.15522e-08
3.13439e-07
1.99903e-06
6.72906e-06
1.64926e-05
3.09055e-05
4.92017e-05
6.82846e-05
7.23494e-05
6.61736e-05
5.50649e-05
2.5851e-05
5.59404e-06
5.73668e-07
1.39768e-08
3.65204e-11
0.00986152
2.19431e-09
1.20491e-09
7.84043e-11
1.21706e-10
3.37488e-06
2.55915e-05
1.59868e-06
47.2386
0.00671856
0.404804
10.0587
0.00581545
0.00916679
0.00446708
0.00842068
0.0877876
0.351657
0.0452064
1.89167
0.00144811
3.02326e-06
1.42757e-09
2.40364e-11
9.18871e-17
5.4703e-09
1.74446e-07
1.22517e-06
4.35837e-06
1.12016e-05
2.18466e-05
3.60593e-05
5.16544e-05
5.61232e-05
5.22993e-05
4.43403e-05
2.11496e-05
4.64616e-06
4.82412e-07
1.18803e-08
3.13202e-11
0.00848827
1.89714e-09
1.04069e-09
6.69013e-11
9.87296e-11
2.43493e-06
1.56581e-05
1.09383e-05
152.514
59.0538
0.0019518
0.0391474
4.66721
0.00364118
0.00599253
0.00441198
0.0154924
0.518001
0.509669
0.0713212
51.0026
0.000267363
9.98393e-07
5.33992e-10
9.68176e-12
4.23604e-17
2.83407e-09
1.03214e-07
7.85571e-07
2.94638e-06
7.91148e-06
1.59966e-05
2.72687e-05
4.00367e-05
4.43544e-05
4.21177e-05
3.62509e-05
1.75354e-05
3.90233e-06
4.08554e-07
1.01635e-08
3.08752e-11
1.16818e-10
1.6472e-09
9.00523e-10
5.69531e-11
8.16803e-11
7.23356e-07
8.51441e-06
6.38542e-05
273.18
29.7139
1615.26
0.000858378
0.00599821
2.4862
0.00276946
0.00536745
0.00607308
0.0534215
10.8292
0.370647
0.303415
0.0629789
6.90171e-05
3.76741e-07
2.29443e-10
4.50777e-12
2.13486e-17
1.60305e-09
6.46505e-08
5.29342e-07
2.08236e-06
5.78003e-06
1.20876e-05
2.11929e-05
3.17937e-05
3.56346e-05
3.43734e-05
3.00125e-05
1.47374e-05
3.29994e-06
3.4911e-07
8.76772e-09
0.00441376
9.34679e-11
1.43476e-09
0.000221402
5.91435e-05
9.35623e-06
6.19131e-06
5.30697e-06
0.00270091
3212.89
1.64025e+06
1.29217
3.54003
0.00105644
0.00121069
1.54645
0.00303817
0.00713048
0.0168225
0.225086
178.827
0.541804
29.9821
0.00437371
2.27412e-05
1.64481e-07
1.10856e-10
2.33293e-12
1.19911e-17
9.87789e-10
4.30341e-08
3.72848e-07
60.7239
4.20339e-06
9.38603e-06
1.67678e-05
2.54949e-05
2.92304e-05
2.84331e-05
2.51039e-05
1.24822e-05
2.82773e-06
3.00981e-07
7.61188e-09
0.00384678
8.17069e-11
1.25298e-09
0.000191696
4.99215e-05
7.3059e-06
2.6766e-06
2.98385e-06
0.015775
294.064
1190.44
585411
0.0787983
0.0195556
1.39486
0.000299378
1.10754
0.0060418
0.0167617
0.0652407
0.979841
94.6561
3.26109
2.12412
0.000753306
8.97471e-06
8.14435e-08
5.83386e-11
1.31047e-12
7.30448e-18
6.38298e-10
2.99825e-08
2.71957e-07
46.0239
3.24779e-06
7.41845e-06
1.34815e-05
2.08411e-05
2.4094e-05
2.37848e-05
2.12614e-05
1.06479e-05
2.43614e-06
2.60835e-07
6.89143e-09
2.06263e-11
7.17108e-11
1.13421e-09
6.03759e-10
3.41104e-11
3.99968e-11
1.13444e-06
5.68588e-07
0.0130753
1.10948
108.541
124.52
0.744333
0.00652385
0.000873211
1.26142e-05
8.89146e-05
0.945522
0.0167863
0.0859677
0.234362
6.06858e+08
63.5363
5116.05
0.0352421
0.000211005
4.0537e-06
4.38191e-08
3.36209e-11
7.84707e-13
4.73501e-18
4.36954e-10
2.16816e-08
2.22136e-07
8.94528e-07
2.5645e-06
5.9589e-06
1.09801e-05
1.72723e-05
2.02119e-05
2.01141e-05
1.81075e-05
9.15299e-06
2.10845e-06
2.27419e-07
6.0362e-09
1.811e-11
6.29989e-11
9.91989e-10
5.20744e-10
2.8277e-11
1.14556e-06
2.20621e-06
5.8543e-07
0.00658516
0.0531735
0.264026
15.8803
18.8029
0.0602068
0.000866489
0.000106518
6.20576e-08
3.26787e-05
1.17216
0.0589922
0.595325
0.551935
7.4333e+09
91.4606
2.598
0.00414272
7.58517e-05
2.07446e-06
2.53444e-08
2.06452e-11
5.10365e-13
3.19722e-18
3.11788e-10
1.61372e-08
1.7225e-07
7.03695e-07
2.06628e-06
1.69987
8.90827e-06
1.44819e-05
1.70865e-05
1.71775e-05
1.55501e-05
7.93885e-06
1.83834e-06
1.99021e-07
5.31245e-09
1.59586e-11
5.54886e-11
6.69189e-05
4.32272e-10
4.95113e-06
8.46784e-07
1.06158e-06
7.38892e-06
0.000977202
0.154992
0.00599553
0.0263027
4.87463
3.99621
0.00595012
0.000181066
2.25401e-05
1.87601e-09
1.61816e-05
1.3085
0.330893
8.29057e+07
1.61267
228.233
192.618
0.0787193
0.000981267
3.29915e-05
1.14678e-06
1.58213e-08
1.34014e-11
3.44902e-13
2.25271e-18
2.30886e-10
1.23742e-08
1.35981e-07
5.66792e-07
1.67884e-06
1.4036
7.43259e-06
1.21993e-05
1.45498e-05
1.47589e-05
1.34747e-05
6.93094e-06
1.61278e-06
1.75284e-07
4.68635e-09
1.41127e-11
4.88873e-11
5.83974e-05
1.18321e-05
4.00317e-06
2.57052e-07
3.87512e-07
2.31103e-05
0.000184765
0.00026035
0.00841416
0.00134406
0.00479902
3.99102
1.42812
0.000851472
5.73954e-05
7.15557e-06
3.64046e-10
1.15251e-05
1.70005
2.20005e+08
9.692e+07
8.39733
1.05122e+09
0.588615
0.0106594
0.000335713
1.64205e-05
6.87445e-07
1.02341e-08
9.23691e-12
2.45565e-13
1.66538e-18
1.75819e-10
9.72604e-09
1.08558e-07
4.60906e-07
1.43617e-06
3.36605e-06
6.30064e-06
1.04017e-05
1.25251e-05
1.27673e-05
0.0131806
6.01148e-06
1.41771e-06
0.00099171
0.000381888
1.08423e-11
5.78723e-05
6.37185e-10
1.00257e-05
1.33196e-06
2.30372e-06
5.69943e-07
1.37848e-05
0.000159128
1.15568e-10
1.09155e-05
0.00244322
0.000690048
0.00131289
1.3359e+08
1.25814
0.000209989
166.301
3.77765e-06
2.16101e-10
1.28249e-05
1.91713
1.66922e+08
9.21223
2347.26
3.17976
0.0510593
0.00264919
0.000144622
9.09225e-06
4.43915e-07
7.09353e-09
6.61414e-12
1.8144e-13
1.27248e-18
1.37543e-10
7.78035e-09
8.88176e-08
3.81546e-07
1.20017e-06
2.84006e-06
5.37045e-06
8.9615e-06
1.08315e-05
1.11337e-05
0.0115683
0.00343022
1.2377e-06
0.000878319
0.000338278
9.59529e-12
5.08916e-05
5.71807e-10
2.70843e-10
1.04075e-06
1.00094e-06
2.64652e-07
6.81214e-07
0.000459492
3.89256e-07
5.41248e-12
3.66605e-06
0.00111553
0.000944701
0.000377761
4.2917e+08
5.67448
9.05841e-05
104.147
3.49307e-06
2.09852e-10
2.47439e-05
2.41655
0.8248
14472.9
1.26185e+08
0.173764
0.0109513
0.000926999
7.0829e-05
5.59397e-06
2.99801e-07
5.06968e-09
4.91241e-12
1.37849e-13
9.92055e-19
1.09493e-10
6.3082e-09
7.33734e-08
3.18171e-07
1.0129e-06
2.42563e-06
4.61283e-06
7.7541e-06
0.0183126
9.73266e-06
9.06496e-06
0.0030253
1.10923e-06
1.23697e-07
3.14211e-09
4.84292e-05
3.32991e-11
6.67065e-06
1.89621e-06
3.337e-07
1.96438e-06
6.27003e-07
2.77887e-08
0.000953138
1.19854e-06
2.01565e-08
1.77274e-12
1.37485e-06
0.000529877
0.000314913
0.0001699
0.197081
40915.3
6.2633e-05
1.59401e-05
5.61864e-06
1.93837e-10
0.000110905
5.02575
7.50501
9.17613
2.92707e+06
0.033062
0.00353535
0.000400562
3.96538e-05
3.59981e-06
2.12961e-07
3.75379e-09
3.74874e-12
1.06897e-13
7.85009e-19
8.84734e-11
5.20324e-09
6.09436e-08
2.69261e-07
8.62768e-07
2.07427e-06
4.00408e-06
6.73375e-06
0.0160971
8.56385e-06
8.07835e-06
4.14416e-06
9.84974e-07
1.10094e-07
2.79424e-09
4.28335e-05
2.91638e-11
5.71266e-06
1.55025e-06
2.49976e-07
2.7287e-06
1.17848e-06
4.95987e-11
0.0023147
6.21858e-10
6.09391e-08
6.34999e-09
7.32873e-13
8.13426e-07
0.00033365
0.000300738
0.000153863
0.0116967
22.043
6.93528e-05
66.4682
3.18135e-05
1.30355e-10
0.00464926
18.3464
12306.4
0.326842
0.0470422
0.00860322
0.00141304
0.000202251
2.43949e-05
2.47657e-06
1.57194e-07
2.87741e-09
2.92014e-12
8.56389e-14
6.37302e-19
7.26622e-11
4.34564e-09
5.14913e-08
2.27862e-07
7.40758e-07
1.79738e-06
3.47721e-06
5.98438e-06
7.28406e-06
7.59159e-06
7.16384e-06
3.69302e-06
0.000285028
9.61407e-08
2.57399e-09
7.64231e-12
5.94249e-06
3.57376e-10
5.26223e-07
7.67179e-08
1.10846e-06
1.11127e-06
6.7735e-09
0.00477002
2.01338e+06
5.57947e-10
1.99262e-08
2.63066e-09
3.90835e-13
6.13047e-07
0.000320968
0.000405203
0.000181732
0.00308452
16.6908
0.000181965
448.169
0.0269573
6.84543e-11
0.00876853
561.72
1.66406
0.0543398
0.0130674
0.00314169
0.000669441
0.000116525
1.60106e-05
1.79764e-06
1.19378e-07
2.2516e-09
2.34794e-12
6.9112e-14
5.25589e-19
6.07278e-11
3.66567e-09
4.38921e-08
1.96058e-07
6.39393e-07
1.56255e-06
3.05145e-06
5.27033e-06
6.43619e-06
0.00177947
6.31345e-06
3.28694e-06
0.000254406
8.55413e-08
2.28314e-09
6.72654e-12
5.14537e-06
1.11044e-06
4.151e-07
3.2504e-06
1.05997e-06
1.64628e-06
3.24556e-09
0.00995178
3.08934e-06
95915.9
1.90873e-10
8.55097e-09
1.38643e-09
2.48846e-13
5.86003e-07
0.000736405
0.000330865
0.000179669
0.00232506
7.30166
0.00261906
1.66244
7.26263e-05
3.03474e-11
6.02535e-05
4096.65
0.116175
0.0152738
0.00483785
0.00142656
0.000361957
7.30785e-05
1.10988e-05
1.33466e-06
9.26157e-08
1.7926e-09
1.88993e-12
5.65667e-14
4.34266e-19
5.09851e-11
3.1238e-09
3.77311e-08
1.69271e-07
5.57315e-07
1.37122e-06
2.68446e-06
0.00398856
5.64258e-06
0.00157206
5.6319e-06
2.96522e-06
6.98771e-07
7.61108e-08
1.37428e-05
5.08098e-06
1.88944e-11
9.20176e-07
1.36655e-07
1.63278e-06
9.61212e-07
3.10637e-06
3.5562e-09
0.0594637
1.27074e-07
9.44913e-08
2.53677e-08
8.42495e-11
4.536e-09
8.66646e-10
5.99472e-11
7.5362e-07
0.0136149
0.000720408
0.000172078
0.00247647
0.0068312
0.0456661
0.000321485
2.25642e-06
1.29279e-11
6.29339e-06
14.5323
0.0206645
0.00577352
0.00219101
0.000738023
0.000215676
4.88647e-05
8.01606e-06
1.0256e-06
7.31192e-08
1.45746e-09
1.56661e-12
4.71884e-14
3.6377e-19
4.32498e-11
2.68166e-09
3.2572e-08
1.47545e-07
4.8689e-07
1.20545e-06
2.37368e-06
0.00353487
5.09686e-06
5.33559e-06
5.03352e-06
2.64929e-06
6.23279e-07
2.21742e-05
1.2127e-05
4.4282e-06
1.01802e-06
3.18302e-07
1.28724e-06
5.83802e-07
7.55038e-07
5.49104e-06
3.76997e-10
0.43558
7.54709e-07
6.2796e-09
3.256e-08
1.13067e-08
4.4626e-11
2.80645e-09
8.56391e-11
1.32288e-13
1.18092e-06
0.253374
0.000614054
0.000116752
0.0343685
0.000334786
0.000171848
1.02532e-05
3.00006e-07
5.367e-12
1.52235e-06
1.0342
0.00628013
0.00266746
0.00112881
0.000424476
0.000139351
3.46314e-05
6.08007e-06
7.98686e-07
5.97828e-08
1.20033e-09
1.3059e-12
3.95495e-14
3.10718e-19
3.69436e-11
2.31461e-09
2.83231e-08
1.28528e-07
4.27624e-07
1.06424e-06
2.1475e-06
3.69016e-06
4.54256e-06
4.77466e-06
4.50709e-06
2.36812e-06
5.55651e-07
1.96781e-05
1.57114e-09
4.45482e-12
8.55869e-07
3.17545e-06
6.14947e-07
1.85672e-06
3.83161e-07
5.06566e-06
2.97271e-09
2.64896
2.45053e-05
3.6907e-08
2.16121e-09
1.46888e-08
6.10112e-09
2.9002e-11
1.01162e-09
1.6067e-09
6.51731e-13
1.52905e-06
0.0101757
0.000242509
5.77375e-05
0.856864
4.21227e-05
1.31433e-05
1.92006e-06
7.17493e-08
2.27625e-12
5.7863e-07
0.179692
0.00247316
0.00139414
0.00066178
0.000268388
9.61944e-05
2.54035e-05
4.68356e-06
6.37873e-07
4.86315e-08
9.9419e-10
1.09534e-12
3.36473e-14
2.66655e-19
3.20785e-11
2.0108e-09
2.47468e-08
1.13297e-07
0.00528153
9.19389e-07
1.90846e-06
3.28876e-06
4.06265e-06
4.27786e-06
4.03557e-06
5.80136e-05
2.22156e-05
5.30519e-08
2.56977e-06
8.88819e-07
2.98004e-07
1.61546e-06
1.31603e-06
8.05424e-07
1.96378e-07
1.99208e-06
2.56224e-07
6.75362
0.496758
1.2389e-06
1.27918e-08
9.67905e-10
7.87219e-09
2254.33
1.23657e-12
2.53884e-09
3.09183e-10
17336.7
2.0264e-07
0.00400932
3.38892e-05
2.6098e-05
0.00116381
1.06305e-05
2.72779e-06
6.67243e-07
2.93948e-08
6.11781e-12
2.80078e-07
0.0520894
0.001196
0.000817151
0.00041713
0.000178498
6.83546e-05
1.91784e-05
3.64746e-06
5.1749e-07
4.04913e-08
8.37797e-10
9.33313e-13
2.891e-14
2.28927e-19
2.78549e-11
1.76413e-09
2.18153e-08
1.0035e-07
0.0046851
8.18567e-07
0.000871015
2.89613e-06
3.64551e-06
3.83795e-06
7.82682e-05
5.17063e-05
1.97478e-05
4.56139e-06
2.22831e-06
9.74496e-06
3.12916e-06
8.05814e-07
1.93658e-06
6.00303e-07
3.40835e-07
3.73992e-08
3.90048e-06
12.9636
1.75858e+06
0.02216
4.20135e-07
5.74308e-09
5.12208e-10
4.52402e-09
1443.12
6.81829e-13
9.49054e-10
2.51204e-10
16050.7
524157
0.00959476
5.77603e-06
9.93255e-06
0.000112302
3.5563e-06
8.60914e-07
3.74704e-07
0.00296613
0.0791171
1.6332e-07
0.0203017
0.000639066
0.000514409
0.000278749
0.000125886
5.12942e-05
1.48356e-05
2.9551e-06
4.30387e-07
3.39592e-08
7.16868e-10
8.00386e-13
2.50158e-14
1.99823e-19
2.44459e-11
1.55547e-09
1.93133e-08
9.36145e-08
2.98357e-07
7.31409e-07
0.000778741
2.59908e-06
3.27518e-06
3.44803e-06
7.02733e-05
1.68705e-06
3.89432e-07
3.99949e-06
8.23049e-07
4.0976e-07
1.62462e-06
3.92545e-07
7.96413e-07
8.63359e-07
1.04032e-06
8.22654e-10
3.70143e-07
19.9212
8.91532e+12
26134.8
0.00650013
1.86988e-07
3.08007e-09
3.03035e-10
4.65126e-09
1.70395e-09
4.63457e-13
7.54473e-10
5.98492e-11
9.99948e-12
685898
11.3029
2.04717e-06
3.41458e-06
1.88727e-05
0.0788273
5.51855e-07
2.92459e-07
0.00182278
0.0460257
1.1001e-07
0.00966918
0.000388084
0.000342501
0.00019744
9.30667e-05
3.94672e-05
1.18271e-05
2.4052e-06
3.62148e-07
2.89488e-08
6.15143e-10
6.87964e-13
2.1702e-14
1.75235e-19
2.14651e-11
1.37325e-09
1.7118e-08
8.3257e-08
2.6657e-07
6.70802e-07
1.36821e-06
2.33428e-06
9.99909e-05
5.70303e-05
2.89345e-06
1.49707e-06
5.39514e-06
1.61227e-06
7.03909e-07
1.42225e-07
8.27279e-07
8.50115e-07
7.32757e-07
3.94854e-07
2.10178e-06
1.56095e-09
3.12401e-06
25.8405
2.04337e+14
1.55774e+10
1795.99
0.00244265
9.45518e-08
1.76901e-09
1.91984e-10
3.14183e-09
1.19663e-09
3.66526e-13
6.6574e-10
1.41984e-11
5.73329e-12
3.92878e-08
0.00275314
9.54685e-07
80.1381
5.45367e-06
0.0517539
4.30252e-07
2.3352e-07
6.53787e-09
2.93316e-13
8.4277e-08
0.00533688
0.000254091
0.000241085
0.000143459
7.08319e-05
3.07455e-05
9.58866e-06
2.00665e-06
3.0424e-07
2.47151e-08
5.31042e-10
6.00382e-13
1.89805e-14
1.53804e-19
1.89368e-11
1.21678e-09
1.52304e-08
7.43064e-08
2.38983e-07
6.02314e-07
1.23026e-06
2.09862e-06
8.97929e-05
5.11264e-05
2.58095e-06
1.01598e-05
4.70101e-06
1.39325e-06
2.56536e-07
1.48796e-06
4.12536e-07
1.26991e-06
6.20973e-07
2.05525e-07
3.42151e-06
2.98464e-09
6.93958e-06
72.9317
6.65685e+14
6.06732e+13
6.91923e+08
208.245
0.00108523
5.90902e-08
1.13051e-09
1.30034e-10
2.28725e-09
9.3978e-10
3.25317e-13
4.72176e-10
1.58246e-10
3.44436e-11
4.0656e-08
0.000481733
3.3989e-07
27.6019
2.64126e-06
9.48709e-07
0.0692506
2.10127e-07
5.18101e-09
2.10841e-13
9.6973e-05
0.00320552
0.000172513
0.000175645
0.000109028
5.5272e-05
2.46783e-05
7.89239e-06
1.6748e-06
2.59859e-07
2.14244e-08
4.63578e-10
5.25055e-13
1.66992e-14
1.35826e-19
1.67909e-11
1.08242e-09
0.00119524
6.30143e-08
2.14842e-07
5.4073e-07
1.10945e-06
6.70113e-05
2.36991e-06
2.48239e-06
1.46048e-05
8.9462e-06
2.64828e-07
5.81524e-07
2.55149e-06
7.69087e-07
9.391e-07
1.22605e-06
4.52564e-07
7.92522e-08
1.16091e-06
1.64414e-06
0.0114139
103.086
9.03696e+15
2.44077e+12
1.08758e+14
2.03136e+07
33.1666
0.00048485
3.58502e-08
7.62794e-10
9.40761e-11
1.77259e-09
8.32916e-10
3.36312e-13
9.41696e-10
518.102
1.53137e-12
4.51492e-08
0.000169729
248.676
1.75778e-07
1.66384e-06
8.02816e-07
0.0588146
2.14902e-07
0.000176581
2.73931e-13
8.87939e-05
0.00205671
0.000123967
0.000130433
8.52353e-05
4.41984e-05
2.02153e-05
6.58249e-06
1.43386e-06
0.104275
2.18906e-08
4.05344e-10
4.59493e-13
1.4745e-14
0.00465794
7.82518e-12
9.70538e-10
0.00107108
5.64605e-08
1.92693e-07
0.000114752
9.76639e-07
6.01694e-05
2.12943e-06
1.62783e-05
1.3024e-05
4.69065e-06
1.4547e-06
4.54725e-06
1.36102e-06
1.82797e-06
1.48554e-06
1.05063e-06
5.48224e-07
4.59271e-07
2.81017e-10
0.000173972
0.0581374
87.2637
1.23919e+17
2.32548e+17
3.50671e+11
7.61479e+18
1.28389e+06
7.37065
0.000247046
2.37946e-08
5.42503e-10
7.23981e-11
1.53102e-09
6.17794e-10
3.09472e-13
7.86044e-10
621.34
1.72681e-16
7.31274e-08
5.87666e-05
131.86
8.92615e-08
1.08801e-06
7.97762e-07
2.48048e-07
1.97235e-07
0.000175311
0.00179464
6.43339e-08
0.00135779
9.31135e-05
0.000100874
6.70474e-05
3.58163e-05
1.6765e-05
5.5509e-06
1.23074e-06
0.0904414
1.91723e-08
3.55713e-10
4.0694e-13
1.3145e-14
0.0041449
6.98599e-12
0.000749123
1.00126e-08
5.07444e-08
1.73334e-07
0.000103398
4.16794e-05
1.52199e-06
1.7307e-05
1.44968e-05
7.085e-06
4.05575e-06
8.2065e-06
2.93024e-07
7.14846e-07
1.04484e-06
6.46905e-07
4.14332e-07
2.89677e-07
1.97474e-06
1.51809e-06
0.021677
0.0147762
65.6778
8.84003e+14
3.93382e+15
6.31899e+14
9.23849e+10
1.07389e+13
157496
1.83187
0.000130229
1.69719e-08
4.23741e-10
6.17674e-11
1.40015e-09
7.72483e-10
3.4439e-13
3.72418e-10
1.4938e-10
1.34325e-13
5.11496e-08
88835.9
6.13806e-08
5.25957e-08
0.0189254
7.97278e-07
2.17704e-07
2.01548e-07
4.83003e-09
0.00153656
6.60357e-08
0.000973467
7.0876e-05
8.00377e-05
5.39721e-05
2.93557e-05
1.40351e-05
4.7306e-06
9.9535e-07
1.68637e-07
0.0182771
4.6358e-10
3.61625e-13
0
0
6.25773e-12
0.000670578
9.02768e-09
0.000127345
1.56066e-07
3.95705e-07
3.73691e-05
1.36703e-06
1.54756e-05
1.74888e-06
6.22072e-06
2.31735e-06
4.82149e-06
1.29896e-07
1.67905e-06
4.31481e-07
6.16242e-07
3.0424e-07
6.59633e-08
3.90315e-06
5.15721e-06
1.29752
0.0246009
47.7498
2.77684e+14
6.40132e+12
8.00562e+22
7.19208e+12
3.27558e+10
2.81252e+11
25942.6
0.554715
7.04554e-05
1.25454e-08
3.51033e-10
5.70986e-11
1.43197e-09
8.59425e-10
4.40083e-13
7.10549e-10
1.15655e-10
8.89608e-13
7.18847e-08
31738.8
4.26096e-08
3.40153e-08
0.0153496
8.10752e-07
2.24114e-07
2.20136e-07
5.99957e-05
3.99482e-13
7.06121e-08
0.000692381
5.5918e-05
6.36748e-05
4.45488e-05
2.46501e-05
1.19719e-05
4.10432e-06
8.70119e-07
1.47805e-07
0.01617
4.1049e-10
3.22489e-13
0
1.98492e-36
1.04248e-11
8.44579e-10
8.10616e-09
0.000114838
4.24787e-05
3.56206e-07
7.25866e-07
1.15457e-05
1.51312e-06
5.50915e-06
3.66038e-06
8.73268e-06
2.82533e-06
3.11891e-06
9.70811e-07
6.57489e-07
5.27904e-07
3.74187e-07
1.25416e-07
5.58632e-07
4.22133e-09
4.82291
0.0848147
34.2788
4.18085e+13
2.64669e+15
1.99506e+12
4.47442e+14
2.58484e+11
1.51672e+10
2.10621e+10
5582.65
0.187501
4.30929e-05
1.09669e-08
3.25287e-10
5.79766e-11
1.58411e-09
9.29085e-10
5.40086e-13
7.89466e-10
1.52063e-10
1.64396e-14
2.55717e-07
3.54905e-06
3.2406e-08
2.18376e-08
5.93895e-07
8.48765e-07
2.57927e-07
2.50391e-07
7.21696e-05
0.000316363
7.88644e-08
0.000520167
4.51049e-05
5.2349e-05
3.73153e-05
2.09374e-05
1.0306e-05
3.5583e-06
7.62137e-07
1.18421e-07
1.31822e-08
3.66994e-10
2.88554e-13
2.24852e-36
0
0.000275032
6.32043e-10
7.98059e-09
3.72671e-08
3.83198e-05
1.56123e-05
6.39252e-07
1.02801e-05
5.62487e-06
4.81275e-06
1.27161e-05
5.39408e-06
1.65492e-06
1.88139e-06
4.09383e-07
6.42938e-07
3.79932e-07
1.3319e-07
1.60121e-06
8.06342e-07
3.44359e-05
4.47458
6.20884e-05
22.8112
6.85261e+14
1.27261e+13
2.19022e+15
8.49143e+11
8.89281e+12
3.27538e+10
7.76491e+09
1.60135e+09
1332.31
0.0643134
2.53921e-05
9.76611e-09
3.32497e-10
6.57742e-11
1.94381e-09
1.36975e-09
6.30108e-13
1.12834e-09
1.93627e-10
6.47367e-13
4.02361e-07
1.75381e-06
2.17809e-08
1.6944e-08
5.47283e-07
9.52732e-07
2.76564e-07
0.000776271
8.56032e-09
0.000277481
9.01337e-08
0.000393421
3.67743e-05
4.35095e-05
3.15e-05
1.7808e-05
8.81268e-06
3.1236e-06
6.75788e-07
1.05048e-07
1.1765e-08
3.27323e-10
2.57711e-13
0
6.69939e-37
0.000247644
5.70889e-10
7.206e-09
3.53545e-08
1.14274e-07
1.3968e-05
6.82599e-06
5.27065e-06
4.92695e-06
2.9175e-06
2.30207e-06
3.36978e-06
9.75584e-07
8.51752e-07
6.21983e-07
5.59387e-07
4.46781e-07
2.73057e-08
5.86339e-06
2.18175e-05
0.0924529
3.83289
0.104087
14.9041
1.45435e+15
1.03447e+13
3.01354e+12
1.6835e+15
5.51994e+11
5.84941e+11
3.86101e+09
4.22235e+09
1.39249e+08
371.21
0.0252162
1.67707e-05
9.62167e-09
3.64665e-10
7.96273e-11
2.50443e-09
1.63166e-09
1.06849e-12
1.41975e-09
2.55692e-10
2.03609e-13
7.98907e-07
8.7638e-07
1.74352e-08
1.39104e-08
5.24791e-07
1.10461e-06
3.03585e-07
0.000964169
1.11387e-08
2.79443e-13
1.06276e-07
0.000305693
2.99592e-05
3.61692e-05
2.68473e-05
1.5403e-05
7.76628e-06
2.75733e-06
5.97049e-07
9.40669e-08
1.04753e-08
2.93145e-10
0.000620401
0.000331036
6.26515e-20
7.88336e-12
5.13349e-10
2.73371e-05
3.01593e-08
1.06487e-07
2.58474e-07
6.07574e-06
4.68467e-06
2.88608e-06
9.43974e-06
1.49956e-06
2.11409e-06
5.72882e-07
1.31008e-06
6.1033e-07
4.03744e-07
2.30347e-07
2.43389e-07
4.37412e-07
1.99157e-05
0.44697
3.38754
0.172609
8.2065
7.39858e+13
2.45641e+13
5.81748e+12
1.29044e+12
1.58216e+19
5.12216e+11
5.46531e+10
7.19871e+08
2.22922e+09
2.11857e+07
102.704
0.0105941
1.14338e-05
1.10346e-08
4.46484e-10
1.01685e-10
3.31652e-09
2.42221e-09
1.40287e-12
72.9338
1.33196e-09
391.947
51236.6
3.4786e-07
1.41827e-08
0.0178694
5.32494e-07
0.000895432
3.5418e-07
4.89916e-07
3.0179e-05
3.65052e-13
1.30454e-07
0.000239831
2.50622e-05
3.0686e-05
2.33265e-05
1.34197e-05
6.7846e-06
2.44716e-06
5.33259e-07
8.39986e-08
9.46261e-09
2.63386e-10
0.000557947
0.00029943
5.63611e-20
7.1097e-12
4.64585e-10
2.46226e-05
9.17269e-06
5.64173e-06
3.89029e-06
3.02598e-06
2.60586e-06
1.04727e-05
6.0379e-06
3.34351e-06
1.33191e-06
9.71301e-07
6.09174e-07
5.34739e-07
3.00025e-07
2.96696e-08
5.79987e-06
1.55949e-05
0.000648813
0.505451
3.99197
0.134357
4.71509
1.96166e+14
1.41229e+14
2.83956e+13
3.48568e+12
1.09848e+12
3.44372e+18
9.84077e+11
7.90909e+09
1.49739e+08
1.28044e+09
3.88231e+06
30.4886
0.00482975
8.36988e-06
1.28225e-08
5.72581e-10
1.37247e-10
4.53813e-09
3.18999e-09
1.94863e-12
115.631
1.69414e-09
524.126
197335
2.2392e-07
0.489854
0.0154419
0.0009466
0.00115086
0.00216704
6.7055e-07
4.29058e-05
3.23705e-05
5.7018e-06
0.000194096
2.12296e-05
2.62091e-05
2.00422e-05
1.16929e-05
6.00399e-06
2.1665e-06
4.75007e-07
7.52402e-08
8.5222e-09
1.65673e-10
1.16977e-14
6.10941e-15
5.10599e-20
6.42758e-12
1.70891e-05
4.83691e-09
8.21079e-06
5.05148e-06