/*--------------------------------*- C++ -*----------------------------------*\
| =========                 |                                                 |
| \\      /  F ield         | OpenFOAM: The Open Source CFD Toolbox           |
|  \\    /   O peration     | Version:  v2012                                 |
|   \\  /    A nd           | Website:  www.openfoam.com                      |
|    \\/     M anipulation  |                                                 |
\*---------------------------------------------------------------------------*/
FoamFile
{
    version     2.0;
    format      ascii;
    class       volScalarField;
    location    "13200";
    object      k;
}
// * * * * * * * * * * * * * * * * * * * * * * * * * * * * * * * * * * * * * //

dimensions      [0 2 -2 0 0 0 0];


internalField   nonuniform List<scalar> 
31383
(
0.81183
0.821307
0.132738
0.763805
0.259669
0.0887554
0.722408
0.239366
1.01637
0.194857
0.691801
0.224663
0.929977
3.63733
0.473818
0.667057
0.213842
0.86713
3.32608
9.66787
1.02163
0.646381
0.205103
0.821013
3.09953
8.83978
21.3441
1.98785
0.629045
0.197851
0.783795
2.93331
8.23677
19.5176
41.7497
3.59214
0.614338
0.191789
0.753048
2.79917
7.79431
18.1866
38.1914
74.897
6.15387
0.601517
0.186663
0.727408
2.68838
7.43717
17.2097
35.5954
68.5775
125.414
10.1331
0.590294
0.182228
0.705768
2.59601
7.14223
16.4211
33.6888
63.957
115.046
197.403
16.1807
0.580202
0.178331
0.68715
2.51807
6.89634
15.7697
32.1489
60.5589
107.437
181.671
292.382
25.1764
0.571178
0.174824
0.670751
2.45103
6.68884
15.2266
30.8766
57.8116
101.826
170.048
270.381
407.336
38.2051
0.563004
0.171681
0.655976
2.39198
6.51039
14.7682
29.8155
55.5404
97.2823
161.442
253.954
378.952
534.623
56.4978
0.55564
0.16883
0.642721
2.33878
6.35321
14.374
28.9198
53.6447
93.5214
154.452
241.727
357.508
500.642
664.522
81.0005
0.549002
0.166276
0.630686
2.29105
6.2116
14.0269
28.1493
52.0437
90.3779
148.654
231.754
341.457
474.663
626.288
788.614
111.79
0.543074
0.163984
0.619947
2.24771
6.08456
13.7141
27.4707
50.6661
87.7198
143.797
223.449
328.294
455.109
596.735
747.489
901.936
148.877
0.537685
0.161934
0.610339
2.20905
5.9692
13.4335
26.8593
49.4526
85.4315
139.683
216.488
317.274
438.979
574.366
715.392
858.82
1001.8
191.528
0.532858
0.160086
0.601738
2.17446
5.86631
13.1787
26.3109
48.3591
83.4148
136.137
210.564
308.044
425.418
555.83
690.993
824.933
957.673
1086.66
237.979
0.528466
0.158429
0.594033
2.14351
5.77427
12.9514
25.8128
47.3779
81.5964
133.009
205.45
300.135
414.039
540.197
670.738
799.093
922.779
1042.38
1156.47
284.78
0.524499
0.156936
0.587119
2.11579
5.69189
12.7481
25.3686
46.4871
79.9646
130.186
200.935
293.291
404.243
527.044
653.601
777.7
896.092
1007.11
1112.69
1212.23
329.727
0.5209
0.155589
0.580926
2.09091
5.61812
12.5662
24.9712
45.6922
78.4829
127.656
196.853
287.256
395.727
515.674
639.143
759.579
874.006
980.066
1077.5
1169.42
1255.47
371.973
0.517647
0.154371
0.575348
2.06864
5.55192
12.4033
24.6154
44.9809
77.1603
125.355
193.205
281.784
388.251
505.756
626.605
744.249
855.259
957.684
1050.46
1134.62
1214.07
1287.99
410.234
0.514692
0.153273
0.57032
2.04858
5.49264
12.257
24.2968
44.344
75.9763
123.3
189.878
276.902
381.447
497.084
615.652
730.935
839.367
938.666
1028.09
1107.84
1179.83
1248.39
1311.59
443.436
0.512005
0.15228
0.565793
2.0305
5.43926
12.1261
24.0109
43.7735
74.9153
121.457
186.903
272.442
375.382
489.171
606.094
719.285
825.551
922.517
1009.07
1085.69
1153.48
1214.84
1274.21
1327.91
470.776
0.509534
0.151377
0.561712
2.01423
5.39117
12.0082
23.7548
43.2613
73.9646
119.805
184.229
268.447
369.841
482.124
597.379
709.127
813.438
908.473
992.9
1066.86
1131.69
1189.01
1241.4
1293.12
1338.27
491.768
0.507257
0.150548
0.558003
1.99956
5.34786
11.902
23.5242
42.8026
73.1105
118.323
181.833
264.846
364.867
475.698
589.621
699.9
802.887
896.131
978.84
1050.83
1113.17
1167.65
1216.13
1261.09
1306.47
1343.73
506.329
0.505155
0.149784
0.554596
1.98623
5.30884
11.8063
23.3163
42.3893
72.3454
116.991
179.679
261.625
360.369
469.916
582.561
691.683
793.335
885.389
966.453
1036.89
1097.37
1149.5
1195.24
1236.4
1275.24
1315.18
1344.99
514.57
0.503205
0.149081
0.551465
1.97399
5.27338
11.7201
23.1292
42.0168
71.6558
115.797
177.738
258.715
356.348
464.67
576.2
684.223
784.836
875.697
955.675
1024.59
1083.64
1134
1177.48
1215.99
1251.16
1284.81
1319.96
1342.58
516.558
0.501398
0.14843
0.548582
1.96274
5.2408
11.6418
22.9606
41.6813
71.0339
114.719
175.998
256.092
352.697
459.977
570.414
677.496
777.134
867.089
945.989
1013.89
1071.52
1120.52
1162.31
1198.65
1231.23
1261.36
1290.49
1321.39
1336.95
511.975
0.499719
0.14783
0.545923
1.95238
5.21087
11.5698
22.8073
41.3789
70.4735
113.747
174.425
253.733
349.408
455.699
565.23
671.37
770.188
859.305
937.403
1004.31
1060.96
1108.62
1149.11
1183.82
1214.3
1241.93
1267.69
1292.88
1319.98
1328.42
499.421
0.498163
0.147276
0.543479
1.94283
5.18331
11.5037
22.6665
41.104
69.9682
112.87
173.005
251.597
346.436
451.842
560.492
665.871
763.855
852.281
929.661
995.831
1051.55
1098.25
1137.44
1170.9
1199.81
1225.42
1248.78
1270.76
1292.49
1316.12
1317.27
476.328
0.496715
0.146764
0.54123
1.93405
5.15789
11.4428
22.5371
40.8515
69.5089
112.08
171.722
249.666
343.745
448.345
556.212
660.832
758.161
845.871
922.665
988.21
1043.23
1089.03
1127.29
1159.47
1187.18
1211.29
1232.71
1252.39
1271.06
1289.72
1310.13
1303.68
442.449
0.495363
0.146291
0.539164
1.92598
5.13452
11.3866
22.418
40.6195
69.087
111.36
170.565
247.919
341.304
445.176
552.322
656.276
752.933
840.1
916.277
981.316
1035.77
1080.9
1118.27
1149.54
1176.01
1198.96
1218.94
1236.75
1253.24
1269.02
1284.93
1302.26
1287.8
402.41
0.494083
0.14585
0.537258
1.91856
5.11305
11.335
22.3081
40.4058
68.6991
110.699
169.511
246.342
339.092
442.291
548.788
652.121
748.202
834.794
910.519
975.015
1029.02
1073.62
1110.33
1140.73
1166.29
1188.05
1206.93
1223.36
1238.05
1251.75
1264.97
1278.37
1292.72
1269.7
358.999
0.492871
0.145435
0.535489
1.91172
5.09331
11.2876
22.2071
40.2087
68.3419
110.092
168.542
244.903
337.092
439.672
545.563
648.333
743.869
829.984
905.22
969.334
1022.85
1067.04
1103.24
1132.98
1157.68
1178.56
1196.28
1211.66
1225.04
1237.03
1248.28
1259.2
1270.28
1281.65
1249.47
314.016
0.491649
0.145042
0.533824
1.90537
5.07511
11.2439
22.1142
40.0275
68.0122
109.532
167.651
243.58
335.266
437.299
542.627
644.873
739.91
825.563
900.408
964.098
1017.28
1061.01
1096.82
1126.08
1150.12
1170.15
1187.02
1201.28
1213.66
1224.4
1234.02
1243.09
1251.93
1260.83
1269.14
1227.14
268.437
0.490678
0.144644
0.532257
1.8994
5.05823
11.2037
22.0288
39.8609
67.7092
109.015
166.83
242.363
333.584
435.13
539.965
641.717
736.287
821.517
895.97
959.336
1012.14
1055.57
1090.94
1119.82
1143.39
1162.78
1178.82
1192.25
1203.56
1213.35
1221.79
1229.32
1236.44
1243.35
1250.14
1255.24
1202.64
223.131
0.492075
0.144332
0.530657
1.89378
5.04234
11.1664
21.9501
39.7077
67.4303
108.54
166.072
241.241
332.036
433.131
537.527
638.849
732.982
817.808
891.904
954.933
1007.46
1050.54
1085.64
1114.09
1137.3
1156.23
1171.64
1184.27
1194.77
1203.53
1211.08
1217.49
1223.16
1228.5
1233.61
1238.34
1239.97
1175.7
179.059
0.786413
0.14405
0.529419
1.88804
5.0274
11.1313
21.877
39.5663
67.1738
108.102
165.373
240.203
330.607
431.289
535.279
636.218
729.967
814.42
888.168
950.892
1003.12
1045.96
1080.73
1108.92
1131.71
1150.29
1165.26
1177.28
1186.99
1194.98
1201.55
1207.12
1211.74
1215.73
1219.43
1222.83
1225.47
1223.3
1145.85
137.345
0.504099
0.492027
0.525975
1.8836
5.01214
11.0983
21.8082
39.4351
66.9369
107.699
164.728
239.245
329.284
429.589
533.208
633.794
727.2
811.321
884.753
947.173
999.138
1041.71
1076.25
1104.14
1126.68
1144.85
1159.48
1171.07
1180.19
1187.41
1193.23
1197.88
1201.72
1204.73
1207.19
1209.35
1211.08
1211.59
1205.15
1112.41
99.3615
0.510429
0.167819
2.58685
1.87064
5.00034
11.0646
21.7436
39.3115
66.717
107.326
164.134
238.36
328.063
428.012
531.296
631.559
724.653
808.478
881.622
943.77
995.464
1037.8
1072.09
1099.77
1122.01
1139.95
1154.19
1165.45
1174.15
1180.8
1185.88
1189.81
1192.78
1195.07
1196.63
1197.66
1198.36
1198.44
1196.7
1185.4
1074.5
66.6538
0.605799
0.180028
0.668831
8.99351
4.96563
11.0385
21.6776
39.1954
66.5099
106.98
163.584
237.543
326.931
426.553
529.516
629.493
722.298
805.858
878.749
940.645
992.098
1034.18
1068.26
1095.7
1117.74
1135.4
1149.42
1160.31
1168.7
1174.93
1179.46
1182.68
1184.96
1186.44
1187.34
1187.55
1187.24
1186.52
1184.93
1180.79
1163.87
1031
40.7146
0.555949
0.290162
0.752534
2.37381
23.0854
10.9615
21.6266
39.0768
66.3152
106.654
163.073
236.785
325.885
425.197
527.866
627.567
720.123
803.434
876.097
937.776
989.004
1030.87
1064.72
1091.95
1113.76
1131.23
1144.99
1155.66
1163.7
1169.64
1173.76
1176.44
1178.04
1178.87
1179.01
1178.64
1177.6
1176.02
1173.88
1170.58
1163.81
1140.37
980.592
22.4307
0.496534
0.238819
1.43345
2.6878
6.25745
49.4305
21.4748
38.9852
66.1158
106.347
162.591
236.079
324.912
423.943
526.329
625.777
718.094
801.194
873.646
935.124
986.161
1027.82
1061.46
1088.48
1110.09
1127.35
1140.93
1151.35
1159.18
1164.78
1168.62
1170.92
1172
1172.18
1171.71
1170.64
1169.08
1166.86
1164.03
1160.49
1155.39
1145.7
1114.61
921.66
11.3909
0.488157
0.174012
1.10605
5.16283
7.09284
13.7377
93.8
38.7095
65.962
106.032
162.138
235.413
324.002
422.772
524.904
624.105
716.203
799.104
871.379
932.675
983.531
1025.02
1058.47
1085.29
1106.7
1123.77
1137.14
1147.4
1154.99
1160.4
1163.91
1165.94
1166.64
1166.32
1165.24
1163.6
1161.41
1158.76
1155.39
1151.33
1146.34
1139.32
1126.34
1086.3
852.446
5.77195
0.479672
0.166885
0.704273
3.93064
13.6112
15.5289
26.8135
162.426
65.491
105.79
161.673
234.785
323.143
421.672
523.568
622.551
714.431
797.15
869.26
930.408
981.102
1022.42
1055.71
1082.35
1103.57
1120.45
1133.65
1143.72
1151.15
1156.33
1159.66
1161.37
1161.82
1161.14
1159.57
1157.36
1154.65
1151.43
1147.71
1143.23
1137.93
1131.43
1122.33
1105.59
1055.07
771.536
3.2707
0.478427
0.141783
0.658212
2.46186
10.2775
29.7288
30.1058
48.1562
259.548
105.027
161.316
234.143
322.331
420.629
522.309
621.089
712.779
795.315
867.276
928.288
978.854
1020.03
1053.16
1079.64
1100.69
1117.39
1130.4
1140.3
1147.56
1152.59
1155.71
1157.24
1157.4
1156.48
1154.57
1151.89
1148.65
1144.95
1140.75
1136.01
1130.41
1123.84
1115.75
1104.34
1083.26
1020.05
679.095
2.27207
0.478107
0.140467
0.517027
2.28474
6.39218
22.3166
57.3767
53.5416
81.0332
383.259
160.143
233.653
321.501
419.645
521.114
619.707
711.22
793.6
865.41
926.299
976.749
1017.81
1050.8
1077.13
1098.03
1114.57
1127.42
1137.14
1144.24
1149.11
1152.08
1153.42
1153.41
1152.21
1150.07
1147.06
1143.38
1139.19
1134.57
1129.43
1123.67
1116.95
1109.05
1099.25
1085.27
1059.11
980.095
578.816
1.92561
0.477787
0.140319
0.510786
1.83086
5.90658
13.8212
42.9276
101.104
89.0397
128.797
523.078
231.949
320.869
418.639
519.982
618.39
709.743
791.975
863.66
924.425
974.772
1015.73
1048.61
1074.82
1095.57
1111.96
1124.65
1134.23
1141.16
1145.87
1148.69
1149.9
1149.7
1148.34
1145.95
1142.73
1138.74
1134.14
1129.06
1123.55
1117.49
1110.72
1102.84
1093.55
1081.87
1064.98
1032.84
933.799
476.188
1.81483
0.477203
0.140202
0.509252
1.80797
4.84472
12.7337
26.5494
75.6562
165.04
139.748
193.706
663.837
318.537
417.877
518.824
617.142
708.33
790.432
861.997
922.661
972.906
1013.77
1046.57
1072.67
1093.3
1109.55
1122.11
1131.53
1138.31
1142.87
1145.55
1146.61
1146.29
1144.76
1142.22
1138.76
1134.57
1129.67
1124.22
1118.31
1111.94
1104.96
1097.16
1088.08
1077.28
1063.54
1043.3
1004.11
879.696
374.864
1.77922
0.476743
0.139995
0.50834
1.80036
4.78155
10.67
24.4237
46.9424
124.172
250.529
207.498
275.344
793.367
414.872
517.955
615.865
706.992
788.953
860.413
920.981
971.145
1011.93
1044.64
1070.66
1091.19
1107.33
1119.75
1129.04
1135.68
1140.1
1142.63
1143.56
1143.11
1141.46
1138.75
1135.16
1130.75
1125.68
1119.95
1113.69
1106.97
1099.76
1091.85
1082.99
1072.62
1060.2
1044.14
1020.05
972.536
816.436
279.208
1.76642
0.476387
0.139829
0.507067
1.79605
4.75714
10.5251
20.8682
43.2014
77.906
190.881
353.598
291.235
369.764
906.022
514.288
614.914
705.62
787.551
858.893
919.377
969.464
1010.18
1042.82
1068.77
1089.22
1105.26
1117.57
1126.73
1133.25
1137.53
1139.93
1140.72
1140.15
1138.38
1135.57
1131.83
1127.29
1122.02
1116.13
1109.61
1102.58
1095.08
1087.02
1078.16
1068.17
1056.44
1042.22
1023.55
994.956
937.274
742.946
193.54
1.76107
0.476043
0.139706
0.505946
1.79048
4.74364
10.4641
20.5758
37.5724
71.8826
122.544
274.99
465.394
386.522
470.424
1001.11
610.627
704.606
786.112
857.451
917.836
967.856
1008.51
1041.09
1066.97
1087.36
1103.33
1115.54
1124.6
1131
1135.16
1137.43
1138.1
1137.4
1135.52
1132.6
1128.76
1124.09
1118.7
1112.63
1105.98
1098.71
1090.93
1082.65
1073.72
1063.87
1052.7
1039.47
1023.26
1001.6
967.717
897.057
658.773
121.603
1.75826
0.475663
0.139587
0.505145
1.78541
4.72687
10.4308
20.4456
37.0351
63.5282
113.567
183.212
371.739
576.337
486.724
570.375
1080.26
699.751
785.055
855.966
916.372
966.308
1006.91
1039.44
1065.27
1085.6
1101.5
1113.65
1122.62
1128.91
1132.96
1135.12
1135.67
1134.85
1132.85
1129.83
1125.89
1121.14
1115.63
1109.46
1102.65
1095.27
1087.28
1078.76
1069.68
1059.86
1048.97
1036.51
1021.64
1003.18
978.085
937.958
850.241
564.876
66.7406
1.75638
0.475342
0.139458
0.50448
1.78181
4.71135
10.3904
20.3752
36.7866
62.6155
101.882
170.794
260.106
474.114
679.881
585.217
664.317
1145.69
779.7
854.886
914.861
964.837
1005.36
1037.85
1063.64
1083.92
1099.77
1111.86
1120.77
1126.98
1130.93
1132.98
1133.42
1132.49
1130.38
1127.25
1123.22
1118.38
1112.8
1106.52
1099.63
1092.11
1084.03
1075.33
1066.06
1056.17
1045.41
1033.4
1019.55
1002.86
981.858
952.764
905.259
795.025
464.968
30.7018
1.75509
0.475069
0.139347
0.503815
1.779
4.7004
10.3527
20.2913
36.6536
62.1815
100.44
155.466
244.23
350.292
575.601
773.053
677.191
749.437
1199.59
849.102
913.772
963.313
1003.9
1036.32
1062.07
1082.32
1098.13
1110.17
1119.02
1125.17
1129.04
1130.99
1131.34
1130.31
1128.1
1124.86
1120.73
1115.81
1110.16
1103.82
1096.83
1089.24
1081.05
1072.28
1062.87
1052.85
1042.1
1030.35
1017.13
1001.74
983.013
959.095
925.337
868.735
729.81
366.042
11.697
1.7543
0.474845
0.139253
0.503237
1.77626
4.69209
10.3261
20.212
36.4958
61.9511
99.7414
153.355
225.521
331.558
448.129
671.636
855.143
760.347
824.327
1243.8
907.628
962.225
1002.37
1034.86
1060.55
1080.77
1096.55
1108.56
1117.36
1123.46
1127.27
1129.15
1129.4
1128.28
1125.97
1122.65
1118.43
1113.41
1107.69
1101.29
1094.25
1086.59
1078.35
1069.5
1060.04
1049.91
1039.1
1027.45
1014.63
1000.09
982.985
961.955
934.673
895.438
827.036
653.581
272.131
3.99057
1.75386
0.474512
0.139171
0.50278
1.77393
4.68417
10.3064
20.1564
36.347
61.6793
99.3728
152.321
222.681
310.384
427.591
547.043
759.437
926.563
833.127
888.407
1279.83
955.797
1001.29
1033.34
1059.11
1079.27
1095.03
1107.01
1115.79
1121.84
1125.61
1127.43
1127.61
1126.39
1124
1120.59
1116.29
1111.19
1105.39
1098.93
1091.84
1084.15
1075.85
1066.96
1057.45
1047.3
1036.43
1024.79
1012.19
998.196
982.195
963.177
939.517
908.329
862.638
778.356
566.162
186.439
1.45859
1.75396
0.463686
0.139059
0.502394
1.77213
4.67743
10.2878
20.1159
36.2423
61.4213
98.9391
151.778
221.279
306.885
405.279
525.855
641.439
837.565
988.004
894.975
942.085
1308.91
994.653
1032.27
1057.6
1077.84
1093.55
1105.51
1114.27
1120.3
1124.03
1125.81
1125.93
1124.65
1122.17
1118.68
1114.3
1109.13
1103.25
1096.72
1089.59
1081.86
1073.54
1064.62
1055.1
1044.93
1034.07
1022.41
1009.9
996.254
980.983
963.353
942.171
915.492
879.741
826.158
720.604
468.873
113.561
0.723864
1.75429
0.269917
0.136889
0.50192
1.77066
4.67234
10.2721
20.0779
36.1667
61.2407
98.526
151.138
220.546
305.154
401.322
503.695
620.568
727.695
905.667
1040.62
946.285
986.433
1332.01
1025.5
1056.54
1076.35
1092.14
1104.06
1112.8
1118.82
1122.53
1124.27
1124.36
1123.02
1120.47
1116.9
1112.44
1107.2
1101.26
1094.67
1087.48
1079.72
1071.38
1062.46
1052.92
1042.76
1031.91
1020.31
1007.84
994.374
979.595
962.905
943.443
919.799
889.629
848.525
784.675
651.786
367.681
58.8967
0.528748
1.75482
0.00335959
0.0916656
0.497534
1.76893
4.66834
10.2603
20.046
36.0967
61.1113
98.2374
150.527
219.676
304.25
399.361
499.532
599.474
707.923
804.394
964.202
1084.31
988.013
1022.83
1349.89
1049.69
1075.31
1090.67
1102.68
1111.38
1117.39
1121.08
1122.81
1122.86
1121.49
1118.89
1115.25
1110.72
1105.41
1099.41
1092.76
1085.52
1077.72
1069.36
1060.43
1050.91
1040.75
1029.94
1018.4
1006.02
992.662
978.168
962.135
943.858
922.324
895.856
861.631
814.231
736.39
570.798
272.196
24.9016
0.481116
1.75554
0.0398691
0.012001
0.374095
1.75441
4.66367
10.2513
20.0224
36.0378
60.9921
98.0318
150.101
218.844
303.162
398.339
497.481
595.331
688.338
786.114
870.701
1013.8
1119.36
1021.42
1052.66
1363.14
1068.41
1089.64
1101.22
1110.02
1115.99
1119.68
1121.4
1121.43
1120.03
1117.4
1113.72
1109.13
1103.75
1097.68
1090.98
1083.7
1075.85
1067.46
1058.53
1049.02
1038.9
1028.12
1016.64
1004.35
991.145
976.838
961.212
943.783
923.718
899.824
870.098
831.14
775.888
679.138
478.436
184.706
8.57486
0.470521
1.75607
0.0260914
0.748656
0.0813445
1.33017
4.62563
10.241
20.0046
35.9947
60.8918
97.8428
149.798
218.265
302.134
397.094
496.414
593.31
684.354
768.336
853.949
926.825
1054.67
1146.86
1047.9
1077.17
1372.25
1082.72
1100.21
1108.58
1114.66
1118.31
1120.03
1120.06
1118.65
1115.99
1112.28
1107.64
1102.2
1096.07
1089.32
1081.99
1074.11
1065.69
1056.74
1047.25
1037.16
1026.44
1015.01
1002.83
989.758
975.652
960.305
943.426
924.431
902.338
875.736
842.234
797.735
732.008
610.756
379.402
109.859
2.61005
0.468471
1.75641
0.0280113
0.213727
4.6588
0.297541
3.50945
10.1576
19.9844
35.9627
60.8185
97.6837
149.518
217.855
301.408
395.925
495.088
592.274
682.441
764.621
838.03
911.292
973.245
1087.63
1168.11
1068.72
1097.18
1377.6
1093.28
1107.59
1113.25
1117.01
1118.7
1118.73
1117.32
1114.65
1110.91
1106.25
1100.77
1094.58
1087.77
1080.4
1072.49
1064.04
1055.08
1045.58
1035.52
1024.85
1013.5
1001.4
988.473
974.563
959.484
942.99
924.711
903.947
879.54
849.814
811.915
760.685
680.59
529.916
282.337
54.5386
0.824271
0.468141
1.75663
0.0300207
0.184231
1.50447
14.1975
0.788824
7.7081
19.8228
35.9266
60.7648
97.5678
149.285
217.473
300.902
395.095
493.855
590.935
681.47
762.875
834.644
897.022
958.696
1010.96
1113.92
1184.15
1084.98
1113.4
1379.48
1100.66
1112.27
1115.63
1117.42
1117.43
1116.02
1113.36
1109.61
1104.92
1099.42
1093.2
1086.34
1078.91
1070.96
1062.5
1053.52
1044.02
1033.98
1023.35
1012.08
1000.09
987.272
973.544
958.721
942.572
924.804
904.95
882.173
855.112
821.765
778.731
718.689
619.305
437.417
192.37
21.6259
0.353688
0.468114
1.75683
0.0329544
0.18931
1.28377
5.61973
31.1626
1.73904
15.0528
35.6402
60.7052
97.4838
149.116
217.156
300.426
394.52
492.98
589.713
680.16
761.99
833.09
893.963
945.764
997.124
1041.26
1134.73
1195.83
1097.41
1126.44
1378.24
1105.35
1114.66
1116.07
1116.19
1114.76
1112.11
1108.37
1103.67
1098.15
1091.9
1085.01
1077.53
1069.54
1061.05
1052.06
1042.56
1032.53
1021.94
1010.74
998.84
986.159
972.583
957.99
942.167
924.835
905.64
884.002
858.925
828.798
791.24
742.021
669.917
546.034
339.37
114.361
6.86023
0.241127
0.468139
1.75704
0.0352595
0.231007
1.31703
4.77943
15.0404
57.0739
3.41327
27.1144
60.2351
97.3914
148.992
216.927
300.028
393.971
492.371
588.842
678.986
760.748
832.306
892.605
942.99
985.255
1027.83
1065.44
1151.07
1203.89
1106.63
1136.77
1374.18
1107.76
1115.12
1114.86
1113.54
1110.88
1107.15
1102.47
1096.94
1090.67
1083.76
1076.26
1068.22
1059.69
1050.68
1041.19
1031.17
1020.61
1009.46
997.655
985.1
971.689
957.29
941.753
924.827
906.176
885.373
861.702
833.977
800.298
757.83
700.56
612.094
460.171
245.26
55.9783
1.88061
0.21651
0.468167
1.7572
0.0375261
0.272885
1.61467
4.89976
12.8454
32.4606
92.997
6.19573
46.0034
96.6748
148.858
216.759
299.74
393.509
491.776
588.225
678.151
759.658
831.155
891.922
941.81
982.699
1016.77
1052.14
1084.7
1163.57
1208.78
1113.15
1144.8
1367.54
1108.23
1113.93
1112.25
1109.7
1105.96
1101.29
1095.78
1089.51
1082.58
1075.06
1067
1058.43
1049.4
1039.89
1029.89
1019.36
1008.25
996.521
984.086
970.83
956.632
941.336
924.762
906.609
886.478
863.85
837.851
807.064
769.252
720.839
652.595
542.906
365.52
158.697
21.5272
0.527687
0.211594
0.468194
1.75734
0.039983
0.300265
1.91611
6.01839
13.1781
28.3393
60.5545
138.871
10.647
74.3527
147.848
216.577
299.528
393.175
491.277
587.613
677.551
758.883
830.175
890.872
941.229
981.672
1014.35
1041.65
1071.24
1099.84
1172.76
1210.9
1117.42
1150.83
1358.6
1107.06
1111.34
1108.43
1104.81
1100.14
1094.65
1088.4
1081.47
1073.93
1065.86
1057.27
1048.2
1038.68
1028.68
1018.18
1007.12
995.446
983.107
970
955.99
940.936
924.656
906.931
887.406
865.604
840.893
812.211
777.868
735.243
679.025
595.878
461.121
270.198
86.4138
6.45652
0.207881
0.210701
0.468215
1.7575
0.0423277
0.328403
2.11203
7.15363
16.1667
29.1919
54.3448
101.356
192.789
17.5602
115.006
215.281
299.302
392.925
490.911
587.101
676.942
758.321
829.473
890.024
940.285
981.186
1013.45
1039.29
1061.1
1086.11
1111.5
1179.11
1210.62
1119.81
1155.11
1347.62
1104.48
1107.54
1103.58
1099.03
1093.53
1087.31
1080.4
1072.87
1064.78
1056.18
1047.1
1037.55
1027.54
1017.06
1006.04
994.433
982.173
969.186
955.357
940.529
924.538
907.17
888.16
867.091
843.388
816.287
784.502
746.017
697.459
630.615
528.026
369.053
181.113
37.1992
1.61987
0.139642
0.210555
0.468242
1.75768
0.0445913
0.357568
2.31317
7.89583
19.1891
35.4985
56.2592
93.5266
154.925
251.21
28.0234
170.219
297.8
392.662
490.632
586.723
676.434
757.727
828.958
889.399
939.556
980.343
1013.03
1038.48
1058.73
1076.18
1097.4
1120.24
1183
1208.26
1120.65
1157.82
1334.85
1100.7
1102.71
1097.83
1092.46
1086.24
1079.36
1071.85
1063.77
1055.16
1046.07
1036.51
1026.48
1016
1005.01
993.467
981.29
968.404
954.722
940.11
924.387
907.361
888.782
868.33
845.512
819.637
789.777
754.391
711.055
654.574
573.337
447.61
274.394
103.369
12.1967
0.406339
0.126377
0.210538
0.468274
1.75788
0.0469559
0.385731
2.5223
8.65055
21.179
41.763
67.5232
97.2057
146.658
218.156
310.405
43.4403
240.467
391.116
490.347
586.421
676.058
757.235
828.386
888.919
938.995
979.713
1012.26
1038.1
1057.95
1073.75
1087.57
1105.68
1126.51
1184.77
1204.12
1120.18
1159.09
1320.5
1095.89
1096.98
1091.3
1085.2
1078.33
1070.86
1062.8
1054.2
1045.1
1035.54
1025.51
1015.01
1004.04
992.54
980.442
967.66
954.104
939.669
924.2
907.491
889.317
869.38
847.3
822.489
794.119
761.061
721.488
671.999
604.723
504.807
356.864
185.392
46.488
3.1019
0.145203
0.124029
0.210545
0.468299
1.75815
0.0491083
0.414736
2.72431
9.43486
23.1912
45.9481
78.4295
114.719
152.677
210.99
285.663
367.825
65.4213
323.544
488.959
586.127
675.746
756.865
827.917
888.379
938.551
979.2
1011.72
1037.38
1057.6
1072.94
1085.03
1095.84
1111.43
1130.69
1184.7
1198.43
1118.64
1159.02
1304.77
1090.17
1090.47
1084.08
1077.33
1069.87
1061.85
1053.28
1044.2
1034.63
1024.6
1014.1
1003.13
991.657
979.622
966.938
953.508
939.227
923.969
907.558
889.756
870.298
848.833
824.902
797.809
766.557
729.778
685.165
627.375
545.578
423.774
263.587
106.376
15.6872
0.692776
0.0947642
0.123652
0.210549
0.468344
1.75839
0.0510952
0.43975
2.93243
10.191
25.2782
50.1688
85.8236
131.118
176.485
219.426
280.808
352.56
422.354
95.4221
414.845
585.099
675.446
756.548
827.559
887.936
938.05
978.787
1011.26
1036.91
1056.92
1072.6
1084.16
1093.16
1101.48
1115.05
1133.11
1183.02
1191.42
1116.18
1157.67
1287.84
1083.67
1083.27
1076.25
1068.92
1060.92
1052.39
1043.33
1033.78
1023.75
1013.26
1002.29
990.83
978.836
966.233
952.922
938.792
923.719
907.557
890.103
871.08
850.18
826.982
800.938
771.217
736.627
695.51
644.278
575.178
474.868
333.42
175.68
47.4559
3.96734
0.178531
0.0859227
0.1236
0.210559
0.468371
1.75861
0.052928
0.462747
3.11163
10.967
27.2613
54.5132
93.2529
142.353
197.906
247.935
291.23
350.547
416.172
473.847
134.144
508.878
674.939
756.251
827.24
887.594
937.635
978.327
1010.87
1036.5
1056.49
1071.95
1083.82
1092.21
1098.61
1104.92
1116.89
1134.01
1179.92
1183.3
1112.95
1155.08
1269.89
1076.48
1075.46
1067.88
1060
1051.5
1042.49
1032.97
1022.96
1012.48
1001.52
990.072
978.098
965.551
952.341
938.352
923.458
907.516
890.354
871.736
851.344
828.813
803.643
775.172
742.41
703.948
657.378
597.164
513.038
391.903
241.891
97.8689
15.5701
0.834098
0.0821952
0.0845146
0.123596
0.210568
0.468405
1.75886
0.0545868
0.484087
3.27639
11.6354
29.2384
58.592
100.81
153.566
212.694
272.627
322.204
362.411
417.034
475.754
522.635
181.033
600.79
756.352
826.95
887.276
937.307
977.938
1010.44
1036.14
1056.12
1071.55
1083.19
1091.84
1097.57
1101.84
1106.52
1117.23
1133.62
1175.56
1174.24
1109.06
1151.25
1251.07
1068.68
1067.1
1059.01
1050.63
1041.65
1032.18
1022.21
1011.75
1000.81
989.374
977.421
964.908
951.771
937.905
923.178
907.446
890.543
872.267
852.344
830.408
806.024
778.596
747.326
711.034
667.907
614.023
541.643
439
301.436
155.713
41.344
3.74453
0.186875
0.0659107
0.084312
0.123599
0.210574
0.46843
1.75924
0.0560327
0.503445
3.42931
12.2499
30.9497
62.5668
107.816
164.789
227.347
289.872
348.283
394.211
429.961
479.315
531.568
569.203
234.331
687.262
827.75
886.996
936.992
977.623
1010.07
1035.72
1055.79
1071.22
1082.83
1091.22
1097.16
1100.66
1103.19
1106.58
1116.31
1132.08
1170.09
1164.4
1104.59
1146.2
1231.53
1060.34
1058.25
1049.68
1040.83
1031.4
1021.48
1011.06
1000.14
988.728
976.8
964.319
951.23
937.455
922.875
907.339
890.68
872.707
853.184
831.793
808.104
781.605
751.58
717.071
676.656
627.396
563.552
475.327
353.453
212.105
81.2785
12.539
0.736725
0.071586
0.0634156
0.0842875
0.123603
0.210581
0.46848
1.75961
0.0572406
0.519881
3.56801
12.82
32.5218
66.0227
114.511
175.04
241.754
306.909
366.861
420.525
461.819
493.11
537.605
584.226
614.05
291.796
766.514
888.537
936.722
977.31
1009.77
1035.38
1055.39
1070.91
1082.51
1090.88
1096.54
1100.19
1101.86
1102.95
1105.36
1114.32
1129.54
1163.6
1153.91
1099.58
1139.92
1211.39
1051.51
1048.94
1039.93
1030.63
1020.75
1010.39
999.516
988.132
976.229
963.78
950.735
937.025
922.558
907.194
890.762
873.074
853.905
832.979
809.923
784.237
755.309
722.288
684.024
638.362
580.798
503.64
396.801
262.974
128.659
31.0825
2.75196
0.154842
0.053144
0.0630693
0.0842855
0.123607
0.210591
0.468512
1.76006
0.0581499
0.532287
3.68556
13.3369
33.9776
69.1929
120.341
184.644
254.717
323.426
385.283
439.758
487.91
524.814
552.19
592.532
634.384
657.623
351.442
837.976
938.983
977.048
1009.46
1035.09
1055.06
1070.53
1082.22
1090.58
1096.21
1099.56
1101.3
1101.45
1101.38
1103.05
1111.42
1126.07
1156.19
1142.91
1094.08
1132.42
1190.77
1042.25
1039.21
1029.78
1020.03
1009.72
998.905
987.571
975.705
963.287
950.284
936.632
922.248
907.02
890.79
873.364
854.526
834.013
811.5
786.549
758.574
726.847
690.359
647.484
594.772
525.976
432.186
309.164
176.41
60.3939
8.33505
0.503112
0.0581426
0.0504734
0.0630263
0.0842867
0.123611
0.2106
0.46855
1.76053
0.058744
0.539255
3.77397
13.7751
35.2959
72.1188
125.666
192.995
266.642
338.125
402.991
458.986
507.518
550.607
583.776
607.887
644.781
682.634
700.316
411.904
901.257
979.948
1009.2
1034.78
1054.78
1070.21
1081.85
1090.29
1095.91
1099.24
1100.63
1100.79
1099.68
1098.7
1099.83
1107.73
1121.76
1147.93
1131.5
1088.07
1123.71
1169.77
1032.6
1029.08
1019.23
1009.05
998.293
987.026
975.213
962.839
949.876
936.277
921.965
906.841
890.774
873.582
855.046
834.915
812.883
788.566
761.45
730.841
695.874
655.251
606.274
543.984
460.562
349.141
220.631
97.5584
20.0064
1.63093
0.105867
0.0437293
0.0501234
0.0630221
0.0842893
0.123616
0.210608
0.468577
1.76101
0.0590329
0.539524
3.82262
14.104
36.4161
74.7615
130.554
200.572
276.997
351.473
418.656
477.39
527.313
570.517
609.346
639.474
660.91
694.969
729.472
742.472
472.399
956.401
1012.6
1034.52
1054.47
1069.94
1081.54
1089.93
1095.62
1098.93
1100.31
1100.07
1098.91
1096.78
1095.08
1095.85
1103.36
1116.65
1138.9
1119.76
1081.56
1113.82
1148.47
1022.6
1018.56
1008.31
997.682
986.477
974.736
962.421
949.508
935.959
921.713
906.679
890.739
873.739
855.473
835.689
814.101
790.345
763.969
734.365
700.713
661.969
615.957
558.711
483.677
383.137
260.442
136.743
39.3176
4.57898
0.282046
0.0450484
0.0417871
0.0500822
0.0630227
0.0842922
0.123621
0.210612
0.46861
1.76152
0.0590039
0.532813
3.82229
14.2857
37.2669
77.0118
134.949
207.473
286.327
363.073
432.777
493.631
546.22
590.814
629.577
664.94
692.636
711.891
743.619
775.312
784.39
532.567
1003.72
1038.25
1054.21
1069.63
1081.27
1089.64
1095.27
1098.65
1100
1099.74
1098.13
1095.86
1092.91
1090.68
1091.22
1098.37
1110.78
1129.14
1107.77
1074.5
1102.81
1126.92
1012.32
1007.65
997.005
985.926
974.254
962.016
949.168
935.676
921.493
906.539
890.709
873.862
855.821
836.349
815.159
791.916
766.195
737.459
704.989
667.817
624.259
570.998
502.617
411.886
296.821
174.833
65.4535
10.8276
0.797237
0.0659119
0.0366837
0.0415501
0.0500784
0.0630244
0.0842944
0.123626
0.210627
0.468625
1.76204
0.0589072
0.519318
3.77104
14.2851
37.7589
78.7426
138.689
213.635
294.76
373.485
445.093
508.221
562.899
610.183
650.385
685.541
718.117
743.876
761.353
791.163
820.498
826.336
592.281
1043.65
1058.11
1069.36
1080.96
1089.37
1094.99
1098.3
1099.71
1099.42
1097.77
1095
1091.84
1088.24
1085.61
1086.02
1092.82
1104.17
1118.71
1095.58
1066.84
1090.78
1105.19
1001.8
996.373
985.314
973.767
961.605
948.839
935.42
921.302
906.424
890.691
873.978
856.12
836.909
816.078
793.294
768.167
740.195
708.742
672.963
631.426
581.434
518.374
435.734
329.043
209.821
95.9302
21.6419
2.08255
0.137819
0.0354549
0.0356438
0.0415244
0.0500791
0.0630261
0.084297
0.123632
0.210639
0.468638
1.76254
0.0591887
0.503182
3.67043
14.0955
37.8112
79.7923
141.594
218.866
302.242
382.85
456.133
521.007
577.857
627.271
670.229
706.893
739.141
769.483
793.704
809.724
837.956
865.318
868.55
651.523
1076.6
1073.25
1080.7
1089.06
1094.72
1098.02
1099.37
1099.12
1097.44
1094.62
1090.88
1086.99
1082.88
1079.99
1080.34
1086.74
1096.84
1107.64
1083.22
1058.48
1077.8
1083.37
991.087
984.707
973.223
961.186
948.503
935.171
921.134
906.332
890.691
874.095
856.396
837.403
816.875
794.504
769.905
742.621
712.061
677.475
637.688
590.373
531.671
455.763
357.108
241.656
127.096
37.4874
4.81422
0.332848