/*--------------------------------*- C++ -*----------------------------------*\
| =========                 |                                                 |
| \\      /  F ield         | OpenFOAM: The Open Source CFD Toolbox           |
|  \\    /   O peration     | Version:  v2012                                 |
|   \\  /    A nd           | Website:  www.openfoam.com                      |
|    \\/     M anipulation  |                                                 |
\*---------------------------------------------------------------------------*/
FoamFile
{
    version     2.0;
    format      ascii;
    class       volScalarField;
    location    "13200";
    object      lambda2;
}
// * * * * * * * * * * * * * * * * * * * * * * * * * * * * * * * * * * * * * //

dimensions      [0 0 0 0 0 0 0];


internalField   nonuniform List<scalar> 
31383
(
-1.05558e-06
-1.81514e-05
-4.45873e-05
-1.6851e-05
-0.000603202
-0.000374065
-1.59302e-05
-0.000560772
-0.0049352
-0.00163753
-1.52558e-05
-0.000530636
-0.00460294
-0.0197119
-0.00502839
-1.47073e-05
-0.000508528
-0.00436585
-0.0184803
-0.0518128
-0.0122123
-1.42456e-05
-0.000490521
-0.00419115
-0.0175943
-0.0489038
-0.10376
-0.0249373
-1.38607e-05
-0.000475348
-0.00404853
-0.0169379
-0.0467899
-0.0986953
-0.171756
-0.0452064
-1.35379e-05
-0.00046269
-0.00392807
-0.0163997
-0.0452131
-0.0949735
-0.164719
-0.247254
-0.0747224
-1.32544e-05
-0.000452066
-0.00382742
-0.0159437
-0.0439122
-0.0921738
-0.159484
-0.239038
-0.320524
-0.115051
-1.29999e-05
-0.00044273
-0.00374274
-0.0155612
-0.0428046
-0.0898478
-0.155506
-0.232871
-0.312057
-0.383264
-0.170662
-1.27642e-05
-0.000434343
-0.0036683
-0.0152391
-0.0418719
-0.0878561
-0.152177
-0.228135
-0.305793
-0.375722
-0.431301
-0.23788
-1.25476e-05
-0.000426579
-0.00360128
-0.0149548
-0.0410842
-0.0861717
-0.149308
-0.224141
-0.300926
-0.370165
-0.425516
-0.46483
-0.295845
-1.23472e-05
-0.000419434
-0.00353923
-0.0146988
-0.040387
-0.0847422
-0.146872
-0.220671
-0.296795
-0.365741
-0.42114
-0.460721
-0.486031
-0.356079
-1.2167e-05
-0.000412828
-0.00348204
-0.0144613
-0.0397578
-0.0834727
-0.144793
-0.217711
-0.293213
-0.361974
-0.417551
-0.457576
-0.483321
-0.498424
-0.408688
-1.20054e-05
-0.000406883
-0.00342922
-0.0142422
-0.0391717
-0.082324
-0.14294
-0.215174
-0.290063
-0.35882
-0.414496
-0.454994
-0.481259
-0.49666
-0.505865
-0.429109
-1.18617e-05
-0.000401556
-0.00338155
-0.014039
-0.0386308
-0.0812512
-0.141255
-0.212898
-0.287387
-0.355784
-0.411924
-0.452784
-0.47959
-0.495364
-0.504498
-0.510623
-0.446038
-1.17329e-05
-0.000396812
-0.00333884
-0.0138559
-0.0381286
-0.080259
-0.13968
-0.210828
-0.284972
-0.353305
-0.40945
-0.450785
-0.47812
-0.494301
-0.503599
-0.509435
-0.513012
-0.464483
-1.16194e-05
-0.000392563
-0.00330077
-0.0136914
-0.0376747
-0.0793349
-0.138217
-0.208898
-0.282772
-0.351076
-0.407378
-0.449071
-0.476785
-0.493343
-0.502835
-0.508801
-0.512071
-0.513432
-0.488882
-1.15175e-05
-0.000388813
-0.00326666
-0.0135448
-0.0372659
-0.0784979
-0.136851
-0.207068
-0.280788
-0.348994
-0.405589
-0.447508
-0.47563
-0.492542
-0.502213
-0.508311
-0.511765
-0.512697
-0.5127
-0.503396
-1.14271e-05
-0.000385452
-0.00323654
-0.013413
-0.0369014
-0.077743
-0.13561
-0.205373
-0.278749
-0.347137
-0.403786
-0.446185
-0.474591
-0.491844
-0.501734
-0.507929
-0.511526
-0.512649
-0.511964
-0.511214
-0.513704
-1.13464e-05
-0.000382466
-0.00320955
-0.0132967
-0.0365732
-0.0770689
-0.134491
-0.203828
-0.276926
-0.345203
-0.402173
-0.444806
-0.473641
-0.491212
-0.501322
-0.507594
-0.511322
-0.512557
-0.512022
-0.510305
-0.509238
-0.521728
-1.12745e-05
-0.000379795
-0.00318552
-0.0131923
-0.0362834
-0.0764611
-0.133488
-0.202428
-0.275264
-0.343485
-0.40062
-0.443584
-0.472754
-0.490612
-0.500912
-0.50728
-0.511085
-0.51248
-0.512062
-0.510442
-0.508036
-0.507007
-0.526808
-1.12098e-05
-0.000377416
-0.00316399
-0.0130995
-0.0360227
-0.075922
-0.13258
-0.201173
-0.273761
-0.341903
-0.399164
-0.442443
-0.471909
-0.490101
-0.500558
-0.506976
-0.51088
-0.512378
-0.512063
-0.510544
-0.508231
-0.505445
-0.504769
-0.529522
-1.11516e-05
-0.000375282
-0.00314486
-0.0130163
-0.0357908
-0.0754373
-0.131777
-0.200035
-0.27239
-0.340521
-0.397827
-0.441318
-0.471131
-0.489551
-0.500257
-0.506731
-0.510688
-0.512299
-0.512067
-0.510621
-0.50837
-0.505675
-0.503142
-0.502961
-0.530556
-1.10981e-05
-0.000373358
-0.00312765
-0.0129422
-0.0355826
-0.0750057
-0.131052
-0.199025
-0.271155
-0.339165
-0.396663
-0.440303
-0.470353
-0.489074
-0.499924
-0.506515
-0.510524
-0.512216
-0.512073
-0.510689
-0.508504
-0.505835
-0.503311
-0.5017
-0.501943
-0.53014
-1.10488e-05
-0.000371589
-0.00311214
-0.0128755
-0.0353971
-0.0746178
-0.130405
-0.198112
-0.270057
-0.337998
-0.395503
-0.439374
-0.469652
-0.4886
-0.499629
-0.506314
-0.510382
-0.512127
-0.512081
-0.510747
-0.508604
-0.505993
-0.503462
-0.501759
-0.50088
-0.501483
-0.528606
-1.10034e-05
-0.000369958
-0.00309791
-0.0128153
-0.0352301
-0.0742712
-0.129824
-0.197295
-0.269061
-0.336934
-0.394528
-0.438523
-0.469003
-0.488163
-0.499351
-0.506086
-0.510233
-0.512083
-0.512057
-0.510826
-0.508695
-0.506127
-0.50359
-0.501844
-0.500901
-0.50024
-0.501148
-0.526893
-1.09619e-05
-0.00036846
-0.0030848
-0.0127602
-0.0350794
-0.0739598
-0.129303
-0.196561
-0.268169
-0.335973
-0.393586
-0.437774
-0.468422
-0.487754
-0.49908
-0.505883
-0.510099
-0.51201
-0.512055
-0.510863
-0.508804
-0.506251
-0.503716
-0.501921
-0.500945
-0.500247
-0.499655
-0.500893
-0.526177
-1.09242e-05
-0.000367084
-0.00307267
-0.0127091
-0.0349406
-0.0736778
-0.128835
-0.195903
-0.267366
-0.335124
-0.392777
-0.437056
-0.467884
-0.487386
-0.498823
-0.505697
-0.509944
-0.51195
-0.512066
-0.510886
-0.508894
-0.50634
-0.503823
-0.501989
-0.500997
-0.500284
-0.499642
-0.499101
-0.500727
-0.528211
-1.08901e-05
-0.000365842
-0.00306164
-0.0126621
-0.0348127
-0.0734187
-0.12841
-0.195309
-0.266645
-0.33435
-0.392039
-0.436442
-0.467411
-0.487039
-0.498592
-0.505516
-0.509827
-0.511887
-0.51206
-0.510928
-0.508954
-0.506448
-0.503909
-0.502037
-0.50104
-0.500321
-0.499654
-0.499059
-0.49863
-0.500649
-0.533127
-1.08595e-05
-0.00036471
-0.00305157
-0.0126193
-0.0346952
-0.0731789
-0.12802
-0.194771
-0.265994
-0.33365
-0.391366
-0.435852
-0.466968
-0.486731
-0.498381
-0.505362
-0.509719
-0.51183
-0.512057
-0.510977
-0.509012
-0.506532
-0.503975
-0.502102
-0.501049
-0.500352
-0.49967
-0.499078
-0.498511
-0.498228
-0.500684
-0.532498
-1.08324e-05
-0.0003637
-0.0030425
-0.0125802
-0.0345869
-0.0729579
-0.127657
-0.194276
-0.265404
-0.33302
-0.390765
-0.435331
-0.466555
-0.486448
-0.49817
-0.505199
-0.509604
-0.511789
-0.512056
-0.511018
-0.509076
-0.50661
-0.504057
-0.502131
-0.501077
-0.50038
-0.499707
-0.499077
-0.498542
-0.498068
-0.497885
-0.500804
-0.515061
-1.08077e-05
-0.000362801
-0.00303435
-0.0125448
-0.0344887
-0.0727563
-0.127325
-0.193816
-0.264859
-0.332445
-0.390226
-0.434874
-0.466198
-0.486192
-0.498004
-0.505066
-0.509503
-0.511734
-0.512047
-0.511042
-0.509162
-0.506682
-0.504138
-0.502171
-0.50111
-0.500396
-0.49975
-0.49912
-0.498557
-0.498059
-0.49769
-0.497624
-0.501014
-0.499287
-1.07851e-05
-0.000361986
-0.00302705
-0.0125132
-0.0343997
-0.0725721
-0.12702
-0.193393
-0.264355
-0.33192
-0.389737
-0.434448
-0.465879
-0.485971
-0.497856
-0.504947
-0.509427
-0.511696
-0.512054
-0.511072
-0.509206
-0.506771
-0.504191
-0.502231
-0.501123
-0.500437
-0.499757
-0.499139
-0.498565
-0.498079
-0.497641
-0.497332
-0.497439
-0.501299
-0.490397
-1.0764e-05
-0.000361237
-0.00302051
-0.0124848
-0.0343199
-0.0724049
-0.126743
-0.193005
-0.263889
-0.331429
-0.38928
-0.434074
-0.465574
-0.485755
-0.497709
-0.504839
-0.509335
-0.511656
-0.512041
-0.511097
-0.509249
-0.506834
-0.504261
-0.502262
-0.501146
-0.500465
-0.499778
-0.499161
-0.498569
-0.498096
-0.497657
-0.49729
-0.497032
-0.4973
-0.501634
-0.484325
-1.07425e-05
-0.000360538
-0.00301442
-0.0124593
-0.034249
-0.0722545
-0.12649
-0.192652
-0.26346
-0.330977
-0.388853
-0.433716
-0.465294
-0.485571
-0.497566
-0.504729
-0.509252
-0.511613
-0.512034
-0.511118
-0.509283
-0.50688
-0.504322
-0.502303
-0.501196
-0.500471
-0.499807
-0.499162
-0.498591
-0.498086
-0.497655
-0.497264
-0.496977
-0.496815
-0.497248
-0.502121
-0.477744
-1.07243e-05
-0.000359828
-0.00300878
-0.0124356
-0.0341846
-0.0721216
-0.126264
-0.19233
-0.26307
-0.330567
-0.388462
-0.433388
-0.465054
-0.485389
-0.497454
-0.504634
-0.509194
-0.511573
-0.512022
-0.511131
-0.509334
-0.506938
-0.504386
-0.502336
-0.501205
-0.500493
-0.499833
-0.499176
-0.498615
-0.498098
-0.497661
-0.497249
-0.496938
-0.496702
-0.496612
-0.497303
-0.50324
-0.47037
-1.07807e-05
-0.000359229
-0.00300304
-0.0124137
-0.0341248
-0.0720002
-0.126061
-0.192042
-0.262716
-0.330187
-0.388104
-0.433084
-0.464818
-0.485233
-0.497345
-0.504547
-0.509126
-0.511539
-0.512018
-0.51114
-0.509378
-0.506998
-0.504429
-0.502372
-0.501224
-0.500507
-0.499842
-0.499211
-0.498619
-0.498106
-0.497663
-0.497249
-0.496922
-0.496673
-0.496473
-0.496477
-0.497431
-0.505436
-0.462018
-1.67339e-05
-0.000361051
-0.00299819
-0.0123914
-0.0340695
-0.0718887
-0.125878
-0.191784
-0.262398
-0.329839
-0.387777
-0.432793
-0.464601
-0.485076
-0.497236
-0.504469
-0.509061
-0.511509
-0.512005
-0.51115
-0.509404
-0.507037
-0.504472
-0.5024
-0.501246
-0.500534
-0.499868
-0.499229
-0.498641
-0.498119
-0.497654
-0.49726
-0.496924
-0.49664
-0.496409
-0.49631
-0.496417
-0.497646
-0.508471
-0.452376
-1.13611e-05
-0.000785149
-0.00301229
-0.0123726
-0.0340133
-0.0717843
-0.125709
-0.191549
-0.262112
-0.329529
-0.387482
-0.432542
-0.464408
-0.484937
-0.497148
-0.504387
-0.509012
-0.511483
-0.512015
-0.511168
-0.50943
-0.507075
-0.504496
-0.502416
-0.501266
-0.500549
-0.499886
-0.499249
-0.49865
-0.498134
-0.497677
-0.497265
-0.496914
-0.496635
-0.496377
-0.49622
-0.496188
-0.49639
-0.497994
-0.511972
-0.440927
-1.15329e-05
-0.000421665
-0.00587554
-0.0124239
-0.033966
-0.0716782
-0.12555
-0.191332
-0.261852
-0.329256
-0.387202
-0.43232
-0.464219
-0.484817
-0.49706
-0.504334
-0.50896
-0.511451
-0.512006
-0.511181
-0.509441
-0.507112
-0.504537
-0.502442
-0.501269
-0.500557
-0.499891
-0.499261
-0.498662
-0.498156
-0.497664
-0.497259
-0.496917
-0.496604
-0.496348
-0.496184
-0.496087
-0.496076
-0.496417
-0.498436
-0.515717
-0.426777
-1.35645e-05
-0.00042959
-0.00372373
-0.0231343
-0.0340839
-0.0715897
-0.125389
-0.19113
-0.261612
-0.328996
-0.386957
-0.4321
-0.464056
-0.484688
-0.496966
-0.504265
-0.508921
-0.511434
-0.511988
-0.511174
-0.509461
-0.507131
-0.50456
-0.502454
-0.501301
-0.500587
-0.499894
-0.499279
-0.498687
-0.498163
-0.497685
-0.497262
-0.496902
-0.496607
-0.496345
-0.496138
-0.496013
-0.495961
-0.496059
-0.496527
-0.498947
-0.519576
-0.408162
-1.23656e-05
-0.000502653
-0.0038165
-0.0156564
-0.0600401
-0.0717839
-0.125256
-0.190924
-0.261389
-0.328767
-0.38674
-0.431896
-0.463903
-0.484585
-0.496897
-0.504197
-0.508876
-0.511413
-0.51198
-0.511204
-0.509476
-0.507166
-0.504598
-0.50248
-0.5013
-0.500594
-0.499917
-0.499291
-0.49868
-0.498184
-0.497711
-0.497278
-0.496925
-0.496614
-0.496327
-0.496123
-0.495984
-0.495895
-0.49589
-0.496083
-0.496717
-0.499611
-0.523549
-0.382132
-1.10068e-05
-0.000454617
-0.0044225
-0.0162239
-0.0424241
-0.118899
-0.125499
-0.190753
-0.261162
-0.328545
-0.386533
-0.431734
-0.463773
-0.484487
-0.49682
-0.504157
-0.508841
-0.511389
-0.511977
-0.511203
-0.509506
-0.507196
-0.504619
-0.502506
-0.501316
-0.500618
-0.499913
-0.499285
-0.49871
-0.49817
-0.497705
-0.49728
-0.49694
-0.496612
-0.49634
-0.496109
-0.495947
-0.495855
-0.495802
-0.495875
-0.49611
-0.496957
-0.500361
-0.527445
-0.344804
-1.07677e-05
-0.00040251
-0.00396827
-0.0185627
-0.044785
-0.086725
-0.194992
-0.190992
-0.260969
-0.328323
-0.386347
-0.431568
-0.463643
-0.484402
-0.496773
-0.504099
-0.508802
-0.51138
-0.511972
-0.511197
-0.509529
-0.507209
-0.504655
-0.502499
-0.501333
-0.500608
-0.499932
-0.499295
-0.498716
-0.498193
-0.497727
-0.497293
-0.496908
-0.4966
-0.496312
-0.496083
-0.495926
-0.495805
-0.495737
-0.49574
-0.49587
-0.49622
-0.497297
-0.501224
-0.530776
-0.293904
-1.05768e-05
-0.000391884
-0.00349806
-0.0166163
-0.0505464
-0.0931913
-0.147183
-0.278293
-0.261143
-0.328133
-0.386149
-0.431423
-0.463532
-0.484315
-0.496703
-0.50405
-0.508772
-0.51135
-0.511963
-0.511217
-0.509533
-0.507235
-0.504671
-0.502525
-0.501329
-0.500616
-0.499949
-0.499306
-0.498721
-0.498201
-0.49773
-0.497315
-0.496924
-0.496615
-0.496319
-0.496079
-0.4959
-0.495753
-0.495681
-0.495654
-0.495737
-0.495921
-0.496407
-0.497748
-0.503085
-0.532242
-0.214599
-1.05367e-05
-0.000356384
-0.00338652
-0.0146536
-0.0453991
-0.103924
-0.158702
-0.217676
-0.35671
-0.328206
-0.385979
-0.431263
-0.463415
-0.484235
-0.496659
-0.504008
-0.508724
-0.511332
-0.511957
-0.511217
-0.509541
-0.507258
-0.50467
-0.502531
-0.501327
-0.50064
-0.499948
-0.499317
-0.498727
-0.498197
-0.497729
-0.497287
-0.496921
-0.496603
-0.496336
-0.496093
-0.495906
-0.495747
-0.495657
-0.495606
-0.495624
-0.495738
-0.496022
-0.496631
-0.498313
-0.506998
-0.528604
-0.104068
-1.05219e-05
-0.000351466
-0.00295649
-0.0141299
-0.0402164
-0.0940786
-0.17555
-0.232699
-0.289645
-0.421109
-0.385975
-0.43114
-0.463309
-0.484172
-0.496601
-0.503974
-0.508709
-0.511318
-0.511948
-0.511211
-0.509556
-0.507266
-0.504699
-0.502535
-0.50134
-0.500627
-0.499948
-0.499329
-0.49873
-0.498195
-0.497739
-0.497302
-0.496932
-0.496596
-0.496321
-0.49609
-0.495878
-0.495737
-0.495619
-0.495571
-0.495578
-0.495635
-0.495829
-0.496174
-0.496925
-0.498997
-0.512519
-0.51597
-0.0374314
-1.05113e-05
-0.000350635
-0.00291936
-0.0121571
-0.038682
-0.0838378
-0.160673
-0.256591
-0.30484
-0.355028
-0.467516
-0.431067
-0.463225
-0.484107
-0.496564
-0.503947
-0.508668
-0.511306
-0.511961
-0.511214
-0.509565
-0.507285
-0.504715
-0.502558
-0.501356
-0.500652
-0.499965
-0.499321
-0.498738
-0.49822
-0.497734
-0.497311
-0.496943
-0.496607
-0.496334
-0.496073
-0.495877
-0.495711
-0.495599
-0.495535
-0.495492
-0.495537
-0.495698
-0.495928
-0.496372
-0.49731
-0.499789
-0.518359
-0.496829
-0.0144191
-1.04951e-05
-0.000350114
-0.00290888
-0.0120102
-0.0333257
-0.080476
-0.143878
-0.237899
-0.335916
-0.367802
-0.408423
-0.496368
-0.463116
-0.48404
-0.496523
-0.503902
-0.508659
-0.511289
-0.511949
-0.511216
-0.509583
-0.507298
-0.50474
-0.502563
-0.501351
-0.500659
-0.499966
-0.499332
-0.498761
-0.498199
-0.49775
-0.497322
-0.496926
-0.496617
-0.496321
-0.496086
-0.495886
-0.495689
-0.495586
-0.495485
-0.495443
-0.495464
-0.495568
-0.495762
-0.496057
-0.496634
-0.497777
-0.500642
-0.523884
-0.477595
-0.00730182
-1.04794e-05
-0.000349404
-0.00290275
-0.0119561
-0.0329385
-0.0702419
-0.137846
-0.213575
-0.31568
-0.40357
-0.418087
-0.447813
-0.51184
-0.483936
-0.496479
-0.503867
-0.508626
-0.51127
-0.511946
-0.511218
-0.50957
-0.507321
-0.504742
-0.502564
-0.501367
-0.500648
-0.499965
-0.499326
-0.498746
-0.498215
-0.497744
-0.497312
-0.496938
-0.496621
-0.49631
-0.496074
-0.495851
-0.495706
-0.49557
-0.495463
-0.495416
-0.495409
-0.495502
-0.495659
-0.495863
-0.496269
-0.496959
-0.498323
-0.502263
-0.528944
-0.4579
-0.00401531
-1.04683e-05
-0.000348713
-0.00289517
-0.0119259
-0.0327745
-0.0694815
-0.123043
-0.204768
-0.284124
-0.384183
-0.453622
-0.454597
-0.474263
-0.5188
-0.496363
-0.503844
-0.508608
-0.511254
-0.511937
-0.511214
-0.509573
-0.507327
-0.504756
-0.502592
-0.501358
-0.500658
-0.499983
-0.499339
-0.498756
-0.498218
-0.497737
-0.497324
-0.496922
-0.496601
-0.496313
-0.496056
-0.49586
-0.495694
-0.495542
-0.495486
-0.495391
-0.495395
-0.495432
-0.495541
-0.495721
-0.496039
-0.496524
-0.497327
-0.498974
-0.506063
-0.53355
-0.434036
-0.00255612
-1.04589e-05
-0.000348224
-0.00288771
-0.0118903
-0.0326851
-0.069132
-0.121845
-0.187758
-0.274138
-0.348294
-0.436768
-0.48548
-0.478754
-0.490521
-0.520996
-0.503738
-0.508581
-0.511246
-0.511935
-0.511219
-0.509585
-0.507331
-0.504769
-0.502598
-0.501382
-0.500662
-0.499989
-0.499354
-0.498763
-0.49822
-0.497754
-0.497318
-0.496926
-0.496606
-0.496314
-0.496054
-0.495843
-0.495682
-0.495563
-0.495436
-0.49538
-0.495369
-0.495383
-0.495466
-0.495601
-0.495848
-0.496237
-0.496817
-0.497772
-0.49974
-0.512076
-0.537068
-0.402578
-0.00180321
-1.04497e-05
-0.000347846
-0.00288244
-0.0118546
-0.0325826
-0.0689446
-0.121263
-0.186195
-0.257507
-0.339073
-0.401643
-0.471831
-0.502806
-0.49335
-0.499745
-0.520728
-0.508503
-0.511236
-0.51192
-0.511234
-0.509581
-0.507349
-0.50478
-0.502602
-0.50138
-0.50066
-0.499987
-0.499354
-0.498753
-0.498216
-0.49775
-0.497329
-0.496935
-0.496608
-0.496311
-0.496054
-0.495866
-0.495665
-0.495526
-0.495413
-0.495364
-0.495323
-0.495341
-0.495395
-0.495541
-0.495733
-0.496027
-0.496472
-0.497177
-0.4983
-0.500576
-0.519023
-0.537076
-0.359216
-0.0011313
-1.04414e-05
-0.000347479
-0.00287858
-0.0118299
-0.0324792
-0.0687312
-0.120957
-0.185399
-0.255751
-0.324617
-0.394145
-0.442098
-0.492205
-0.510555
-0.501678
-0.505109
-0.519251
-0.51117
-0.511923
-0.511221
-0.509598
-0.507348
-0.504788
-0.502606
-0.501377
-0.500669
-0.499977
-0.499366
-0.498767
-0.498227
-0.49775
-0.497321
-0.496928
-0.49661
-0.496313
-0.496053
-0.495842
-0.495664
-0.495536
-0.495433
-0.495322
-0.495326
-0.495321
-0.49534
-0.495434
-0.495635
-0.495875
-0.496251
-0.496788
-0.49759
-0.498906
-0.50216
-0.525856
-0.52934
-0.29688
-0.000562085
-1.04345e-05
-0.000347152
-0.00287506
-0.011812
-0.0324072
-0.0685157
-0.120615
-0.184959
-0.254809
-0.32285
-0.38282
-0.436639
-0.470159
-0.502464
-0.5129
-0.507033
-0.508371
-0.51723
-0.511883
-0.511225
-0.509601
-0.507341
-0.504793
-0.502607
-0.501391
-0.500677
-0.499985
-0.499371
-0.498776
-0.498244
-0.497753
-0.49732
-0.496916
-0.496599
-0.496291
-0.496031
-0.495838
-0.495635
-0.49551
-0.495421
-0.495329
-0.495296
-0.495293
-0.495305
-0.495407
-0.495532
-0.495733
-0.496053
-0.496516
-0.497155
-0.498061
-0.499594
-0.505937
-0.53214
-0.512947
-0.200096
-0.000191557
-1.04298e-05
-0.000346903
-0.00287189
-0.0117959
-0.0323572
-0.0683678
-0.120261
-0.184497
-0.254283
-0.321886
-0.381237
-0.428577
-0.466574
-0.48797
-0.506859
-0.512529
-0.510431
-0.509612
-0.515028
-0.511174
-0.509614
-0.507364
-0.504791
-0.502619
-0.501384
-0.500685
-0.500005
-0.499351
-0.498778
-0.498221
-0.497742
-0.497318
-0.49693
-0.496603
-0.496295
-0.496028
-0.495811
-0.495632
-0.495506
-0.495395
-0.495295
-0.495256
-0.495277
-0.495273
-0.495333
-0.495495
-0.495658
-0.495902
-0.496301
-0.496813
-0.497555
-0.498635
-0.500408
-0.512218
-0.537846
-0.491772
-0.0801223
-2.78676e-05
-1.04206e-05
-0.00034673
-0.00286958
-0.0117823
-0.032312
-0.0682631
-0.120019
-0.184016
-0.253728
-0.321378
-0.38038
-0.42734
-0.461344
-0.485872
-0.498293
-0.50829
-0.512106
-0.511649
-0.508956
-0.512829
-0.509527
-0.507367
-0.504807
-0.502627
-0.501391
-0.500671
-0.499989
-0.499348
-0.498773
-0.498234
-0.497738
-0.49732
-0.496925
-0.496594
-0.496302
-0.496028
-0.49583
-0.495652
-0.495477
-0.495394
-0.495296
-0.495228
-0.495249
-0.495251
-0.495308
-0.495419
-0.495572
-0.495827
-0.496126
-0.496594
-0.497213
-0.498023
-0.499281
-0.501747
-0.519912
-0.542433
-0.462481
-0.0198302
-1.02999e-08
-1.01964e-05
-0.000346421
-0.00286798
-0.0117722
-0.0322734
-0.068171
-0.119845
-0.183677
-0.253168
-0.320812
-0.379931
-0.426676
-0.460478
-0.48278
-0.49732
-0.504058
-0.50851
-0.513372
-0.511324
-0.507054
-0.510722
-0.507289
-0.50482
-0.502636
-0.50139
-0.50067
-0.500004
-0.499342
-0.498764
-0.49823
-0.497755
-0.497337
-0.496948
-0.496608
-0.496308
-0.496032
-0.495827
-0.495648
-0.495499
-0.495365
-0.495273
-0.495215
-0.495229
-0.495239
-0.495283
-0.495379
-0.49553
-0.495706
-0.495999
-0.49639
-0.496915
-0.497639
-0.498561
-0.499956
-0.504938
-0.528048
-0.542759
-0.414605
-0.00620716
-6.60064e-06
-6.29484e-06
-0.000339157
-0.00286547
-0.0117654
-0.0322464
-0.0680931
-0.119692
-0.183448
-0.252774
-0.320244
-0.37945
-0.426328
-0.460005
-0.482241
-0.495628
-0.504072
-0.507513
-0.509071
-0.514518
-0.509909
-0.504547
-0.508767
-0.504755
-0.502643
-0.501396
-0.500682
-0.499999
-0.499374
-0.498772
-0.498239
-0.497762
-0.497325
-0.496945
-0.496587
-0.496301
-0.496042
-0.495831
-0.495646
-0.495469
-0.495361
-0.49527
-0.495194
-0.495169
-0.495208
-0.495241
-0.495335
-0.495463
-0.495643
-0.495894
-0.496217
-0.496689
-0.497295
-0.498078
-0.499166
-0.500709
-0.510748
-0.53591
-0.531438
-0.3408
-0.00186575
-1.42656e-05
-1.18098e-07
-0.000212568
-0.00280829
-0.0117554
-0.0322288
-0.0680385
-0.119568
-0.183249
-0.252518
-0.319852
-0.378935
-0.425935
-0.459757
-0.481924
-0.495325
-0.503181
-0.508336
-0.509469
-0.510084
-0.513581
-0.507761
-0.502275
-0.50711
-0.502626
-0.501415
-0.500678
-0.500003
-0.499364
-0.498759
-0.498244
-0.497763
-0.497332
-0.496949
-0.496598
-0.496295
-0.496025
-0.495812
-0.49562
-0.495466
-0.49533
-0.495241
-0.495197
-0.495182
-0.495182
-0.495223
-0.495288
-0.495402
-0.495581
-0.495788
-0.496105
-0.496516
-0.497034
-0.497741
-0.49863
-0.499803
-0.502274
-0.518462
-0.542425
-0.507379
-0.226646
-0.000191362
-3.85488e-06
-3.03379e-07
-5.74992e-06
-0.00180217
-0.0115385
-0.0322027
-0.0680037
-0.119482
-0.183083
-0.252299
-0.319596
-0.378605
-0.425512
-0.459458
-0.481751
-0.495128
-0.503013
-0.508076
-0.510591
-0.510229
-0.509975
-0.510864
-0.505161
-0.500881
-0.505854
-0.50142
-0.500678
-0.500014
-0.499365
-0.498781
-0.498227
-0.497766
-0.497328
-0.496927
-0.49658
-0.496308
-0.496047
-0.495823
-0.495624
-0.49544
-0.495326
-0.495236
-0.495167
-0.495162
-0.495152
-0.495213
-0.495269
-0.495364
-0.495543
-0.49575
-0.496014
-0.496349
-0.496812
-0.497423
-0.49821
-0.499247
-0.500524
-0.506172
-0.52713
-0.545604
-0.477327
-0.0823258
-2.36805e-08
-4.88216e-07
-1.03508e-06
-1.06614e-05
-6.77252e-05
-0.00764804
-0.0316703
-0.067955
-0.119427
-0.182968
-0.252108
-0.319381
-0.378365
-0.425268
-0.459159
-0.481568
-0.495012
-0.502868
-0.508005
-0.510907
-0.511205
-0.509764
-0.508192
-0.507421
-0.502839
-0.499876
-0.504597
-0.500688
-0.499987
-0.499351
-0.498779
-0.498245
-0.497769
-0.497331
-0.496945
-0.4966
-0.496284
-0.49603
-0.495791
-0.49561
-0.495443
-0.495326
-0.495232
-0.495166
-0.495141
-0.49514
-0.495164
-0.495223
-0.495315
-0.495489
-0.49567
-0.495939
-0.496239
-0.496655
-0.497178
-0.497864
-0.498762
-0.499876
-0.501672
-0.512772
-0.535979
-0.540216
-0.429037
-0.0114803
-1.24381e-05
-6.41827e-08
-1.4583e-06
-3.12029e-05
-0.000103076
-0.000392779
-0.0218431
-0.0669772
-0.119353
-0.182896
-0.251975
-0.319184
-0.378156
-0.425057
-0.458975
-0.481382
-0.494891
-0.502815
-0.507934
-0.510933
-0.511707
-0.510653
-0.508044
-0.505488
-0.504484
-0.501491
-0.498902
-0.503096
-0.500007
-0.499377
-0.498762
-0.498233
-0.497762
-0.497327
-0.496918
-0.496597
-0.496304
-0.49603
-0.495798
-0.495601
-0.495451
-0.495305
-0.495235
-0.495164
-0.495116
-0.495097
-0.495136
-0.495216
-0.495287
-0.495422
-0.495641
-0.495847
-0.496141
-0.496505
-0.497006
-0.497626
-0.498409
-0.499358
-0.500541
-0.50453
-0.521115
-0.543525
-0.521894
-0.337461
-0.000875636
-1.16982e-05
-1.81353e-08
-1.71901e-06
-4.61947e-05
-0.000238709
-0.000406517
-0.00152455
-0.0483288
-0.117912
-0.1828
-0.251897
-0.319057
-0.377986
-0.424881
-0.458827
-0.481236
-0.494781
-0.502736
-0.507924
-0.510948
-0.511832
-0.51109
-0.509078
-0.505575
-0.50292
-0.502495
-0.500659
-0.497992
-0.501976
-0.499391
-0.498789
-0.498254
-0.497744
-0.497315
-0.496929
-0.496582
-0.496271
-0.496022
-0.495795
-0.495606
-0.495445
-0.495315
-0.495213
-0.495141
-0.495091
-0.495103
-0.495101
-0.495172
-0.495248
-0.495399
-0.495559
-0.495775
-0.496091
-0.49641
-0.496852
-0.497381
-0.498111
-0.49897
-0.500017
-0.50156
-0.510062
-0.530435
-0.54688
-0.492492
-0.186173
-1.68675e-05
-2.32931e-06
-9.02163e-09
-1.87975e-06
-5.51254e-05
-0.000363957
-0.0009964
-0.000846518
-0.00458709
-0.089248
-0.18101
-0.251788
-0.318978
-0.37787
-0.424744
-0.45871
-0.481156
-0.494676
-0.502658
-0.507876
-0.510929
-0.511864
-0.511271
-0.509485
-0.506786
-0.503152
-0.501446
-0.501525
-0.499832
-0.497178
-0.501483
-0.4988
-0.498238
-0.49776
-0.497317
-0.496916
-0.496594
-0.496306
-0.496032
-0.495785
-0.4956
-0.495447
-0.495305
-0.495197
-0.495148
-0.495094
-0.495055
-0.49509
-0.495147
-0.49522
-0.495352
-0.495514
-0.495745
-0.495981
-0.496311
-0.496717
-0.497228
-0.497846
-0.498624
-0.499554
-0.500675
-0.504091
-0.51785
-0.539613
-0.539029
-0.445685
-0.0388715
-4.60801e-06
-1.97552e-07
-4.08916e-09
-1.96368e-06
-6.02742e-05
-0.000438629
-0.00151378
-0.00335991
-0.000906694
-0.0115137
-0.143762
-0.249865
-0.318877
-0.377799
-0.424648
-0.458607
-0.48108
-0.494631
-0.502598
-0.507806
-0.510884
-0.511861
-0.511316
-0.509708
-0.507228
-0.504266
-0.501524
-0.500654
-0.501005
-0.499107
-0.496406
-0.501245
-0.498255
-0.497763
-0.497308
-0.496943
-0.4966
-0.496289
-0.49602
-0.495796
-0.495589
-0.49544
-0.495307
-0.495213
-0.495132
-0.495078
-0.495064
-0.495074
-0.495114
-0.495208
-0.495319
-0.495471
-0.495688
-0.495935
-0.496243
-0.496615
-0.497056
-0.497632
-0.498316
-0.499196
-0.500205
-0.501721
-0.509238
-0.527057
-0.546008
-0.517819
-0.353162
-0.0029037
-1.01969e-05
-8.25905e-08
-3.35754e-10
-2.10826e-06
-6.28747e-05
-0.000481943
-0.00182556
-0.00459473
-0.00897285
-0.000192731
-0.0251235
-0.207741
-0.317042
-0.377717
-0.424596
-0.458541
-0.481027
-0.494599
-0.502553
-0.50778
-0.510842
-0.511854
-0.511303
-0.509765
-0.507507
-0.504678
-0.502241
-0.500557
-0.499955
-0.50051
-0.49844
-0.495723
-0.501071
-0.497769
-0.497328
-0.496928
-0.4966
-0.496294
-0.496
-0.495774
-0.495595
-0.495428
-0.4953
-0.495191
-0.495126
-0.495064
-0.495047
-0.495035
-0.495108
-0.49519
-0.495298
-0.495434
-0.495619
-0.495877
-0.496158
-0.496526
-0.496962
-0.497473
-0.498085
-0.498875
-0.49983
-0.500883
-0.504399
-0.516761
-0.536771
-0.544096
-0.485535
-0.187975
-8.61265e-05
-8.24701e-06
-1.00649e-07
-3.84339e-10
-2.2661e-06
-6.7436e-05
-0.000505724
-0.0020406
-0.00543018
-0.0119357
-0.0192138
-0.00082635
-0.0487187
-0.274818
-0.376128
-0.424531
-0.458502
-0.480988
-0.494567
-0.502542
-0.507741
-0.510831
-0.511833
-0.5113
-0.509791
-0.507563
-0.504965
-0.502502
-0.501067
-0.499741
-0.49933
-0.50007
-0.497721
-0.495166
-0.500902
-0.497318
-0.496925
-0.496583
-0.496286
-0.496001
-0.495774
-0.495598
-0.495435
-0.49531
-0.495184
-0.495101
-0.495032
-0.495012
-0.495051
-0.495074
-0.49514
-0.49524
-0.495379
-0.495589
-0.495831
-0.496092
-0.496431
-0.496845
-0.497315
-0.497918
-0.498611
-0.499479
-0.500474
-0.502101
-0.509621
-0.525915
-0.544686
-0.529162
-0.425713
-0.0336513
-8.74033e-08
-1.53152e-06
-2.69117e-08
-1.44612e-10
-2.40529e-06
-7.24395e-05
-0.0005419
-0.00217709
-0.00638185
-0.0139384
-0.0259341
-0.0332399
-0.00852138
-0.0850966
-0.337981
-0.423282
-0.458462
-0.480959
-0.494533
-0.502506
-0.507725
-0.510851
-0.511831
-0.511345
-0.509801
-0.507638
-0.505091
-0.502712
-0.501267
-0.500297
-0.49897
-0.498746
-0.499658
-0.497046
-0.494699
-0.500759
-0.496911
-0.49658
-0.496269
-0.496017
-0.495775
-0.4956
-0.495433
-0.495287
-0.495195
-0.495117
-0.495036
-0.495007
-0.495017
-0.495046
-0.495143
-0.495225
-0.495335
-0.495533
-0.495754
-0.496051
-0.496354
-0.496732
-0.497209
-0.497769
-0.498418
-0.499202
-0.500092
-0.501163
-0.505229
-0.517197
-0.535876
-0.545546
-0.502507
-0.2999
-0.00169133
-7.98665e-06
-1.43328e-07
-4.0651e-10
-7.99747e-11
-2.53919e-06
-7.68162e-05
-0.000583423
-0.00234487
-0.00715743
-0.0166589
-0.0300842
-0.0466054
-0.0466177
-0.0265105
-0.134762
-0.391746
-0.457535
-0.48092
-0.494527
-0.502491
-0.507698
-0.510823
-0.511862
-0.511394
-0.509843
-0.507722
-0.505131
-0.502896
-0.501384
-0.500525
-0.499549
-0.498246
-0.498225
-0.499266
-0.496446
-0.494288
-0.500689
-0.496538
-0.496289
-0.495997
-0.495767
-0.495572
-0.495408
-0.495287
-0.495171
-0.495077
-0.495056
-0.495014
-0.495019
-0.495045
-0.495091
-0.495187
-0.495345
-0.495517
-0.495707
-0.49596
-0.49627
-0.496673
-0.497127
-0.497626
-0.498256
-0.498963
-0.499826
-0.50075
-0.502715
-0.510914
-0.526479
-0.544192
-0.533024
-0.455719
-0.108504
-7.71226e-06
-1.97628e-06
-3.12408e-09
-3.25425e-09
-3.88725e-10
-2.67738e-06
-8.10049e-05
-0.000620343
-0.0025311
-0.00783
-0.0189361
-0.0355743
-0.0537327
-0.0689607
-0.0534927
-0.0520776
-0.194769
-0.433246
-0.480288
-0.494505
-0.502488
-0.507716
-0.510832
-0.51184
-0.511385
-0.509874
-0.507728
-0.505177
-0.502922
-0.501516
-0.500646
-0.499804
-0.498854
-0.497565
-0.497796
-0.498881
-0.495845
-0.494021
-0.50065
-0.496244
-0.496015
-0.495767
-0.495559
-0.495401
-0.495282
-0.495168
-0.495078
-0.495038
-0.494983
-0.495003
-0.495024
-0.495071
-0.495175
-0.49529
-0.495463
-0.495663
-0.495921
-0.496218
-0.49656
-0.496998
-0.497529
-0.498094
-0.498791
-0.499561
-0.500474
-0.501675
-0.506579
-0.518786
-0.5365
-0.54514
-0.508229
-0.351403
-0.00661935
-6.07375e-06
-4.37821e-09
-2.99277e-09
-4.08119e-10
-3.30729e-11
-2.81384e-06
-8.53096e-05
-0.000655825
-0.00269866
-0.00853847
-0.0207208
-0.0399612
-0.0616174
-0.0789931
-0.0848926
-0.0513565
-0.0805338
-0.258592
-0.462544
-0.494071
-0.50248
-0.5077
-0.510825
-0.511849
-0.511373
-0.50989
-0.507692
-0.505251
-0.502908
-0.501559
-0.500705
-0.499948
-0.499112
-0.498201
-0.496966
-0.497409
-0.498553
-0.495298
-0.493801
-0.500645
-0.495954
-0.495786
-0.495584
-0.495412
-0.495278
-0.495164
-0.495078
-0.495042
-0.494997
-0.494997
-0.495009
-0.495058
-0.495162
-0.495264
-0.495429
-0.495602
-0.495855
-0.496178
-0.496497
-0.496929
-0.497404
-0.497934
-0.498614
-0.499372
-0.500207
-0.501095
-0.503992
-0.513021
-0.528309
-0.544397
-0.532552
-0.466227
-0.157308
-3.48675e-05
-4.89943e-07
-3.84286e-08
-5.29512e-10
-3.0193e-10
-7.17023e-10
-2.94263e-06
-8.95829e-05
-0.00069281
-0.00287244
-0.00920549
-0.0225375
-0.0432113
-0.0672734
-0.0869691
-0.0968983
-0.0895274
-0.0422952
-0.108903
-0.31854
-0.481461
-0.502189
-0.507686
-0.510815
-0.511837
-0.511365
-0.509899
-0.507718
-0.505248
-0.502987
-0.501561
-0.500748
-0.500004
-0.499279
-0.498436
-0.497581
-0.496421
-0.497073
-0.498226
-0.494781
-0.493663
-0.500715
-0.495664
-0.49558
-0.495388
-0.495264
-0.495155
-0.49507
-0.495013
-0.494973
-0.494959
-0.495013
-0.495052
-0.495131
-0.495241
-0.495387
-0.495587
-0.4958
-0.496129
-0.496436
-0.496843
-0.497326
-0.497856
-0.498439
-0.499169
-0.499987
-0.500799
-0.502414
-0.508766
-0.52141