/*--------------------------------*- C++ -*----------------------------------*\
| =========                 |                                                 |
| \\      /  F ield         | OpenFOAM: The Open Source CFD Toolbox           |
|  \\    /   O peration     | Version:  v2012                                 |
|   \\  /    A nd           | Website:  www.openfoam.com                      |
|    \\/     M anipulation  |                                                 |
\*---------------------------------------------------------------------------*/
FoamFile
{
    version     2.0;
    format      ascii;
    class       volScalarField;
    location    "13200";
    object      Mg;
}
// * * * * * * * * * * * * * * * * * * * * * * * * * * * * * * * * * * * * * //

dimensions      [0 0 0 0 0 0 0];


internalField   nonuniform List<scalar> 
31383
(
3.54296e-07
1.48255e-06
9.37439e-07
1.37732e-06
4.91182e-06
2.25183e-06
1.30221e-06
4.54281e-06
2.92037e-05
7.14499e-06
1.24694e-06
4.27822e-06
2.69072e-05
0.000119616
2.01968e-05
1.20213e-06
4.0839e-06
2.52546e-05
0.000110172
0.000352526
4.83653e-05
1.16455e-06
3.9264e-06
2.40415e-05
0.000103368
0.000324718
0.000846369
0.000102052
1.13314e-06
3.79482e-06
2.30585e-05
9.83721e-05
0.000304662
0.000780018
0.0017674
0.000198027
1.10664e-06
3.68497e-06
2.22393e-05
9.43238e-05
0.000289933
0.000732078
0.00163102
0.00331751
0.000362118
1.08346e-06
3.59243e-06
2.15561e-05
9.09507e-05
0.000277988
0.000696838
0.00153218
0.00306915
0.00568277
0.000636143
1.0629e-06
3.5118e-06
2.09807e-05
8.81365e-05
0.000268033
0.000668236
0.00145936
0.0028885
0.00527602
0.00891367
0.00110665
1.04414e-06
3.44023e-06
2.04811e-05
8.57683e-05
0.000259728
0.000644386
0.00140016
0.00275488
0.0049811
0.00832679
0.0128257
0.00187588
1.02713e-06
3.37496e-06
2.00372e-05
8.37111e-05
0.000252739
0.000624483
0.00135075
0.002646
0.00476161
0.00789851
0.0120844
0.0170354
0.00291039
1.01155e-06
3.31572e-06
1.96324e-05
8.18843e-05
0.000246668
0.00060772
0.0013095
0.0025549
0.00458217
0.00757563
0.011531
0.0161872
0.0210805
0.00441905
9.97521e-07
3.26151e-06
1.92651e-05
8.02184e-05
0.000241277
0.000593158
0.00127471
0.00247873
0.00443208
0.00731065
0.0111075
0.0155425
0.0201871
0.0246531
0.00638528
9.84911e-07
3.21283e-06
1.89291e-05
7.87074e-05
0.000236359
0.00058023
0.00124448
0.00241441
0.00430498
0.00709142
0.0107584
0.0150468
0.0194988
0.0237549
0.0277106
0.008104
9.73677e-07
3.1692e-06
1.86279e-05
7.73238e-05
0.0002319
0.000568434
0.00121761
0.00235842
0.004198
0.00689909
0.0104676
0.0146352
0.0189691
0.0230576
0.0268075
0.0303063
0.00999069
9.63538e-07
3.13026e-06
1.83584e-05
7.60851e-05
0.000227819
0.000557742
0.00119312
0.00230869
0.00410463
0.0067393
0.0102131
0.0142831
0.0185238
0.0225176
0.0261094
0.0293969
0.0324058
0.0121745
9.54536e-07
3.09528e-06
1.81177e-05
7.49759e-05
0.000224164
0.000547953
0.00117089
0.00226343
0.00402168
0.00659995
0.00999847
0.0139859
0.0181419
0.0220608
0.0255653
0.0287046
0.0315147
0.0340155
0.0148848
9.46402e-07
3.06416e-06
1.79022e-05
7.39865e-05
0.000220891
0.000539184
0.00115055
0.00222205
0.00394723
0.00647494
0.00981359
0.013727
0.0178178
0.0216736
0.0251107
0.0281695
0.0308505
0.0331528
0.0352289
0.0172783
9.39122e-07
3.03619e-06
1.77103e-05
7.30993e-05
0.000217971
0.000531333
0.00113232
0.00218432
0.00387689
0.00636307
0.00964332
0.0135043
0.0175356
0.0213438
0.0247275
0.0277245
0.0303351
0.0325216
0.0343786
0.0361167
0.0194531
9.3257e-07
3.01115e-06
1.75383e-05
7.231e-05
0.000215354
0.000524331
0.001116
0.00215048
0.00381375
0.00625718
0.00949047
0.0132983
0.017287
0.0210554
0.0244007
0.0273437
0.0299034
0.0320243
0.0337696
0.0352616
0.0367422
0.0214564
9.26691e-07
2.98862e-06
1.73844e-05
7.16029e-05
0.000213026
0.000518054
0.00110143
0.00212015
0.00375712
0.00616219
0.00935052
0.0131131
0.0170651
0.0207996
0.0241115
0.0270159
0.0295278
0.0316083
0.0332944
0.0346746
0.0358701
0.0371683
0.0231681
9.21377e-07
2.96843e-06
1.7246e-05
7.09703e-05
0.000210938
0.00051246
0.00108836
0.00209307
0.0037064
0.00607665
0.00922204
0.0129457
0.016861
0.0205758
0.0238582
0.026727
0.0292061
0.0312483
0.0328933
0.0342158
0.035303
0.0362728
0.0374578
0.0245672
9.16571e-07
2.95024e-06
1.71222e-05
7.04015e-05
0.000209071
0.000507452
0.00107673
0.00206876
0.00366077
0.00600097
0.00910632
0.0127893
0.0166774
0.0203656
0.0236365
0.0264751
0.0289238
0.0309405
0.0325502
0.0338315
0.0348589
0.0357227
0.0365788
0.0376948
0.0256688
9.12151e-07
2.93377e-06
1.70106e-05
6.98923e-05
0.000207393
0.00050297
0.0010663
0.0020471
0.00361991
0.00593084
0.00900375
0.012649
0.0165058
0.0201785
0.0234293
0.026254
0.0286758
0.03067
0.0322557
0.0335027
0.0344901
0.0352912
0.0360319
0.0368886
0.0379481
0.0264705
9.08079e-07
2.91864e-06
1.69097e-05
6.94337e-05
0.00020589
0.000498943
0.00105697
0.00202768
0.00358349
0.00586917
0.00890843
0.0125222
0.0163515
0.020005
0.0232441
0.0260523
0.0284585
0.0304298
0.0319989
0.03322
0.0341727
0.0349335
0.0356078
0.0363361
0.0371966
0.0382059
0.0269966
9.04326e-07
2.9047e-06
1.6817e-05
6.90186e-05
0.000204538
0.000495331
0.00104858
0.00201027
0.00355075
0.00581356
0.00882496
0.0124079
0.0162111
0.0198479
0.0230745
0.0258675
0.0282596
0.0302228
0.0317683
0.0329763
0.0339001
0.0346278
0.0352541
0.0359104
0.0366452
0.037462
0.0384227
0.0273384
9.00867e-07
2.89187e-06
1.67317e-05
6.86377e-05
0.000203313
0.000492085
0.00104105
0.00199462
0.0035214
0.00576366
0.00874797
0.0123056
0.0160855
0.0197044
0.0229196
0.0256997
0.0280815
0.0300323
0.0315686
0.0327568
0.0336654
0.0343653
0.034954
0.0355563
0.0362192
0.0369142
0.0376794
0.0386
0.0276122
8.97697e-07
2.88005e-06
1.66531e-05
6.82865e-05
0.000202187
0.000489144
0.00103428
0.00198059
0.00349499
0.00571909
0.00868013
0.0122117
0.0159708
0.0195755
0.0227778
0.0255477
0.0279165
0.0298628
0.0313901
0.0325636
0.0334571
0.0341336
0.0346949
0.0352542
0.035866
0.0364916
0.0371343
0.0378543
0.0387455
0.0279814
8.94784e-07
2.86925e-06
1.6581e-05
6.79637e-05
0.000201152
0.000486441
0.00102814
0.00196794
0.00347128
0.00567876
0.0086187
0.0121286
0.0158681
0.0194572
0.0226502
0.0254081
0.0277695
0.029708
0.0312292
0.0323928
0.0332721
0.0339323
0.0344678
0.0349926
0.0355645
0.0361399
0.0367124
0.0373109
0.0380006
0.0388632
0.0284232
8.92132e-07
2.85934e-06
1.6515e-05
6.76675e-05
0.000200201
0.000483955
0.00102251
0.00195649
0.00344991
0.00564243
0.00856305
0.012052
0.0157744
0.0193507
0.0225335
0.0252831
0.0276352
0.0295681
0.031084
0.0322418
0.0331077
0.0337545
0.0342658
0.0347666
0.0353012
0.0358399
0.0363612
0.0368935
0.0374526
0.0381219
0.0389604
0.0280142
8.89716e-07
2.85033e-06
1.64547e-05
6.73959e-05
0.000199324
0.000481664
0.00101732
0.00194597
0.00343055
0.00560975
0.00851307
0.0119833
0.015689
0.0192538
0.0224264
0.0251666
0.0275123
0.0294414
0.0309525
0.0321055
0.0329627
0.0335966
0.0340919
0.0345634
0.0350734
0.0355813
0.0360649
0.0365434
0.0370404
0.0375742
0.0382213
0.0390358
0.0257115
8.87488e-07
2.84214e-06
1.63999e-05
6.71482e-05
0.000198523
0.000479563
0.00101255
0.00193627
0.00341275
0.00557999
0.00846811
0.0119217
0.0156123
0.0191659
0.0223308
0.0250623
0.0273999
0.029325
0.0308317
0.0319803
0.0328356
0.0334567
0.0339379
0.0343875
0.0348731
0.0353543
0.0358104
0.03625
0.0366951
0.0371607
0.0376759
0.0383056
0.0390918
0.0234923
8.85409e-07
2.83459e-06
1.635e-05
6.69229e-05
0.000197791
0.000477639
0.00100816
0.00192735
0.00339634
0.00555274
0.00842726
0.0118655
0.0155431
0.0190866
0.022244
0.0249673
0.0272993
0.0292192
0.0307239
0.0318669
0.0327164
0.0333338
0.0337993
0.0342343
0.0346961
0.035157
0.0355844
0.0359949
0.0363997
0.0368186
0.0372607
0.0377552
0.0383768
0.039127
0.0217733
8.83454e-07
2.82756e-06
1.63043e-05
6.67179e-05
0.000197126
0.00047588
0.00100415
0.00191916
0.00338124
0.00552758
0.00838951
0.011815
0.0154796
0.0190135
0.0221638
0.0248805
0.0272051
0.0291226
0.0306225
0.0317638
0.0326077
0.0332204
0.033678
0.034096
0.0345405
0.0349835
0.0353863
0.0357725
0.0361448
0.0365269
0.036921
0.0373449
0.0378204
0.0384329
0.0391394
0.0201861
8.81472e-07
2.82095e-06
1.62615e-05
6.65298e-05
0.000196522
0.000474277
0.00100048
0.00191165
0.00336734
0.0055044
0.00835462
0.0117679
0.0154216
0.0189481
0.02209
0.0248001
0.027119
0.029033
0.0305308
0.0316687
0.0325088
0.0331155
0.0335675
0.0339741
0.0344065
0.0348275
0.0352145
0.0355734
0.035924
0.036272
0.0366287
0.0370023
0.0374125
0.0378771
0.0384807
0.0391424
0.0184812
8.79853e-07
2.81424e-06
1.62215e-05
6.6354e-05
0.000195966
0.000472828
0.000997145
0.00190479
0.00335462
0.00548319
0.00832257
0.0117247
0.015369
0.0188873
0.0220243
0.0247273
0.0270416
0.0289508
0.0304456
0.0315813
0.0324196
0.0330221
0.0334674
0.0338627
0.0342828
0.0346918
0.0350623
0.0354012
0.0357293
0.0360516
0.0363779
0.0367108
0.0370712
0.0374661
0.037918
0.0385234
0.0391997
0.0166535
8.83425e-07
2.80882e-06
1.61807e-05
6.61898e-05
0.000195447
0.000471491
0.000994105
0.00189855
0.00334298
0.00546362
0.0082931
0.0116847
0.0153199
0.018832
0.0219637
0.0246609
0.0269697
0.0288757
0.0303681
0.0315002
0.032338
0.0329365
0.0333749
0.0337617
0.0341718
0.0345703
0.0349265
0.0352517
0.0355572
0.0358563
0.0361579
0.036461
0.0367818
0.0371292
0.0375091
0.037952
0.0385565
0.0393678
0.0147099
1.39267e-06
2.8133e-06
1.61479e-05
6.60222e-05
0.000194962
0.000470246
0.000991316
0.00189286
0.00333238
0.00544563
0.008266
0.0116474
0.0152745
0.0187802
0.0219071
0.0246001
0.0269037
0.0288071
0.030296
0.0314258
0.0322608
0.0328567
0.0332899
0.0336697
0.0340708
0.0344616
0.0348077
0.0351183
0.0354072
0.0356864
0.0359619
0.0362436
0.036534
0.03684
0.037171
0.0375454
0.0379803
0.0385818
0.0396087
0.0126617
9.17992e-07
7.74106e-06
1.61352e-05
6.58879e-05
0.000194467
0.000469078
0.000988712
0.00188763
0.0033227
0.0054293
0.00824121
0.0116137
0.0152329
0.0187327
0.0218559
0.0245432
0.026844
0.0287445
0.0302321
0.0313582
0.03219
0.0327829
0.0332104
0.0335835
0.0339794
0.0343611
0.0346993
0.0349998
0.0352738
0.0355366
0.0357941
0.0360507
0.0363157
0.0365932
0.0368844
0.0372076
0.0375731
0.0379986
0.0386037
0.039861
0.0105333
9.30721e-07
3.28677e-06
5.11853e-05
6.58134e-05
0.000194072
0.000467887
0.00098627
0.00188273
0.00331379
0.00541446
0.00821814
0.0115829
0.015194
0.0186891
0.021808
0.0244926
0.0267885
0.0286862
0.0301717
0.0312959
0.0321232
0.0327152
0.0331388
0.033506
0.0338931
0.0342696
0.0345989
0.0348919
0.0351556
0.0354058
0.035642
0.0358804
0.0361236
0.0363738
0.0366367
0.0369233
0.037238
0.0375889
0.0380094
0.0386152
0.0400759
0.0083731
1.09999e-06
3.43679e-06
2.03633e-05
0.000206559
0.000193806
0.000466939
0.00098378
0.00187815
0.00330547
0.00540057
0.00819718
0.0115539
0.0151585
0.0186477
0.0217625
0.024444
0.0267379
0.0286336
0.0301152
0.0312367
0.032063
0.0326508
0.0330712
0.0334326
0.0338174
0.0341875
0.0345079
0.0347942
0.0350503
0.0352879
0.0355121
0.0357313
0.0359534
0.0361832
0.0364225
0.0366755
0.0369519
0.0372569
0.0376042
0.0380161
0.0386098
0.0402084
0.00626491
1.00593e-06
4.72836e-06
2.18856e-05
8.45366e-05
0.000599857
0.00046616
0.000981804
0.00187349
0.00329768
0.00538778
0.00817801
0.011527
0.0151255
0.0186102
0.0217217
0.0243985
0.0266903
0.0285844
0.0300639
0.0311863
0.0320075
0.0325938
0.0330106
0.0333666
0.0337435
0.0341098
0.034426
0.034705
0.0349506
0.0351832
0.0353973
0.0356016
0.0358075
0.0360167
0.0362305
0.0364616
0.0367085
0.0369752
0.0372708
0.0376122
0.0380175
0.0385953
0.0402208
0.00434477
8.96707e-07
4.07471e-06
3.26867e-05
9.18096e-05
0.000249302
0.00142633
0.000979801
0.00186979
0.00328973
0.00537564
0.00815988
0.0115031
0.0150955
0.0185754
0.0216826
0.0243581
0.0266465
0.0285384
0.030017
0.0311365
0.0319581
0.0325411
0.0329532
0.0333059
0.0336773
0.0340398
0.0343479
0.0346206
0.0348644
0.0350834
0.0352901
0.0354848
0.0356786
0.0358687
0.036066
0.0362718
0.0364938
0.036733
0.0369903
0.0372806
0.0376081
0.0380086
0.0385572
0.0400322
0.00277979
8.79369e-07
3.26834e-06
2.70923e-05
0.000137548
0.000274682
0.000595399
0.00295932
0.00186518
0.00328337
0.00536328
0.00814305
0.01148
0.015067
0.0185433
0.0216481
0.0243186
0.0266051
0.0284969
0.0299732
0.0310898
0.0319118
0.032491
0.0329024
0.0332465
0.0336165
0.0339713
0.034278
0.034545
0.0347822
0.0349973
0.0351956
0.0353808
0.0355583
0.0357371
0.0359157
0.0361033
0.0363045
0.0365188
0.0367479
0.0369985
0.0372801
0.0376014
0.037994
0.0384935
0.0395022
0.00168256
8.63905e-07
3.15728e-06
2.02115e-05
0.000112568
0.000411321
0.000666451
0.00124275
0.00551387
0.00327377
0.00535342
0.0081256
0.0114586
0.0150407
0.0185127
0.021614
0.0242823
0.0265668
0.0284558
0.0299319
0.0310494
0.0318673
0.032446
0.0328536
0.0331954
0.0335581
0.03391
0.0342134
0.0344751
0.0347068
0.0349161
0.0351079
0.0352869
0.0354555
0.0356234
0.0357871
0.0359569
0.0361374
0.0363274
0.0365352
0.0367567
0.0370035
0.0372752
0.0375905
0.0379724
0.0385128
0.0383676
0.000941713
8.61137e-07
2.77259e-06
1.92054e-05
8.28939e-05
0.00033356
0.000998967
0.00140107
0.00234534
0.00928648
0.00533531
0.00811175
0.0114363
0.0150152
0.0184837
0.0215834
0.0242484
0.0265293
0.0284183
0.0298935
0.0310096
0.0318264
0.0324046
0.0328068
0.0331463
0.0335045
0.0338555
0.0341516
0.0344102
0.0346368
0.0348401
0.0350262
0.035196
0.0353594
0.035518
0.0356746
0.0358301
0.0359932
0.036164
0.0363493
0.0365478
0.0367622
0.0369984
0.0372648
0.0375688
0.0379408
0.0387387
0.0361561
0.000439927
8.60244e-07
2.74022e-06
1.58395e-05
7.82183e-05
0.000243625
0.000804533
0.00210818
0.0026356
0.00406402
0.0141147
0.00808178
0.0114193
0.0149898
0.0184572
0.0215531
0.0242168
0.0264967
0.0283835
0.0298568
0.0309716
0.031789
0.0323646
0.0327667
0.0331008
0.0334569
0.0338013
0.034095
0.0343505
0.0345716
0.03477
0.0349526
0.0351171
0.035274
0.0354222
0.0355694
0.0357157
0.0358621
0.0360189
0.0361835
0.0363627
0.0365566
0.0367629
0.0369937
0.0372477
0.037539
0.0378951
0.0390928
0.0325394
0.000206218
8.59521e-07
2.73547e-06
1.56387e-05
6.43168e-05
0.000228556
0.000582964
0.00169061
0.00399349
0.00450739
0.00650054
0.0193589
0.0113742
0.0149703
0.0184301
0.0215258
0.0241872
0.0264634
0.0283505
0.0298248
0.0309367
0.0317532
0.0323283
0.0327283
0.033061
0.0334131
0.0337555
0.0340444
0.0342934
0.0345121
0.0347078
0.0348825
0.0350439
0.0351951
0.0353372
0.0354768
0.0356111
0.0357488
0.035889
0.0360383
0.0361986
0.0363676
0.0365543
0.0367597
0.0369788
0.0372224
0.0375009
0.0378279
0.0393682
0.0281599
0.000114733
8.58329e-07
2.73225e-06
1.55855e-05
6.34776e-05
0.000188799
0.000543677
0.00121373
0.0032016
0.00687131
0.00708004
0.00960642
0.0241434
0.0149095
0.0184084
0.0214975
0.0241575
0.0264341
0.0283188
0.0297917
0.0309038
0.0317205
0.0322937
0.0326937
0.033022
0.0333707
0.0337112
0.0339965
0.0342428
0.0344589
0.0346453
0.03482
0.0349762
0.0351192
0.0352589
0.0353896
0.0355193
0.0356482
0.0357738
0.0359109
0.0360512
0.0362036
0.0363695
0.0365513
0.0367465
0.0369552
0.0371898
0.0374504
0.037726
0.0394275
0.0238551
7.82022e-05
8.57272e-07
2.72741e-06
1.55541e-05
6.31832e-05
0.000186225
0.000453117
0.00112473
0.00227384
0.00553824
0.01073
0.0102768
0.0131326
0.0279342
0.0183344
0.0214753
0.0241281
0.0264043
0.028288
0.0297613
0.0308724
0.0316864
0.0322623
0.0326584
0.0329852
0.0333335
0.0336683
0.0339516
0.0341941
0.0344056
0.0345918
0.0347595
0.0349111
0.0350523
0.0351861
0.0353091
0.0354327
0.0355511
0.0356751
0.0357975
0.0359237
0.0360607
0.0362072
0.0363707
0.0365461
0.0367264
0.0369286
0.0371471
0.0373832
0.0376711
0.0391841
0.0196476
5.66491e-05
8.56497e-07
2.72304e-06
1.55131e-05
6.30176e-05
0.000185182
0.000446702
0.000951105
0.00209792
0.00390083
0.00875585
0.0151503
0.0138241
0.0167086
0.0306897
0.021389
0.0241063
0.0263751
0.028259
0.0297313
0.030842
0.0316556
0.0322307
0.0326266
0.0329536
0.033296
0.0336308
0.0339124
0.0341513
0.0343593
0.0345409
0.0347036
0.0348531
0.0349868
0.0351159
0.0352369
0.0353523
0.0354679
0.0355816
0.035694
0.035816
0.0359339
0.0360675
0.036209
0.0363626
0.0365267
0.036704
0.0368923
0.0370898
0.0372972
0.0378281
0.0385596
0.0154051
4.46573e-05
8.55802e-07
2.7199e-06
1.54748e-05
6.28142e-05
0.00018461
0.000443877
0.000937302
0.00180969
0.0036066
0.00618871
0.0126035
0.0194314
0.0173518
0.0200009
0.0326256
0.0240112
0.0263522
0.0282302
0.0297035
0.0308136
0.0316271
0.0322005
0.0325963
0.0329213
0.0332643
0.0335952
0.0338747
0.0341122
0.0343161
0.034494
0.0346548
0.0347979
0.0349285
0.0350534
0.0351697
0.03528
0.0353883
0.0354966
0.0356054
0.035711
0.0358231
0.0359419
0.0360668
0.0362032
0.0363474
0.0365046
0.0366707
0.0368439
0.0370181
0.0371868
0.0381776
0.0373799
0.0112099
3.7258e-05
8.5508e-07
2.71723e-06
1.54476e-05
6.26192e-05
0.000183929
0.000442351
0.000930889
0.00178343
0.00317786
0.00576574
0.00912145
0.0165553
0.0230269
0.0205501
0.0228292
0.0339835
0.0262515
0.0282085
0.0296736
0.0307876
0.0315979
0.0321731
0.0325674
0.0328906
0.0332316
0.0335607
0.0338386
0.0340741
0.0342741
0.0344498
0.0346074
0.0347486
0.0348753
0.0349952
0.0351068
0.0352131
0.0353195
0.0354176
0.0355182
0.0356179
0.0357234
0.0358282
0.0359411
0.0360607
0.0361933
0.0363311
0.0364768
0.0366274
0.0367842
0.0369288
0.0370374
0.0385115
0.0352645
0.00730702
2.92997e-05
8.54451e-07
2.71452e-06
1.54265e-05
6.24826e-05
0.00018327
0.000440562
0.000927471
0.00177071
0.00313295
0.00518634
0.00858155
0.012506
0.0201115
0.0257844
0.0232879
0.0252101
0.0349466
0.0281023
0.0296533
0.0307579
0.0315725
0.0321445
0.0325393
0.0328611
0.0332002
0.0335295
0.0338037
0.0340399
0.0342381
0.0344107
0.034564
0.0347011
0.0348242
0.0349414
0.035049
0.0351509
0.0352503
0.0353465
0.035443
0.0355384
0.035629
0.0357318
0.0358318
0.035935
0.036049
0.036176
0.0363046
0.0364414
0.0365774
0.0367088
0.0368156
0.0369242
0.0386259
0.031782
0.00404538
2.04952e-05
8.53924e-07
2.71213e-06
1.54064e-05
6.23801e-05
0.000182809
0.000438824
0.000923542
0.0017638
0.00311033
0.0051166
0.00787449
0.0118916
0.0160171
0.023041
0.0278287
0.0256337
0.027206
0.035641
0.0295444
0.0307378
0.0315447
0.0321169
0.0325119
0.0328326
0.0331723
0.0334997
0.0337726
0.0340069
0.0342038
0.0343751
0.0345241
0.0346578
0.0347766
0.0348904
0.0349928
0.0350907
0.0351882
0.0352774
0.0353697
0.0354614
0.0355487
0.03564
0.0357328
0.0358255
0.0359291
0.0360353
0.0361488
0.0362705
0.0363959
0.0365143
0.0366138
0.036672
0.0370087
0.0383741
0.0272204
0.00171701
1.18969e-05
8.53529e-07
2.71022e-06
1.53885e-05
6.22845e-05
0.000182474
0.000437615
0.000919649
0.00175611
0.00309804
0.00508093
0.00777778
0.0111167
0.0153871
0.0193236
0.0253711
0.029352
0.0276125
0.0287926
0.0361508
0.0306239
0.0315258
0.0320914
0.0324849
0.0328062
0.0331431
0.0334713
0.0337445
0.0339727
0.0341706
0.0343372
0.0344855
0.0346175
0.0347353
0.0348448
0.0349437
0.0350373
0.0351277
0.035216
0.0353042
0.0353887
0.03547
0.0355551
0.0356441
0.0357277
0.0358165
0.0359167
0.0360153
0.0361191
0.0362316
0.0363374
0.036433
0.0364998
0.0364947
0.0372997
0.0376471
0.0223142
0.000494731
4.56596e-06
8.52852e-07
2.70873e-06
1.5375e-05
6.2203e-05
0.000182165
0.000436741
0.000916962
0.0017485
0.00308436
0.00506215
0.00772835
0.0109992
0.0146221
0.018731
0.0222103
0.027227
0.0306365
0.0291668
0.0299677
0.0365311
0.031405
0.0320718
0.0324591
0.0327807
0.0331164
0.0334414
0.0337133
0.0339423
0.0341384
0.0343057
0.0344502
0.0345807
0.0346948
0.0348009
0.0348989
0.034988
0.0350774
0.0351618
0.0352402
0.0353242
0.0354015
0.0354781
0.0355616
0.0356395
0.035721
0.0358061
0.0358935
0.03599
0.0360834
0.0361825
0.0362719
0.0363335
0.0363567
0.0363212
0.0376092
0.036255
0.0171036
0.000124839
1.66867e-07
8.33919e-07
2.70642e-06
1.53645e-05
6.21415e-05
0.0001819
0.000435948
0.000915018
0.00174314
0.00307101
0.00504067
0.00770245
0.0109392
0.014495
0.0180395
0.021691
0.0246395
0.0287396
0.0319102
0.0303451
0.0308065
0.0368181
0.03195
0.0324408
0.0327543
0.03309
0.0334139
0.0336869
0.0339125
0.0341073
0.0342739
0.0344193
0.034548
0.0346607
0.0347631
0.0348571
0.0349431
0.0350283
0.0351089
0.0351866
0.0352608
0.035335
0.0354085
0.0354866
0.0355604
0.0356343
0.0357108
0.0357895
0.0358673
0.0359531
0.0360386
0.0361194
0.0361868
0.0362116
0.0361708
0.0362959
0.0377289
0.0337041
0.0116065
4.60078e-05
2.07065e-06
4.99544e-07
2.65636e-06
1.53502e-05
6.20956e-05
0.000181708
0.000435276
0.000913254
0.0017394
0.00306164
0.00501974
0.00767322
0.0109078
0.0144299
0.0179158
0.0211003
0.0242222
0.0266795
0.0300753
0.0330231
0.0312044
0.0314025
0.0370384
0.0323194
0.0327356
0.0330633
0.0333891
0.0336592
0.0338882
0.0340795
0.0342451
0.0343889
0.0345141
0.0346258
0.0347239
0.0348169
0.0349019
0.0349834
0.0350601
0.0351311
0.0352047
0.0352754
0.0353431
0.0354126
0.0354851
0.0355528
0.0356233
0.0356932
0.0357637
0.0358366
0.0359088
0.0359821
0.0360432
0.0360766
0.0360603
0.0359381
0.0364804
0.0374463
0.0293273
0.00661268
2.07769e-05
3.09018e-06
7.61597e-09
1.71385e-06
1.51209e-05
6.20355e-05
0.000181569
0.000434788
0.000911803
0.00173605
0.00305525
0.00500522
0.00764391
0.0108713
0.0143959
0.0178513
0.020988
0.0237278
0.0263737
0.0283727
0.0312807
0.0337516
0.0318059
0.031878
0.0372253
0.0326188
0.0330463
0.0333615
0.0336338
0.03386
0.0340503
0.0342171
0.0343595
0.0344839
0.034594
0.0346909
0.0347797
0.0348608
0.0349392
0.0350122
0.0350827
0.0351496
0.0352171
0.0352851
0.035352
0.0354162
0.0354804
0.0355428
0.0356058
0.0356705
0.0357311
0.0357963
0.0358597
0.0359128
0.0359515
0.0359483
0.0358677
0.0357348
0.0367329
0.0364753
0.0237537
0.00283002
6.15721e-06
1.56013e-06
4.20659e-08
1.00696e-07
1.0384e-05
6.11371e-05
0.000181388
0.000434446
0.00091076
0.00173325
0.00304957
0.00499529
0.00762425
0.0108348
0.0143549
0.0178171
0.0209289
0.0236281
0.0259767
0.0281417
0.0297379
0.0322098
0.0341281
0.0322075
0.0323355
0.037403
0.0329312
0.0333424
0.0336078
0.0338342
0.0340259
0.0341875
0.0343314
0.0344539
0.0345605
0.0346565
0.0347472
0.0348273
0.0349017
0.034971
0.0350351
0.0351016
0.0351655
0.0352272
0.035292
0.0353516
0.0354147
0.0354719
0.0355284
0.0355881
0.0356439
0.0356967
0.0357462
0.0357931
0.0358276
0.0358346
0.0357898
0.0356302
0.0357197
0.0368478
0.0344306
0.0180681
0.000742342
9.8577e-08
5.04789e-07
6.28866e-08
1.08445e-06
9.05481e-07
4.23676e-05
0.000178816
0.000434016
0.000910028
0.00173125
0.00304472
0.00498655
0.00761015
0.0108112
0.0143154
0.0177771
0.0208972
0.0235741
0.0258907
0.027846
0.0295349
0.0307803
0.0328023
0.0342942
0.032519
0.0327485
0.0375285
0.033227
0.0335856
0.0338055
0.034
0.0341627
0.0343043
0.0344259
0.0345335
0.0346284
0.0347124
0.0347913
0.0348618
0.0349307
0.0349941
0.0350574
0.0351179
0.0351768
0.0352358
0.0352935
0.0353489
0.0354034
0.0354554
0.035511
0.0355593
0.0356085
0.0356491
0.0356878
0.0357156
0.0357236
0.0356948
0.0355869
0.0353769
0.0358958
0.0365959
0.0307393
0.0121039
0.000122521
1.54973e-06
1.96291e-07
7.73577e-08
9.93585e-07
8.47727e-06
4.22203e-06
0.000124668
0.000428012
0.00090914
0.00172988
0.00304124
0.00497891
0.00759746
0.0107931
0.0142888
0.0177388
0.0208594
0.0235479
0.0258457
0.0277763
0.0293043
0.0306011
0.0315072
0.0331551
0.0344198
0.0328443
0.0330931
0.037576
0.0334707
0.0337896
0.033971
0.0341358
0.0342769
0.0343983
0.0345023
0.0345991
0.0346843
0.0347595
0.0348291
0.0348938
0.0349568
0.0350139
0.0350746
0.03513
0.0351833
0.0352355
0.0352899
0.0353438
0.0353904
0.0354377
0.0354874
0.0355256
0.0355622
0.0355916
0.0356169
0.0356254
0.035603
0.0355207
0.0353325
0.0352402
0.0360771
0.0356186
0.0254531
0.00634763
1.74434e-05
1.50194e-06
1.85783e-07
8.69599e-08
1.12385e-06
7.37062e-06
2.97151e-05
1.38222e-05
0.000300559
0.000897041
0.0017282
0.00303895
0.00497364
0.00758698
0.010777
0.0142693
0.0177108
0.0208243
0.0235134
0.025825
0.0277433
0.0292527
0.0304031
0.0313698
0.0319936
0.0334116
0.0345766
0.0331548
0.0333854
0.0376292
0.033673
0.0339551
0.0341114
0.0342491
0.0343704
0.0344764
0.0345694
0.0346517
0.0347284
0.0347971
0.034861
0.0349205
0.0349771
0.0350313
0.035084
0.0351344
0.0351873
0.0352338
0.0352839
0.0353286
0.0353753
0.0354146
0.0354513
0.0354881
0.0355099
0.035527
0.0355279
0.035513
0.0354494
0.0353065
0.0350522
0.0352973
0.0360584
0.0333996
0.0194388
0.00221839
1.51292e-06
6.7525e-07
2.11774e-07
9.52835e-08
1.24538e-06
8.43898e-06
2.96144e-05
6.4171e-05
3.67157e-05
0.000635835
0.00170645
0.00303612
0.00497005
0.0075796
0.010764
0.014252
0.0176926
0.0207975
0.0234813
0.025794
0.0277238
0.0292258
0.0303652
0.0311995
0.0318956
0.0323537
0.0337054
0.0347894
0.0334061
0.0336401
0.0377245
0.0338374
0.0340904
0.0342243
0.0343452
0.0344486
0.0345441
0.0346283
0.0347011
0.0347661
0.0348289
0.0348875
0.0349405
0.0349917
0.0350448
0.0350921
0.0351364
0.0351845
0.0352302
0.035272
0.035314
0.0353514
0.0353873
0.0354125
0.0354342
0.0354462
0.0354465
0.0354255
0.0353725
0.0352564
0.0350341
0.0348632
0.0354364
0.035536
0.0292531
0.0130845
0.00040667
7.64878e-07
1.99192e-07
2.43649e-07
1.00742e-07
1.43917e-06
9.40271e-06
3.39242e-05
9.15425e-05
9.00608e-05
8.51584e-05
0.00122519
0.00300086
0.00496585
0.00757455
0.0107547
0.0142373
0.0176752
0.0207809
0.0234581
0.0257638
0.0276949
0.02921
0.0303438
0.0311729
0.0317533
0.0322587
0.032698
0.0340095
0.0350041
0.0336196
0.0338588
0.0378173
0.0339726
0.0342058
0.0343175
0.0344264
0.0345185
0.0345995
0.0346724
0.034739
0.034798
0.0348557
0.0349079
0.0349586
0.0350054
0.0350503
0.0350954
0.0351381
0.0351792
0.0352209
0.0352582
0.0352925
0.035325
0.0353495
0.0353675
0.0353754
0.0353681
0.0353465
0.0352947
0.0352017
0.035021
0.0347367
0.0348584
0.035456
0.0339905
0.0236387
0.00681027
4.9353e-05
1.02189e-06
1.24681e-07
2.86662e-07
1.07695e-07
1.59798e-06
1.09262e-05
3.7878e-05
9.99908e-05
0.000228916
5.22462e-05
0.000179913
0.00219223
0.0049142
0.00756893
0.0107485
0.0142272
0.0176613
0.0207654
0.0234414
0.0257445
0.027669
0.0291869
0.0303292
0.0311565
0.0317381
0.0321315
0.0325665
0.0330367
0.0342677
0.0351771
0.0337987
0.0340537
0.0378855
0.0340854
0.0343009
0.0343982
0.0344935
0.0345741
0.0346434
0.0347093
0.0347707
0.0348249
0.0348763
0.0349234
0.0349699
0.0350118
0.0350541
0.0350919
0.0351347
0.0351727
0.0352074
0.0352381
0.0352651
0.0352896
0.0353033
0.0353105
0.0353042
0.035278
0.0352259
0.0351407
0.0349932
0.0347272
0.0345388
0.0349483
0.0350893
0.0307275
0.0174261
0.00223644
4.23437e-06
9.16139e-07
1.30352e-07
3.35311e-07
1.1526e-07
1.73658e-06
1.2201e-05
4.45081e-05
0.00011083
0.000250768
0.000481319
0.000134346
0.000354905
0.00367379
0.0075008
0.0107416
0.0142201
0.0176512
0.0207521
0.0234276
0.0257287
0.0276525
0.0291654
0.0303085
0.0311479
0.0317247
0.0321209
0.0324356
0.0328833
0.033328
0.0344863
0.0353179
0.0339377
0.0342341
0.0379244
0.0341778
0.0343789
0.0344648
0.0345482
0.0346177
0.0346831
0.0347442
0.0347979
0.0348483
0.0348921
0.0349347
0.0349737
0.0350135
0.0350553
0.0350901
0.035124
0.0351557
0.0351847
0.0352134
0.0352351
0.0352455
0.0352489
0.0352412
0.0352136
0.0351665
0.0350828
0.0349514
0.0347314
0.0344213
0.0345072
0.0349444
0.033853
0.0256494
0.0107417
0.000361292
1.27432e-07
4.51091e-07
5.65493e-08
3.68423e-07
1.22187e-07
1.88299e-06
1.32722e-05
5.02096e-05
0.000134018
0.000277872
0.000544057
0.000863723
0.000543928
0.000663286
0.00577124
0.0106619
0.0142126
0.0176437
0.0207416
0.0234139
0.0257149
0.0276432
0.0291514
0.0302965
0.0311308
0.0317233
0.0321177
0.0324186
0.0327538
0.0331788
0.0335709
0.0346687
0.0354285
0.0340533
0.0344
0.0379397
0.034254
0.0344456
0.0345197
0.0345948
0.0346575
0.0347184
0.0347711
0.0348182
0.0348646
0.0349065
0.0349423
0.034979
0.0350151
0.0350488
0.0350847
0.0351123
0.0351359
0.0351616
0.03518
0.0351943
0.0351936
0.0351821
0.0351581
0.0351116
0.0350322
0.0349101
0.0347141
0.0344083
0.0342374
0.0345541
0.0345906
0.031005
0.0196071
0.00462621
3.44703e-05
7.2688e-07
2.31197e-07
3.45029e-08
3.92904e-07
1.28863e-07
2.02395e-06
1.44267e-05
5.48558e-05
0.000155465
0.000339361
0.00060538
0.00102483
0.00132017
0.00118829
0.00118107
0.00848021
0.014129
0.0176352
0.0207351
0.0234047
0.0257022
0.0276287
0.0291443
0.0302895
0.0311208
0.0317162
0.0321139
0.0324239
0.0327274
0.0330578
0.0334213
0.0337746
0.0348235
0.0355124
0.0341545
0.0345505
0.0379402
0.0343162
0.0345033
0.0345661
0.0346319
0.0346896
0.0347423
0.0347918
0.0348346
0.0348733
0.0349149
0.0349484
0.0349821
0.0350132
0.0350412
0.035069
0.0350968
0.0351178
0.0351311
0.0351399
0.0351404
0.035133
0.0351082
0.0350591
0.0349862
0.0348688
0.0346966
0.0344228
0.0341035
0.0342052
0.0344965
0.0333817
0.0261677
0.0129323
0.00108499
1.0551e-06
3.72987e-07
1.69584e-07
5.42775e-08
4.27487e-07
1.35794e-07
2.15932e-06
1.55476e-05
5.9782e-05
0.000171594
0.00039646
0.000735031
0.00114559
0.0016618
0.00171338
0.00200973
0.00200465
0.0116346
0.0175575
0.0207272
0.0233982
0.0256961
0.0276197
0.029131
0.0302792
0.0311133
0.0317042
0.0321041
0.0324193
0.0327279
0.0330316
0.0333067
0.0336238
0.0339463
0.0349592
0.0355719
0.034236
0.0346981
0.0379225
0.0343721
0.0345495
0.0346057
0.0346636
0.0347164
0.0347659
0.0348082
0.0348465
0.0348846
0.0349152
0.0349492
0.0349778
0.0350042
0.0350312
0.0350526
0.0350724
0.0350857
0.0350945
0.0350937
0.0350802
0.0350556
0.0350139
0.0349403
0.0348341
0.0346704
0.0344317
0.0340899
0.0339524
0.0342074
0.0340522
0.0305217
0.0202053
0.00619982
9.8815e-05
6.42418e-07
8.84066e-08
1.52156e-07
4.44117e-08
4.79544e-07
1.42374e-07
2.29841e-06
1.66273e-05
6.45872e-05
0.000188357
0.000438347
0.000851778
0.00136256
0.00186221
0.00230369
0.00191124
0.00293374
0.00322565
0.0149447
0.0206603
0.0233913
0.0256884
0.0276117
0.0291227
0.0302676
0.0311065
0.0316904
0.0321012
0.0324038
0.0327257
0.0330236
0.0332821
0.0335109
0.0337927
0.0340964
0.0350739
0.0356165
0.034308
0.034833
0.0378893
0.0344149
0.0345892
0.0346406
0.0346933
0.0347403
0.0347825
0.0348208
0.0348586
0.0348892
0.0349194
0.0349455
0.0349704
0.0349958
0.0350142
0.035032
0.0350412
0.0350485
0.0350506
0.0350355
0.0350124
0.0349675
0.0348952
0.0347971
0.0346489
0.0344279
0.0340979
0.0338241
0.0339322
0.0340614
0.0326626
0.0256678
0.0135789
0.00164556
3.08604e-06
1.7481e-07
6.16128e-08
1.49544e-07
3.6286e-08
5.44692e-07
1.4852e-07
2.42591e-06
1.77448e-05
6.93821e-05
0.000205024
0.000481291
0.00093618
0.00154567
0.00214331
0.00258391
0.00276237
0.0018776
0.0039103
0.00488399
0.0181013
0.0233388
0.0256811
0.0276046
0.0291146
0.0302582
0.0310979
0.0316853
0.0320919
0.0324028
0.0327126
0.033022
0.0332732
0.0334874
0.0336766