/*--------------------------------*- C++ -*----------------------------------*\
| =========                 |                                                 |
| \\      /  F ield         | OpenFOAM: The Open Source CFD Toolbox           |
|  \\    /   O peration     | Version:  v2012                                 |
|   \\  /    A nd           | Website:  www.openfoam.com                      |
|    \\/     M anipulation  |                                                 |
\*---------------------------------------------------------------------------*/
FoamFile
{
    version     2.0;
    format      ascii;
    class       volScalarField;
    location    "13200";
    object      nk;
}
// * * * * * * * * * * * * * * * * * * * * * * * * * * * * * * * * * * * * * //

dimensions      [0 0 0 0 0 0 0];


internalField   nonuniform List<scalar> 
31383
(
0.0611
0.0616698
0.00118976
0.061659
0.00227951
0.000285601
0.0616493
0.00225915
0.00315158
0.000316084
0.0616421
0.00224167
0.00310056
0.00559252
0.000454834
0.0616356
0.00222793
0.00305659
0.00549907
0.00866522
0.000635213
0.06163
0.00221599
0.00302199
0.00541841
0.00852053
0.0122415
0.000852371
0.0616253
0.00220591
0.002992
0.00535497
0.0083954
0.0120394
0.0162668
0.00110842
0.061621
0.00219716
0.00296657
0.00529993
0.00829701
0.0118639
0.0160051
0.0206696
0.00141037
0.0616177
0.00218955
0.00294451
0.00525326
0.00821153
0.0117257
0.0157763
0.0203543
0.025305
0.00176338
0.0616142
0.00218303
0.00292531
0.00521277
0.00813905
0.0116057
0.0155959
0.0200751
0.0249585
0.029908
0.00217382
0.061611
0.00217688
0.00290885
0.00517755
0.00807622
0.0115038
0.0154388
0.0198542
0.0246423
0.0295826
0.0341344
0.00261436
0.0616082
0.00217114
0.00289342
0.00514731
0.00802142
0.0114155
0.0153055
0.0196611
0.0243902
0.0292574
0.0338809
0.0375968
0.00311578
0.0616053
0.00216571
0.0028789
0.00511899
0.0079745
0.0113384
0.0151898
0.0194972
0.0241686
0.0289952
0.0335862
0.0374682
0.0400217
0.00368057
0.0616029
0.00216064
0.00286529
0.00509234
0.00793051
0.0112724
0.0150887
0.0193543
0.02398
0.0287613
0.0333479
0.0372486
0.0400544
0.0413447
0.00423287
0.0616007
0.00215608
0.00285245
0.00506738
0.00788911
0.0112105
0.0150021
0.0192295
0.0238151
0.0285598
0.0331289
0.0370701
0.0399436
0.041545
0.0416777
0.00481598
0.0615987
0.00215204
0.00284102
0.00504382
0.00785032
0.0111524
0.014921
0.0191226
0.0236704
0.028387
0.0329301
0.0368956
0.0398499
0.0415531
0.0420297
0.0412385
0.00539213
0.0615969
0.00214828
0.00283079
0.00502288
0.00781374
0.0110978
0.0148446
0.0190223
0.0235468
0.0282322
0.0327744
0.036731
0.0397428
0.0415519
0.0421478
0.0417067
0.0402548
0.00594282
0.0615952
0.00214502
0.00282137
0.00500409
0.00778118
0.0110463
0.014773
0.0189277
0.0234302
0.0281002
0.0326252
0.0366087
0.0396358
0.041523
0.0422347
0.0419082
0.0408141
0.038911
0.00644688
0.0615937
0.00214202
0.00281313
0.0049868
0.00775203
0.0110004
0.0147053
0.018839
0.0233191
0.0279748
0.0324973
0.0364859
0.0395627
0.0414823
0.042283
0.0420628
0.0410793
0.0395389
0.0373509
0.0068513
0.0615926
0.00213945
0.00280557
0.00497169
0.00772516
0.0109594
0.0146451
0.0187552
0.0232169
0.0278504
0.0323774
0.0363762
0.0394829
0.0414668
0.042306
0.0421735
0.0412829
0.0398462
0.0380292
0.0356834
0.00714209
0.0615914
0.0021371
0.00279904
0.0049578
0.00770173
0.0109216
0.0145913
0.0186807
0.0231191
0.0277448
0.0322542
0.0362808
0.0394075
0.041437
0.0423435
0.0422508
0.041439
0.0400852
0.0383639
0.0364001
0.0339865
0.00733115
0.0615903
0.00213498
0.00279315
0.00494584
0.00768014
0.0108887
0.0145415
0.0186139
0.0230321
0.0276389
0.0321537
0.036174
0.0393491
0.0414055
0.0423623
0.0423345
0.0415573
0.040273
0.0386247
0.0367496
0.0347354
0.0323126
0.00742325
0.0615896
0.00213309
0.00278787
0.00493498
0.0076615
0.0108582
0.0144982
0.0185521
0.0229542
0.0275447
0.0320494
0.0360902
0.0392729
0.0413879
0.0423737
0.0423971
0.0416754
0.0404211
0.0388337
0.0370228
0.0350905
0.0330917
0.0306952
0.00742534
0.0615887
0.00213143
0.00278311
0.00492527
0.00764462
0.010832
0.0144583
0.0184984
0.0228819
0.0274594
0.0319571
0.0360013
0.0392165
0.0413497
0.0423948
0.0424463
0.0417704
0.0405635
0.0390017
0.037244
0.0353689
0.0334466
0.0315047
0.0291512
0.00734545
0.0615877
0.00212988
0.0027789
0.00491656
0.0076296
0.0108083
0.0144238
0.0184487
0.022819
0.0273814
0.0318701
0.0359222
0.0391552
0.0413276
0.0423958
0.0425002
0.0418475
0.0406823
0.0391601
0.037424
0.0355956
0.0337253
0.0318557
0.0299876
0.0276841
0.00719251
0.061587
0.0021285
0.00277503
0.00490884
0.00761601
0.0107871
0.0143925
0.0184059
0.0227608
0.027313
0.0317961
0.0358458
0.0391001
0.0412998
0.0424067
0.0425347
0.0419259
0.0407801
0.0392949
0.0375917
0.035782
0.0339526
0.032131
0.0303336
0.0285462
0.0262927
0.00697782
0.0615866
0.00212718
0.00277147
0.00490174
0.00760401
0.010768
0.0143646
0.018367
0.0227107
0.0272495
0.0317278
0.0357835
0.0390448
0.0412747
0.0424117
0.0425758
0.0419855
0.0408756
0.0394071
0.0377357
0.0359536
0.0341408
0.0323561
0.030604
0.0288866
0.0271815
0.0249735
0.00671161
0.061586
0.00212598
0.00276818
0.00489518
0.00759299
0.0107511
0.0143395
0.0183324
0.0226652
0.0271951
0.0316653
0.0357232
0.0390023
0.0412461
0.0424163
0.0426094
0.042049
0.040954
0.0395137
0.0378567
0.0361018
0.0343129
0.0325428
0.0308254
0.0291517
0.0275166
0.0258915
0.0237223
0.00640029
0.0615855
0.00212491
0.00276516
0.00488917
0.00758279
0.0107356
0.0143172
0.0183011
0.0226246
0.0271453
0.0316118
0.0356708
0.0389582
0.0412277
0.0424153
0.0426407
0.0421046
0.0410333
0.0396044
0.0379703
0.0362275
0.034462
0.0327131
0.0310098
0.0293682
0.027776
0.026222
0.0246732
0.022534
0.00604321
0.0615849
0.00212395
0.00276245
0.00488366
0.00757346
0.0107212
0.0142968
0.0182734
0.0225879
0.0271011
0.0315621
0.0356237
0.0389214
0.0412056
0.0424215
0.0426645
0.0421554
0.041105
0.0396947
0.0380685
0.036344
0.0345888
0.0328612
0.0311772
0.0295491
0.0279875
0.0264757
0.0249999
0.0235227
0.0214034
0.00562724
0.0615846
0.00212308
0.00275998
0.00487863
0.00756484
0.0107081
0.0142779
0.018248
0.0225554
0.0270609
0.0315182
0.0355811
0.0388878
0.0411883
0.0424215
0.0426922
0.042198
0.0411703
0.0397771
0.038165
0.0364465
0.0347059
0.0329871
0.0313225
0.0297128
0.0281642
0.0266823
0.0252487
0.0238474
0.0224355
0.0203253
0.00513292
0.061584
0.0021223
0.0027578
0.00487411
0.00755704
0.0106959
0.0142606
0.0182245
0.0225256
0.0270256
0.0314784
0.0355434
0.0388584
0.0411723
0.0424249
0.0427126
0.0422419
0.0412261
0.0398519
0.038254
0.0365458
0.0348093
0.0331031
0.0314466
0.0298551
0.0283242
0.0268552
0.0254507
0.0240912
0.0227598
0.0214068
0.0192944
0.00457383
0.0615838
0.0021216
0.00275585
0.0048701
0.00755002
0.0106849
0.0142447
0.018203
0.0224981
0.0269928
0.0314434
0.0355085
0.0388315
0.0411594
0.0424269
0.0427349
0.0422781
0.0412823
0.0399171
0.0383346
0.0366375
0.0349095
0.0332058
0.0315605
0.029977
0.0284631
0.0270108
0.025619
0.0242887
0.0229995
0.0217329
0.0204319
0.0183059
0.00400394
0.0615834
0.00212098
0.00275411
0.0048665
0.00754378
0.010675
0.0142301
0.0181832
0.0224728
0.0269627
0.0314111
0.035478
0.0388062
0.0411465
0.04243
0.0427528
0.0423137
0.0413294
0.039981
0.0384056
0.0367212
0.0350016
0.0333046
0.0316616
0.0300882
0.0285822
0.0271465
0.0257707
0.0244532
0.0231927
0.0219693
0.0207621
0.0195062
0.0173548
0.00344431
0.0615833
0.00212041
0.00275255
0.00486333
0.00753819
0.0106663
0.0142171
0.0181651
0.0224495
0.0269352
0.0313809
0.0354492
0.038785
0.041134
0.0424315
0.04277
0.0423439
0.0413752
0.0400361
0.0384742
0.036795
0.0350862
0.0333959
0.0317587
0.0301869
0.0286906
0.0272624
0.0259028
0.024601
0.0233537
0.0221588
0.0209962
0.0198434
0.0186254
0.0164371
0.00290722
0.0615828
0.0021199
0.00275108
0.00486042
0.00753324
0.0106583
0.0142055
0.0181488
0.0224282
0.0269097
0.0313534
0.0354229
0.0387644
0.0411241
0.0424326
0.0427854
0.0423724
0.0414146
0.0400885
0.0385341
0.0368661
0.035161
0.0334795
0.0318484
0.0302815
0.0287867
0.0273676
0.0260159
0.0247296
0.0234979
0.0223162
0.0211823
0.020076
0.0189723
0.0177848
0.0155488
0.00239941
0.0615827
0.00211934
0.00274977
0.00485775
0.00752875
0.0106513
0.0141952
0.0181344
0.0224092
0.0268864
0.031328
0.0353991
0.0387454
0.0411143
0.0424345
0.0427988
0.0423976
0.0414514
0.0401341
0.0385909
0.0369285
0.0352326
0.0335538
0.0319303
0.0303688
0.0288785
0.0274613
0.0261181
0.0248399
0.0236233
0.0224571
0.021337
0.0202597
0.0192047
0.0181448
0.01698
0.0146848
0.00192614
0.0615773
0.00211894
0.00274833
0.00485532
0.00752461
0.010645
0.0141859
0.0181216
0.0223923
0.0268657
0.0313047
0.0353769
0.0387281
0.0411046
0.0424357
0.0428114
0.0424205
0.0414839
0.0401766
0.0386406
0.0369872
0.0352954
0.0336248
0.0320033
0.0304491
0.0289636
0.0275504
0.0262091
0.0249392
0.0237307
0.0225796
0.0214748
0.0204118
0.0193865
0.0183784
0.0173574
0.016207
0.0138369
0.00149298
0.0641838
0.00210867
0.00274732
0.0048527
0.00752081
0.0106392
0.0141775
0.0181101
0.0223772
0.0268471
0.0312839
0.0353566
0.0387121
0.0410965
0.0424362
0.0428224
0.0424413
0.0415138
0.0402145
0.0386865
0.0370388
0.0353547
0.0336873
0.032073
0.0305204
0.0290413
0.0276328
0.0262955
0.0250275
0.0238273
0.0226846
0.0215946
0.0205468
0.0195364
0.018559
0.0175936
0.016606
0.0154615
0.0129963
0.00110614
0.0617573
0.00466994
0.00272177
0.00485081
0.0075167
0.0106338
0.0141698
0.0180996
0.0223636
0.0268306
0.0312656
0.0353384
0.0386977
0.0410887
0.0424372
0.0428324
0.04246
0.0415408
0.040249
0.0387275
0.0370868
0.0354072
0.0337462
0.0321349
0.0305885
0.0291108
0.0277082
0.0263751
0.0251111
0.0239129
0.0227784
0.0216971
0.020664
0.0196689
0.0187073
0.0177737
0.0168465
0.0158874
0.0147395
0.0121546
0.000772933
0.0618373
0.00237601
0.00858452
0.00480444
0.0075138
0.0106281
0.0141628
0.01809
0.0223514
0.0268157
0.0312492
0.0353219
0.0386847
0.0410814
0.0424381
0.0428416
0.0424773
0.041565
0.04028
0.0387647
0.0371295
0.0354556
0.0337983
0.032193
0.030649
0.0291771
0.027776
0.0264482
0.0251882
0.023994
0.0228618
0.0217885
0.0207644
0.0197842
0.0188379
0.0179209
0.0170272
0.0161341
0.0151981
0.0140366
0.0113032
0.000500835
0.062327
0.00251548
0.00329752
0.0146557
0.00744271
0.0106239
0.0141552
0.0180813
0.0223401
0.0268023
0.0312341
0.0353083
0.0386728
0.0410758
0.0424388
0.0428504
0.0424927
0.0415873
0.0403086
0.0387987
0.0371684
0.035499
0.0338465
0.0322442
0.0307055
0.0292361
0.0278403
0.0265141
0.0252593
0.0240687
0.0229404
0.0218699
0.0208537
0.0198827
0.0189513
0.0180499
0.0171736
0.0163161
0.015453
0.0145348
0.0133488
0.0104334
0.000295606
0.0621246
0.00344638
0.00365188
0.0057349
0.0217315
0.0105252
0.0141498
0.0180718
0.0223298
0.02679
0.0312212
0.0352958
0.0386633
0.0410699
0.0424404
0.0428589
0.0425077
0.0416075
0.0403344
0.0388297
0.0372039
0.0355385
0.0338899
0.0322917
0.0307558
0.0292909
0.0278975
0.0265764
0.0253232
0.0241375
0.0230127
0.021946
0.0209329
0.0199699
0.019048
0.0181617
0.0173015
0.0164627
0.0156375
0.0148004
0.0138942
0.0126721
0.00953693
0.000157517
0.0618084
0.00309796
0.00591468
0.00637629
0.00872891
0.0295339
0.0140214
0.018065
0.0223186
0.0267786
0.0312087
0.035284
0.038655
0.0410666
0.042441
0.0428668
0.0425217
0.0416269
0.040358
0.0388578
0.0372359
0.0355744
0.033929
0.0323344
0.0308021
0.0293401
0.027951
0.026632
0.0253833
0.0241996
0.0230794
0.0220162
0.0210069
0.0200473
0.0191335
0.0182571
0.017412
0.0165897
0.0157847
0.0149887
0.0141735
0.0132733
0.0120019
0.00860555
7.75283e-05
0.0617693
0.00252548
0.00501999
0.0104086
0.00969538
0.0121695
0.0378254
0.0179058
0.0223106
0.0267661
0.0311978
0.0352735
0.0386468
0.0410629
0.0424432
0.0428739
0.0425345
0.0416449
0.0403806
0.0388837
0.0372653
0.0356071
0.0339649
0.0323731
0.030844
0.0293855
0.0279985
0.026684
0.0254374
0.0242581
0.0231398
0.0220811
0.0210751
0.0201192
0.0192092
0.018341
0.0175062
0.0166994
0.0159115
0.0151373
0.0143667
0.0135694
0.0126688
0.0113347
0.00763327
3.82054e-05
0.0615849
0.00246926
0.00359725
0.00877215
0.0157942
0.0134554
0.0160361
0.0462454
0.0221208
0.0267576
0.0311851
0.0352636
0.0386395
0.0410596
0.0424454
0.0428813
0.0425462
0.0416618
0.0404014
0.038908
0.0372926
0.0356366
0.0339973
0.0324083
0.0308821
0.0294262
0.0280429
0.0267306
0.0254879
0.0243106
0.0231964
0.0221396
0.0211381
0.0201857
0.0192793
0.0184152
0.0175889
0.0167927
0.0160206
0.0152642
0.0145175
0.0137691
0.0129854
0.0120774
0.010666
0.00662067
2.11465e-05
0.0615754
0.00213284
0.00343988
0.00621646
0.013275
0.0218352
0.0175862
0.0202904
0.0542138
0.0265396
0.0311768
0.0352528
0.0386328
0.0410564
0.042447
0.0428888
0.0425582
0.041677
0.0404209
0.0389309
0.0373178
0.0356644
0.0340271
0.0324404
0.0309166
0.0294634
0.0280825
0.0267731
0.0255329
0.0243595
0.0232475
0.0221945
0.0211951
0.0202471
0.0193441
0.0184837
0.0176618
0.0168742
0.0161135
0.0153733
0.0146452
0.013923
0.0131934
0.0124187
0.0114956
0.00998572
0.00558416
1.44513e-05
0.0615737
0.00212009
0.00275438
0.00592116
0.00938726
0.018333
0.0283743
0.0220152
0.0248365
0.0609998
0.0309356
0.0352465
0.0386251
0.0410541
0.0424487
0.0428946
0.0425692
0.0416923
0.0404387
0.0389521
0.0373416
0.0356903
0.0340545
0.0324698
0.030948
0.0294973
0.0281189
0.0268119
0.0255747
0.0244035
0.0232951
0.0222444
0.0212488
0.0203028
0.019404
0.0185468
0.0177289
0.016946
0.0161942
0.0154659
0.0147546
0.0140522
0.0133514
0.0126372
0.0118669
0.0109199
0.00928246
0.00456724
1.21312e-05
0.0615728
0.00212037
0.00273327
0.00484801
0.00892571
0.0129649
0.0238371
0.0351953
0.0266257
0.0294853
0.06587
0.0349889
0.0386207
0.0410502
0.04245
0.0429006
0.0425789
0.0417059
0.0404559
0.0389716
0.037364
0.0357144
0.03408
0.0324969
0.0309769
0.0295277
0.0281516
0.0268474
0.0256123
0.0244438
0.0233377
0.0222905
0.0212971
0.0203547
0.0194584
0.0186055
0.0177908
0.0170121
0.0162651
0.0155459
0.0148472
0.0141623
0.0134827
0.0128005
0.0120979
0.0113269
0.0103467
0.00854652
0.00361606
1.13691e-05
0.0615718
0.00212059
0.00273021
0.00481327
0.00749481
0.0123176
0.0168947
0.0296473
0.0419188
0.0312288
0.0339359
0.0685682
0.0383578
0.0410495
0.0424502
0.0429062
0.0425876
0.0417185
0.0404717
0.03899
0.0373844
0.0357368
0.0341043
0.0325223
0.0310035
0.029556
0.0281815
0.0268793
0.0256465
0.0244804
0.023377
0.0223321
0.021342
0.0204019
0.0195092
0.0186586
0.0178481
0.0170726
0.0163301
0.0156163
0.0149271
0.0142554
0.0135941
0.0129346
0.0122679
0.0115735
0.010796
0.00977209
0.00777109
0.00274697
1.10992e-05
0.0615706
0.0021206
0.00272883
0.00480495
0.00744291
0.0105833
0.0160553
0.0211279
0.035511
0.0479724
0.0355309
0.0378201
0.0693645
0.0407899
0.0424533
0.0429103
0.0425964
0.0417297
0.040486
0.0390071
0.0374038
0.0357576
0.0341269
0.032546
0.0310283
0.0295821
0.028209
0.0269084
0.0256777
0.0245137
0.0234128
0.0223703
0.0213826
0.0204458
0.0195551
0.0187081
0.0179002
0.0171289
0.0163897
0.0156804
0.0149971
0.0143353
0.0136879
0.0130478
0.0124057
0.0117516
0.0110612
0.0102713
0.00919269
0.00695284
0.00197881
1.09824e-05
0.0615702
0.0021207
0.00272701
0.0048011
0.0074271
0.010511
0.014083
0.0201121
0.0255828
0.0410226
0.0527247
0.0391743
0.040817
0.0687715
0.0422056
0.0429167
0.0426037
0.041741
0.0404993
0.0390228
0.0374217
0.0357774
0.0341475
0.0325686
0.0310518
0.0296062
0.0282344
0.0269351
0.025706
0.024544
0.0234451
0.022405
0.0214199
0.0204854
0.0195979
0.0187533
0.0179487
0.0171802
0.016445
0.0157391
0.0150605
0.014405
0.0137683
0.0131428
0.0125213
0.0118941
0.0112492
0.0105588
0.00974959
0.0085998
0.00609275
0.00132978
1.09193e-05
0.0615694
0.00212083
0.00272532
0.00479638
0.00741964
0.0104858
0.013988
0.0179701
0.0244338
0.030116
0.0456831
0.0557849
0.0418745
0.0427617
0.0672689
0.042686
0.0426124
0.0417503
0.0405123
0.0390371
0.037438
0.0357958
0.0341672
0.0325888
0.0310736
0.0296293
0.0282578
0.0269596
0.025732
0.0245715
0.0234746
0.0224366
0.0214539
0.0205219
0.0196368
0.0187953
0.0179931
0.0172277
0.0164954
0.0157938
0.0151185
0.014468
0.0138381
0.0132238
0.012618
0.0120128
0.0113976
0.0107587
0.0100636
0.00922749
0.00798164
0.00519784
0.000812186
1.08743e-05
0.0615691
0.0021208
0.00272426
0.00479189
0.00741094
0.0104737
0.0139516
0.017851
0.0221889
0.0288896
0.0344795
0.0490933
0.0571756
0.0435127
0.0436804
0.0652103
0.0424001
0.0417614
0.0405232
0.039051
0.0374531
0.0358124
0.0341857
0.0326085
0.0310938
0.0296505
0.0282803
0.0269825
0.0257558
0.0245968
0.0235014
0.0224653
0.0214846
0.0205549
0.0196724
0.0188332
0.0180342
0.0172713
0.0165423
0.0158435
0.0151726
0.0145256
0.0139009
0.0132941
0.0127002
0.0121118
0.0115202
0.0109142
0.0102777
0.00957311
0.00870151
0.00732649
0.00428663
0.000434714
1.08384e-05
0.0615687
0.00212077
0.00272334
0.00478896
0.00740251
0.0104599
0.0139341
0.0178024
0.0220455
0.0266169
0.0332449
0.0383462
0.0511245
0.0572183
0.0441544
0.0437361
0.062827
0.0415676
0.0405352
0.0390633
0.0374674
0.0358278
0.0342022
0.0326267
0.031113
0.0296702
0.0283011
0.0270043
0.0257782
0.0246201
0.023526
0.0224914
0.0215126
0.020585
0.0197048
0.0188681
0.0180714
0.0173116
0.0165851
0.0158897
0.0152218
0.0145792
0.0139582
0.0133569
0.0127711
0.0121953
0.0116219
0.0110416
0.010442
0.00980425
0.00908431
0.0081681
0.00662519
0.00339607
0.000195772
1.0811e-05
0.0615686
0.00212063
0.00272253
0.00478673
0.00739692
0.0104465
0.0139144
0.0177789
0.0219848
0.0264538
0.0310347
0.0371774
0.0414016
0.0519143
0.0563072
0.0439692
0.0431425
0.0602703
0.0403597
0.0390763
0.0374804
0.0358426
0.0342179
0.0326432
0.0311312
0.0296893
0.0283204
0.0270247
0.0257993
0.0246416
0.0235484
0.0225155
0.0215382
0.0206126
0.0197342
0.0188998
0.0181057
0.0173485
0.0166249
0.015932
0.0152674
0.014628
0.0140113
0.0134141
0.0128343
0.0122673
0.0117074
0.0111468
0.0105751
0.00997878
0.00933567
0.00859431
0.00761917
0.00587343
0.00257934
7.33738e-05
1.07935e-05
0.0615683
0.00212054
0.00272173
0.00478471
0.00739286
0.0104376
0.0138952
0.0177523
0.0219569
0.0263838
0.0308619
0.0351265
0.0403633
0.0434573
0.0517315
0.0547763
0.0431742
0.0421036
0.0576329
0.0389172
0.0374935
0.0358557
0.0342328
0.0326587
0.0311475
0.0297068
0.0283389
0.0270435
0.025819
0.0246621
0.0235694
0.0225374
0.0215616
0.0206374
0.0197612
0.0189289
0.0181369
0.0173822
0.0166612
0.0159712
0.0153093
0.0146733
0.0140601
0.0134672
0.0128916
0.0123311
0.0117808
0.0112348
0.0106845
0.0101189
0.00952252
0.00886942
0.00809969
0.007043
0.00507374
0.00185565
2.47872e-05
1.07843e-05
0.0615682
0.00212033
0.0027211
0.00478288
0.00738927
0.0104312
0.013882
0.0177269
0.0219241
0.0263522
0.0307873
0.0349585
0.0385502
0.0425844
0.0445013
0.0508408
0.0528704
0.0419643
0.0407806
0.0549748
0.037351
0.0358691
0.0342458
0.0326735
0.0311626
0.0297231
0.0283561
0.0270617
0.0258375
0.0246817
0.0235896
0.0225579
0.0215828
0.0206602
0.0197855
0.0189553
0.0181654
0.017413
0.0166945
0.016007
0.0153482
0.0147149
0.014105
0.0135158
0.0129447
0.0123888
0.0118455
0.0113101
0.0107756
0.0102334
0.00967097
0.00907094
0.0084028
0.00759707
0.00642715
0.0042357
0.00123392
9.01976e-06
1.07839e-05
0.0615766
0.00212014
0.00272043
0.00478151
0.00738599
0.0104256
0.0138732
0.0177095
0.0218927
0.0263152
0.0307539
0.0348862
0.0384007
0.0410453
0.0437941
0.044662
0.0494662
0.050712
0.0404909
0.0393045
0.0523347
0.0357416
0.034259
0.0326865
0.0311771
0.029738
0.028372
0.0270786
0.0258553
0.0246997
0.0236084
0.0225774
0.0216028
0.020681
0.0198078
0.0189791
0.0181913
0.0174408
0.0167247
0.01604
0.0153836
0.0147533
0.0141464
0.0135607
0.0129934
0.0124422
0.0119038
0.011376
0.0108531
0.0103282
0.00979143
0.00922923
0.00862172
0.00793287
0.00707979
0.00576048
0.00337955
0.00073251
4.4654e-06
1.07871e-05
0.0617482
0.00213572
0.00271985
0.00478019
0.00738363
0.0104207
0.0138655
0.0176981
0.0218716
0.0262789
0.030715
0.0348549
0.0383373
0.0409251
0.0425225
0.0440948
0.0441217
0.0477729
0.0484218
0.0388771
0.0377659
0.0497387
0.0341458
0.0326993
0.03119
0.0297523
0.0283868
0.027094
0.0258719
0.024717
0.0236261
0.022596
0.0216219
0.0207003
0.0198281
0.0190007
0.0182146
0.0174662
0.0167522
0.0160698
0.0154162
0.0147886
0.0141848
0.0136019
0.0130382
0.012491
0.0119576
0.0114352
0.0109207
0.0104085
0.00989075
0.00935689
0.00879167
0.00817224
0.00745652
0.00653682
0.00503625
0.00255611
0.000372257
3.25676e-06
1.07939e-05
0.0765895
0.00244887
0.00275854
0.00477908
0.00738154
0.010417
0.0138586
0.0176883
0.0218575
0.0262547
0.0306768
0.034817
0.0383108
0.0408773
0.0424343
0.043055
0.043662
0.0430966
0.0458807
0.0460849
0.0372111
0.0362287
0.0472039
0.0325985
0.0312026
0.0297651
0.0284009
0.0271086
0.0258871
0.0247332
0.0236431
0.0226131
0.0216399
0.0207191
0.0198471
0.0190208
0.018236
0.0174893
0.0167773
0.0160971
0.0154459
0.0148209
0.0142198
0.0136402
0.0130795
0.012536
0.012007
0.0114897
0.0109812
0.0104782
0.00997452
0.00946156
0.00892774
0.00835599
0.00771987
0.00697033
0.00595543
0.00425751
0.00183133
0.000155137
2.96128e-06
1.08034e-05
0.316505
0.0242563
0.00353201
0.00484862
0.0073797
0.010414
0.0138537
0.0176793
0.0218453
0.0262385
0.0306513
0.0347809
0.0382797
0.0408593
0.0424036
0.0429968
0.0428065
0.0427121
0.0417432
0.0438976
0.0437685
0.0355557
0.0347223
0.0447407
0.0311124
0.029777
0.0284131
0.0271223
0.0259013
0.0247482
0.023659
0.0226296
0.0216568
0.0207366
0.0198653
0.0190394
0.0182556
0.0175103
0.0168001
0.016122
0.0154729
0.0148504
0.014252
0.0136751
0.0131178
0.0125774
0.0120523
0.0115396
0.0110366
0.0105402
0.0100468
0.00954942
0.00903875
0.008502
0.00791973
0.00726163
0.00646625
0.00532355
0.00344247
0.00120742
5.30159e-05
2.8959e-06
1.08099e-05
0.108673
0.536436
0.0470044
0.00622376
0.00748555
0.0104114
0.0138496
0.0176729
0.0218343
0.0262243
0.0306341
0.0347553
0.0382508
0.0408376
0.042395
0.0429828
0.0427702
0.0419981
0.0414112
0.0401984
0.0418967
0.0415279
0.0339511
0.0332692
0.0423607
0.0296962
0.0284251
0.0271343
0.0259148
0.0247619
0.0236736
0.0226452
0.021673
0.0207533
0.0198827
0.0190572
0.0182738
0.0175295
0.0168208
0.0161444
0.0154974
0.0148772
0.0142812
0.0137073
0.0131528
0.0126158
0.012094
0.0115855
0.0110874
0.0105969
0.0101107
0.00962484
0.00913156
0.00862051
0.00807744
0.00748036
0.00679439
0.00593247
0.00463264
0.00263455
0.000700626
1.60869e-05
2.88351e-06
1.08134e-05
0.0955522
0.104197
0.751186
0.0704843
0.00955536
0.0105577
0.0138461
0.0176678
0.0218266
0.0262118
0.0306186
0.0347398
0.038228
0.040818
0.0423836
0.0429838
0.0427694
0.0419777
0.0408047
0.0398941
0.0385617
0.0399325
0.0393975
0.0324126
0.0318782
0.0400806
0.028352
0.0271459
0.0259268
0.0247752
0.0236872
0.0226596
0.0216884
0.0207691
0.0198988
0.0190743
0.0182914
0.0175475
0.0168397
0.0161649
0.0155198
0.0149015
0.014308
0.0137365
0.0131849
0.012651
0.0121326
0.0116276
0.0111339
0.0106488
0.010169
0.00969122
0.00921067
0.00871906
0.00820474
0.00765173
0.00703506
0.00631242
0.00535598
0.00388379
0.00189644
0.000341481
5.07459e-06
2.88194e-06
1.08153e-05
0.0935729
0.073312
0.233223
0.84598
0.091373
0.0133885
0.0140365
0.0176635
0.0218205
0.026203
0.0306059
0.0347261
0.0382169
0.0408013
0.0423747
0.0429825
0.0427758
0.0419853
0.0407939
0.039369
0.0382687
0.0369065
0.0380428
0.0373869
0.0309481
0.0305545
0.0379107
0.0270797
0.0259376
0.024787
0.0237001
0.022673
0.0217025
0.0207843
0.0199145
0.0190901
0.018308
0.0175648
0.0168575
0.0161835
0.01554
0.0149238
0.0143323
0.0137632
0.0132144
0.0126832
0.012168
0.0116666
0.0111767
0.0106961
0.0102222
0.00975136
0.00928002
0.00880267
0.00831007
0.00778932
0.00722236
0.00658084
0.00580535
0.00472464
0.00309524
0.00125472
0.000133899
2.17683e-06
2.88203e-06
1.08167e-05
0.0988188
0.0685636
0.167324
0.372372
0.896571
0.109312
0.0176801
0.0179008
0.0218154
0.026196
0.0305964
0.0347138
0.038206
0.0407948
0.0423663
0.0429831
0.0427814
0.041996
0.0408064
0.0393617
0.0378028
0.0366127
0.0352824
0.0362411
0.0354914
0.0295616
0.0292986
0.0358552
0.0258772
0.0247973
0.0237116
0.0226858
0.0217157
0.0207983
0.0199295
0.0191056
0.0183238
0.0175812
0.0168745
0.016201
0.0155586
0.0149439
0.0143544
0.0137875
0.013241
0.0127128
0.0122007
0.0117024
0.0112162
0.0107397
0.0102707
0.00980616
0.00934246
0.0088755
0.00839899
0.00790264
0.00737196
0.00678657
0.00611265
0.00526054
0.00403149
0.00231993
0.000727679
4.22973e-05
1.48411e-06
2.8823e-06
1.0818e-05
0.104717
0.0796791
0.156546
0.277035
0.494275
0.928471
0.124583
0.0224022
0.0221023
0.0261906
0.0305892
0.0347053
0.0381961
0.0407881
0.0423645
0.0429822
0.0427901
0.0420072
0.0408194
0.039377
0.0377952
0.0361903
0.0349797
0.0337132
0.0345317
0.033707
0.0282527
0.0281088
0.0339168
0.0247422
0.0237217
0.022697
0.021728
0.0208113
0.0199432
0.0191203
0.0183389
0.0175966
0.0168906
0.0162178
0.0155758
0.0149622
0.0143743
0.0138095
0.0132653
0.0127396
0.0122303
0.0117353
0.0112525
0.0107799
0.0103152
0.00985605
0.00939927
0.00894078
0.00847603
0.00799781
0.00749461
0.00695017
0.00634151
0.00562088
0.004665
0.00328387
0.00162423
0.000349695
1.15791e-05
1.33266e-06
2.88253e-06
1.08186e-05
0.106954
0.0922356
0.179396
0.260151
0.383108
0.588817
0.950685
0.137621
0.0275058
0.026529
0.0305834
0.0346982
0.0381889
0.0407813
0.0423617
0.0429843
0.0427947
0.0420217
0.0408349
0.0393912
0.0378108
0.0361786
0.0345891
0.0334014
0.0322128
0.0329155
0.0320288
0.0270191
0.0269825
0.0320922
0.0236708
0.0227067
0.0217392
0.0208234
0.0199559
0.0191338
0.0183535
0.0176116
0.0169059
0.0162338
0.0155924
0.0149793
0.0143927
0.0138295
0.0132873
0.012764
0.0122572
0.0117652
0.0112858
0.0108168
0.0103563
0.00990174
0.00945079
0.00899989
0.00854464
0.00807981
0.00759716
0.00708365
0.0065212
0.00588182
0.00509325
0.00400901
0.00252059
0.00102225
0.000133098
3.24804e-06
1.30252e-06
2.88274e-06
1.08186e-05
0.108819
0.0970077
0.204468
0.292597
0.361778
0.47634
0.660028
0.966818
0.148897
0.0328871
0.0309749
0.0346927
0.0381827
0.0407762
0.0423581
0.0429847
0.0428008
0.04203
0.0408537
0.0394084
0.0378255
0.0361933
0.0345709
0.0330357
0.0318906
0.0307864
0.0313897
0.0304509
0.0258579
0.0259155
0.0303764
0.0226597
0.0217486
0.0208343
0.0199679
0.0191465
0.0183671
0.0176261
0.0169208
0.0162489
0.0156083
0.0149958
0.0144096
0.0138478
0.0133074
0.0127862
0.0122819
0.0117925
0.0113162
0.0108507
0.010394
0.00994386
0.00949791
0.00905342
0.00860656
0.00815238
0.00768498
0.00719479
0.00666727
0.00608221
0.00539797
0.0045167
0.00329419
0.00180351
0.000544246
3.97805e-05
1.2795e-06
1.29709e-06
2.88292e-06
1.08187e-05
0.110926
0.100965
0.213799
0.326947
0.39899
0.453083
0.552956
0.713977
0.978512
0.158673
0.0383469
0.0351368
0.0381783
0.0407715
0.0423551
0.0429845
0.042804
0.0420387
0.0408647
0.0394301
0.0378446
0.0362069
0.0345837
0.0330103
0.0315441
0.0304544
0.029436
0.029951
0.0289677
0.0247661
0.024903
0.0287633
0.0217047
0.0208434
0.0199788
0.0191583
0.0183794
0.0176394
0.016935
0.0162637
0.0156232
0.0150115
0.014426
0.0138648
0.0133257
0.0128063
0.0123042
0.0118174
0.0113438
0.0108816
0.0104286
0.00998253
0.00954133
0.00910229
0.00866244
0.00821762
0.00776222
0.00728949
0.0067885
0.00624277
0.00562693
0.00487785
0.00388044
0.00254895
0.00117426
0.000230834
9.97169e-06
8.59533e-07
1.29622e-06
2.88309e-06
1.0819e-05
0.112801
0.105455
0.221422
0.339558
0.437125
0.489573
0.529393
0.61413
0.755307
0.98675
0.167144
0.0435768
0.0386706
0.0407683
0.0423516
0.0429844
0.0428066
0.0420439
0.0408737
0.0394425
0.0378663
0.0362255
0.0345954
0.0330193
0.0315119
0.030123
0.0290947
0.0281605
0.028595
0.0275734
0.0237392
0.0239412
0.0272465
0.0208025
0.0199876
0.019169
0.0183911
0.0176518
0.0169483
0.0162778
0.0156379
0.0150265
0.0144416
0.0138811
0.0133426
0.0128246
0.0123245
0.01184
0.011369
0.0109097
0.0104601
0.010018
0.00958111
0.00914717
0.00871334
0.00827627
0.00783134
0.00737223
0.00689116
0.00637568
0.00580703
0.0051454
0.00430833
0.0031842
0.00183435
0.000654058
7.51928e-05
2.50101e-06
7.77919e-07
1.29612e-06
2.88327e-06
1.08195e-05
0.114524
0.109463
0.230003
0.349529
0.450896
0.526066
0.562145
0.590901
0.66237
0.787147
0.992356
0.174373
0.0481908
0.041301
0.0423509
0.0429816
0.0428079
0.0420486
0.0408808
0.0394519
0.0378779
0.0362477
0.0346124
0.0330291
0.0315162
0.0300841
0.0287757
0.0278111
0.0269575
0.0273166
0.0262629
0.0227729
0.0230249
0.0258196
0.0199494
0.0191776
0.0184019
0.0176633
0.0169607
0.0162911
0.0156519
0.0150411
0.0144565
0.0138966
0.0133589
0.0128416
0.012343
0.0118605
0.011392
0.0109354
0.0104888
0.0100503
0.00961763
0.00918834
0.00876
0.00832953
0.00789328
0.00744594
0.00698041
0.00648761
0.00595366
0.00535246
0.00462542
0.00367882
0.00245559
0.00120355
0.000289102
1.90963e-05
8.93763e-07
7.63471e-07
1.29617e-06
2.8834e-06
1.08203e-05
0.115701
0.113154
0.237595
0.360636
0.461524
0.539044
0.594573
0.618843
0.639557
0.700056
0.81171
0.996033
0.18034
0.051832
0.0429117
0.0429818
0.0428064
0.0420506
0.0408861
0.0394598
0.0378874
0.0362594
0.0346337
0.0330448
0.0315239
0.0300836
0.0287295
0.0275017
0.026601
0.0258232
0.0261108
0.0250303
0.0218634
0.0221501
0.0244771
0.0191414
0.0184102
0.017674
0.0169721
0.0163033
0.0156651
0.015055
0.0144711
0.0139114
0.0133744
0.0128578
0.01236
0.0118791
0.0114127
0.0109587
0.010515
0.0100797
0.0096508
0.00922605
0.00880276
0.00837834
0.00794936
0.00751173
0.00705944
0.00658443
0.00607624
0.00551786
0.00486833
0.00405405
0.0029904
0.00175635
0.000673625
9.67594e-05
4.26397e-06
5.83311e-07
7.6115e-07
1.2962e-06
2.88367e-06
1.08208e-05
0.116695
0.115668
0.244534
0.370337
0.473276
0.548882
0.605943
0.64664
0.662654
0.677502
0.729281
0.830847
0.998315
0.18485
0.05429
0.0435584
0.042808
0.0420502
0.0408894
0.0394661
0.0378963
0.0362679
0.0346456
0.0330643
0.0315382
0.0300887
0.0287243
0.0274487
0.0262994
0.0254614
0.0247539
0.0249726
0.0238707
0.0210062
0.0213126
0.0232136
0.018376
0.017682
0.0169827
0.0163148
0.0156775
0.0150683
0.014485
0.0139259
0.0133893
0.0128734
0.0123763
0.0118963
0.0114316
0.0109798
0.0105388
0.0101066
0.00968103
0.00926029
0.00884187
0.0084229
0.0080006
0.00757112
0.00712972
0.00666974
0.00618193
0.00565429
0.00505963
0.00434221
0.0034221
0.00227687
0.00113722
0.000295136
2.44243e-05
1.09887e-06
5.28888e-07
7.60828e-07
1.29627e-06
2.88382e-06
1.08208e-05
0.11758
0.117787
0.249214
0.379064
0.483215
0.559737
0.614433
0.656226
0.686069
0.696204
0.706817
0.752018
0.846076
0.999562
0.187675
0.055559
0.0433877
0.0420522
0.0408894
0.0394697
0.0379029
0.0362767
0.0346535
0.0330756
0.0315558
0.0301012
0.028727
0.0274387
0.0262393
0.0251663
0.0243884
0.0237448
0.0238969
0.0227796
0.0201972