/*--------------------------------*- C++ -*----------------------------------*\
| =========                 |                                                 |
| \\      /  F ield         | OpenFOAM: The Open Source CFD Toolbox           |
|  \\    /   O peration     | Version:  v2012                                 |
|   \\  /    A nd           | Website:  www.openfoam.com                      |
|    \\/     M anipulation  |                                                 |
\*---------------------------------------------------------------------------*/
FoamFile
{
    version     2.0;
    format      ascii;
    class       volScalarField;
    location    "13200";
    object      nu;
}
// * * * * * * * * * * * * * * * * * * * * * * * * * * * * * * * * * * * * * //

dimensions      [0 2 -1 0 0 0 0];


internalField   nonuniform List<scalar> 
31383
(
5.72355e-05
5.73126e-05
5.70051e-05
5.73774e-05
5.7052e-05
5.67461e-05
5.7403e-05
5.71204e-05
5.67599e-05
5.6455e-05
5.74115e-05
5.71507e-05
5.68338e-05
5.64311e-05
5.61258e-05
5.74251e-05
5.71632e-05
5.68701e-05
5.65127e-05
5.60584e-05
5.57518e-05
5.74438e-05
5.71808e-05
5.68883e-05
5.65566e-05
5.615e-05
5.56336e-05
5.53256e-05
5.74558e-05
5.7203e-05
5.69104e-05
5.6581e-05
5.62037e-05
5.5738e-05
5.51469e-05
5.48381e-05
5.74582e-05
5.7218e-05
5.69368e-05
5.66091e-05
5.62359e-05
5.58035e-05
5.52672e-05
5.4587e-05
5.42802e-05
5.74648e-05
5.72231e-05
5.69556e-05
5.66404e-05
5.62709e-05
5.58452e-05
5.53468e-05
5.47272e-05
5.3944e-05
5.36381e-05
5.74851e-05
5.72323e-05
5.69642e-05
5.66637e-05
5.63082e-05
5.58883e-05
5.53999e-05
5.48237e-05
5.41078e-05
5.32086e-05
5.28971e-05
5.75191e-05
5.72548e-05
5.69762e-05
5.66762e-05
5.63367e-05
5.59329e-05
5.54527e-05
5.48903e-05
5.42241e-05
5.34023e-05
5.23852e-05
5.20153e-05
5.75642e-05
5.72907e-05
5.70012e-05
5.66918e-05
5.63539e-05
5.59676e-05
5.5506e-05
5.49546e-05
5.43066e-05
5.35416e-05
5.26099e-05
5.14816e-05
5.10025e-05
5.76161e-05
5.73377e-05
5.70394e-05
5.67197e-05
5.63737e-05
5.599e-05
5.5548e-05
5.50179e-05
5.43846e-05
5.3642e-05
5.27733e-05
5.17378e-05
5.05141e-05
4.9857e-05
5.76637e-05
5.73909e-05
5.70883e-05
5.67607e-05
5.6405e-05
5.60146e-05
5.5577e-05
5.50685e-05
5.44594e-05
5.37352e-05
5.28939e-05
5.19263e-05
5.08017e-05
4.95025e-05
4.85258e-05
5.77053e-05
5.74398e-05
5.71435e-05
5.6812e-05
5.64493e-05
5.60504e-05
5.56072e-05
5.51051e-05
5.45202e-05
5.38228e-05
5.30037e-05
5.2068e-05
5.10155e-05
4.98207e-05
4.84634e-05
4.71126e-05
5.77418e-05
5.74829e-05
5.71939e-05
5.68692e-05
5.65031e-05
5.60982e-05
5.56476e-05
5.51419e-05
5.45654e-05
5.38953e-05
5.31044e-05
5.21953e-05
5.11778e-05
5.0059e-05
4.88123e-05
4.74064e-05
4.56196e-05
5.77713e-05
5.75205e-05
5.72383e-05
5.69215e-05
5.65629e-05
5.61556e-05
5.56998e-05
5.51883e-05
5.46101e-05
5.39504e-05
5.31908e-05
5.23105e-05
5.13222e-05
5.02407e-05
4.90741e-05
4.77865e-05
4.6342e-05
4.40825e-05
5.77938e-05
5.7551e-05
5.72774e-05
5.69679e-05
5.66176e-05
5.62181e-05
5.57611e-05
5.52456e-05
5.46629e-05
5.4004e-05
5.32567e-05
5.24101e-05
5.14526e-05
5.04018e-05
4.92751e-05
4.80712e-05
4.67528e-05
4.52827e-05
4.2548e-05
5.78106e-05
5.75745e-05
5.73092e-05
5.70084e-05
5.66659e-05
5.62755e-05
5.58272e-05
5.53113e-05
5.47261e-05
5.40643e-05
5.33197e-05
5.24878e-05
5.15646e-05
5.05466e-05
4.94521e-05
4.82908e-05
4.70595e-05
4.57239e-05
4.42379e-05
4.1046e-05
5.78222e-05
5.75923e-05
5.73339e-05
5.70417e-05
5.67083e-05
5.6326e-05
5.58875e-05
5.53813e-05
5.47971e-05
5.41337e-05
5.33887e-05
5.256e-05
5.16543e-05
5.06714e-05
4.96106e-05
4.84834e-05
4.72965e-05
4.60501e-05
4.47089e-05
4.32136e-05
3.95803e-05
5.78297e-05
5.76047e-05
5.73527e-05
5.70677e-05
5.67433e-05
5.63707e-05
5.5941e-05
5.54452e-05
5.48719e-05
5.42111e-05
5.34648e-05
5.26383e-05
5.17362e-05
5.07721e-05
4.97469e-05
4.86549e-05
4.75038e-05
4.63036e-05
4.50536e-05
4.37149e-05
4.22144e-05
3.81412e-05
5.78339e-05
5.76129e-05
5.73659e-05
5.70877e-05
5.67707e-05
5.64077e-05
5.59881e-05
5.55021e-05
5.49401e-05
5.4291e-05
5.35492e-05
5.27225e-05
5.18238e-05
5.08638e-05
4.98585e-05
4.8803e-05
4.76879e-05
4.65246e-05
4.53218e-05
4.40765e-05
4.27471e-05
4.12426e-05
3.67339e-05
5.78358e-05
5.7618e-05
5.73753e-05
5.71021e-05
5.67922e-05
5.6437e-05
5.60273e-05
5.55521e-05
5.50007e-05
5.4364e-05
5.3635e-05
5.28133e-05
5.19155e-05
5.09601e-05
4.99595e-05
4.89248e-05
4.7847e-05
4.67204e-05
4.55555e-05
4.43589e-05
4.31247e-05
4.18076e-05
4.02982e-05
3.53646e-05
5.78362e-05
5.76202e-05
5.73811e-05
5.71123e-05
5.68081e-05
5.646e-05
5.6059e-05
5.55944e-05
5.50542e-05
5.44291e-05
5.37132e-05
5.29053e-05
5.20128e-05
5.1059e-05
5.00635e-05
4.90348e-05
4.79792e-05
4.68899e-05
4.57622e-05
4.46042e-05
4.34198e-05
4.22001e-05
4.08965e-05
3.93794e-05
3.40377e-05
5.78362e-05
5.76213e-05
5.73842e-05
5.71191e-05
5.68194e-05
5.64774e-05
5.60841e-05
5.56283e-05
5.50996e-05
5.44866e-05
5.37824e-05
5.29888e-05
5.21108e-05
5.11626e-05
5.01696e-05
4.91466e-05
4.80977e-05
4.70314e-05
4.59412e-05
4.48209e-05
4.3676e-05
4.25074e-05
4.13034e-05
4.00101e-05
3.84822e-05
3.27546e-05
5.78365e-05
5.7622e-05
5.73858e-05
5.71231e-05
5.68274e-05
5.64902e-05
5.61031e-05
5.56557e-05
5.51364e-05
5.45354e-05
5.38446e-05
5.30628e-05
5.22001e-05
5.12662e-05
5.02792e-05
4.92592e-05
4.8217e-05
4.71583e-05
4.60914e-05
4.50088e-05
4.39018e-05
4.27735e-05
4.16221e-05
4.04312e-05
3.91441e-05
3.76023e-05
3.15144e-05
5.78362e-05
5.76227e-05
5.7387e-05
5.71256e-05
5.68323e-05
5.64996e-05
5.61176e-05
5.56769e-05
5.51666e-05
5.45756e-05
5.38973e-05
5.31298e-05
5.22789e-05
5.13607e-05
5.03879e-05
4.93743e-05
4.83358e-05
4.72841e-05
4.6226e-05
4.51669e-05
4.4098e-05
4.3008e-05
4.18977e-05
4.0761e-05
3.95795e-05
3.82968e-05
3.67373e-05
3.03146e-05
5.78344e-05
5.76229e-05
5.73885e-05
5.71278e-05
5.68359e-05
5.65058e-05
5.61285e-05
5.56935e-05
5.519e-05
5.46088e-05
5.39412e-05
5.31865e-05
5.23502e-05
5.14442e-05
5.04872e-05
4.94881e-05
4.84565e-05
4.74088e-05
4.63582e-05
4.53084e-05
4.42634e-05
4.32117e-05
4.214e-05
4.10457e-05
3.99202e-05
3.87463e-05
3.74666e-05
3.58855e-05
2.91492e-05
5.78305e-05
5.76215e-05
5.73891e-05
5.71299e-05
5.68387e-05
5.65102e-05
5.61362e-05
5.57058e-05
5.52089e-05
5.4635e-05
5.39777e-05
5.32343e-05
5.24109e-05
5.15199e-05
5.0575e-05
4.95916e-05
4.85747e-05
4.75345e-05
4.6488e-05
4.54464e-05
4.44113e-05
4.33838e-05
4.23509e-05
4.12959e-05
4.02141e-05
3.90978e-05
3.79304e-05
3.66522e-05
3.50449e-05
2.8007e-05
5.78249e-05
5.76182e-05
5.73883e-05
5.71313e-05
5.68417e-05
5.65143e-05
5.6142e-05
5.57153e-05
5.52235e-05
5.46566e-05
5.40071e-05
5.32742e-05
5.24629e-05
5.15847e-05
5.06546e-05
4.96837e-05
4.86827e-05
4.76573e-05
4.66182e-05
4.55812e-05
4.45546e-05
4.35377e-05
4.25296e-05
4.15137e-05
4.04719e-05
3.94003e-05
3.82921e-05
3.71304e-05
3.58523e-05
3.42137e-05
2.68737e-05
5.78162e-05
5.76128e-05
5.73854e-05
5.71308e-05
5.68438e-05
5.65181e-05
5.61471e-05
5.57226e-05
5.52347e-05
5.46734e-05
5.40314e-05
5.33073e-05
5.25062e-05
5.164e-05
5.07232e-05
4.97672e-05
4.87787e-05
4.77689e-05
4.67449e-05
4.57153e-05
4.46939e-05
4.3686e-05
4.2689e-05
4.16987e-05
4.06965e-05
3.96654e-05
3.86033e-05
3.75024e-05
3.63451e-05
3.50651e-05
3.33893e-05
2.57501e-05
5.78052e-05
5.76045e-05
5.73805e-05
5.71284e-05
5.68442e-05
5.65211e-05
5.61518e-05
5.5729e-05
5.52439e-05
5.46867e-05
5.4051e-05
5.33344e-05
5.25424e-05
5.16869e-05
5.0782e-05
4.98393e-05
4.88658e-05
4.78685e-05
4.686e-05
4.58454e-05
4.48316e-05
4.38293e-05
4.28418e-05
4.18636e-05
4.08874e-05
3.98965e-05
3.88755e-05
3.78217e-05
3.67273e-05
3.55735e-05
3.42897e-05
3.257e-05
2.46707e-05
5.77926e-05
5.7594e-05
5.73728e-05
5.71241e-05
5.68425e-05
5.65224e-05
5.61558e-05
5.57352e-05
5.52518e-05
5.46978e-05
5.40667e-05
5.33567e-05
5.25728e-05
5.17266e-05
5.08321e-05
4.99015e-05
4.89414e-05
4.79589e-05
4.69628e-05
4.59639e-05
4.49648e-05
4.39706e-05
4.2989e-05
4.20209e-05
4.10577e-05
4.00932e-05
3.91127e-05
3.8101e-05
3.70549e-05
3.59658e-05
3.48141e-05
3.35244e-05
3.17533e-05
2.36495e-05
5.77789e-05
5.75815e-05
5.73624e-05
5.7117e-05
5.68386e-05
5.65214e-05
5.61581e-05
5.57404e-05
5.52595e-05
5.47078e-05
5.408e-05
5.3375e-05
5.25979e-05
5.17599e-05
5.08749e-05
4.99548e-05
4.90069e-05
4.80375e-05
4.70562e-05
4.60695e-05
4.50858e-05
4.41064e-05
4.31334e-05
4.21717e-05
4.12192e-05
4.02686e-05
3.93152e-05
3.83442e-05
3.73408e-05
3.63013e-05
3.52166e-05
3.40659e-05
3.2768e-05
3.09371e-05
2.2652e-05
5.7765e-05
5.75683e-05
5.73507e-05
5.71072e-05
5.68321e-05
5.65183e-05
5.61581e-05
5.57436e-05
5.5266e-05
5.4717e-05
5.40919e-05
5.33907e-05
5.26189e-05
5.17878e-05
5.0911e-05
5.00003e-05
4.90631e-05
4.81059e-05
4.71377e-05
4.61656e-05
4.51943e-05
4.423e-05
4.32717e-05
4.23191e-05
4.13737e-05
4.04344e-05
3.94956e-05
3.85521e-05
3.75901e-05
3.65937e-05
3.55599e-05
3.44788e-05
3.33277e-05
3.20187e-05
3.01183e-05
2.16521e-05
5.77513e-05
5.75546e-05
5.73379e-05
5.70958e-05
5.6823e-05
5.65125e-05
5.61558e-05
5.57448e-05
5.52707e-05
5.47253e-05
5.41032e-05
5.34048e-05
5.26371e-05
5.18114e-05
5.09416e-05
5.00394e-05
4.91115e-05
4.8165e-05
4.72088e-05
4.62495e-05
4.52926e-05
4.43408e-05
4.33979e-05
4.246e-05
4.15239e-05
4.05923e-05
3.96653e-05
3.87373e-05
3.78032e-05
3.68487e-05
3.5859e-05
3.483e-05
3.37513e-05
3.25987e-05
3.12757e-05
2.92945e-05
2.06442e-05
5.77436e-05
5.75412e-05
5.73247e-05
5.70834e-05
5.68121e-05
5.6504e-05
5.61508e-05
5.57436e-05
5.52728e-05
5.47312e-05
5.4113e-05
5.34181e-05
5.26534e-05
5.18319e-05
5.09677e-05
5.00726e-05
4.91532e-05
4.82162e-05
4.72705e-05
4.63232e-05
4.53792e-05
4.44414e-05
4.35108e-05
4.25883e-05
4.16674e-05
4.07454e-05
3.98266e-05
3.89111e-05
3.79931e-05
3.70671e-05
3.61195e-05
3.51353e-05
3.41103e-05
3.30333e-05
3.18777e-05
3.0537e-05
2.84608e-05
1.9623e-05
5.76761e-05
5.75338e-05
5.73113e-05
5.70705e-05
5.68002e-05
5.64938e-05
5.61431e-05
5.57394e-05
5.52727e-05
5.47348e-05
5.41207e-05
5.34297e-05
5.26686e-05
5.18505e-05
5.09904e-05
5.0101e-05
4.91889e-05
4.82603e-05
4.73241e-05
4.63874e-05
4.54549e-05
4.45301e-05
4.36135e-05
4.27035e-05
4.17979e-05
4.08912e-05
3.99824e-05
3.90755e-05
3.81704e-05
3.72615e-05
3.6343e-05
3.54015e-05
3.4422e-05
3.34003e-05
3.2324e-05
3.11637e-05
2.98012e-05
2.76109e-05
1.85845e-05
5.7618e-05
5.74672e-05
5.73044e-05
5.70579e-05
5.67879e-05
5.64825e-05
5.61335e-05
5.57326e-05
5.52699e-05
5.47361e-05
5.41259e-05
5.34392e-05
5.26824e-05
5.18676e-05
5.10109e-05
5.01259e-05
4.92196e-05
4.82984e-05
4.73706e-05
4.64431e-05
4.55212e-05
4.46079e-05
4.3704e-05
4.28081e-05
4.19152e-05
4.10239e-05
4.01303e-05
3.92339e-05
3.83381e-05
3.74427e-05
3.65418e-05
3.56299e-05
3.46936e-05
3.37184e-05
3.26989e-05
3.16222e-05
3.04558e-05
2.90665e-05
2.67367e-05
1.7525e-05
5.76762e-05
5.73609e-05
5.72387e-05
5.7051e-05
5.67759e-05
5.64706e-05
5.61232e-05
5.5724e-05
5.52641e-05
5.47344e-05
5.41284e-05
5.34461e-05
5.26935e-05
5.18831e-05
5.10301e-05
5.01486e-05
4.92467e-05
4.83313e-05
4.74108e-05
4.64917e-05
4.55792e-05
4.46762e-05
4.37838e-05
4.29007e-05
4.20219e-05
4.11431e-05
4.02653e-05
3.93841e-05
3.8499e-05
3.76132e-05
3.67265e-05
3.58329e-05
3.4927e-05
3.39953e-05
3.30233e-05
3.20057e-05
3.09274e-05
2.97527e-05
2.8331e-05
2.58319e-05
1.64428e-05
5.76851e-05
5.74635e-05
5.7072e-05
5.69863e-05
5.67691e-05
5.64593e-05
5.6112e-05
5.57143e-05
5.52565e-05
5.47298e-05
5.41282e-05
5.34502e-05
5.2702e-05
5.18963e-05
5.10476e-05
5.01697e-05
4.92714e-05
4.83605e-05
4.74459e-05
4.6534e-05
4.56297e-05
4.47359e-05
4.38538e-05
4.29823e-05
4.21162e-05
4.12516e-05
4.03864e-05
3.95209e-05
3.86512e-05
3.77766e-05
3.69e-05
3.60212e-05
3.5134e-05
3.42334e-05
3.33056e-05
3.23362e-05
3.13194e-05
3.02386e-05
2.90533e-05
2.75928e-05
2.48899e-05
1.53383e-05
5.76153e-05
5.74702e-05
5.72265e-05
5.67467e-05
5.67052e-05
5.64531e-05
5.61012e-05
5.57039e-05
5.52477e-05
5.47232e-05
5.41249e-05
5.34514e-05
5.27078e-05
5.19065e-05
5.10622e-05
5.01889e-05
4.92944e-05
4.83871e-05
4.74769e-05
4.65709e-05
4.56739e-05
4.47882e-05
4.39156e-05
4.30542e-05
4.21997e-05
4.13478e-05
4.04967e-05
3.96439e-05
3.87899e-05
3.79309e-05
3.70657e-05
3.61975e-05
3.53257e-05
3.44446e-05
3.35482e-05
3.26238e-05
3.16566e-05
3.06396e-05
2.95552e-05
2.83565e-05
2.6849e-05
2.3905e-05
1.42187e-05
5.76417e-05
5.73842e-05
5.72301e-05
5.69614e-05
5.63778e-05
5.63901e-05
5.60955e-05
5.56939e-05
5.52383e-05
5.47157e-05
5.41197e-05
5.34494e-05
5.27104e-05
5.19137e-05
5.10742e-05
5.02054e-05
4.93153e-05
4.84118e-05
4.75053e-05
4.66038e-05
4.57125e-05
4.48341e-05
4.39696e-05
4.31176e-05
4.22732e-05
4.1433e-05
4.05945e-05
3.97559e-05
3.89148e-05
3.80713e-05
3.72219e-05
3.63655e-05
3.5505e-05
3.46395e-05
3.37637e-05
3.28712e-05
3.19494e-05
3.09834e-05
2.99657e-05
2.8876e-05
2.76611e-05
2.60972e-05
2.28711e-05
1.31051e-05
5.76954e-05
5.74206e-05
5.71251e-05
5.69613e-05
5.66635e-05
5.59574e-05
5.60335e-05
5.56887e-05
5.52291e-05
5.47071e-05
5.41132e-05
5.34456e-05
5.27102e-05
5.19181e-05
5.10832e-05
5.02188e-05
4.93334e-05
4.84344e-05
4.75315e-05
4.66337e-05
4.57469e-05
4.48745e-05
4.40172e-05
4.31733e-05
4.23383e-05
4.15083e-05
4.06813e-05
3.98554e-05
3.90284e-05
3.8198e-05
3.73643e-05
3.65237e-05
3.56752e-05
3.48216e-05
3.39618e-05
3.30905e-05
3.22013e-05
3.12817e-05
3.03163e-05
2.9297e-05
2.82004e-05
2.69654e-05
2.53341e-05
2.17832e-05
1.20356e-05
5.77019e-05
5.74851e-05
5.71753e-05
5.68336e-05
5.66585e-05
5.63268e-05
5.54765e-05
5.56279e-05
5.52246e-05
5.46991e-05
5.41061e-05
5.34404e-05
5.27077e-05
5.19192e-05
5.10889e-05
5.02294e-05
4.93485e-05
4.84539e-05
4.75557e-05
4.66617e-05
4.57785e-05
4.49105e-05
4.40591e-05
4.32224e-05
4.23957e-05
4.1575e-05
4.07584e-05
3.9944e-05
3.91296e-05
3.83132e-05
3.74927e-05
3.66679e-05
3.58353e-05
3.4994e-05
3.41466e-05
3.32921e-05
3.24248e-05
3.15384e-05
3.06201e-05
2.96548e-05
2.86325e-05
2.75273e-05
2.62678e-05
2.4556e-05
2.06385e-05
1.10603e-05
5.77082e-05
5.74935e-05
5.72538e-05
5.69014e-05
5.65038e-05
5.63156e-05
5.59436e-05
5.49286e-05
5.51651e-05
5.46954e-05
5.4099e-05
5.34346e-05
5.27039e-05
5.19181e-05
5.10915e-05
5.02366e-05
4.93606e-05
4.84706e-05
4.75768e-05
4.6687e-05
4.58077e-05
4.49435e-05
4.40965e-05
4.32658e-05
4.24463e-05
4.1634e-05
4.08266e-05
4.00224e-05
3.92197e-05
3.84159e-05
3.76094e-05
3.67978e-05
3.59811e-05
3.51559e-05
3.43213e-05
3.34795e-05
3.26295e-05
3.17658e-05
3.08815e-05
2.9964e-05
2.8998e-05
2.79717e-05
2.68556e-05
2.55664e-05
2.37586e-05
1.94409e-05
1.02221e-05
5.77075e-05
5.75012e-05
5.72654e-05
5.69978e-05
5.65937e-05
5.61289e-05
5.59253e-05
5.55064e-05
5.43111e-05
5.46375e-05
5.40964e-05
5.34288e-05
5.26992e-05
5.19158e-05
5.10919e-05
5.02408e-05
4.93693e-05
4.84841e-05
4.75947e-05
4.67095e-05
4.58345e-05
4.49741e-05
4.41308e-05
4.33045e-05
4.24911e-05
4.16861e-05
4.08871e-05
4.00923e-05
3.92997e-05
3.85075e-05
3.77136e-05
3.69161e-05
3.61126e-05
3.53034e-05
3.44849e-05
3.36561e-05
3.28195e-05
3.19736e-05
3.11128e-05
3.02302e-05
2.93132e-05
2.83454e-05
2.73139e-05
2.61843e-05
2.48589e-05
2.29321e-05
1.82086e-05
9.60655e-06
5.77053e-05
5.7501e-05
5.72755e-05
5.70135e-05
5.67118e-05
5.62456e-05
5.57009e-05
5.548e-05
5.50068e-05
5.36399e-05
5.40399e-05
5.34271e-05
5.26952e-05
5.19126e-05
5.10911e-05
5.02426e-05
4.93749e-05
4.84944e-05
4.76097e-05
4.67288e-05
4.58582e-05
4.50021e-05
4.41626e-05
4.33402e-05
4.25314e-05
4.17323e-05
4.09405e-05
4.0154e-05
3.93708e-05
3.8589e-05
3.78068e-05
3.70218e-05
3.62324e-05
3.54365e-05
3.4634e-05
3.38215e-05
3.29983e-05
3.21662e-05
3.13238e-05
3.04656e-05
2.95841e-05
2.86666e-05
2.76963e-05
2.6658e-05
2.55117e-05
2.41429e-05
2.20644e-05
1.69822e-05
9.21211e-06
5.77065e-05
5.74992e-05
5.7276e-05
5.7027e-05
5.67333e-05
5.63903e-05
5.58501e-05
5.52131e-05
5.49714e-05
5.44389e-05
5.29337e-05
5.33728e-05
5.26942e-05
5.19098e-05
5.1089e-05
5.0243e-05
4.93781e-05
4.85014e-05
4.76212e-05
4.6745e-05
4.58788e-05
4.5027e-05
4.41917e-05
4.33732e-05
4.25682e-05
4.17737e-05
4.09882e-05
4.02089e-05
3.94341e-05
3.86616e-05
3.78896e-05
3.71163e-05
3.63396e-05
3.55576e-05
3.47687e-05
3.39722e-05
3.31654e-05
3.2347e-05
3.15189e-05
3.06798e-05
2.98235e-05
2.89426e-05
2.80241e-05
2.70502e-05
2.60033e-05
2.48367e-05
2.34155e-05
2.11475e-05
1.58056e-05
8.96183e-06
5.77057e-05
5.75002e-05
5.72746e-05
5.70283e-05
5.67507e-05
5.64186e-05
5.60263e-05
5.53996e-05
5.46611e-05
5.43939e-05
5.37996e-05
5.22173e-05
5.26424e-05
5.191e-05
5.10876e-05
5.02424e-05
4.938e-05
4.85058e-05
4.76296e-05
4.6758e-05
4.58963e-05
4.50488e-05
4.42178e-05
4.34034e-05
4.26023e-05
4.18119e-05
4.1031e-05
4.02578e-05
3.94905e-05
3.87263e-05
3.79637e-05
3.72007e-05
3.64355e-05
3.56663e-05
3.48912e-05
3.41084e-05
3.33176e-05
3.25158e-05
3.17018e-05
3.08775e-05
3.00408e-05
2.9186e-05
2.83052e-05
2.73848e-05
2.64061e-05
2.53484e-05
2.41572e-05
2.26729e-05
2.0177e-05
1.46745e-05
8.7855e-06
5.77072e-05
5.74996e-05
5.72759e-05
5.70275e-05
5.67537e-05
5.64412e-05
5.6063e-05
5.56122e-05
5.48881e-05
5.40465e-05
5.37462e-05
5.30936e-05
5.15096e-05
5.18606e-05
5.10888e-05
5.02424e-05
4.93808e-05
4.85093e-05
4.76354e-05
4.67675e-05
4.59104e-05
4.50673e-05
4.42406e-05
4.34305e-05
4.26337e-05
4.1847e-05
4.10701e-05
4.03019e-05
3.95405e-05
3.87839e-05
3.80297e-05
3.72759e-05
3.65213e-05
3.57636e-05
3.50013e-05
3.42324e-05
3.34552e-05
3.26695e-05
3.18722e-05
3.10623e-05
3.02412e-05
2.94068e-05
2.85531e-05
2.76715e-05
2.67483e-05
2.57634e-05
2.46923e-05
2.34711e-05
2.19112e-05
1.91506e-05
1.35757e-05
8.65978e-06
5.7707e-05
5.75015e-05
5.72755e-05
5.70293e-05
5.67535e-05
5.64457e-05
5.60917e-05
5.56587e-05
5.51399e-05
5.43133e-05
5.33794e-05
5.30329e-05
5.23318e-05
5.0819e-05
5.10428e-05
5.02446e-05
4.9382e-05
4.85114e-05
4.764e-05
4.67748e-05
4.59211e-05
4.50826e-05
4.42602e-05
4.34544e-05
4.26619e-05
4.18795e-05
4.11065e-05
4.03421e-05
3.95858e-05
3.88352e-05
3.80885e-05
3.73433e-05
3.65978e-05
3.58506e-05
3.50999e-05
3.43437e-05
3.35805e-05
3.28087e-05
3.20275e-05
3.12345e-05
3.04281e-05
2.96097e-05
2.87771e-05
2.79238e-05
2.70408e-05
2.61139e-05
2.5121e-05
2.40334e-05
2.27759e-05
2.11215e-05
1.80686e-05
1.252e-05
8.56891e-06
5.7707e-05
5.75013e-05
5.72778e-05
5.70293e-05
5.67557e-05
5.64467e-05
5.60984e-05
5.56944e-05
5.51978e-05
5.46031e-05
5.36783e-05
5.26761e-05
5.22657e-05
5.15287e-05
5.0147e-05
5.02019e-05
4.93853e-05
4.85139e-05
4.76436e-05
4.67804e-05
4.59295e-05
4.50944e-05
4.42767e-05
4.34751e-05
4.26868e-05
4.19085e-05
4.11398e-05
4.03796e-05
3.96272e-05
3.88815e-05
3.8141e-05
3.74032e-05
3.66664e-05
3.59285e-05
3.51881e-05
3.44436e-05
3.36933e-05
3.29352e-05
3.21681e-05
3.13913e-05
3.06019e-05
2.97987e-05
2.89827e-05
2.81512e-05
2.72978e-05
2.64127e-05
2.54808e-05
2.4478e-05
2.33703e-05
2.20686e-05
2.02901e-05
1.6933e-05
1.15211e-05
8.49312e-06
5.77055e-05
5.75014e-05
5.72777e-05
5.70317e-05
5.67562e-05
5.64495e-05
5.61004e-05
5.57035e-05
5.52413e-05
5.46731e-05
5.39982e-05
5.29935e-05
5.19523e-05
5.14588e-05
5.07012e-05
4.94903e-05
4.93462e-05
4.85181e-05
4.76472e-05
4.67852e-05
4.59364e-05
4.51041e-05
4.42898e-05
4.34925e-05
4.27086e-05
4.19346e-05
4.11699e-05
4.0414e-05
3.96655e-05
3.89241e-05
3.81884e-05
3.74571e-05
3.67277e-05
3.59983e-05
3.52674e-05
3.45332e-05
3.37944e-05
3.30492e-05
3.22961e-05
3.15332e-05
3.07601e-05
2.99742e-05
2.91738e-05
2.83596e-05
2.75289e-05
2.66746e-05
2.57865e-05
2.48481e-05
2.3833e-05
2.27009e-05
2.1346e-05
1.94063e-05
1.57544e-05
1.06012e-05
8.42993e-06
5.77051e-05
5.74999e-05
5.72779e-05
5.70322e-05
5.67591e-05
5.64505e-05
5.61038e-05
5.57069e-05
5.52531e-05
5.47247e-05
5.40809e-05
5.33275e-05
5.22712e-05
5.12184e-05
5.06279e-05
4.98611e-05
4.88447e-05
4.8483e-05
4.76522e-05
4.67901e-05
4.59424e-05
4.51122e-05
4.43003e-05
4.35069e-05
4.27269e-05
4.19573e-05
4.11969e-05
4.04451e-05
3.97009e-05
3.89634e-05
3.8232e-05
3.75055e-05
3.67826e-05
3.60607e-05
3.53384e-05
3.46136e-05
3.38852e-05
3.31518e-05
3.24113e-05
3.16625e-05
3.09035e-05
3.01339e-05
2.93508e-05
2.85529e-05
2.774e-05
2.69095e-05
2.60536e-05
2.51614e-05
2.42149e-05
2.31847e-05
2.20228e-05
2.06038e-05
1.84643e-05
1.45613e-05
9.78941e-06
8.38081e-06
5.77045e-05
5.74997e-05
5.72766e-05
5.70325e-05
5.676e-05
5.64541e-05
5.61056e-05
5.57109e-05
5.52581e-05
5.47396e-05
5.41396e-05
5.34217e-05
5.25986e-05
5.15231e-05
5.04795e-05
4.97824e-05
4.90156e-05
4.82053e-05
4.76213e-05
4.67961e-05
4.59484e-05
4.5119e-05
4.43095e-05
4.35184e-05
4.27421e-05
4.19767e-05
4.12204e-05
4.04728e-05
3.97329e-05
3.89997e-05
3.82724e-05
3.75501e-05
3.68321e-05
3.61166e-05
3.54019e-05
3.46858e-05
3.39668e-05
3.32438e-05
3.2515e-05
3.17789e-05
3.1034e-05
3.02788e-05
2.95122e-05
2.87317e-05
2.79356e-05
2.71237e-05
2.62927e-05
2.54343e-05
2.45368e-05
2.35802e-05
2.25314e-05
2.13334e-05
1.98333e-05
1.74619e-05
1.34024e-05
9.13878e-06
8.34942e-06
5.77038e-05
5.74995e-05
5.72765e-05
5.70315e-05
5.67607e-05
5.64552e-05
5.61097e-05
5.57136e-05
5.52632e-05
5.47465e-05
5.4158e-05
5.34857e-05
5.27022e-05
5.18247e-05
5.07588e-05
4.97376e-05
4.89277e-05
4.81726e-05
4.75676e-05
4.67692e-05
4.59552e-05
4.51262e-05
4.43174e-05
4.35286e-05
4.27548e-05
4.19929e-05
4.12409e-05
4.04974e-05
3.97616e-05
3.90326e-05
3.83095e-05
3.75914e-05
3.68777e-05
3.61674e-05
3.5459e-05
3.47505e-05
3.40403e-05
3.33266e-05
3.26083e-05
3.18839e-05
3.11519e-05
3.04104e-05
2.96584e-05
2.88945e-05
2.81162e-05
2.73215e-05
2.65101e-05
2.56778e-05
2.4816e-05
2.39116e-05
2.29426e-05
2.18711e-05
2.06291e-05
1.90206e-05
1.64017e-05
1.23005e-05
8.72709e-06
8.33365e-06
5.77078e-05
5.74985e-05
5.72762e-05
5.70315e-05
5.67595e-05
5.64562e-05
5.61115e-05
5.57187e-05
5.52669e-05
5.47525e-05
5.41668e-05
5.35075e-05
5.27687e-05
5.19346e-05
5.102e-05
4.99847e-05
4.89937e-05
4.80733e-05
4.73406e-05
4.69277e-05
4.59327e-05
4.51338e-05
4.43256e-05
4.35375e-05
4.27658e-05
4.20065e-05
4.1258e-05
4.05187e-05
3.9787e-05
3.90622e-05
3.83432e-05
3.76294e-05
3.69198e-05
3.62139e-05
3.55106e-05
3.48087e-05
3.4106e-05
3.34011e-05
3.26923e-05
3.19784e-05
3.1258e-05
3.05295e-05
2.97915e-05
2.9042e-05
2.82805e-05
2.75039e-05
2.67104e-05
2.58987e-05
2.50645e-05
2.41979e-05
2.32848e-05
2.23005e-05
2.12013e-05
1.99062e-05
1.81538e-05
1.52871e-05
1.12565e-05
8.5306e-06
8.33186e-06
5.76702e-05
5.75026e-05
5.72756e-05
5.70313e-05
5.67598e-05
5.64556e-05
5.61129e-05
5.5721e-05
5.52728e-05
5.47576e-05
5.41738e-05
5.35182e-05
5.27935e-05
5.20005e-05
5.11327e-05
5.01977e-05
4.92066e-05
4.82425e-05
4.72268e-05
4.65267e-05
4.62824e-05
4.51156e-05
4.43338e-05
4.35468e-05
4.27758e-05
4.20185e-05
4.12727e-05
4.05368e-05
3.98094e-05
3.90885e-05
3.83737e-05
3.7664e-05
3.69586e-05
3.62568e-05
3.55581e-05
3.48613e-05
3.41653e-05
3.3468e-05
3.27679e-05
3.20635e-05
3.13536e-05
3.06369e-05
2.99117e-05
2.91764e-05
2.84296e-05
2.767e-05
2.68948e-05
2.61016e-05
2.5289e-05
2.44516e-05
2.35791e-05
2.2655e-05
2.16522e-05
2.05194e-05
1.91571e-05
1.72244e-05
1.4129e-05
1.03139e-05
8.43487e-06
8.33583e-06
5.60908e-05
5.74665e-05
5.72797e-05
5.70305e-05
5.67598e-05
5.64559e-05
5.61124e-05
5.57229e-05
5.52759e-05
5.47648e-05
5.41801e-05
5.35262e-05
5.28058e-05
5.20274e-05
5.11951e-05
5.03095e-05
4.9366e-05
4.84272e-05
4.74813e-05
4.63951e-05
4.57341e-05
4.56286e-05
4.43201e-05
4.35557e-05
4.2786e-05
4.20295e-05
4.12858e-05
4.05525e-05
3.98283e-05
3.91117e-05
3.84008e-05
3.76953e-05
3.69942e-05
3.62966e-05
3.5602e-05
3.49096e-05
3.42189e-05
3.35281e-05
3.28358e-05
3.21402e-05
3.14399e-05
3.07336e-05
3.00202e-05
2.9298e-05
2.85654e-05
2.78206e-05
2.70626e-05
2.62882e-05
2.54948e-05
2.46803e-05
2.38389e-05
2.29587e-05
2.20212e-05
2.09953e-05
1.98217e-05
1.83692e-05
1.62293e-05
1.2966e-05
9.52371e-06
8.38453e-06
8.34566e-06
4.52194e-05
5.59209e-05
5.72451e-05
5.70351e-05
5.67592e-05
5.64562e-05
5.61133e-05
5.57231e-05
5.52781e-05
5.47685e-05
5.41884e-05
5.35337e-05
5.28147e-05
5.20408e-05
5.12234e-05
5.03662e-05
4.94727e-05
4.85311e-05
4.76456e-05
4.67182e-05
4.55823e-05
4.49639e-05
4.49641e-05
4.35461e-05
4.27956e-05
4.20406e-05
4.12975e-05
4.05663e-05
3.98449e-05
3.91315e-05
3.84248e-05
3.77232e-05
3.70262e-05
3.63329e-05
3.56425e-05
3.49544e-05
3.42682e-05
3.35828e-05
3.28971e-05
3.22092e-05
3.15176e-05
3.08211e-05
3.01181e-05
2.94077e-05
2.86881e-05
2.79576e-05
2.72147e-05
2.64577e-05
2.56836e-05
2.48893e-05
2.40721e-05
2.32251e-05
2.23352e-05
2.13813e-05
2.03275e-05
1.91042e-05
1.75292e-05
1.51714e-05
1.18683e-05
8.92688e-06
8.36317e-06
8.35974e-06
3.45435e-05
4.51386e-05
5.57405e-05
5.70028e-05
5.67637e-05
5.64557e-05
5.61138e-05
5.5724e-05
5.52787e-05
5.47712e-05
5.4193e-05
5.35432e-05
5.28233e-05
5.20507e-05
5.12379e-05
5.03956e-05
4.95225e-05
4.86292e-05
4.76992e-05
4.68652e-05
4.59601e-05
4.47912e-05
4.42126e-05
4.42872e-05
4.27903e-05
4.20507e-05
4.13096e-05
4.0579e-05
3.98595e-05
3.91489e-05
3.84456e-05
3.77481e-05
3.7055e-05
3.63658e-05
3.56795e-05
3.49957e-05
3.43138e-05
3.3633e-05
3.29527e-05
3.22715e-05
3.15877e-05
3.08999e-05
3.02066e-05
2.95068e-05
2.8799e-05
2.80817e-05
2.73531e-05
2.66114e-05
2.58551e-05
2.50807e-05
2.42847e-05
2.34636e-05
2.26094e-05
2.17072e-05
2.07332e-05
1.96453e-05
1.83577e-05
1.6627e-05
1.40621e-05
1.08538e-05
8.57836e-06
8.3614e-06
8.36922e-06
3.09564e-05
3.44412e-05
4.5057e-05
5.55464e-05
5.67341e-05
5.64604e-05
5.61134e-05
5.57247e-05
5.52803e-05
5.47723e-05
5.41965e-05
5.35484e-05
5.28341e-05
5.20605e-05
5.12483e-05
5.04109e-05
4.95522e-05
4.86701e-05
4.7788e-05
4.68757e-05
4.60939e-05
4.52117e-05
4.40223e-05
4.34774e-05
4.3597e-05
4.20495e-05
4.13204e-05
4.0592e-05
3.98732e-05
3.91647e-05
3.84638e-05
3.77698e-05
3.70806e-05
3.63953e-05
3.57131e-05
3.50335e-05
3.43558e-05
3.36794e-05
3.30036e-05
3.23278e-05
3.16509e-05
3.09709e-05
3.02866e-05
2.95965e-05
2.88993e-05
2.81938e-05
2.74784e-05
2.67514e-05
2.60105e-05
2.52542e-05
2.44788e-05
2.368e-05
2.28538e-05
2.19904e-05
2.10733e-05
2.00746e-05
1.89454e-05
1.75685e-05
1.56571e-05
1.29284e-05
9.9297e-06
8.42913e-06
8.36336e-06
8.3742e-06
2.92686e-05
3.08639e-05
3.43377e-05
4.4973e-05
5.53348e-05
5.64338e-05
5.6118e-05
5.57246e-05
5.52813e-05
5.47742e-05
5.4198e-05
5.35526e-05
5.284e-05
5.2072e-05
5.1259e-05
5.04217e-05
4.95678e-05
4.86995e-05
4.78187e-05
4.69549e-05
4.60673e-05
4.53366e-05
4.44748e-05
4.32721e-05
4.27576e-05
4.28967e-05
4.13231e-05
4.06033e-05
3.98869e-05
3.9179e-05
3.84805e-05
3.77888e-05
3.71031e-05
3.64216e-05
3.57436e-05
3.50679e-05
3.43944e-05
3.37222e-05
3.30507e-05
3.23798e-05
3.17083e-05
3.10351e-05
3.03587e-05
2.96774e-05
2.89901e-05
2.82953e-05
2.75917e-05
2.6878e-05
2.6152e-05
2.54115e-05
2.46546e-05
2.38773e-05
2.30748e-05
2.22415e-05
2.13669e-05
2.04311e-05
1.94023e-05
1.82206e-05
1.67237e-05
1.46203e-05
1.18251e-05
9.18452e-06
8.38136e-06
8.36778e-06
8.3772e-06
2.83007e-05
2.91773e-05
3.077e-05
3.42316e-05
4.48856e-05
5.51018e-05
5.60954e-05
5.57295e-05
5.52812e-05
5.47754e-05
5.42005e-05
5.35549e-05
5.28449e-05
5.20788e-05
5.12714e-05
5.04332e-05
4.95788e-05
4.87153e-05
4.7847e-05
4.69765e-05
4.6136e-05
4.52784e-05
4.45945e-05
4.37491e-05
4.25377e-05
4.20521e-05
4.21895e-05
4.06099e-05
3.98989e-05
3.91936e-05
3.84956e-05
3.78062e-05
3.7123e-05
3.6445e-05
3.57707e-05
3.50991e-05
3.44295e-05
3.37615e-05
3.30945e-05
3.24278e-05
3.17611e-05
3.10935e-05
3.04238e-05
2.97506e-05
2.90721e-05
2.83872e-05
2.76944e-05
2.69926e-05
2.62801e-05
2.55546e-05
2.48139e-05
2.40558e-05
2.32755e-05
2.24678e-05
2.16256e-05
2.07368e-05
1.97784e-05
1.87128e-05
1.74589e-05
1.58136e-05
1.3528e-05
1.07981e-05
8.68609e-06
8.37059e-06
8.37029e-06
8.37955e-06
2.75477e-05
2.82071e-05
2.90846e-05
3.06734e-05
3.41219e-05
4.47935e-05
5.4842e-05
5.5711e-05
5.52864e-05
5.47759e-05
5.4202e-05
5.35577e-05
5.28478e-05
5.2084e-05
5.12785e-05
5.0446e-05
4.95908e-05
4.87261e-05
4.78623e-05
4.70028e-05
4.61489e-05
4.53359e-05
4.45101e-05
4.38654e-05
4.3032e-05
4.18185e-05
4.13594e-05
4.14782e-05
3.99092e-05
3.92061e-05
3.8511e-05
3.78222e-05
3.71411e-05
3.64657e-05
3.57948e-05
3.5127e-05
3.44614e-05
3.37974e-05
3.31345e-05
3.24721e-05
3.18098e-05
3.1147e-05
3.04831e-05
2.98166e-05
2.91461e-05
2.84703e-05
2.77875e-05
2.70965e-05
2.6396e-05
2.56842e-05
2.49588e-05
2.42172e-05
2.34568e-05
2.26725e-05
2.18578e-05
2.10047e-05
2.00982e-05
1.91118e-05
1.79999e-05
1.66468e-05
1.48337e-05
1.24155e-05
9.86961e-06
8.46207e-06
8.37125e-06
8.37136e-06
8.38159e-06
2.70254e-05
2.74498e-05
2.8112e-05
2.89892e-05
3.05733e-05
3.40082e-05
4.46955e-05
5.45504e-05
5.52732e-05
5.47811e-05
5.42025e-05
5.35597e-05
5.28511e-05
5.20874e-05
5.12842e-05
5.04537e-05
4.96044e-05
4.87385e-05
4.78731e-05
4.70177e-05
4.61731e-05
4.53404e-05
4.45564e-05
4.37606e-05
4.31467e-05
4.23219e-05
4.11132e-05
4.06783e-05
4.07653e-05
3.92201e-05
3.8524e-05
3.78384e-05
3.71579e-05
3.64848e-05
3.58164e-05
3.51518e-05
3.449e-05
3.38299e-05
3.31711e-05
3.25128e-05
3.18549e-05
3.11966e-05
3.05375e-05
2.98768e-05
2.92133e-05
2.85454e-05
2.78718e-05
2.71908e-05
2.65013e-05
2.58017e-05
2.50901e-05
2.4364e-05
2.36208e-05
2.28572e-05
2.20673e-05
2.12439e-05
2.03766e-05
1.94484e-05
1.84282e-05
1.72523e-05
1.57724e-05
1.37875e-05
1.1347e-05
9.11128e-06
8.39094e-06
8.37244e-06
8.37187e-06
8.38272e-06
2.65999e-05
2.69237e-05
2.73505e-05
2.80141e-05
2.889e-05
3.04685e-05
3.38914e-05
4.45901e-05
5.42203e-05
5.47738e-05
5.42082e-05
5.35605e-05
5.28532e-05
5.20913e-05
5.12882e-05
5.04597e-05
4.96123e-05
4.87524e-05
4.7886e-05
4.7028e-05
4.6187e-05
4.5362e-05
4.45531e-05
4.3797e-05
4.30264e-05
4.2438e-05
4.16188e-05
4.04209e-05
4.00075e-05
4.00535e-05
3.85418e-05
3.78519e-05
3.7175e-05
3.6502e-05
3.5836e-05
3.51741e-05
3.45156e-05
3.38593e-05
3.32044e-05
3.25502e-05
3.18963e-05
3.12424e-05
3.05879e-05
2.99321e-05
2.92743e-05
2.86135e-05
2.79479e-05
2.72762e-05
2.65967e-05
2.59082e-05
2.52089e-05
2.44971e-05
2.37697e-05
2.3024e-05
2.22558e-05
2.14588e-05
2.06241e-05
1.97395e-05
1.87846e-05
1.77207e-05
1.64563e-05
1.48285e-05
1.26996e-05
1.03565e-05
8.62852e-06
8.37765e-06
8.37477e-06
8.37238e-06
8.38304e-06
2.62368e-05
2.64954e-05
2.68206e-05
2.72481e-05
2.79125e-05
2.87862e-05
3.0359e-05
3.37742e-05
4.44754e-05
5.38458e-05
5.42074e-05
5.35661e-05
5.28544e-05
5.20937e-05
5.12923e-05
5.04641e-05
4.96186e-05
4.87606e-05
4.79002e-05
4.70411e-05
4.61974e-05
4.53754e-05
4.4572e-05
4.37872e-05
4.30548e-05
4.23066e-05
4.17385e-05
4.09226e-05
3.97408e-05
3.93462e-05
3.93438e-05
3.78733e-05
3.7189e-05
3.65201e-05
3.58543e-05