/*--------------------------------*- C++ -*----------------------------------*\
| =========                 |                                                 |
| \\      /  F ield         | OpenFOAM: The Open Source CFD Toolbox           |
|  \\    /   O peration     | Version:  v2012                                 |
|   \\  /    A nd           | Website:  www.openfoam.com                      |
|    \\/     M anipulation  |                                                 |
\*---------------------------------------------------------------------------*/
FoamFile
{
    version     2.0;
    format      ascii;
    class       volScalarField;
    location    "13200";
    object      nut;
}
// * * * * * * * * * * * * * * * * * * * * * * * * * * * * * * * * * * * * * //

dimensions      [0 2 -1 0 0 0 0];


internalField   nonuniform List<scalar> 
31383
(
4.42411e-11
4.46911e-11
4.41498e-11
4.15159e-11
8.29829e-11
8.72314e-11
3.92495e-11
7.6408e-11
9.7255e-10
4.10563e-10
3.75821e-11
7.16827e-11
8.88862e-10
7.50563e-09
1.79608e-09
3.62304e-11
6.82199e-11
8.28401e-10
6.8559e-09
3.59156e-08
6.26787e-09
3.50968e-11
6.54166e-11
7.84206e-10
6.38599e-09
3.28106e-08
1.27678e-07
1.84247e-08
3.41492e-11
6.30829e-11
7.48458e-10
6.04251e-09
3.05624e-08
1.16709e-07
3.72434e-07
4.79553e-08
3.33501e-11
6.11375e-11
7.18845e-10
5.76465e-09
2.89183e-08
1.08752e-07
3.40896e-07
9.40021e-07
1.14268e-07
3.26509e-11
5.95007e-11
6.94209e-10
5.53453e-09
2.75878e-08
1.02928e-07
3.17939e-07
8.62563e-07
2.11156e-06
2.54674e-07
3.20309e-11
5.80802e-11
6.73514e-10
5.34312e-09
2.64858e-08
9.82103e-08
3.01104e-07
8.0585e-07
1.94535e-06
4.28251e-06
5.37985e-07
3.14652e-11
5.68183e-11
6.55657e-10
5.18234e-09
2.5569e-08
9.43014e-08
2.87452e-07
7.64138e-07
1.82255e-06
3.96822e-06
7.90711e-06
1.0849e-06
3.09519e-11
5.56678e-11
6.39774e-10
5.04366e-09
2.47989e-08
9.10485e-08
2.76128e-07
7.3023e-07
1.73182e-06
3.73283e-06
7.3803e-06
1.33908e-05
2.09401e-06
3.04819e-11
5.4624e-11
6.25301e-10
4.92032e-09
2.41346e-08
8.83146e-08
2.66697e-07
7.02052e-07
1.65778e-06
3.55787e-06
6.9785e-06
1.26e-05
2.09963e-05
3.86691e-06
3.00587e-11
5.36686e-11
6.12177e-10
4.80793e-09
2.35438e-08
8.5956e-08
2.58765e-07
6.78558e-07
1.59607e-06
3.41432e-06
6.67781e-06
1.19839e-05
1.99178e-05
3.0832e-05
6.80995e-06
2.96785e-11
5.28131e-11
6.00165e-10
4.70603e-09
2.30055e-08
8.38585e-08
2.51917e-07
6.58765e-07
1.54454e-06
3.29406e-06
6.42938e-06
1.15197e-05
1.90572e-05
2.94728e-05
4.24571e-05
1.14035e-05
2.93397e-11
5.20475e-11
5.89452e-10
4.61278e-09
2.25175e-08
8.19471e-08
2.45827e-07
6.41666e-07
1.501e-06
3.19352e-06
6.2199e-06
1.11332e-05
1.84044e-05
2.83564e-05
4.10486e-05
5.58658e-05
1.81642e-05
2.9034e-11
5.13643e-11
5.79892e-10
4.52964e-09
2.20709e-08
8.02141e-08
2.40274e-07
6.26446e-07
1.46334e-06
3.10824e-06
6.04475e-06
1.08049e-05
1.78563e-05
2.75047e-05
3.98022e-05
5.42648e-05
7.18921e-05
2.74605e-05
2.87624e-11
5.07523e-11
5.71352e-10
4.45546e-09
2.16727e-08
7.8628e-08
2.3524e-07
6.12558e-07
1.42979e-06
3.03427e-06
5.89524e-06
1.05302e-05
1.73881e-05
2.67845e-05
3.88515e-05
5.27613e-05
7.00892e-05
9.09698e-05
3.93183e-05
2.85172e-11
5.02074e-11
5.63743e-10
4.38919e-09
2.13173e-08
7.72135e-08
2.30631e-07
5.99969e-07
1.39909e-06
2.96835e-06
5.76504e-06
1.02943e-05
1.69952e-05
2.61654e-05
3.79898e-05
5.15992e-05
6.82682e-05
8.89801e-05
0.000113355
5.32118e-05
2.82976e-11
4.97196e-11
5.5696e-10
4.33017e-09
2.09999e-08
7.59513e-08
2.2652e-07
5.88435e-07
1.37129e-06
2.90783e-06
5.64905e-06
1.00878e-05
1.66563e-05
2.56441e-05
3.72169e-05
5.06073e-05
6.68597e-05
8.67967e-05
0.000111295
0.000139444
6.66257e-05
2.81e-11
4.9283e-11
5.5092e-10
4.27754e-09
2.07173e-08
7.48239e-08
2.2285e-07
5.78142e-07
1.3458e-06
2.85312e-06
5.54217e-06
9.9043e-06
1.63581e-05
2.51935e-05
3.65637e-05
4.97531e-05
6.56715e-05
8.51203e-05
0.00010875
0.000137474
0.000169621
8.12214e-05
2.79226e-11
4.8891e-11
5.45518e-10
4.2307e-09
2.04652e-08
7.38195e-08
2.19571e-07
5.68944e-07
1.32302e-06
2.8028e-06
5.4457e-06
9.7344e-06
1.60939e-05
2.47952e-05
3.59986e-05
4.90308e-05
6.46551e-05
8.3707e-05
0.000106779
0.000134527
0.000167952
0.000204217
9.71899e-05
2.77624e-11
4.85396e-11
5.40677e-10
4.18879e-09
2.02408e-08
7.29238e-08
2.16649e-07
5.60723e-07
1.30264e-06
2.75779e-06
5.35669e-06
9.58097e-06
1.58484e-05
2.44429e-05
3.54977e-05
4.84093e-05
6.37905e-05
8.24939e-05
0.000105118
0.000132234
0.000164585
0.000203091
0.000243455
0.000114567
2.76175e-11
4.82237e-11
5.36343e-10
4.15125e-09
2.00401e-08
7.21266e-08
2.14042e-07
5.53392e-07
1.28442e-06
2.71739e-06
5.2769e-06
9.43922e-06
1.56264e-05
2.41149e-05
3.50541e-05
4.78534e-05
6.30492e-05
8.14597e-05
0.00010369
0.000130296
0.000161941
0.000199306
0.000242916
0.00028726
0.000133185
2.74843e-11
4.79375e-11
5.32455e-10
4.11765e-09
1.98603e-08
7.14133e-08
2.11721e-07
5.4685e-07
1.26815e-06
2.68129e-06
5.20504e-06
9.31192e-06
1.54213e-05
2.38181e-05
3.46422e-05
4.73578e-05
6.23842e-05
8.05694e-05
0.000102466
0.000128629
0.000159698
0.000196296
0.000238765
0.000286365
0.000334714
0.000152756
2.73614e-11
4.76747e-11
5.28933e-10
4.08751e-09
1.96993e-08
7.0774e-08
2.09644e-07
5.41022e-07
1.25362e-06
2.64899e-06
5.14093e-06
9.19686e-06
1.52366e-05
2.35443e-05
3.42688e-05
4.69016e-05
6.17907e-05
7.97769e-05
0.000101407
0.000127197
0.000157766
0.000193735
0.000235416
0.000282017
0.000334568
0.00038691
0.000172891
2.72483e-11
4.74328e-11
5.25701e-10
4.06021e-09
1.9555e-08
7.02017e-08
2.07782e-07
5.35804e-07
1.24067e-06
2.62012e-06
5.08328e-06
9.09439e-06
1.50692e-05
2.32972e-05
3.39252e-05
4.64914e-05
6.12461e-05
7.90661e-05
0.000100473
0.000125952
0.000156117
0.000191524
0.00023256
0.000278461
0.000329929
0.000388505
0.00044456
0.000192861
2.71441e-11
4.72102e-11
5.22729e-10
4.03516e-09
1.94242e-08
6.96884e-08
2.06115e-07
5.31126e-07
1.22906e-06
2.59435e-06
5.03172e-06
9.00167e-06
1.49201e-05
2.30726e-05
3.36145e-05
4.61131e-05
6.07547e-05
7.8418e-05
9.96364e-05
0.000124852
0.000154673
0.00018964
0.000230088
0.000275417
0.000326045
0.000383648
0.000448689
0.000507948
0.000211243
2.70484e-11
4.70057e-11
5.19997e-10
4.01212e-09
1.93042e-08
6.92234e-08
2.04619e-07
5.26933e-07
1.21865e-06
2.57124e-06
4.98564e-06
8.91884e-06
1.47846e-05
2.28721e-05
3.33316e-05
4.57724e-05
6.03066e-05
7.78286e-05
9.88694e-05
0.000123877
0.000153393
0.000187994
0.000227971
0.000272782
0.000322698
0.000379446
0.00044373
0.000515668
0.000577311
0.000225836
2.69607e-11
4.68187e-11
5.17491e-10
3.99095e-09
1.91938e-08
6.87966e-08
2.03264e-07
5.23171e-07
1.20931e-06
2.55047e-06
4.94425e-06
8.84444e-06
1.46636e-05
2.26897e-05
3.30787e-05
4.54621e-05
5.98978e-05
7.72941e-05
9.81712e-05
0.000122977
0.00015226
0.000186528
0.000226132
0.00027051
0.000319792
0.00037579
0.000439233
0.000510784
0.000590015
0.000652825
0.000235592
2.68807e-11
4.66478e-11
5.15206e-10
3.97153e-09
1.90924e-08
6.84042e-08
2.0202e-07
5.19762e-07
1.20093e-06
2.53183e-06
4.90701e-06
8.77758e-06
1.45544e-05
2.25266e-05
3.28481e-05
4.51842e-05
5.95266e-05
7.68057e-05
9.75356e-05
0.000122164
0.000151219
0.000185223
0.000224486
0.000268536
0.000317282
0.000372604
0.000435269
0.000506035
0.000585467
0.000672328
0.000734561
0.00024707
2.68078e-11
4.64926e-11
5.13125e-10
3.95382e-09
1.89993e-08
6.80435e-08
2.00876e-07
5.16632e-07
1.19332e-06
2.51509e-06
4.87353e-06
8.71731e-06
1.44563e-05
2.23788e-05
3.26418e-05
4.49318e-05
5.91941e-05
7.63614e-05
9.69605e-05
0.000121422
0.00015028
0.000184033
0.000223019
0.00026677
0.000315098
0.000369846
0.000431797
0.000501771
0.000580538
0.000668487
0.000763206
0.000822452
0.000270353
2.67408e-11
4.63515e-11
5.11238e-10
3.9377e-09
1.89144e-08
6.77126e-08
1.99825e-07
5.13753e-07
1.18634e-06
2.4999e-06
4.84344e-06
8.66306e-06
1.43676e-05
2.2246e-05
3.24544e-05
4.47051e-05
5.88913e-05
7.59639e-05
9.64353e-05
0.000120752
0.00014942
0.000182959
0.000221684
0.000265194
0.000313141
0.000367442
0.000428784
0.000498012
0.000575995
0.000663485
0.0007606
0.000863238
0.000916227
0.000283637
2.6678e-11
4.62221e-11
5.09527e-10
3.92309e-09
1.88372e-08
6.74107e-08
1.98861e-07
5.11106e-07
1.17992e-06
2.48594e-06
4.8161e-06
8.61423e-06
1.42876e-05
2.21256e-05
3.22856e-05
4.44972e-05
5.86183e-05
7.56009e-05
9.59649e-05
0.000120141
0.000148645
0.000181974
0.000220479
0.000263767
0.000311394
0.000365285
0.00042615
0.000494737
0.000571952
0.000658704
0.000755687
0.000862598
0.000972979
0.00101532
0.000278494
2.6619e-11
4.61011e-11
5.0796e-10
3.90983e-09
1.87672e-08
6.71358e-08
1.97981e-07
5.08677e-07
1.17401e-06
2.47309e-06
4.79096e-06
8.5698e-06
1.42155e-05
2.20168e-05
3.21323e-05
4.43109e-05
5.83705e-05
7.52741e-05
9.55349e-05
0.000119592
0.000147939
0.000181089
0.000219381
0.000262481
0.000309814
0.000363358
0.000423783
0.000491868
0.000568415
0.000654393
0.000750732
0.000858013
0.000975314
0.00109291
0.00111879
0.000266203
2.65594e-11
4.59879e-11
5.06499e-10
3.8977e-09
1.87036e-08
6.68865e-08
1.97179e-07
5.06461e-07
1.16859e-06
2.46127e-06
4.76781e-06
8.52892e-06
1.41498e-05
2.19187e-05
3.19935e-05
4.41404e-05
5.81464e-05
7.49776e-05
9.51479e-05
0.000119091
0.000147303
0.000180283
0.000218391
0.000261318
0.000308392
0.000361615
0.000421667
0.000489283
0.000565307
0.000650598
0.000746182
0.000852981
0.000971396
0.0010996
0.00122342
0.00122518
0.000246855
2.65105e-11
4.58726e-11
5.05132e-10
3.88638e-09
1.86455e-08
6.66605e-08
1.96452e-07
5.04442e-07
1.16364e-06
2.45041e-06
4.7465e-06
8.49127e-06
1.40893e-05
2.18291e-05
3.1868e-05
4.39876e-05
5.79414e-05
7.47079e-05
9.47947e-05
0.000118639
0.000146723
0.000179556
0.000217489
0.000260264
0.000307106
0.000360049
0.000419753
0.000486968
0.000562497
0.000647252
0.000742142
0.00084824
0.00096643
0.00109682
0.0012363
0.00136471
0.00132949
0.000220978
2.66172e-11
4.57797e-11
5.03731e-10
3.8758e-09
1.85912e-08
6.64534e-08
1.95792e-07
5.02611e-07
1.15913e-06
2.44049e-06
4.72691e-06
8.45657e-06
1.40335e-05
2.17464e-05
3.17535e-05
4.38472e-05
5.7756e-05
7.4462e-05
9.44744e-05
0.000118225
0.0001462
0.000178892
0.000216676
0.000259303
0.000305942
0.000358634
0.000418035
0.000484877
0.000559977
0.000644213
0.00073856
0.000843979
0.000961568
0.00109213
0.00123533
0.00138624
0.00151673
0.00142458
0.000189652
4.32147e-11
4.57438e-11
5.02622e-10
3.86495e-09
1.85406e-08
6.62603e-08
1.95188e-07
5.00946e-07
1.15503e-06
2.43143e-06
4.709e-06
8.42464e-06
1.3982e-05
2.16701e-05
3.16477e-05
4.37202e-05
5.75882e-05
7.42381e-05
9.41822e-05
0.000117851
0.000145721
0.000178293
0.000215932
0.000258436
0.00030488
0.000357354
0.000416484
0.000482998
0.000557699
0.000641481
0.000735295
0.000840177
0.00095713
0.00108726
0.0012312
0.00138797
0.00155018
0.00167913
0.00150965
0.000154563
2.81437e-11
1.89377e-10
4.99934e-10
3.85637e-09
1.84887e-08
6.60801e-08
1.94624e-07
4.9942e-07
1.15131e-06
2.42321e-06
4.69257e-06
8.39541e-06
1.39346e-05
2.15998e-05
3.15501e-05
4.36017e-05
5.74346e-05
7.40362e-05
9.39161e-05
0.000117509
0.000145285
0.000177744
0.00021526
0.000257643
0.000303922
0.000356187
0.000415083
0.000481304
0.000555654
0.000639012
0.00073235
0.000836693
0.000953134
0.0010827
0.00122648
0.00138483
0.00155585
0.00172876
0.00185111
0.00158318
0.000118148
2.86145e-11
5.79888e-11
2.86049e-09
3.83428e-09
1.84476e-08
6.58953e-08
1.94097e-07
4.97996e-07
1.14789e-06
2.41573e-06
4.67765e-06
8.36856e-06
1.38912e-05
2.1535e-05
3.14601e-05
4.3493e-05
5.72912e-05
7.38503e-05
9.36749e-05
0.000117197
0.000144888
0.000177244
0.000214644
0.000256925
0.000303045
0.000355132
0.000413804
0.000479777
0.000553811
0.000636794
0.000729685
0.000833537
0.000949446
0.00107856
0.0012219
0.00138048
0.00155426
0.00174002
0.00192242
0.00203133
0.00164267
8.34216e-05
3.39181e-11
6.25838e-11
7.15192e-10
2.14376e-08
1.83407e-08
6.57492e-08
1.93558e-07
4.96668e-07
1.1447e-06
2.40885e-06
4.66408e-06
8.34411e-06
1.38513e-05
2.14755e-05
3.13769e-05
4.33927e-05
5.71601e-05
7.36789e-05
9.34534e-05
0.000116913
0.000144527
0.000176787
0.000214081
0.000256263
0.00030225
0.000354167
0.000412649
0.000478382
0.000552151
0.000634797
0.00072729
0.000830674
0.000946087
0.00107469
0.00121766
0.00137602
0.00155058
0.00174076
0.00194149
0.00213136
0.00221775
0.00168509
5.35639e-05
3.08175e-11
1.00611e-10
8.12402e-10
5.57637e-09
9.93816e-08
6.53652e-08
1.93131e-07
4.95306e-07
1.14172e-06
2.40243e-06
4.6516e-06
8.3218e-06
1.3815e-05
2.14207e-05
3.13004e-05
4.33001e-05
5.70385e-05
7.35205e-05
9.32496e-05
0.000116653
0.000144196
0.000176372
0.000213566
0.000255658
0.000301517
0.00035329
0.000411591
0.000477121
0.000550636
0.000633001
0.000725134
0.000828098
0.00094303
0.00107114
0.00121365
0.00137178
0.00154643
0.00173819
0.00194561
0.00216116
0.00235534
0.00240749
0.00170752
3.10556e-05
2.72962e-11
8.1592e-11
1.54078e-09
6.41998e-09
2.66182e-08
3.45303e-07
1.91994e-07
4.94231e-07
1.13865e-06
2.39643e-06
4.63993e-06
8.30129e-06
1.37817e-05
2.13708e-05
3.12298e-05
4.32142e-05
5.69265e-05
7.33739e-05
9.30604e-05
0.000116413
0.000143893
0.000175992
0.000213098
0.000255103
0.000300846
0.000352482
0.000410629
0.000475966
0.000549264
0.000631361
0.000723198
0.000825781
0.000940274
0.0010679
0.00120995
0.00136769
0.00154232
0.00173461
0.00194474
0.00217009
0.00239975
0.00259365
0.00259669
0.00170802
1.66321e-05
2.66863e-11
5.87438e-11
1.16392e-09
1.2261e-08
3.11011e-08
9.39573e-08
9.91928e-07
4.91295e-07
1.13624e-06
2.39022e-06
4.62901e-06
8.28208e-06
1.37509e-05
2.1325e-05
3.11655e-05
4.31353e-05
5.68229e-05
7.32388e-05
9.28858e-05
0.00011619
0.000143613
0.000175643
0.000212669
0.000254597
0.00030023
0.000351741
0.000409741
0.000474914
0.000548009
0.000629875
0.000721431
0.000823704
0.000937798
0.00106497
0.00120654
0.00136387
0.00153825
0.00173081
0.0019421
0.00217172
0.00241538
0.00265766
0.00284484
0.00278028
0.00168695
8.88269e-06
2.61308e-11
5.58769e-11
7.28726e-10
9.08665e-09
5.93267e-08
1.11366e-07
2.73783e-07
2.48088e-06
1.12944e-06
2.38534e-06
4.61775e-06
8.26409e-06
1.37221e-05
2.12824e-05
3.11062e-05
4.30631e-05
5.67274e-05
7.31141e-05
9.27242e-05
0.000115985
0.000143353
0.000175321
0.000212275
0.000254133
0.000299666
0.000351059
0.000408926
0.000473942
0.000546864
0.000628515
0.000719826
0.000821808
0.00093558
0.00106234
0.00120345
0.00136033
0.00153437
0.00172688
0.00193887
0.00217052
0.00242057
0.00268252
0.0029349
0.0031066
0.00294688
0.00164947
5.29519e-06
2.60262e-11
4.5477e-11
6.73089e-10
5.57057e-09
4.33969e-08
2.12506e-07
3.25861e-07
6.94739e-07
5.53796e-06
2.37106e-06
4.60896e-06
8.24559e-06
1.36951e-05
2.12423e-05
3.1051e-05
4.29962e-05
5.66393e-05
7.29986e-05
9.25756e-05
0.000115795
0.000143114
0.000175022
0.000211911
0.000253707
0.00029915
0.000350436
0.000408176
0.00047305
0.000545805
0.000627273
0.000718358
0.000820084
0.000933555
0.00105998
0.00120068
0.0013571
0.00153074
0.00172304
0.00193526
0.00216818
0.00242148
0.00269272
0.00297232
0.00323093
0.00337551
0.00305833
0.00160907
3.83195e-06
2.59877e-11
4.47596e-11
4.94724e-10
5.09156e-09
2.62973e-08
1.53891e-07
6.24638e-07
8.21007e-07
1.57923e-06
1.11185e-05
4.5817e-06
8.23123e-06
1.36672e-05
2.12048e-05
3.09989e-05
4.29337e-05
5.65579e-05
7.28918e-05
9.24373e-05
0.00011562
0.000142893
0.000174745
0.000211573
0.000253312
0.000298675
0.000349864
0.000407489
0.000472227
0.000544832
0.000626124
0.000717017
0.000818507
0.000931713
0.00105783
0.00119819
0.00135419
0.0015274
0.00171939
0.00193157
0.00216513
0.00242051
0.00269665
0.00298944
0.00328523
0.00354439
0.00364679
0.00312427
0.00157955
3.32075e-06
2.59615e-11
4.46536e-11
4.85748e-10
3.76869e-09
2.38449e-08
9.22822e-08
4.48953e-07
1.5907e-06
1.83423e-06
3.26319e-06
2.00852e-05
8.18395e-06
1.36457e-05
2.11661e-05
3.09499e-05
4.28747e-05
5.64817e-05
7.27932e-05
9.23099e-05
0.000115457
0.000142688
0.00017449
0.00021126
0.000252946
0.000298235
0.000349338
0.000406857
0.000471474
0.000543934
0.000625066
0.000715776
0.000817067
0.000930028
0.00105588
0.00119593
0.0013516
0.0015244
0.001716
0.001928
0.00216179
0.00241836
0.00269767
0.0029976
0.00331179
0.00362119
0.00387294
0.00391415
0.00315174
0.0014966
3.16393e-06
2.59202e-11
4.45899e-11
4.83317e-10
3.69815e-09
1.79388e-08
8.30515e-08
2.66018e-07
1.13786e-06
3.60416e-06
3.70805e-06
6.17612e-06
3.27804e-05
1.35709e-05
2.11364e-05
3.08992e-05
4.28189e-05
5.64097e-05
7.27007e-05
9.2192e-05
0.000115307
0.000142498
0.000174254
0.000210971
0.000252607
0.000297827
0.000348849
0.000406276
0.00047078
0.000543109
0.000624089
0.000714631
0.000815733
0.000928488
0.00105409
0.00119386
0.00134923
0.00152172
0.00171293
0.00192463
0.00215843
0.00241561
0.00269686
0.00300144
0.0033258
0.00366051
0.00397943
0.00421296
0.00416941
0.00314249
0.00129683
3.12065e-06
2.58815e-11
4.44964e-11
4.81997e-10
3.67292e-09
1.75882e-08
6.37056e-08
2.37621e-07
6.64399e-07
2.57445e-06
7.33131e-06
6.86997e-06
1.07644e-05
4.89538e-05
2.10278e-05
3.0861e-05
4.27603e-05
5.63415e-05
7.26126e-05
9.2081e-05
0.000115168
0.000142324
0.000174034
0.000210703
0.000252294
0.000297449
0.000348395
0.000405736
0.00047014
0.00054235
0.000623192
0.000713573
0.0008145
0.000927059
0.00105245
0.00119197
0.00134707
0.00151927
0.0017102
0.00192157
0.00215519
0.00241264
0.00269503
0.00300257
0.00333357
0.00368249
0.00403582
0.00435823
0.00455923
0.00440231
0.00309301
0.00106383
3.11002e-06
2.58538e-11
4.44088e-11
4.80328e-10
3.65958e-09
1.74438e-08
6.24099e-08
1.86651e-07
5.90514e-07
1.48262e-06
5.25273e-06
1.3395e-05
1.17389e-05
1.73935e-05
6.80813e-05
3.07146e-05
4.27175e-05
5.62697e-05
7.25299e-05
9.19748e-05
0.000115037
0.000142161
0.000173832
0.000210452
0.000252001
0.0002971
0.000347976
0.000405234
0.000469545
0.000541649
0.000622364
0.000712602
0.000813357
0.000925738
0.00105093
0.00119024
0.00134509
0.00151703
0.00170771
0.00191884
0.00215221
0.00240967
0.00269271
0.00300211
0.00333743
0.00369565
0.00406857
0.00443727
0.00475463
0.00490461
0.00454685
0.00299853
0.000812535
3.10851e-06
2.58304e-11
4.4347e-11
4.78721e-10
3.64363e-09
1.73683e-08
6.18308e-08
1.8274e-07
4.76874e-07
1.32002e-06
3.01418e-06
9.68025e-06
2.20495e-05
1.86353e-05
2.62972e-05
8.96691e-05
4.25465e-05
5.62176e-05
7.24427e-05
9.18753e-05
0.000114911
0.000142007
0.000173643
0.000210221
0.00025172
0.000296775
0.000347588
0.00040477
0.000468993
0.000540995
0.000621598
0.000711702
0.000812306
0.000924513
0.00104952
0.00118863
0.00134328
0.00151498
0.00170542
0.00191634
0.00214955
0.00240689
0.0026902
0.00300078
0.00333893
0.00370331
0.00408905
0.00448442
0.00486345
0.00516408
0.00523974
0.00460299
0.00286038
0.000561727
3.10951e-06
2.58066e-11
4.42964e-11
4.77601e-10
3.62805e-09
1.72809e-08
6.15307e-08
1.80899e-07
4.66725e-07
1.09561e-06
2.70324e-06
5.64619e-06
1.61633e-05
3.31056e-05
2.77453e-05
3.7602e-05
0.000113363
5.60077e-05
7.23791e-05
9.17707e-05
0.000114793
0.000141859
0.000173465
0.000210005
0.00025146
0.000296472
0.000347227
0.000404341
0.000468481
0.00054039
0.000620885
0.00071087
0.000811337
0.000923381
0.00104822
0.00118714
0.00134159
0.0015131
0.00170332
0.00191404
0.00214711
0.00240441
0.00268779
0.00299901
0.00333906
0.00370757
0.00410191
0.00451474
0.0049297
0.00531167
0.00558003
0.00555278
0.00458668
0.00269473
0.000338071
3.11105e-06
2.57857e-11
4.42461e-11
4.76762e-10
3.61723e-09
1.71949e-08
6.11891e-08
1.79951e-07
4.61777e-07
1.07234e-06
2.30086e-06
5.1103e-06
9.79664e-06
2.47309e-05
4.61928e-05
3.9156e-05
5.09728e-05
0.000138941
7.21214e-05
9.16936e-05
0.000114669
0.00014172
0.000173294
0.0002098
0.000251217
0.00029619
0.00034689
0.000403942
0.000468009
0.000539829
0.000620222
0.000710095
0.000810436
0.000922337
0.00104701
0.00118576
0.00134003
0.00151135
0.00170139
0.00191193
0.00214486
0.00240212
0.00268561
0.00299717
0.00333838
0.00370976
0.00410996
0.00453463
0.00497316
0.00540307
0.00577765
0.00599357
0.00582909
0.00450746
0.00253282
0.000169319
3.11249e-06
2.57686e-11
4.42014e-11
4.75973e-10
3.60946e-09
1.71353e-08
6.08517e-08
1.78888e-07
4.59249e-07
1.06069e-06
2.25302e-06
4.45175e-06
8.9541e-06
1.58285e-05
3.52892e-05
6.10691e-05
5.21876e-05
6.66124e-05
0.000166281
9.13868e-05
0.000114577
0.000141574
0.000173131
0.000209603
0.000250986
0.000295927
0.000346577
0.00040357
0.000467569
0.00053931
0.000619608
0.000709372
0.000809595
0.000921367
0.00104589
0.00118447
0.00133857
0.00150972
0.00169959
0.00190998
0.00214278
0.00239998
0.00268359
0.00299549
0.00333741
0.00371066
0.00411503
0.00454787
0.00500248
0.00546392
0.00590189
0.00625501
0.00639297
0.00598292
0.00436679
0.00237772
6.90055e-05
3.11348e-06
2.57561e-11
4.41659e-11
4.75283e-10
3.60231e-09
1.70934e-08
6.0618e-08
1.77828e-07
4.56421e-07
1.05479e-06
2.22868e-06
4.36324e-06
7.96851e-06
1.46071e-05
2.39913e-05
4.78382e-05
7.77063e-05
6.75628e-05
8.53977e-05
0.000195331
0.000114226
0.000141465
0.000172961
0.000209416
0.000250764
0.000295675
0.000346283
0.000403223
0.000467159
0.000538827
0.000619042
0.000708702
0.00080881
0.000920458
0.00104485
0.00118328
0.00133721
0.00150819
0.00169792
0.00190817
0.00214087
0.002398
0.00268167
0.00299388
0.00333647
0.00371095
0.00411815
0.00455689
0.00502271
0.00550578
0.00598557
0.00642173
0.00673486
0.00676337
0.00600405
0.00415772
0.00202459
2.45463e-05
3.11397e-06
2.57353e-11
4.41382e-11
4.7476e-10
3.59617e-09
1.70556e-08
6.04567e-08
1.77098e-07
4.53616e-07
1.04822e-06
2.2164e-06
4.31764e-06
7.82048e-06
1.32482e-05
2.23333e-05
3.44296e-05
6.25271e-05
9.62711e-05
8.59747e-05
0.000107929
0.000226105
0.000141066
0.000172834
0.00020922
0.000250553
0.000295432
0.000346003
0.000402897
0.000466777
0.000538378
0.000618515
0.000708087
0.000808083
0.00091961
0.00104387
0.00118217
0.00133595
0.00150677
0.00169634
0.00190647
0.00213907
0.00239618
0.00267988
0.00299232
0.0033355
0.00371107
0.00412022
0.00456307
0.00503708
0.00553537
0.00604399
0.0065352
0.00695601
0.00720522
0.00708643
0.00591105
0.00387655
0.00155691
9.12601e-06
3.1142e-06
2.51639e-11
4.40975e-11
4.74364e-10
3.59166e-09
1.70233e-08
6.03125e-08
1.76602e-07
4.51672e-07
1.04166e-06
2.20279e-06
4.29481e-06
7.74356e-06
1.30226e-05
2.05851e-05
3.2283e-05
4.72338e-05
7.95514e-05
0.000114403
0.000107735
0.000134646
0.0002587
0.000172368
0.000209073
0.00025033
0.000295201
0.000345731
0.000402586
0.000466418
0.00053796
0.000618023
0.000707513
0.000807417
0.000918825
0.00104296
0.00118113
0.00133478
0.00150546
0.00169487
0.00190487
0.00213738
0.00239446
0.00267823
0.00299085
0.00333448
0.00371101
0.00412184
0.00456761
0.00504745
0.00555693
0.00608601
0.00661535
0.00710799
0.00749534
0.00765061
0.00728217
0.00571622
0.00355351
0.00107136
4.55373e-06
3.11432e-06
1.50639e-11
4.34359e-11
4.73853e-10
3.58837e-09
1.70001e-08
6.01902e-08
1.76158e-07
4.50362e-07
1.03714e-06
2.18916e-06
4.26948e-06
7.70529e-06
1.29048e-05
2.02678e-05
3.01493e-05
4.43787e-05
6.1812e-05
9.84585e-05
0.000135728
0.000133406
0.000165909
0.000293315
0.000208516
0.000250164
0.000294957
0.000345472
0.000402284
0.000466074
0.000537566
0.000617565
0.000706977
0.000806794
0.000918105
0.00104211
0.00118015
0.00133367
0.00150422
0.00169351
0.00190337
0.00213579
0.00239283
0.00267666
0.00298947
0.00333348
0.00371078
0.00412307
0.0045713
0.00505536
0.00557294
0.00611714
0.00667371
0.00721642
0.0076967
0.00802703
0.00805164
0.00729904
0.00542816
0.00326503
0.000629801
3.33182e-06
3.11435e-06
2.32705e-13
2.9904e-11
4.6999e-10
3.58433e-09
1.69837e-08
6.01033e-08
1.75785e-07
4.49205e-07
1.03411e-06
2.17977e-06
4.24405e-06
7.66288e-06
1.28467e-05
2.01015e-05
2.97292e-05
4.19434e-05
5.82006e-05
7.91581e-05
0.000119083
0.000161755
0.000163447
0.000201548
0.000330308
0.000249492
0.00029478
0.000345198
0.000401996
0.000465739
0.000537188
0.000617135
0.00070648
0.000806214
0.000917434
0.00104134
0.00117925
0.00133263
0.00150305
0.00169222
0.00190197
0.00213428
0.00239128
0.00267515
0.00298814
0.00333252
0.00371047
0.00412393
0.0045743
0.00506186
0.0055854
0.00614071
0.00671753
0.00729619
0.00784166
0.00829105
0.00853447
0.00838478
0.00715924
0.00505792
0.00299682
0.000299692
3.03315e-06
3.11433e-06
3.61281e-12
4.84745e-12
3.63212e-10
3.55695e-09
1.6964e-08
6.00433e-08
1.75522e-07
4.48232e-07
1.03146e-06
2.17353e-06
4.22654e-06
7.62004e-06
1.27819e-05
2.00201e-05
2.95096e-05
4.14344e-05
5.529e-05
7.47609e-05
9.91318e-05
0.000144113
0.000192545
0.000198292
0.000240706
0.000369283
0.000293983
0.000344999
0.000401689
0.00046542
0.000536818
0.000616723
0.000706012
0.000805677
0.000916809
0.00104062
0.00117842
0.00133167
0.00150196
0.001691
0.00190065
0.00213287
0.00238981
0.0026737
0.00298685
0.00333156
0.00371011
0.00412459
0.00457669
0.00506728
0.00559572
0.00615927
0.00675112
0.00735664
0.00794925
0.00848282
0.00887711
0.00899657
0.00851758
0.00687702
0.00462528
0.002322
0.000111239
2.96655e-06
3.11433e-06
2.63815e-12
4.6982e-10
9.73807e-11
2.77132e-09
1.68356e-08
5.99735e-08
1.75346e-07
4.47553e-07
1.02922e-06
2.16807e-06
4.21502e-06
7.59057e-06
1.27168e-05
1.99295e-05
2.94033e-05
4.11773e-05
5.46544e-05
7.12765e-05
9.43323e-05
0.000122949
0.000174009
0.000228118
0.000237931
0.000285057
0.000412857
0.00034408
0.000401467
0.000465079
0.000536464
0.000616318
0.000705561
0.000805169
0.000916231
0.00103995
0.00117765
0.00133079
0.00150094
0.00168986
0.00189939
0.00213154
0.00238842
0.00267231
0.00298557
0.00333058
0.00370968
0.00412508
0.00457867
0.00507173
0.00560438
0.00617467
0.00677778
0.00740343
0.00803141
0.00862625
0.00912822
0.0094365
0.00938751
0.00844124
0.00646495
0.00418716
0.00160086
3.48384e-05
2.95312e-06
3.11432e-06
2.99544e-12
1.23933e-10
1.10073e-08
7.59922e-10
1.31283e-08
5.9523e-08
1.75142e-07
4.47105e-07
1.02766e-06
2.16348e-06
4.2049e-06
7.57147e-06
1.26717e-05
1.98383e-05
2.92851e-05
4.10545e-05
5.43319e-05
7.04838e-05
9.04197e-05
0.000117346
0.000151203
0.000208844
0.000268546
0.000281107
0.000335128
0.000463706
0.000400407
0.000464831
0.000536088
0.000615928
0.000705119
0.000804679
0.000915683
0.00103933
0.00117694
0.00132997
0.00150001
0.00168879
0.00189821
0.00213026
0.0023871
0.00267099
0.00298433
0.00332958
0.00370918
0.0041254
0.00458033
0.00507552
0.00561162
0.00618766
0.00679993
0.00744081
0.00809549
0.00873655
0.00931749
0.00976207
0.00994593
0.00961295
0.0081756
0.0059454
0.00379996
0.000930086
1.10809e-05
2.95068e-06
3.11431e-06
3.32008e-12
1.13908e-10
2.5398e-09
8.52342e-08
3.59569e-09
4.64664e-08
1.73854e-07
4.46593e-07
1.02665e-06
2.16029e-06
4.19644e-06
7.55455e-06
1.26428e-05
1.97752e-05
2.91655e-05
4.09176e-05
5.41758e-05
7.00818e-05
8.94319e-05
0.000113116
0.000144546
0.000184243
0.000248392
0.00031351
0.000329559
0.000391496
0.000520825
0.00046361
0.000535813
0.000615512
0.000704695
0.0008042
0.000915155
0.00103874
0.00117628
0.00132922
0.00149915
0.00168782
0.0018971
0.00212905
0.00238583
0.00266973
0.00298314
0.00332858
0.00370858
0.00412557
0.0045817
0.00507878
0.00561783
0.00619862
0.00681867
0.00747188
0.00814691
0.00882312
0.00946397
0.0100094
0.0103637
0.0103766
0.00958542
0.00773463
0.00536125
0.0031257
0.000425221
4.76088e-06
2.95029e-06
3.1143e-06
3.7438e-12
1.21214e-10
2.30667e-09
2.06127e-08
3.79208e-07
1.27162e-08
1.36091e-07
4.43441e-07
1.02552e-06
2.15826e-06
4.19065e-06
7.54049e-06
1.26174e-05
1.97353e-05
2.90833e-05
4.078e-05
5.40113e-05
6.98986e-05
8.89456e-05
0.000111916
0.000139833
0.000176363
0.000222111
0.00029125
0.000361928
0.00038409
0.000454795
0.000586252
0.000534407
0.000615209
0.00070424
0.000803739
0.000914639
0.00103818
0.00117565
0.00132852
0.00149836
0.00168692
0.00189609
0.00212792
0.00238461
0.0026685
0.00298199
0.0033276
0.00370794
0.00412555
0.00458279
0.00508156
0.00562324
0.00620806
0.00683455
0.00749819
0.00818969
0.00889285
0.00957958
0.010202
0.0106837
0.0109068
0.0106394
0.00932594
0.00714099
0.0048079
0.00218618
0.00014717
3.24613e-06
2.95025e-06
3.11429e-06
4.08269e-12
1.51523e-10
2.45214e-09
1.83122e-08
1.09687e-07
1.22809e-06
3.73691e-08
3.49042e-07
1.01879e-06
2.15601e-06
4.18694e-06
7.53089e-06
1.2596e-05
1.96998e-05
2.90316e-05
4.06858e-05
5.38439e-05
6.97008e-05
8.87264e-05
0.000111332
0.000138381
0.00017105
0.000213077
0.000263674
0.00033923
0.000416143
0.000445341
0.000525715
0.000661072
0.000613592
0.000703904
0.000803242
0.000914139
0.00103762
0.00117505
0.00132786
0.00149762
0.00168609
0.00189517
0.00212689
0.00238348
0.00266731
0.00298084
0.00332663
0.00370727
0.00412542
0.00458358
0.0050839
0.00562791
0.00621633
0.00684828
0.00752056
0.00822592
0.00895088
0.00967303
0.0103549
0.0109346
0.0113168
0.0113588
0.0106196
0.00884966
0.00644646
0.00432809
0.00128689
4.1528e-05
2.91461e-06
2.95025e-06
3.11428e-06
4.4143e-12
1.81853e-10
3.07982e-09
1.93847e-08
9.09478e-08
4.29913e-07
3.23848e-06
9.68609e-08
8.09525e-07
2.14338e-06
4.18288e-06
7.52485e-06
1.25816e-05
1.967e-05
2.89852e-05
4.06233e-05
5.37266e-05
6.95034e-05
8.84852e-05
0.000111079
0.000137698
0.000169305
0.00020715
0.000254314
0.000310149
0.000393132
0.00047673
0.000514017
0.000605011
0.000745392
0.000702044
0.000802873
0.000913597
0.00103708
0.00117446
0.00132722
0.00149693
0.00168533
0.00189431
0.00212595
0.00238244
0.00266619
0.00297972
0.00332563
0.00370657
0.00412521
0.00458415
0.00508578
0.00563193
0.00622353
0.00686032
0.00753993
0.00825679
0.00900007
0.00975084
0.0104788
0.0111348
0.0116405
0.0118783
0.0116095
0.0103343
0.00817836
0.00574164
0.00335441
0.000588915
1.17268e-05
2.84824e-06
2.95026e-06
3.11427e-06
4.76826e-12
2.03038e-10
3.71593e-09
2.45656e-08
9.5001e-08
3.51648e-07
1.35307e-06
7.36394e-06
2.29667e-07
1.72776e-06
4.16211e-06
7.51824e-06
1.25726e-05
1.96501e-05
2.89463e-05
4.05658e-05
5.36593e-05
6.93628e-05
8.82476e-05
0.000110804
0.000137385
0.0001685
0.0002051
0.00024808
0.000299472
0.000362567
0.000453553
0.000544341
0.000590897
0.000693495
0.000839445
0.00080074
0.000913195
0.0010365
0.00117388
0.00132659
0.00149627
0.00168462
0.00189353
0.00212508
0.0023815
0.00266518
0.00297867
0.00332463
0.00370581
0.0041249
0.00458457
0.00508733
0.0056353
0.00622978
0.00687086
0.00755692
0.00828355
0.00904203
0.00981683
0.0105821
0.0112977
0.0119002
0.0122918
0.0123314
0.0115531
0.00979549
0.00736628
0.00510088
0.00220174
0.000196837
4.6248e-06
2.8361e-06
2.95028e-06
3.11427e-06
5.10735e-12
2.24914e-10
4.15216e-09
2.98933e-08
1.23519e-07
3.65603e-07
1.12052e-06
3.61115e-06
1.48717e-05
5.09165e-07
3.42221e-06
7.48873e-06
1.25629e-05
1.96377e-05
2.89205e-05
4.05177e-05
5.35932e-05
6.92686e-05