/*--------------------------------*- C++ -*----------------------------------*\
| =========                 |                                                 |
| \\      /  F ield         | OpenFOAM: The Open Source CFD Toolbox           |
|  \\    /   O peration     | Version:  v2012                                 |
|   \\  /    A nd           | Website:  www.openfoam.com                      |
|    \\/     M anipulation  |                                                 |
\*---------------------------------------------------------------------------*/
FoamFile
{
    version     2.0;
    format      ascii;
    class       volScalarField;
    location    "13200";
    object      omega;
}
// * * * * * * * * * * * * * * * * * * * * * * * * * * * * * * * * * * * * * //

dimensions      [0 0 -1 0 0 0 0];


internalField   nonuniform List<scalar> 
31383
(
1.83501e+10
1.83774e+10
3.00654e+09
1.83979e+10
3.12918e+09
1.01747e+09
1.84055e+10
3.13273e+09
1.04506e+09
4.74609e+08
1.84077e+10
3.13413e+09
1.04626e+09
4.84613e+08
2.63807e+08
1.84116e+10
3.1346e+09
1.04675e+09
4.85142e+08
2.69183e+08
1.62995e+08
1.84171e+10
3.13534e+09
1.04694e+09
4.85364e+08
2.69419e+08
1.67171e+08
1.07891e+08
1.84205e+10
3.13636e+09
1.04721e+09
4.85447e+08
2.69507e+08
1.67232e+08
1.121e+08
7.4906e+07
1.84209e+10
3.13702e+09
1.04758e+09
4.85575e+08
2.69528e+08
1.6723e+08
1.12032e+08
7.96759e+07
5.38545e+07
1.84227e+10
3.13715e+09
1.04782e+09
4.85747e+08
2.69582e+08
1.67202e+08
1.11957e+08
7.95043e+07
5.9394e+07
3.97885e+07
1.84289e+10
3.13752e+09
1.04789e+09
4.85862e+08
2.69663e+08
1.67203e+08
1.11884e+08
7.93659e+07
5.91389e+07
4.60951e+07
3.00766e+07
1.84395e+10
3.13862e+09
1.04803e+09
4.85895e+08
2.69715e+08
1.67226e+08
1.11841e+08
7.92512e+07
5.89487e+07
4.57816e+07
3.69771e+07
2.32062e+07
1.84537e+10
3.14048e+09
1.04842e+09
4.85963e+08
2.69724e+08
1.67236e+08
1.1182e+08
7.9169e+07
5.87973e+07
4.55548e+07
3.66355e+07
3.0419e+07
1.8245e+07
1.84701e+10
3.14295e+09
1.04906e+09
4.86144e+08
2.69753e+08
1.67223e+08
1.11795e+08
7.91114e+07
5.86823e+07
4.5376e+07
3.6391e+07
3.00756e+07
2.54628e+07
1.46106e+07
1.84851e+10
3.14578e+09
1.0499e+09
4.86441e+08
2.69846e+08
1.67226e+08
1.11761e+08
7.9057e+07
5.85949e+07
4.52366e+07
3.61985e+07
2.98323e+07
2.51354e+07
2.1553e+07
1.18944e+07
1.84983e+10
3.14838e+09
1.05085e+09
4.86832e+08
2.70004e+08
1.67268e+08
1.1174e+08
7.90019e+07
5.85146e+07
4.51279e+07
3.60461e+07
2.96411e+07
2.49073e+07
2.12497e+07
1.83672e+07
9.80309e+06
1.85099e+10
3.15065e+09
1.05173e+09
4.87278e+08
2.70215e+08
1.67353e+08
1.11748e+08
7.89603e+07
5.84408e+07
4.50278e+07
3.59248e+07
2.9488e+07
2.47282e+07
2.10441e+07
1.80914e+07
1.57062e+07
8.19614e+06
1.85192e+10
3.15265e+09
1.0525e+09
4.87687e+08
2.70456e+08
1.6747e+08
1.11786e+08
7.89414e+07
5.83814e+07
4.49395e+07
3.58143e+07
2.93638e+07
2.45839e+07
2.08825e+07
1.79114e+07
1.54592e+07
1.34458e+07
6.97467e+06
1.85262e+10
3.15427e+09
1.05318e+09
4.88045e+08
2.70678e+08
1.67608e+08
1.11847e+08
7.89461e+07
5.83407e+07
4.48665e+07
3.57176e+07
2.92533e+07
2.4466e+07
2.07519e+07
1.77701e+07
1.53058e+07
1.32265e+07
1.15118e+07
6.05263e+06
1.85315e+10
3.1555e+09
1.05373e+09
4.8836e+08
2.70872e+08
1.67735e+08
1.11923e+08
7.89673e+07
5.83209e+07
4.48092e+07
3.56373e+07
2.91556e+07
2.43622e+07
2.06455e+07
1.76557e+07
1.51858e+07
1.30983e+07
1.13173e+07
9.85548e+06
5.33688e+06
1.85351e+10
3.15642e+09
1.05415e+09
4.88616e+08
2.71043e+08
1.67846e+08
1.11993e+08
7.90012e+07
5.83133e+07
4.47708e+07
3.55697e+07
2.90739e+07
2.42697e+07
2.05522e+07
1.7562e+07
1.50884e+07
1.2998e+07
1.12109e+07
9.6822e+06
8.44012e+06
4.76386e+06
1.85374e+10
3.15704e+09
1.05446e+09
4.88811e+08
2.71181e+08
1.67943e+08
1.12054e+08
7.90329e+07
5.83171e+07
4.47425e+07
3.55191e+07
2.90032e+07
2.41915e+07
2.04685e+07
1.74802e+07
1.50075e+07
1.29164e+07
1.11277e+07
9.59356e+06
8.28469e+06
7.23484e+06
4.28946e+06
1.85386e+10
3.15746e+09
1.05468e+09
4.88959e+08
2.71286e+08
1.68021e+08
1.12107e+08
7.90604e+07
5.83214e+07
4.47249e+07
3.54785e+07
2.89472e+07
2.41241e+07
2.03974e+07
1.74064e+07
1.49372e+07
1.28483e+07
1.10601e+07
9.52463e+06
8.21013e+06
7.09509e+06
6.21221e+06
3.88411e+06
1.85391e+10
3.15769e+09
1.05483e+09
4.89062e+08
2.71365e+08
1.6808e+08
1.12149e+08
7.90835e+07
5.83249e+07
4.47096e+07
3.5447e+07
2.89013e+07
2.40685e+07
2.03366e+07
1.73435e+07
1.48735e+07
1.27893e+07
1.10034e+07
9.46875e+06
8.15278e+06
7.03138e+06
6.08689e+06
5.34723e+06
3.52807e+06
1.85392e+10
3.15779e+09
1.05491e+09
4.89129e+08
2.71419e+08
1.68123e+08
1.12178e+08
7.91002e+07
5.83261e+07
4.46963e+07
3.54191e+07
2.88628e+07
2.40223e+07
2.0285e+07
1.72902e+07
1.48191e+07
1.27356e+07
1.09544e+07
9.42176e+06
8.10647e+06
6.98308e+06
6.03145e+06
5.23538e+06
4.61662e+06
3.21035e+06
1.85391e+10
3.15781e+09
1.05495e+09
4.89169e+08
2.71454e+08
1.68151e+08
1.12199e+08
7.91099e+07
5.83247e+07
4.46817e+07
3.53944e+07
2.88284e+07
2.39825e+07
2.0242e+07
1.72442e+07
1.47735e+07
1.26897e+07
1.091e+07
9.38128e+06
8.06744e+06
6.94426e+06
5.99014e+06
5.18629e+06
4.51563e+06
3.99825e+06
2.9281e+06
1.85391e+10
3.15781e+09
1.05496e+09
4.89188e+08
2.71474e+08
1.68169e+08
1.1221e+08
7.91143e+07
5.83194e+07
4.46673e+07
3.53697e+07
2.87974e+07
2.39467e+07
2.02043e+07
1.72058e+07
1.47338e+07
1.26514e+07
1.08717e+07
9.34475e+06
8.03383e+06
6.9116e+06
5.95707e+06
5.15036e+06
4.47168e+06
3.90493e+06
3.47297e+06
2.6779e+06
1.8539e+10
3.15783e+09
1.05497e+09
4.89194e+08
2.71483e+08
1.68177e+08
1.12215e+08
7.91134e+07
5.83116e+07
4.4651e+07
3.53471e+07
2.87678e+07
2.39142e+07
2.01705e+07
1.7172e+07
1.47004e+07
1.2618e+07
1.08398e+07
9.31297e+06
8.00367e+06
6.88345e+06
5.92931e+06
5.1217e+06
4.44013e+06
3.86521e+06
3.38523e+06
3.02543e+06
2.45432e+06
1.85383e+10
3.15781e+09
1.05497e+09
4.89198e+08
2.71485e+08
1.68179e+08
1.12215e+08
7.9109e+07
5.83011e+07
4.46342e+07
3.53236e+07
2.87408e+07
2.38838e+07
2.01395e+07
1.71414e+07
1.4671e+07
1.25899e+07
1.08122e+07
9.28659e+06
7.9773e+06
6.8583e+06
5.90541e+06
5.0977e+06
4.41509e+06
3.83738e+06
3.34893e+06
2.94181e+06
2.64315e+06
2.25508e+06
1.8537e+10
3.15771e+09
1.05497e+09
4.89202e+08
2.71486e+08
1.68177e+08
1.12211e+08
7.91017e+07
5.8289e+07
4.46164e+07
3.5301e+07
2.87136e+07
2.38556e+07
2.01108e+07
1.71133e+07
1.46445e+07
1.25652e+07
1.07891e+07
9.26386e+06
7.95539e+06
6.83623e+06
5.88408e+06
5.07709e+06
4.39417e+06
3.81544e+06
3.3242e+06
2.90828e+06
2.56249e+06
2.31582e+06
2.07619e+06
1.85351e+10
3.1575e+09
1.05494e+09
4.89203e+08
2.71487e+08
1.68174e+08
1.12205e+08
7.90924e+07
5.82758e+07
4.45984e+07
3.52784e+07
2.86884e+07
2.38282e+07
2.0084e+07
1.70875e+07
1.462e+07
1.2543e+07
1.07687e+07
9.24488e+06
7.93663e+06
6.81789e+06
5.86539e+06
5.05872e+06
4.37625e+06
3.79715e+06
3.30486e+06
2.88614e+06
2.53118e+06
2.2372e+06
2.03488e+06
1.90905e+06
1.85324e+10
3.15719e+09
1.05488e+09
4.89189e+08
2.71486e+08
1.68172e+08
1.12199e+08
7.90824e+07
5.82619e+07
4.45805e+07
3.52567e+07
2.86636e+07
2.38028e+07
2.00582e+07
1.70631e+07
1.45975e+07
1.25223e+07
1.07504e+07
9.22825e+06
7.92096e+06
6.80223e+06
5.84986e+06
5.04263e+06
4.36031e+06
3.78154e+06
3.2888e+06
2.869e+06
2.5112e+06
2.20762e+06
1.95755e+06
1.79328e+06
1.74086e+06
1.85288e+10
3.15673e+09
1.05477e+09
4.89159e+08
2.71478e+08
1.68169e+08
1.12194e+08
7.90728e+07
5.82481e+07
4.45629e+07
3.52357e+07
2.86402e+07
2.37782e+07
2.00343e+07
1.70399e+07
1.45762e+07
1.25034e+07
1.07334e+07
9.21322e+06
7.90735e+06
6.78916e+06
5.83659e+06
5.02925e+06
4.34635e+06
3.76767e+06
3.27512e+06
2.85483e+06
2.49593e+06
2.18946e+06
1.92932e+06
1.71661e+06
1.58512e+06
1.57099e+06
1.85247e+10
3.15612e+09
1.05462e+09
4.89112e+08
2.71461e+08
1.68161e+08
1.12188e+08
7.90642e+07
5.82352e+07
4.4546e+07
3.52157e+07
2.8618e+07
2.37551e+07
2.00115e+07
1.70184e+07
1.4556e+07
1.24854e+07
1.07177e+07
9.19925e+06
7.89498e+06
6.77787e+06
5.82552e+06
5.0178e+06
4.33472e+06
3.75552e+06
3.263e+06
2.84279e+06
2.48338e+06
2.17578e+06
1.91266e+06
1.68936e+06
1.50858e+06
1.40554e+06
1.41875e+06
1.85203e+10
3.15543e+09
1.05442e+09
4.89043e+08
2.71434e+08
1.68149e+08
1.1218e+08
7.90557e+07
5.82234e+07
4.45303e+07
3.51968e+07
2.85971e+07
2.37333e+07
1.999e+07
1.69979e+07
1.45373e+07
1.24684e+07
1.07028e+07
9.18641e+06
7.88346e+06
6.76757e+06
5.81596e+06
5.00824e+06
4.32476e+06
3.74539e+06
3.25239e+06
2.83216e+06
2.47275e+06
2.16461e+06
1.90032e+06
1.67393e+06
1.482e+06
1.32862e+06
1.25054e+06
1.28907e+06
1.85157e+10
3.15469e+09
1.05419e+09
4.88951e+08
2.71395e+08
1.6813e+08
1.12168e+08
7.90457e+07
5.82121e+07
4.45159e+07
3.51793e+07
2.85775e+07
2.37129e+07
1.99698e+07
1.69787e+07
1.45194e+07
1.24525e+07
1.06888e+07
9.17417e+06
7.8729e+06
6.75795e+06
5.80722e+06
4.99998e+06
4.31643e+06
3.7367e+06
3.24352e+06
2.82285e+06
2.46338e+06
2.15518e+06
1.89034e+06
1.66275e+06
1.46757e+06
1.30243e+06
1.17269e+06
1.11681e+06
1.17961e+06
1.85113e+10
3.15392e+09
1.05395e+09
4.88846e+08
2.71343e+08
1.68105e+08
1.12153e+08
7.90337e+07
5.82002e+07
4.45023e+07
3.51632e+07
2.85593e+07
2.3694e+07
1.9951e+07
1.69605e+07
1.45027e+07
1.24373e+07
1.06755e+07
9.16259e+06
7.86279e+06
6.74917e+06
5.79906e+06
4.99243e+06
4.30922e+06
3.72943e+06
3.2359e+06
2.81506e+06
2.45519e+06
2.14691e+06
1.88196e+06
1.65378e+06
1.45735e+06
1.28879e+06
1.14662e+06
1.03737e+06
1.0016e+06
1.08743e+06
1.85088e+10
3.15317e+09
1.0537e+09
4.88733e+08
2.71284e+08
1.68071e+08
1.12133e+08
7.90198e+07
5.81872e+07
4.44885e+07
3.51481e+07
2.85427e+07
2.36764e+07
1.99335e+07
1.69438e+07
1.44868e+07
1.24231e+07
1.06629e+07
9.15164e+06
7.85323e+06
6.74073e+06
5.79161e+06
4.98538e+06
4.30263e+06
3.72312e+06
3.22952e+06
2.80836e+06
2.44832e+06
2.13968e+06
1.87462e+06
1.6463e+06
1.44926e+06
1.27939e+06
1.13359e+06
1.0112e+06
919788
902540
1.00974e+06
1.84871e+10
3.15275e+09
1.05345e+09
4.88617e+08
2.71221e+08
1.68034e+08
1.12109e+08
7.90029e+07
5.81732e+07
4.44745e+07
3.51332e+07
2.8527e+07
2.36603e+07
1.99173e+07
1.69281e+07
1.44723e+07
1.24097e+07
1.0651e+07
9.14119e+06
7.84416e+06
6.73276e+06
5.78447e+06
4.97897e+06
4.29649e+06
3.71736e+06
3.22398e+06
2.80273e+06
2.44241e+06
2.1336e+06
1.86822e+06
1.63978e+06
1.44256e+06
1.27205e+06
1.12487e+06
998615
893305
817530
817334
944145
1.81978e+10
3.14907e+09
1.05332e+09
4.88502e+08
2.71156e+08
1.67993e+08
1.12082e+08
7.89831e+07
5.81574e+07
4.44601e+07
3.51185e+07
2.85119e+07
2.36452e+07
1.99025e+07
1.69137e+07
1.44586e+07
1.23973e+07
1.06399e+07
9.13135e+06
7.8355e+06
6.72517e+06
5.77771e+06
4.9728e+06
4.29091e+06
3.71199e+06
3.21892e+06
2.79784e+06
2.43744e+06
2.12837e+06
1.86284e+06
1.6341e+06
1.43675e+06
1.26602e+06
1.11817e+06
990442
881017
790534
728532
743893
888605
1.79116e+10
2.59814e+09
1.05209e+09
4.88439e+08
2.71092e+08
1.67952e+08
1.12053e+08
7.89617e+07
5.81399e+07
4.44446e+07
3.5104e+07
2.84972e+07
2.36306e+07
1.98886e+07
1.69004e+07
1.44461e+07
1.23857e+07
1.06295e+07
9.12211e+06
7.82732e+06
6.71793e+06
5.77126e+06
4.96698e+06
4.28554e+06
3.70712e+06
3.2142e+06
2.79338e+06
2.43311e+06
2.12397e+06
1.8582e+06
1.62932e+06
1.43169e+06
1.26081e+06
1.11271e+06
984276
873285
778406
700842
651040
680427
840995
1.78381e+10
2.89399e+09
9.04339e+08
4.87873e+08
2.71056e+08
1.67911e+08
1.12024e+08
7.89394e+07
5.81213e+07
4.44281e+07
3.50889e+07
2.84828e+07
2.36166e+07
1.98752e+07
1.68879e+07
1.44344e+07
1.23751e+07
1.06198e+07
9.11348e+06
7.81964e+06
6.71108e+06
5.76513e+06
4.96142e+06
4.2805e+06
3.70244e+06
3.20993e+06
2.78922e+06
2.42916e+06
2.12013e+06
1.85429e+06
1.6252e+06
1.42743e+06
1.25629e+06
1.10803e+06
979315
867573
771016
688751
622494
583556
625351
799000
1.78606e+10
2.87658e+09
9.35177e+08
4.19521e+08
2.70744e+08
1.67888e+08
1.11995e+08
7.89167e+07
5.81024e+07
4.44112e+07
3.50732e+07
2.84683e+07
2.36029e+07
1.98623e+07
1.6876e+07
1.44236e+07
1.23652e+07
1.06109e+07
9.10544e+06
7.81247e+06
6.70465e+06
5.75933e+06
4.95615e+06
4.27568e+06
3.69806e+06
3.20583e+06
2.78545e+06
2.42548e+06
2.11663e+06
1.85088e+06
1.62172e+06
1.42376e+06
1.25249e+06
1.10398e+06
975095
863034
765678
681611
610321
554008
524800
577177
760113
1.80401e+10
2.88399e+09
9.26307e+08
4.25692e+08
2.32291e+08
1.67696e+08
1.11978e+08
7.88943e+07
5.80834e+07
4.43942e+07
3.50575e+07
2.84535e+07
2.35893e+07
1.98498e+07
1.68645e+07
1.44132e+07
1.2356e+07
1.06026e+07
9.09801e+06
7.80578e+06
6.69864e+06
5.75387e+06
4.95116e+06
4.27112e+06
3.69387e+06
3.20199e+06
2.78185e+06
2.42216e+06
2.11337e+06
1.84777e+06
1.61868e+06
1.42066e+06
1.24921e+06
1.10058e+06
971456
859206
761497
676575
603349
541645
494116
473674
534404
722277
1.81906e+10
2.92699e+09
9.30338e+08
4.18661e+08
2.35082e+08
1.43151e+08
1.11851e+08
7.88806e+07
5.80649e+07
4.43774e+07
3.50418e+07
2.84388e+07
2.35756e+07
1.98375e+07
1.68534e+07
1.44032e+07
1.23472e+07
1.05949e+07
9.09116e+06
7.7996e+06
6.69303e+06
5.74877e+06
4.94648e+06
4.26681e+06
3.68991e+06
3.19834e+06
2.77849e+06
2.41898e+06
2.11043e+06
1.84487e+06
1.61591e+06
1.41795e+06
1.24644e+06
1.09765e+06
968396
855920
758003
672694
598551
534764
481463
441733
429242
495434
684876
1.82924e+10
2.96223e+09
9.50284e+08
4.21077e+08
2.28058e+08
1.46212e+08
9.45633e+07
7.87908e+07
5.80531e+07
4.4361e+07
3.50264e+07
2.84244e+07
2.35622e+07
1.98252e+07
1.68425e+07
1.43935e+07
1.23387e+07
1.05875e+07
9.08478e+06
7.7939e+06
6.68786e+06
5.74402e+06
4.94209e+06
4.26277e+06
3.68617e+06
3.19488e+06
2.77528e+06
2.41602e+06
2.10762e+06
1.84227e+06
1.61333e+06
1.41548e+06
1.24403e+06
1.09517e+06
965766
853163
755022
669487
594917
530146
474600
428693
395923
390717
458589
649798
1.83566e+10
2.98666e+09
9.66444e+08
4.32573e+08
2.29427e+08
1.3944e+08
9.79372e+07
6.54712e+07
5.79856e+07
4.43501e+07
3.50112e+07
2.84103e+07
2.35491e+07
1.98132e+07
1.68316e+07
1.4384e+07
1.23304e+07
1.05804e+07
9.07861e+06
7.78859e+06
6.68308e+06
5.73963e+06
4.93801e+06
4.25897e+06
3.68267e+06
3.19162e+06
2.77225e+06
2.4132e+06
2.105e+06
1.83978e+06
1.61102e+06
1.41319e+06
1.24182e+06
1.093e+06
963542
850794
752526
666768
591951
526710
470107
421780
382407
355883
357413
422377
617673
1.83825e+10
3.11768e+09
9.77897e+08
4.4194e+08
2.36826e+08
1.39896e+08
9.23886e+07
6.93156e+07
4.6867e+07
4.42953e+07
3.50006e+07
2.83962e+07
2.35363e+07
1.98015e+07
1.6821e+07
1.43746e+07
1.23223e+07
1.05734e+07
9.07264e+06
7.78345e+06
6.67863e+06
5.73558e+06
4.93423e+06
4.25545e+06
3.67939e+06
3.18858e+06
2.7694e+06
2.41054e+06
2.10252e+06
1.83747e+06
1.60882e+06
1.41113e+06
1.23978e+06
1.09103e+06
961600
848792
750387
664497
589458
523946
466827
417363
375381
341804
320917
328538
386100
592928
1.83975e+10
3.13825e+09
1.04508e+09
4.48732e+08
2.43073e+08
1.45015e+08
9.1856e+07
6.52145e+07
5.1312e+07
3.44703e+07
3.49528e+07
2.83862e+07
2.35235e+07
1.97901e+07
1.68107e+07
1.43654e+07
1.23143e+07
1.05666e+07
9.06682e+06
7.77846e+06
6.67432e+06
5.73181e+06
4.93076e+06
4.25219e+06
3.67634e+06
3.18572e+06
2.76674e+06
2.40804e+06
2.10017e+06
1.83527e+06
1.60677e+06
1.40917e+06
1.23794e+06
1.08921e+06
959837
847047
748580
662557
587381
521643
464229
414200
370991
334604
306194
290421
303219
350703
579871
1.84037e+10
3.1424e+09
1.05155e+09
4.85808e+08
2.47708e+08
1.49771e+08
9.56171e+07
6.35592e+07
4.85434e+07
3.94697e+07
2.60429e+07
2.83419e+07
2.35144e+07
1.97788e+07
1.68007e+07
1.43564e+07
1.23064e+07
1.05598e+07
9.06112e+06
7.77361e+06
6.67015e+06
5.72816e+06
4.92753e+06
4.24918e+06
3.67351e+06
3.18307e+06
2.76425e+06
2.4057e+06
2.09797e+06
1.8332e+06
1.60482e+06
1.40735e+06
1.2362e+06
1.08757e+06
958208
845464
747008
660919
585613
519732
462085
411734
367908
330198
298762
274979
263873
280673
318181
573599
1.84105e+10
3.14426e+09
1.05366e+09
4.88886e+08
2.7007e+08
1.53323e+08
9.98029e+07
6.64899e+07
4.57915e+07
3.76878e+07
3.13638e+07
2.0251e+07
2.34721e+07
1.97705e+07
1.67908e+07
1.43478e+07
1.22987e+07
1.05532e+07
9.05541e+06
7.76883e+06
6.66607e+06
5.72463e+06
4.9244e+06
4.24639e+06
3.67092e+06
3.18062e+06
2.76193e+06
2.40352e+06
2.09592e+06
1.83126e+06
1.60299e+06
1.40562e+06
1.23458e+06
1.08602e+06
956740
844005
745584
659497
584122
518112
460315
409721
365544
327162
294298
267259
247641
240827
260188
289063
570144
1.84202e+10
3.14621e+09
1.05465e+09
4.90171e+08
2.71862e+08
1.67489e+08
1.02784e+08
7.0654e+07
4.82325e+07
3.41725e+07
3.02037e+07
2.55793e+07
1.62064e+07
1.97297e+07
1.67835e+07
1.43392e+07
1.22914e+07
1.05467e+07
9.04983e+06
7.76404e+06
6.66205e+06
5.72118e+06
4.92138e+06
4.24369e+06
3.6685e+06
3.17836e+06
2.7598e+06
2.40149e+06
2.094e+06
1.82945e+06
1.60128e+06
1.404e+06
1.23305e+06
1.08457e+06
955352
842690
744273
658214
582830
516748
458821
408070
363639
324872
291276
262696
239579
223732
220915
241084
262455
567977
1.84262e+10
3.14868e+09
1.05567e+09
4.9078e+08
2.72713e+08
1.68646e+08
1.11803e+08
7.3159e+07
5.25461e+07
3.63393e+07
2.63977e+07
2.48093e+07
2.12588e+07
1.33079e+07
1.67441e+07
1.43329e+07
1.2284e+07
1.05404e+07
9.04441e+06
7.75935e+06
6.65802e+06
5.71777e+06
4.91843e+06
4.24108e+06
3.66617e+06
3.17626e+06
2.75783e+06
2.39962e+06
2.09222e+06
1.82776e+06
1.59968e+06
1.40249e+06
1.23161e+06
1.08321e+06
954068
841450
743093
657033
581669
515570
457566
406683
362085
323051
289036
259658
234878
215274
202861
203702
222709
238192
566533
1.84296e+10
3.15028e+09
1.05687e+09
4.91399e+08
2.73121e+08
1.69238e+08
1.12596e+08
7.87888e+07
5.44555e+07
4.06557e+07
2.84074e+07
2.11068e+07
2.07414e+07
1.78887e+07
1.11645e+07
1.42953e+07
1.22786e+07
1.05343e+07
9.03915e+06
7.75479e+06
6.65407e+06
5.71436e+06
4.91552e+06
4.23854e+06
3.66391e+06
3.17424e+06
2.75599e+06
2.3979e+06
2.09059e+06
1.8262e+06
1.59819e+06
1.40108e+06
1.23027e+06
1.08194e+06
952854
840304
741982
655971
580603
514515
456487
405522
360788
321576
287276
257443
231796
210397
193955
184688
188652
204527
216480
565446
1.84318e+10
3.1512e+09
1.05767e+09
4.92113e+08
2.73531e+08
1.69522e+08
1.13022e+08
7.9351e+07
5.79843e+07
4.20115e+07
3.24488e+07
2.2999e+07
1.7409e+07
1.75425e+07
1.51687e+07
9.52918e+06
1.22434e+07
1.05297e+07
9.03391e+06
7.75038e+06
6.65022e+06
5.71101e+06
4.91261e+06
4.23604e+06
3.66172e+06
3.17228e+06
2.75423e+06
2.39629e+06
2.08907e+06
1.82476e+06
1.59681e+06
1.39976e+06
1.22902e+06
1.08074e+06
951720
839221
740956
654974
579644
513549
455524
404526
359705
320353
285863
255727
229583
207242
188864
175283
168917
175208
186242
197416
564563
1.84344e+10
3.15188e+09
1.05814e+09
4.9259e+08
2.73997e+08
1.69808e+08
1.13226e+08
7.96631e+07
5.83916e+07
4.42802e+07
3.34215e+07
2.65505e+07
1.91709e+07
1.47184e+07
1.49458e+07
1.29204e+07
8.24588e+06
1.04973e+07
9.03018e+06
7.74598e+06
6.64651e+06
5.70775e+06
4.90975e+06
4.23353e+06
3.65955e+06
3.17038e+06
2.75253e+06
2.39475e+06
2.08766e+06
1.82342e+06
1.59553e+06
1.39854e+06
1.22785e+06
1.07964e+06
950657
838209
739989
654055
578748
512681
454645
403642
358781
319336
284700
254360
227891
205010
185609
169941
158964
155300
162815
167943
181325
563887
1.8436e+10
3.15255e+09
1.05849e+09
4.92872e+08
2.74311e+08
1.7013e+08
1.1343e+08
7.98121e+07
5.86234e+07
4.45801e+07
3.49225e+07
2.72758e+07
2.21306e+07
1.6311e+07
1.26587e+07
1.27884e+07
1.10298e+07
7.21424e+06
9.00051e+06
7.74287e+06
6.64279e+06
5.70461e+06
4.90697e+06
4.23107e+06
3.65738e+06
3.1685e+06
2.75087e+06
2.39327e+06
2.08631e+06
1.82218e+06
1.59436e+06
1.39741e+06
1.22677e+06
1.0786e+06
949673
837264
739086
653189
577921
511872
453856
402839
357965
318471
283736
253243
226556
203326
183337
166559
153332
144743
143545
150949
150396
169508
563454
1.84362e+10
3.15295e+09
1.05882e+09
4.9309e+08
2.74496e+08
1.70347e+08
1.1366e+08
7.99609e+07
5.87331e+07
4.47537e+07
3.51471e+07
2.83015e+07
2.26984e+07
1.86788e+07
1.40397e+07
1.10048e+07
1.09633e+07
9.42331e+06
6.36764e+06
7.71606e+06
6.64021e+06
5.70145e+06
4.90429e+06
4.22868e+06
3.65526e+06
3.16663e+06
2.74925e+06
2.39182e+06
2.08502e+06
1.821e+06
1.59327e+06
1.39637e+06
1.22578e+06
1.07765e+06
948758
836389
738244
652382
577144
511127
453123
402119
357227
317713
282921
252321
225473
202008
181643
164226
149797
138781
132395
133274
139201
134413
162573
563225
1.84382e+10
3.15307e+09
1.05902e+09
4.93282e+08
2.7464e+08
1.70475e+08
1.13815e+08
8.01274e+07
5.88421e+07
4.48352e+07
3.52788e+07
2.8474e+07
2.34284e+07
1.91459e+07
1.58887e+07
1.21457e+07
9.62452e+06
9.40295e+06
8.05438e+06
5.66033e+06
6.61632e+06
5.69928e+06
4.90158e+06
4.22638e+06
3.65319e+06
3.1648e+06
2.74762e+06
2.3904e+06
2.08375e+06
1.81986e+06
1.59222e+06
1.39541e+06
1.22486e+06
1.07676e+06
947908
835575
737463
651629
576420
510427
452449
401453
356566
317030
282210
251546
224583
200947
180330
162508
147383
135065
126065
121731
124072
127306
119749
159828
563213
1.84266e+10
3.15345e+09
1.05909e+09
4.934e+08
2.74766e+08
1.70574e+08
1.13906e+08
8.02403e+07
5.89648e+07
4.49155e+07
3.534e+07
2.85759e+07
2.35656e+07
1.9688e+07
1.62889e+07
1.35801e+07
1.05286e+07
8.43396e+06
8.06466e+06
6.89064e+06
5.05958e+06
5.67829e+06
4.89974e+06
4.22403e+06
3.65121e+06
3.16301e+06
2.74603e+06
2.38899e+06
2.08251e+06
1.81875e+06
1.59122e+06
1.39449e+06
1.22401e+06
1.07595e+06
947123
834819
736738
650932
575746
509777
451818
400841
355957
316420
281574
250875
223840
200081
179281
161187
145624
132551
122142
114990
112539
115487
115011
105997
158961
563297
1.79182e+10
3.15151e+09
1.05923e+09
4.93445e+08
2.74842e+08
1.7066e+08
1.13977e+08
8.0306e+07
5.90478e+07
4.50064e+07
3.53996e+07
2.86227e+07
2.36466e+07
1.9801e+07
1.67067e+07
1.39312e+07
1.16382e+07
9.13437e+06
7.3857e+06
6.91791e+06
5.90568e+06
4.54121e+06
4.8815e+06
4.22246e+06
3.64918e+06
3.1613e+06
2.74448e+06
2.38761e+06
2.08128e+06
1.81767e+06
1.59025e+06
1.39361e+06
1.22319e+06
1.07519e+06
946402
834122
736065
650283
575122
509172
451232
400269
355399
315860
281008
250278
223200
199360
178429
160139
144283
130736
119506
110829
105385
104539
107044
102634
93516.2
158696
563462
1.44371e+10
3.06533e+09
1.0586e+09
4.93518e+08
2.74871e+08
1.70712e+08
1.14037e+08
8.03568e+07
5.90955e+07
4.50679e+07
3.54677e+07
2.86676e+07
2.36832e+07
1.98673e+07
1.68027e+07
1.42634e+07
1.19474e+07
9.98632e+06
7.92208e+06
6.46067e+06
5.93863e+06
5.07484e+06
4.08676e+06
4.20671e+06
3.64783e+06
3.15955e+06
2.74301e+06
2.38626e+06
2.08007e+06
1.81659e+06
1.5893e+06
1.39275e+06
1.22242e+06
1.07448e+06
945731
833480
735444
649683
574543
508612
450687
399738
354879
315349
280490
249748
222634
198744
177724
159292
143227
129363
117618
108051
100959
97108.1
97402.9
98352.5
90828.3
83090.4
158619
563697
1.10355e+10
2.47573e+09
1.02996e+09
4.93234e+08
2.74915e+08
1.70732e+08
1.14073e+08
8.04e+07
5.9132e+07
4.51026e+07
3.55139e+07
2.87195e+07
2.37182e+07
1.9897e+07
1.68583e+07
1.43469e+07
1.22175e+07
1.02556e+07
8.57203e+06
6.86444e+06
5.6517e+06
5.10592e+06
4.37324e+06
3.68081e+06
3.63425e+06
3.15838e+06
2.74148e+06
2.38498e+06
2.0789e+06
1.81553e+06
1.58836e+06
1.39192e+06
1.22166e+06
1.07379e+06
945097
832884
734871
649129
574006
508093
450183
399246
354397
314874
280019
249266
222134
198204
177126
158596
142378
128290
116202
106076
98016
92384.1
89975.5
90756.6
89201.3
79546.1
77085.2
158609
563870
9.89003e+09
1.59349e+09
8.35324e+08
4.79976e+08
2.74753e+08
1.70759e+08
1.14087e+08
8.04256e+07
5.91631e+07
4.51289e+07
3.55391e+07
2.87547e+07
2.37587e+07
1.99249e+07
1.68829e+07
1.43943e+07
1.22913e+07
1.04768e+07
8.80417e+06
7.35786e+06
5.94646e+06
4.94491e+06
4.40033e+06
3.7788e+06
3.31086e+06
3.1467e+06
2.74047e+06
2.38365e+06
2.07779e+06
1.81451e+06
1.58744e+06
1.39109e+06
1.22092e+06
1.07312e+06
944488
832321
734340
648618
573510
507611
449717
398791
353950
314434
279582
248828
221682
197728
176604
158009
141684
127431
115102
104604
95937.2
89252.8
84978.3
83741.2
84198.1
79868.2
68624.9
74918.6
158636
563979
9.3513e+09
1.72454e+09
4.23247e+08
3.91542e+08
2.67321e+08
1.70651e+08
1.14104e+08
8.04345e+07
5.91815e+07
4.51512e+07
3.55581e+07
2.87732e+07
2.3786e+07
1.99576e+07
1.69058e+07
1.44154e+07
1.23325e+07
1.05423e+07
8.98441e+06
7.55693e+06
6.31793e+06
5.15665e+06
4.32149e+06
3.80184e+06
3.27391e+06
2.96844e+06
2.73042e+06
2.38277e+06
2.07661e+06
1.81354e+06
1.58654e+06
1.39028e+06
1.2202e+06
1.07247e+06
943899
831781
733841
648144
573053
507167
449284
398370
353538
314027
279178
248424
221273
197300
176148
157501
141102
126732
114225
103467
94396.7
87052.7
81632.9
78605.7
78113.7
77379.7
70695.3
58638.3
74386.9
158655
564053
9.04215e+09
1.61737e+09
5.92357e+08
1.6657e+08
2.1938e+08
1.65885e+08
1.1402e+08
8.0446e+07
5.91873e+07
4.51642e+07
3.55741e+07
2.8787e+07
2.38002e+07
1.99794e+07
1.69329e+07
1.44346e+07
1.23508e+07
1.05783e+07
9.04251e+06
7.70328e+06
6.48706e+06
5.43135e+06
4.4794e+06
3.77707e+06
3.29222e+06
2.84396e+06
2.64864e+06
2.37411e+06
2.07585e+06
1.81251e+06
1.58568e+06
1.38949e+06
1.21949e+06
1.07184e+06
943327
831260
733363
647700
572630
506758
448884
397980
353157
313652
278806
248052
220897
196915
175739
157058
140602
126149
113516
102566
93213.9
85431
79292.6
75046.7
73080.9
72751.8
70063.2
61544.8
50857.9
74290.5
158667
564117
8.8024e+09
1.56178e+09
5.56548e+08
2.72635e+08
8.21781e+07
1.36759e+08
1.10609e+08
8.0372e+07
5.91944e+07
4.51677e+07
3.5583e+07
2.87987e+07
2.38105e+07
1.99906e+07
1.69506e+07
1.44573e+07
1.23672e+07
1.05942e+07
9.07393e+06
7.75437e+06
6.60571e+06
5.5732e+06
4.67899e+06
3.89608e+06
3.30406e+06
2.85716e+06
2.4768e+06
2.35094e+06
2.06837e+06
1.81184e+06
1.58478e+06
1.38874e+06
1.21879e+06
1.07121e+06
942765
830755
732900
647275
572234
506379
448517
397620
352805
313306
278464
247709
220551
196562
175372
156664
140169
125653
112927
101839
92279.8
84191.7
77575.7
72545.6
69382
68167.5
67292.7
62580.5
52310.8
46614.3
74281.6
158678
564185
8.63634e+09
1.52456e+09
5.37094e+08
2.60996e+08
1.37121e+08
4.64737e+07
9.13394e+07
7.76822e+07
5.91243e+07
4.51721e+07
3.55849e+07
2.88049e+07
2.38192e+07
1.99987e+07
1.69598e+07
1.44723e+07
1.23866e+07
1.06084e+07
9.08771e+06
7.78162e+06
6.65019e+06
5.66904e+06
4.79614e+06
4.04074e+06
3.39319e+06
2.89298e+06
2.48489e+06
2.16233e+06
2.07872e+06
1.80537e+06
1.5842e+06
1.38795e+06
1.21813e+06
1.0706e+06
942214
830260
732453
646864
571855
506025
448176
397289
352480
312986
278148
247394
220234
196238
175038
156312
139785
125224
112428
101239
91530.1
83217.1
76269.2
70717.9
66717.5
64484.6
63580.5
61451.7
55082.6
43499
45285.3
74284.3
158687
564238
8.50103e+09
1.50058e+09
5.24274e+08
2.52764e+08
1.41239e+08
7.5505e+07
2.87163e+07
6.39652e+07
5.68276e+07
4.51039e+07
3.55874e+07
2.88058e+07
2.38238e+07
2.00055e+07
1.69664e+07
1.448e+07
1.23995e+07
1.06251e+07
9.10002e+06
7.79362e+06
6.6737e+06
5.70733e+06
4.87311e+06
4.13717e+06
3.49734e+06
2.95975e+06
2.53556e+06
2.16559e+06
1.89219e+06
1.83466e+06
1.57858e+06
1.38744e+06
1.21744e+06
1.07002e+06
941672
829773
732016
646468
571490
505687
447859
396982
352180
312690
277856
247105
219942
195942
174733
155994
139444
124847
112000
100734
90913
82437.8
75245.9
69332.5
64761.1
61706.7
60153.1
58999.2
55305.9
47309.9
36554.1
44998.4
74289.5
158696
564285
8.38525e+09
1.47886e+09
5.15647e+08
2.44992e+08
1.38715e+08
8.05899e+07
4.47533e+07
1.88583e+07
4.63584e+07
4.30343e+07
3.55224e+07
2.88069e+07
2.38239e+07
2.00088e+07
1.6972e+07
1.44854e+07
1.2406e+07
1.06362e+07
9.11459e+06
7.80427e+06
6.68417e+06
5.72759e+06
4.90565e+06
4.19884e+06
3.57708e+06
3.03347e+06
2.58573e+06
2.22452e+06
1.89106e+06
1.65947e+06
1.61845e+06
1.38255e+06
1.21698e+06
1.0694e+06
941161
829295
731585
646081
571139
505362
447556
396697
351902
312418
277586
246837
219675
195671
174455
155704
139137
124513
111626
100302
90396.5
81798.7
74430.3
68251.8
63283.3
59623.7
57374.2
56139.9
54137.9
49033.6
39248
32801.4
44949.1
74292.7
158702
564338
8.2876e+09
1.46013e+09
5.08659e+08
2.39305e+08
1.30884e+08
7.98459e+07
4.84994e+07
2.80674e+07
1.29635e+07
3.44882e+07
3.36057e+07
2.87473e+07
2.38243e+07
2.00087e+07
1.69745e+07
1.449e+07
1.24106e+07
1.06421e+07
9.12419e+06
7.81697e+06
6.69347e+06
5.73662e+06
4.92307e+06
4.22634e+06
3.62671e+06
3.09923e+06
2.63674e+06
2.2625e+06
1.95355e+06
1.65448e+06
1.4584e+06
1.42767e+06
1.21271e+06
1.06899e+06
940614
828842
731162
645699
570795
505049
447266
396426
351645
312167
277338
246590
219428
195423
174201
155440
138859
124214
111296
99926.3
89957.1
81266.4
73763.9
67392.9
62135.7
58037.9
55208.6
53538.8
52155.8
48921.4
42430.3
31778.5
31654.3
44942
74294.1
158710
564397
8.20341e+09
1.4447e+09
5.01799e+08
2.35415e+08
1.2443e+08
7.42662e+07
4.82511e+07
3.05525e+07
1.84014e+07
9.26214e+06
2.62175e+07
2.69723e+07
2.37727e+07
2.00088e+07
1.69741e+07
1.4492e+07
1.24144e+07
1.06458e+07
9.12921e+06
7.8252e+06
6.70436e+06
5.74465e+06
4.93075e+06
4.24109e+06
3.65001e+06
3.13935e+06
2.69077e+06
2.29669e+06
1.98269e+06
1.71724e+06
1.45013e+06
1.28419e+06
1.25948e+06
1.06526e+06
940253
828358
730761
645324
570456
504743
446987
396165
351401
311933
277109
246363
219201
195194
173969
155200
138606
123945
111003
99597.5
89577.1
80815.4
73211
66693.2
61225.5
56812.6
53524
51381.6
49974.1
47923.6
43516.1
35332
26658.2
31411.5
44941.5
74295.9
158720
564464
8.1298e+09
1.43138e+09
4.95967e+08
2.31854e+08
1.21194e+08
6.97138e+07
4.461e+07
3.04441e+07
2.00031e+07
1.25371e+07
6.85503e+06
2.03226e+07
2.21586e+07
1.99672e+07
1.69741e+07
1.44915e+07
1.24161e+07
1.0649e+07
9.13235e+06
7.82939e+06
6.71118e+06
5.75391e+06
4.93748e+06
4.24764e+06
3.66245e+06
3.15917e+06
2.72323e+06
2.34085e+06
2.00453e+06
1.74004e+06
1.51089e+06
1.27326e+06
1.13283e+06
1.11119e+06
936972
828035
730332
644968
570124
504442
446714
395916
351167
311713
276897
246153
218992
194983
173755
154981
138378
123701
110738
99306
89245.9
80427.3
72744.4
66114.9
60486.6
55841.9
52210.7
49644.8
47972
46412.4
43362
37775.9
28194.8
24525
31369.2
44942.3
74298.6
158727
564551
8.06446e+09
1.41979e+09
4.90821e+08
2.28766e+08
1.1848e+08
6.75689e+07
4.1664e+07
2.81096e+07
1.99411e+07
1.35665e+07
8.86398e+06
5.24075e+06
1.60524e+07
1.85415e+07
1.69438e+07
1.44914e+07
1.24155e+07
1.06504e+07
9.13511e+06
7.83207e+06
6.71466e+06
5.75954e+06
4.94534e+06
4.2533e+06
3.66807e+06
3.16973e+06
2.74011e+06
2.36709e+06
2.04041e+06
1.75293e+06
1.52921e+06
1.3305e+06
1.11984e+06
1.00095e+06
980427
825140
730041
644587
569807
504147
446446
395672
350943
311502
276697
245959
218798
194789
173558
154779
138169
123481
110501
99045.1
88953.7
80090.6
72344.6
65628.4
59877.4
55056.8
51168.1
48256
46264.9
44765
42598.8
38598.9
31447
22697.7
23995.7
31362.7
44943.2