/*--------------------------------*- C++ -*----------------------------------*\
| =========                 |                                                 |
| \\      /  F ield         | OpenFOAM: The Open Source CFD Toolbox           |
|  \\    /   O peration     | Version:  v2012                                 |
|   \\  /    A nd           | Website:  www.openfoam.com                      |
|    \\/     M anipulation  |                                                 |
\*---------------------------------------------------------------------------*/
FoamFile
{
    version     2.0;
    format      ascii;
    class       volScalarField;
    location    "13200";
    object      p;
}
// * * * * * * * * * * * * * * * * * * * * * * * * * * * * * * * * * * * * * //

dimensions      [1 -1 -2 0 0 0 0];


internalField   nonuniform List<scalar> 
31383
(
23913.8
23878.3
23913.7
23851.7
23878.3
23913.7
23841.8
23851.7
23878.3
23913.7
23838.9
23841.8
23851.7
23878.3
23913.7
23834
23838.9
23841.8
23851.7
23878.3
23913.7
23826.8
23834
23838.9
23841.8
23851.7
23878.3
23913.7
23822.4
23826.8
23834
23838.9
23841.8
23851.7
23878.3
23913.7
23821.9
23822.4
23826.8
23834
23838.9
23841.8
23851.7
23878.3
23913.7
23819.6
23821.9
23822.4
23826.8
23834
23838.9
23841.8
23851.7
23878.3
23913.7
23811.6
23819.6
23821.9
23822.4
23826.8
23834
23838.9
23841.8
23851.7
23878.3
23913.7
23797.9
23811.6
23819.6
23821.9
23822.4
23826.8
23834
23838.9
23841.8
23851.7
23878.3
23913.7
23779.5
23797.9
23811.6
23819.6
23821.9
23822.4
23826.8
23834
23838.9
23841.8
23851.7
23878.3
23913.8
23758.4
23779.5
23797.9
23811.6
23819.6
23821.9
23822.4
23826.8
23834
23838.9
23841.8
23851.7
23878.3
23913.8
23739.1
23758.4
23779.5
23797.9
23811.6
23819.6
23821.9
23822.4
23826.8
23834
23838.9
23841.8
23851.7
23878.3
23913.8
23722.2
23739.1
23758.4
23779.5
23797.9
23811.6
23819.6
23821.9
23822.4
23826.8
23834
23838.9
23841.8
23851.7
23878.3
23913.9
23707.4
23722.2
23739.1
23758.4
23779.5
23797.9
23811.6
23819.6
23821.9
23822.4
23826.8
23834
23838.9
23841.8
23851.7
23878.3
23914
23695.5
23707.4
23722.2
23739.1
23758.4
23779.5
23797.9
23811.6
23819.6
23821.9
23822.4
23826.8
23834
23838.9
23841.8
23851.7
23878.3
23914
23686.4
23695.5
23707.4
23722.2
23739.1
23758.4
23779.5
23797.9
23811.6
23819.6
23821.9
23822.4
23826.8
23834
23838.9
23841.8
23851.7
23878.3
23914.1
23679.7
23686.4
23695.5
23707.4
23722.2
23739.1
23758.4
23779.5
23797.9
23811.6
23819.6
23821.9
23822.4
23826.8
23834
23838.9
23841.8
23851.7
23878.3
23914.2
23675.1
23679.7
23686.4
23695.5
23707.4
23722.2
23739.1
23758.4
23779.5
23797.9
23811.6
23819.6
23821.9
23822.4
23826.8
23834
23838.9
23841.8
23851.7
23878.3
23914.3
23672.2
23675.1
23679.7
23686.4
23695.5
23707.4
23722.2
23739.1
23758.4
23779.5
23797.9
23811.6
23819.6
23821.9
23822.4
23826.8
23834
23838.9
23841.8
23851.7
23878.4
23914.4
23670.6
23672.2
23675.1
23679.7
23686.4
23695.5
23707.4
23722.2
23739.1
23758.4
23779.5
23797.9
23811.6
23819.6
23821.9
23822.4
23826.8
23834
23838.9
23841.8
23851.7
23878.4
23914.4
23670
23670.6
23672.2
23675.1
23679.7
23686.4
23695.5
23707.4
23722.2
23739.1
23758.4
23779.5
23797.9
23811.6
23819.6
23821.9
23822.4
23826.8
23834
23838.9
23841.8
23851.7
23878.4
23914.5
23669.9
23670
23670.6
23672.2
23675.1
23679.7
23686.4
23695.5
23707.4
23722.2
23739.1
23758.4
23779.5
23797.9
23811.6
23819.6
23821.9
23822.4
23826.8
23834
23838.9
23841.8
23851.7
23878.4
23914.7
23670
23669.9
23670
23670.6
23672.2
23675.1
23679.7
23686.4
23695.5
23707.4
23722.2
23739.1
23758.4
23779.5
23797.9
23811.6
23819.6
23821.9
23822.4
23826.8
23834
23838.9
23841.8
23851.7
23878.5
23914.8
23670
23670
23669.9
23670
23670.6
23672.2
23675.1
23679.7
23686.4
23695.5
23707.4
23722.2
23739.1
23758.4
23779.5
23797.9
23811.6
23819.6
23821.9
23822.4
23826.8
23834
23838.9
23841.8
23851.7
23878.5
23914.9
23670.2
23670
23670
23669.9
23670
23670.6
23672.2
23675.1
23679.7
23686.4
23695.5
23707.4
23722.2
23739.1
23758.4
23779.5
23797.9
23811.6
23819.6
23821.9
23822.4
23826.8
23834
23839
23841.8
23851.7
23878.5
23915
23671
23670.2
23670
23670
23669.9
23670
23670.6
23672.2
23675.1
23679.7
23686.4
23695.5
23707.4
23722.2
23739.1
23758.4
23779.5
23797.9
23811.6
23819.6
23821.9
23822.4
23826.8
23834
23839
23841.8
23851.7
23878.6
23915.1
23672.6
23671
23670.2
23670
23670
23669.9
23670
23670.6
23672.2
23675.1
23679.7
23686.4
23695.5
23707.4
23722.2
23739.1
23758.4
23779.5
23797.9
23811.6
23819.6
23821.9
23822.4
23826.8
23834
23839
23841.8
23851.7
23878.6
23915.2
23675.1
23672.6
23671
23670.2
23670
23670
23669.9
23670
23670.6
23672.2
23675.1
23679.7
23686.4
23695.5
23707.4
23722.2
23739.1
23758.4
23779.5
23797.9
23811.6
23819.6
23821.9
23822.4
23826.8
23834
23839
23841.8
23851.7
23878.7
23915.3
23678.6
23675.1
23672.6
23671
23670.2
23670
23670
23669.9
23670
23670.6
23672.2
23675.1
23679.7
23686.4
23695.5
23707.4
23722.2
23739.1
23758.4
23779.5
23797.9
23811.6
23819.6
23821.9
23822.4
23826.8
23834
23839
23841.8
23851.7
23878.8
23915.4
23683.2
23678.6
23675.1
23672.6
23671
23670.2
23670
23670
23669.9
23670
23670.6
23672.2
23675.1
23679.7
23686.4
23695.5
23707.4
23722.2
23739.1
23758.4
23779.5
23797.9
23811.6
23819.6
23821.9
23822.4
23826.8
23834
23839
23841.8
23851.7
23878.9
23915.5
23688.5
23683.2
23678.6
23675.1
23672.6
23671
23670.2
23670
23670
23669.9
23670
23670.6
23672.2
23675.1
23679.7
23686.4
23695.5
23707.4
23722.2
23739.1
23758.4
23779.5
23797.9
23811.6
23819.6
23821.9
23822.4
23826.9
23834
23839
23841.8
23851.7
23879
23915.6
23694.1
23688.5
23683.2
23678.6
23675.1
23672.6
23671
23670.2
23670
23670
23669.9
23670
23670.6
23672.2
23675.1
23679.7
23686.4
23695.5
23707.4
23722.2
23739.1
23758.4
23779.5
23797.9
23811.6
23819.6
23821.9
23822.4
23826.9
23834
23839
23841.8
23851.8
23879.1
23915.6
23699.9
23694.1
23688.5
23683.2
23678.6
23675.1
23672.6
23671
23670.2
23670
23670
23669.9
23670
23670.6
23672.2
23675.1
23679.7
23686.4
23695.5
23707.4
23722.2
23739.1
23758.4
23779.5
23797.9
23811.6
23819.6
23821.9
23822.4
23826.9
23834
23839
23841.8
23851.8
23879.3
23915.6
23705.6
23699.9
23694.1
23688.5
23683.2
23678.6
23675.1
23672.6
23671
23670.2
23670
23670
23669.9
23670
23670.6
23672.2
23675.1
23679.7
23686.4
23695.5
23707.4
23722.2
23739.1
23758.4
23779.5
23797.9
23811.6
23819.6
23821.9
23822.4
23826.9
23834
23839
23841.8
23851.8
23879.5
23915.7
23708.7
23705.6
23699.9
23694.1
23688.5
23683.2
23678.6
23675.1
23672.6
23671
23670.2
23670
23670
23669.9
23670
23670.6
23672.2
23675.1
23679.7
23686.4
23695.5
23707.4
23722.2
23739.1
23758.4
23779.5
23797.9
23811.6
23819.6
23821.9
23822.4
23826.9
23834
23839
23841.9
23851.8
23879.7
23915.7
23736.6
23708.7
23705.6
23699.9
23694.1
23688.5
23683.2
23678.6
23675.1
23672.6
23671
23670.2
23670
23670
23669.9
23670
23670.6
23672.2
23675.1
23679.7
23686.4
23695.5
23707.4
23722.2
23739.1
23758.4
23779.5
23797.9
23811.6
23819.6
23821.9
23822.4
23826.9
23834
23839
23841.9
23851.9
23879.9
23915.7
23752.5
23736.6
23708.7
23705.6
23699.9
23694.1
23688.5
23683.2
23678.6
23675.1
23672.6
23671
23670.2
23670
23670
23669.9
23670
23670.6
23672.2
23675.1
23679.7
23686.4
23695.5
23707.4
23722.2
23739.1
23758.4
23779.5
23797.9
23811.6
23819.6
23821.9
23822.4
23826.9
23834
23839
23841.9
23851.9
23880.2
23915.7
23736.2
23752.5
23736.6
23708.7
23705.6
23699.9
23694.1
23688.5
23683.2
23678.6
23675.1
23672.6
23671
23670.2
23670
23670
23669.9
23670
23670.6
23672.2
23675.1
23679.7
23686.4
23695.5
23707.4
23722.2
23739.1
23758.4
23779.5
23797.9
23811.6
23819.6
23821.9
23822.5
23826.9
23834
23839
23841.9
23852
23880.6
23915.6
23732.3
23736.2
23752.5
23736.6
23708.7
23705.6
23699.9
23694.1
23688.5
23683.2
23678.6
23675.1
23672.6
23671
23670.2
23670
23670
23669.9
23670
23670.6
23672.2
23675.1
23679.7
23686.4
23695.5
23707.4
23722.2
23739.1
23758.4
23779.5
23797.9
23811.6
23819.6
23821.9
23822.5
23826.9
23834
23839
23841.9
23852
23880.9
23915.4
23758.3
23732.3
23736.2
23752.5
23736.6
23708.7
23705.6
23699.9
23694.1
23688.5
23683.2
23678.6
23675.1
23672.6
23671
23670.2
23670
23670
23669.9
23670
23670.6
23672.2
23675.1
23679.7
23686.4
23695.5
23707.4
23722.2
23739.1
23758.4
23779.5
23797.9
23811.6
23819.6
23821.9
23822.5
23826.9
23834
23839
23841.9
23852.1
23881.3
23915.1
23748.9
23758.3
23732.3
23736.2
23752.5
23736.6
23708.7
23705.6
23699.9
23694.1
23688.5
23683.2
23678.6
23675.1
23672.6
23671
23670.2
23670
23670
23669.9
23670
23670.6
23672.2
23675.1
23679.7
23686.4
23695.5
23707.4
23722.2
23739.1
23758.4
23779.5
23797.9
23811.6
23819.6
23822
23822.5
23826.9
23834.1
23839.1
23842
23852.2
23881.6
23914
23728.5
23748.9
23758.2
23732.3
23736.2
23752.5
23736.6
23708.7
23705.6
23699.9
23694.1
23688.5
23683.2
23678.6
23675.1
23672.6
23671
23670.2
23670
23670
23669.9
23670
23670.6
23672.2
23675.2
23679.7
23686.4
23695.5
23707.4
23722.2
23739.1
23758.4
23779.5
23797.9
23811.6
23819.6
23822
23822.5
23826.9
23834.1
23839.1
23842
23852.3
23882
23912.9
23726
23728.5
23748.9
23758.2
23732.3
23736.2
23752.5
23736.6
23708.7
23705.6
23699.9
23694.1
23688.5
23683.2
23678.6
23675.1
23672.6
23671
23670.2
23670
23670
23669.9
23670
23670.6
23672.2
23675.2
23679.7
23686.4
23695.5
23707.4
23722.2
23739.1
23758.4
23779.5
23797.9
23811.6
23819.6
23822
23822.5
23826.9
23834.1
23839.1
23842
23852.4
23882.1
23911.5
23723.7
23726
23728.5
23748.9
23758.2
23732.3
23736.2
23752.5
23736.6
23708.7
23705.6
23699.9
23694.1
23688.4
23683.2
23678.6
23675.1
23672.6
23671
23670.2
23670
23670
23669.9
23670
23670.6
23672.2
23675.2
23679.7
23686.4
23695.5
23707.4
23722.2
23739.1
23758.4
23779.5
23797.9
23811.6
23819.6
23822
23822.5
23826.9
23834.1
23839.1
23842.1
23852.6
23882.6
23910.2
23724
23723.7
23726
23728.5
23748.9
23758.2
23732.3
23736.2
23752.5
23736.6
23708.7
23705.6
23699.9
23694.1
23688.4
23683.2
23678.6
23675.1
23672.6
23671
23670.2
23670
23670
23669.9
23670
23670.6
23672.2
23675.2
23679.7
23686.5
23695.5
23707.4
23722.2
23739.1
23758.4
23779.5
23797.9
23811.6
23819.6
23822
23822.5
23827
23834.1
23839.2
23842.1
23852.7
23883.3
23909.2
23724.9
23724
23723.7
23726
23728.5
23748.9
23758.2
23732.3
23736.2
23752.5
23736.6
23708.7
23705.6
23699.8
23694.1
23688.4
23683.2
23678.6
23675.1
23672.6
23671
23670.2
23670
23670
23669.9
23670
23670.6
23672.2
23675.2
23679.7
23686.5
23695.5
23707.4
23722.2
23739.1
23758.4
23779.5
23797.9
23811.6
23819.6
23822
23822.5
23827
23834.2
23839.2
23842.2
23852.9
23884.3
23908.3
23724.5
23724.9
23724
23723.7
23726
23728.5
23748.9
23758.2
23732.3
23736.2
23752.5
23736.6
23708.7
23705.5
23699.8
23694.1
23688.4
23683.2
23678.6
23675.1
23672.6
23671
23670.2
23670
23670
23669.9
23670
23670.6
23672.2
23675.2
23679.7
23686.5
23695.5
23707.4
23722.2
23739.1
23758.5
23779.5
23797.9
23811.7
23819.7
23822
23822.6
23827
23834.2
23839.3
23842.3
23853.1
23884.8
23907.1
23724.9
23724.5
23724.9
23724
23723.7
23726
23728.4
23748.9
23758.2
23732.2
23736.2
23752.5
23736.6
23708.7
23705.5
23699.8
23694.1
23688.4
23683.2
23678.6
23675.1
23672.6
23671
23670.2
23670
23670
23669.9
23670
23670.6
23672.2
23675.2
23679.7
23686.5
23695.5
23707.4
23722.2
23739.1
23758.5
23779.6
23797.9
23811.7
23819.7
23822
23822.6
23827
23834.2
23839.3
23842.4
23853.3
23885
23905.5
23724.2
23724.9
23724.5
23724.9
23724
23723.7
23726
23728.4
23748.9
23758.2
23732.2
23736.2
23752.5
23736.6
23708.7
23705.5
23699.8
23694
23688.4
23683.2
23678.6
23675.1
23672.6
23671
23670.2
23670
23670
23669.9
23670
23670.6
23672.2
23675.2
23679.7
23686.5
23695.5
23707.4
23722.3
23739.1
23758.5
23779.6
23797.9
23811.7
23819.7
23822.1
23822.6
23827.1
23834.3
23839.4
23842.6
23853.7
23885.1
23904
23724.3
23724.2
23724.9
23724.5
23724.9
23724
23723.7
23726
23728.4
23748.9
23758.2
23732.2
23736.2
23752.5
23736.6
23708.7
23705.5
23699.8
23694
23688.4
23683.2
23678.6
23675.1
23672.6
23671
23670.2
23670
23670
23669.9
23670
23670.6
23672.2
23675.2
23679.7
23686.5
23695.5
23707.4
23722.3
23739.1
23758.5
23779.6
23797.9
23811.7
23819.7
23822.1
23822.6
23827.1
23834.3
23839.4
23842.8
23854.1
23885
23902
23724.3
23724.3
23724.2
23724.9
23724.5
23724.9
23724
23723.7
23726
23728.4
23748.9
23758.2
23732.3
23736.2
23752.5
23736.6
23708.7
23705.5
23699.8
23694
23688.4
23683.2
23678.6
23675.1
23672.6
23671
23670.2
23670
23670
23669.9
23670
23670.6
23672.2
23675.2
23679.7
23686.5
23695.5
23707.4
23722.3
23739.1
23758.5
23779.6
23798
23811.7
23819.7
23822.1
23822.7
23827.1
23834.4
23839.5
23843
23854.6
23885.3
23900.5
23725
23724.4
23724.3
23724.2
23724.9
23724.5
23724.9
23724
23723.7
23726
23728.4
23748.9
23758.2
23732.3
23736.2
23752.5
23736.6
23708.7
23705.5
23699.8
23694
23688.4
23683.2
23678.6
23675.1
23672.6
23671
23670.2
23670
23670
23669.9
23670
23670.6
23672.2
23675.2
23679.7
23686.5
23695.5
23707.4
23722.3
23739.2
23758.5
23779.6
23798
23811.7
23819.7
23822.1
23822.7
23827.2
23834.4
23839.7
23843.3
23855.2
23885.1
23898.7
23725.2
23725
23724.4
23724.3
23724.2
23724.9
23724.5
23724.9
23724
23723.7
23726
23728.4
23748.9
23758.2
23732.3
23736.2
23752.5
23736.6
23708.7
23705.5
23699.8
23694
23688.4
23683.2
23678.6
23675.1
23672.6
23671
23670.2
23670
23670
23669.9
23670
23670.6
23672.2
23675.2
23679.7
23686.5
23695.5
23707.5
23722.3
23739.2
23758.5
23779.6
23798
23811.7
23819.8
23822.2
23822.7
23827.2
23834.5
23839.8
23843.6
23856
23885.2
23896.8
23725.4
23725.2
23725
23724.4
23724.3
23724.2
23724.9
23724.5
23724.9
23724
23723.7
23726
23728.4
23748.9
23758.2
23732.3
23736.2
23752.5
23736.6
23708.7
23705.5
23699.8
23694
23688.4
23683.2
23678.6
23675.1
23672.6
23671
23670.2
23670
23670
23669.9
23670
23670.6
23672.2
23675.2
23679.7
23686.5
23695.5
23707.5
23722.3
23739.2
23758.5
23779.6
23798
23811.8
23819.8
23822.2
23822.8
23827.3
23834.6
23840
23844
23856.9
23885.1
23894.7
23725.8
23725.4
23725.2
23725
23724.4
23724.3
23724.2
23724.9
23724.5
23724.9
23724
23723.7
23726
23728.4
23748.9
23758.2
23732.3
23736.2
23752.5
23736.6
23708.7
23705.5
23699.8
23694
23688.4
23683.2
23678.6
23675.1
23672.6
23671
23670.2
23670
23670
23669.9
23670
23670.6
23672.2
23675.2
23679.7
23686.5
23695.5
23707.5
23722.3
23739.2
23758.5
23779.6
23798
23811.8
23819.8
23822.2
23822.8
23827.4
23834.7
23840.3
23844.3
23857.7
23885.1
23892.5
23724.1
23725.8
23725.4
23725.2
23725
23724.4
23724.3
23724.2
23724.9
23724.5
23724.9
23724
23723.7
23726
23728.4
23748.9
23758.2
23732.3
23736.2
23752.5
23736.6
23708.7
23705.5
23699.8
23694
23688.4
23683.2
23678.6
23675.1
23672.6
23671
23670.2
23670
23670
23669.9
23670
23670.6
23672.2
23675.2
23679.8
23686.5
23695.5
23707.5
23722.3
23739.2
23758.5
23779.7
23798.1
23811.8
23819.9
23822.3
23822.9
23827.5
23834.9
23840.5
23844.7
23858.2
23885.5
23890
23739.8
23724.1
23725.8
23725.4
23725.2
23725
23724.3
23724.3
23724.2
23724.9
23724.4
23724.9
23724
23723.7
23726
23728.4
23748.9
23758.2
23732.3
23736.2
23752.5
23736.6
23708.7
23705.5
23699.8
23694
23688.4
23683.2
23678.6
23675.1
23672.6
23671
23670.2
23670
23670
23669.9
23670
23670.6
23672.2
23675.2
23679.8
23686.5
23695.6
23707.5
23722.3
23739.2
23758.6
23779.7
23798.1
23811.9
23819.9
23822.4
23823
23827.6
23835.1
23840.9
23845.2
23858.1
23885.7
23887.3
24413.1
23739.8
23724.1
23725.8
23725.4
23725.2
23725
23724.3
23724.3
23724.2
23724.9
23724.4
23724.8
23724
23723.7
23726
23728.4
23748.9
23758.2
23732.3
23736.1
23752.6
23736.6
23708.7
23705.5
23699.8
23694
23688.4
23683.2
23678.6
23675.1
23672.6
23671
23670.2
23670
23670
23669.9
23670
23670.6
23672.2
23675.2
23679.8
23686.5
23695.6
23707.5
23722.3
23739.2
23758.6
23779.7
23798.1
23811.9
23820
23822.4
23823.1
23827.7
23835.3
23841.3
23846
23858.1
23885.7
23884.3
30298.9
24413.2
23739.8
23724.1
23725.8
23725.4
23725.2
23725
23724.3
23724.3
23724.2
23724.9
23724.4
23724.8
23724
23723.7
23726
23728.4
23748.8
23758.2
23732.3
23736.1
23752.6
23736.6
23708.7
23705.5
23699.8
23694
23688.4
23683.2
23678.6
23675.1
23672.6
23671
23670.2
23670
23670
23669.9
23670
23670.6
23672.2
23675.2
23679.8
23686.5
23695.6
23707.5
23722.4
23739.3
23758.6
23779.7
23798.2
23812
23820
23822.5
23823.2
23827.9
23835.6
23841.7
23846.8
23858
23885.9
23881.1
39639.6
30298.8
24413.1
23739.8
23724.1
23725.8
23725.4
23725.2
23725
23724.3
23724.3
23724.2
23724.9
23724.4
23724.8
23724
23723.7
23725.9
23728.4
23748.8
23758.2
23732.3
23736.1
23752.6
23736.6
23708.7
23705.5
23699.8
23694
23688.4
23683.2
23678.6
23675.1
23672.6
23671
23670.2
23670
23670
23669.9
23670
23670.6
23672.2
23675.2
23679.8
23686.5
23695.6
23707.5
23722.4
23739.3
23758.6
23779.8
23798.2
23812
23820.1
23822.6
23823.3
23828.1
23835.9
23842.1
23847.8
23858.2
23885.6
23877.3
44232.3
39639.5
30298.6
24413.1
23739.8
23724.1
23725.8
23725.4
23725.2
23725
23724.3
23724.3
23724.2
23724.9
23724.4
23724.8
23724
23723.7
23725.9
23728.4
23748.8
23758.3
23732.3
23736.1
23752.6
23736.7
23708.7
23705.5
23699.8
23694
23688.4
23683.2
23678.6
23675.1
23672.6
23671
23670.2
23670
23670
23669.9
23670
23670.6
23672.3
23675.2
23679.8
23686.5
23695.6
23707.6
23722.4
23739.3
23758.7
23779.8
23798.2
23812.1
23820.2
23822.7
23823.5
23828.4
23836.3
23842.4
23848
23858.5
23885.7
23873.1
46780.1
44232.3
39639.3
30298.4
24413
23739.8
23724.1
23725.8
23725.4
23725.2
23725
23724.3
23724.3
23724.2
23724.8
23724.4
23724.8
23724
23723.6
23725.9
23728.4
23748.8
23758.3
23732.3
23736
23752.6
23736.7
23708.7
23705.5
23699.8
23694
23688.4
23683.2
23678.6
23675.1
23672.7
23671
23670.2
23670
23670
23670
23670
23670.6
23672.3
23675.2
23679.8
23686.6
23695.6
23707.6
23722.4
23739.4
23758.7
23779.9
23798.3
23812.2
23820.3
23822.9
23823.7
23828.7
23836.8
23843.3
23847.9
23859
23885.7
23868.4
48375.6
46780
44232.2
39639.1
30298.2
24412.9
23739.8
23724.1
23725.8
23725.4
23725.2
23725
23724.3
23724.3
23724.2
23724.8
23724.4
23724.8
23724
23723.6
23725.9
23728.4
23748.8
23758.3
23732.3
23736
23752.7
23736.7
23708.7
23705.5
23699.8
23694
23688.4
23683.2
23678.6
23675.1
23672.7
23671
23670.2
23670
23670
23670
23670
23670.7
23672.3
23675.2
23679.8
23686.6
23695.7
23707.6
23722.5
23739.4
23758.8
23779.9
23798.4
23812.2
23820.4
23823
23823.9
23829
23837.2
23844.1
23847.1
23859.4
23885.7
23863.2
49691.7
48375.6
46780
44232.1
39638.9
30297.9
24412.8
23739.8
23724.1
23725.8
23725.4
23725.2
23725
23724.3
23724.3
23724.2
23724.8
23724.4
23724.8
23723.9
23723.6
23725.9
23728.3
23748.8
23758.3
23732.3
23736
23752.7
23736.7
23708.7
23705.5
23699.8
23694
23688.4
23683.2
23678.6
23675.1
23672.7
23671.1
23670.2
23670
23670
23670
23670
23670.7
23672.3
23675.3
23679.8
23686.6
23695.7
23707.6
23722.5
23739.4
23758.8
23780
23798.5
23812.3
23820.6
23823.2
23824.2
23829.4
23837.5
23845.2
23847.1
23859.9
23885.6
23857.4
50647.2
49691.7
48375.5
46779.9
44231.9
39638.6
30297.6
24412.7
23739.8
23724.1
23725.8
23725.4
23725.2
23725
23724.3
23724.3
23724.2
23724.8
23724.4
23724.8
23723.9
23723.6
23725.9
23728.3
23748.8
23758.3
23732.3
23735.9
23752.7
23736.7
23708.7
23705.5
23699.8
23694
23688.4
23683.2
23678.6
23675.1
23672.7
23671.1
23670.2
23670
23670
23670
23670
23670.7
23672.3
23675.3
23679.9
23686.6
23695.7
23707.7
23722.5
23739.5
23758.9
23780.1
23798.6
23812.5
23820.7
23823.4
23824.5
23829.9
23838.1
23845
23847.1
23860.4
23885.6
23850.9
51453
50647.2
49691.7
48375.5
46779.8
44231.8
39638.3
30297.1
24412.5
23739.8
23724.1
23725.8
23725.4
23725.2
23725
23724.3
23724.3
23724.2
23724.8
23724.4
23724.8
23723.9
23723.6
23725.9
23728.3
23748.8
23758.3
23732.3
23735.9
23752.8
23736.7
23708.7
23705.5
23699.8
23694
23688.4
23683.2
23678.6
23675.1
23672.7
23671.1
23670.2
23670
23670
23670
23670.1
23670.7
23672.3
23675.3
23679.9
23686.7
23695.7
23707.7
23722.6
23739.5
23759
23780.2
23798.7
23812.6
23820.9
23823.7
23824.9
23830.2
23839.2
23844.4
23847.3
23861
23885.6
23843.8
52161
51453
50647.2
49691.6
48375.4
46779.7
44231.7
39638
30296.8
24412.4
23739.8
23724.1
23725.8
23725.4
23725.2
23725
23724.3
23724.3
23724.2
23724.8
23724.4
23724.8
23723.9
23723.6
23725.9
23728.3
23748.8
23758.3
23732.2
23735.9
23752.8
23736.7
23708.7
23705.5
23699.8
23694
23688.4
23683.2
23678.6
23675.1
23672.7
23671.1
23670.2
23670
23670
23670
23670.1
23670.7
23672.3
23675.3
23679.9
23686.7
23695.8
23707.8
23722.6
23739.6
23759
23780.3
23798.8
23812.8
23821.1
23824
23825.4
23830.5
23840.2
23843.9
23847.5
23861.6
23885.5
23835.8
52775.8
52161
51453
50647.1
49691.6
48375.3
46779.6
44231.5
39637.5
30296.3
24412.2
23739.8
23724.1
23725.8
23725.4
23725.2
23725
23724.3
23724.3
23724.2
23724.8
23724.4
23724.8
23723.9
23723.6
23725.9
23728.3
23748.8
23758.3
23732.2
23735.9
23752.8
23736.7
23708.7
23705.5
23699.8
23694
23688.4
23683.2
23678.6
23675.1
23672.7
23671.1
23670.2
23670.1
23670.1
23670
23670.1
23670.7
23672.4
23675.3
23679.9
23686.7
23695.8
23707.8
23722.7
23739.7
23759.1
23780.4
23798.9
23813
23821.4
23824.4
23825.8
23831.3
23840
23844
23847.7
23862.3
23885.4
23827.9
53318
52775.8
52161
51452.9
50647.1
49691.5
48375.3
46779.5
44231.3
39637.1
30295.9
24412
23739.8
23724.1
23725.8
23725.4
23725.2
23725
23724.3
23724.3
23724.1
23724.8
23724.3
23724.7
23723.9
23723.6
23725.8
23728.3
23748.7
23758.3
23732.2
23735.8
23752.8
23736.7
23708.7
23705.5
23699.8
23694
23688.4
23683.2
23678.6
23675.1
23672.7
23671.1
23670.2
23670.1
23670.1
23670
23670.1
23670.7
23672.4
23675.4
23680
23686.8
23695.9
23707.9
23722.8
23739.8
23759.2
23780.5
23799.1
23813.2
23821.7
23824.8
23826
23832.8
23838.8
23844.1
23848
23863.1
23885.2
23818.8
53801.8
53318
52775.8
52160.9
51452.9
50647
49691.5
48375.1
46779.4
44231.1
39636.6
30295.4
24411.7
23739.7
23724.1
23725.8
23725.4
23725.2
23725
23724.3
23724.3
23724.1
23724.8
23724.3
23724.7
23723.9
23723.5
23725.8
23728.2
23748.7
23758.4
23732.2
23735.8
23752.9
23736.8
23708.7
23705.5
23699.8
23694
23688.4
23683.2
23678.6
23675.1
23672.7
23671.1
23670.2
23670.1
23670.1
23670
23670.1
23670.8
23672.4
23675.4
23680
23686.8
23695.9
23707.9
23722.9
23739.9
23759.4
23780.7
23799.3
23813.5
23822.1
23825.3
23826.7
23833.2
23838.7
23844.2
23848.3
23863.9
23884.9
23808.9
54238.8
53801.8
53317.9
52775.8
52160.9
51452.8
50647
49691.4
48375
46779.2
44230.9
39636.2
30295
24411.4
23739.7
23724.1
23725.8
23725.4
23725.2
23725
23724.3
23724.2
23724.1
23724.8
23724.3
23724.7
23723.8
23723.5
23725.8
23728.2
23748.7
23758.4
23732.2
23735.8
23752.9
23736.8
23708.7
23705.5
23699.8
23694
23688.4
23683.2
23678.6
23675.1
23672.7
23671.1
23670.3
23670.1
23670.1
23670.1
23670.1
23670.8
23672.4
23675.4
23680.1
23686.9
23696
23708
23723
23740
23759.5
23780.8
23799.5
23813.8
23822.5
23825.5
23828.1
23831.9
23838.7
23844.4
23848.6
23864.8
23884.5
23797.8
54634.6
54238.8
53801.8
53317.9
52775.7
52160.8
51452.8
50646.9
49691.3
48374.9
46779.1
44230.7
39635.6
30294.4
24411.2
23739.7
23724.1
23725.8
23725.4
23725.2
23725
23724.3
23724.2
23724.1
23724.7
23724.3
23724.7
23723.8
23723.5
23725.8
23728.2
23748.7
23758.4
23732.2
23735.8
23752.9
23736.8
23708.7
23705.5
23699.8
23694
23688.5
23683.2
23678.7
23675.2
23672.7
23671.1
23670.3
23670.1
23670.1
23670.1
23670.2
23670.8
23672.5
23675.5
23680.1
23686.9
23696.1
23708.1
23723.1
23740.2
23759.7
23781
23799.8
23814.1
23822.9
23825.9
23829
23831.5
23838.8
23844.6
23849
23865.7
23884
23785.6
54993.4
54634.6
54238.8
53801.7
53317.9
52775.7
52160.8
51452.7
50646.8
49691.2
48374.8
46778.9
44230.5
39635.2
30293.9
24410.8
23739.7
23724.1
23725.8
23725.4
23725.2
23725
23724.3
23724.2
23724.1
23724.7
23724.3
23724.7
23723.8
23723.5
23725.8
23728.2
23748.7
23758.4
23732.1
23735.8
23752.9
23736.8
23708.7
23705.5
23699.8
23694.1
23688.5
23683.2
23678.7
23675.2
23672.7
23671.1
23670.3
23670.1
23670.1
23670.1
23670.2
23670.9
23672.5
23675.5
23680.2
23687
23696.2
23708.2
23723.2
23740.3
23759.9
23781.3
23800.1
23814.5
23823.1
23827.7
23827.6
23831.6
23838.9
23844.8
23849.5
23866.7
23883.3
23772.2
55319.8
54993.3
54634.5
54238.8
53801.7
53317.8
52775.6
52160.7
51452.7
50646.7
49691.1
48374.7
46778.8
44230.2
39634.7
30293.3
24410.6
23739.7
23724.1
23725.8
23725.4
23725.2
23725
23724.3
23724.2
23724.1
23724.7
23724.3
23724.7
23723.8
23723.5
23725.8
23728.1
23748.7
23758.4
23732.1
23735.9
23752.9
23736.9
23708.7
23705.5
23699.8
23694.1
23688.5
23683.3
23678.7
23675.2
23672.7
23671.1
23670.3
23670.1
23670.2
23670.1
23670.2
23670.9
23672.6
23675.6
23680.3
23687.1
23696.3
23708.4
23723.4
23740.5
23760.1
23781.6
23800.5
23814.9
23823.3
23828.5
23827.2
23831.8
23839
23845
23850.1
23867.7
23882.5
23756.5
55616.2
55319.8
54993.3
54634.5
54238.7
53801.7
53317.8
52775.5
52160.6
51452.6
50646.6
49691
48374.5
46778.5
44230
39634.2
30292.6
24410.2
23739.8
23724.1
23725.8
23725.4
23725.1
23725
23724.2
23724.2
23724.1
23724.7
23724.3
23724.7
23723.8
23723.5
23725.7
23728.1
23748.7
23758.4
23732.1
23735.9
23752.9
23736.9
23708.7
23705.5
23699.8
23694.1
23688.5
23683.3
23678.7
23675.2
23672.8
23671.2
23670.3
23670.2
23670.2
23670.2
23670.3
23670.9
23672.6
23675.7
23680.3
23687.2
23696.4
23708.5
23723.5
23740.7
23760.4
23781.9
23800.9
23815.1
23825.7
23826.8
23827.3
23831.9
23839.1
23845.2
23850.8
23868.8
23881.2
23739.7
55886
55616.2
55319.8
54993.3
54634.5
54238.7
53801.6
53317.7
52775.5
52160.6
51452.5
50646.5
49690.8
48374.4
46778.4
44229.7
39633.7
30292
24409.8
23739.8
23724.1
23725.8
23725.4
23725.1
23724.9
23724.2
23724.2
23724.1
23724.7
23724.2
23724.6
23723.8
23723.4
23725.7
23728.1
23748.7
23758.4
23732
23735.9
23752.9
23736.9
23708.7
23705.5
23699.9
23694.1
23688.5
23683.3
23678.7
23675.2
23672.8
23671.2
23670.3
23670.2
23670.2
23670.2
23670.3
23671
23672.7
23675.8
23680.4
23687.3
23696.5
23708.7
23723.7
23741
23760.7
23782.2
23801.1
23815.7
23825.4
23826.5
23827.5
23832.1
23839.2
23845.5
23851.6
23869.8
23879.4
23721.4
56131.1
55886
55616.2
55319.7
54993.2
54634.4
54238.6
53801.6
53317.6
52775.4
52160.5
51452.4
50646.4
49690.7
48374.2
46778.2
44229.4
39633.2
30291.1
24409.4
23739.8
23724.1
23725.8
23725.4
23725.1
23724.9
23724.2
23724.2
23724.1
23724.7
23724.2
23724.6
23723.8
23723.4
23725.7
23728.1
23748.7
23758.4
23731.9
23736
23752.9
23737
23708.7
23705.6
23699.9
23694.1
23688.5
23683.3
23678.7
23675.2
23672.8
23671.2
23670.4
23670.2
23670.3
23670.3
23670.4
23671.1
23672.8
23675.8
23680.5
23687.4
23696.7
23708.8
23724
23741.3
23761
23782.7
23801.3
23818
23823.9
23826.6
23827.8
23832.3
23839.4
23845.8
23852.5
23870.8
23876.7
23701.8
56354.3
56131.1
55886
55616.2
55319.7
54993.2
54634.4
54238.6
53801.5
53317.6
52775.3
52160.4
51452.3
50646.3
49690.5
48374
46777.9
44229.2
39632.7
30290.2
24409
23739.8
23724.1
23725.8
23725.4
23725.1
23724.9
23724.2
23724.2
23724
23724.7
23724.2
23724.6
23723.7
23723.4
23725.7
23728.1
23748.7
23758.4
23731.9
23736.1
23752.8
23737
23708.7
23705.6
23699.9
23694.2
23688.6
23683.3
23678.7
23675.2
23672.8
23671.2
23670.4
23670.3
23670.3
23670.3
23670.4
23671.1
23672.9
23675.9
23680.7
23687.6
23696.9
23709.1
23724.3
23741.6
23761.5
23782.9
23803.2
23816.6
23823.5
23826.7
23828.1
23832.5
23839.5
23846.2
23853.7
23871.6
23873.1
23681.2
56558.4
56354.3
56131.1
55886
55616.1
55319.7
54993.2
54634.3
54238.5
53801.4
53317.5
52775.3
52160.3
51452.2
50646.2
49690.3
48373.8
46777.7
44228.9
39632.3
30289.3
24408.6
23739.8
23724.1
23725.8
23725.4
23725.1
23724.9
23724.2
23724.2
23724
23724.7
23724.2
23724.6
23723.7
23723.4
23725.6
23728.1
23748.8
23758.3
23731.8
23736.3
23752.8
23737.1
23708.7
23705.6
23699.9
23694.2
23688.6
23683.3
23678.8
23675.3
23672.8
23671.3
23670.4
23670.3
23670.4
23670.4
23670.5
23671.2
23673
23676.1
23680.8
23687.8
23697.1
23709.3
23724.6
23742
23761.7
23783
23803.8
23815.6
23823.5
23826.9
23828.4
23832.7
23839.6
23846.6
23855.1
23872.1
23867.6
23659.9
56745.6
56558.4
56354.3
56131.1
55885.9
55616.1
55319.6
54993.1
54634.3
54238.4
53801.3
53317.4
52775.2
52160.2
51452.1
50646
49690.1
48373.6
46777.4
44228.5
39632.1
30288.3
24408.1
23739.8
23724.1
23725.8
23725.3
23725.1
23724.9
23724.2
23724.1
23724
23724.6
23724.2
23724.6
23723.7
23723.4
23725.6
23728.1
23748.8
23758.3
23731.7
23736.4
23752.8
23737.2
23708.8
23705.6
23700
23694.2
23688.6
23683.4
23678.8
23675.3
23672.9
23671.3
23670.5
23670.4
23670.4
23670.4
23670.6
23671.3
23673.1
23676.2
23681
23688
23697.3
23709.6
23724.9
23742.5
23761.9
23785.8
23802.3
23815.3
23823.5
23827
23828.8
23833
23839.8
23847.1
23856.8
23872.2
23860.7
23638.4
56918
56745.6
56558.3
56354.3
56131.1
55885.9
55616
55319.6
54993
54634.2
54238.4
53801.3
53317.3
52775
52160.1
51451.9
50645.8
49689.9
48373.3
46777.2
44228.3
39632
30287.2
24407.6
23739.9
23724.1
23725.8
23725.3
23725.1
23724.9
23724.2
23724.1
23724
23724.6
23724.2
23724.6
23723.7
23723.3
23725.6
23728.1
23748.9
23758.3
23731.7
23736.6
23752.7
23737
23708.8
23705.6
23700
23694.2
23688.6
23683.4
23678.8
23675.3
23672.9
23671.3
23670.5
23670.4
23670.5
23670.5
23670.7
23671.4
23673.2
23676.4
23681.2
23688.2
23697.6
23710
23725.4
23742.7
23763.7
23784.6
23801.2
23815.4
23823.5
23827.2
23829.2
23833.3
23839.9
23847.7
23858.8
23872.1
23851.2
23617.3
57077.4
56918
56745.5
56558.3
56354.2
56131
55885.9
55616
55319.5
54993
54634.1
54238.3
53801.2
53317.2
52774.9
52160
51451.8
50645.7
49689.7
48373.1
46776.9
44227.9
39632
30285.9
24407
23739.9
23724.1
23725.8
23725.3
23725.1
23724.9
23724.2
23724.1
23724
23724.6
23724.2
23724.6
23723.7
23723.3
23725.6
23728.1
23748.9
23758.2
23731.6
23736.9
23752.6
23737
23708.8
23705.7
23700
23694.2
23688.7
23683.4
23678.8
23675.3
23672.9
23671.4
23670.6
23670.5
23670.6
23670.6
23670.8
23671.6
23673.4
23676.6
23681.4
23688.5
23698
23710.4
23725.7
23742.8
23764.7
23783.2
23801.5
23815.3
23823.5
23827.4
23829.7
23833.7
23840.1
23848.4
23860.8
23872
23838.4
23597.3
57225.4
57077.4
56917.9
56745.5
56558.3
56354.2
56131
55885.8
55615.9
55319.4
54992.9
54634
54238.2
53801.1
53317.1
52774.8
52159.8
51451.6
50645.4
49689.4
48372.8
46776.5
44227.5
39632.1
30284.4
24406.3
23739.9
23724.1
23725.8
23725.3
23725.1
23724.9
23724.2
23724.1
23724
23724.6
23724.2
23724.5
23723.7
23723.3
23725.5
23728.1
23749
23758.2
23731.6
23737.2
23752.5
23737
23708.8
23705.7
23700
23694.3
23688.7
23683.4
23678.9
23675.4
23673
23671.4
23670.6
23670.5
23670.6
23670.7
23670.9
23671.7
23673.6
23676.8
23681.7
23688.8
23698.4
23710.8
23725.7
23745.9
23763.1
23782.8
23801.4
23815.3
23823.5
23827.6
23830.3
23834.1
23840.3
23849.4
23862.9
23871.5
23819.3
23578.9
57363.6
57225.4
57077.3
56917.9
56745.5
56558.3
56354.1
56130.9
55885.8
55615.9
55319.4
54992.8
54634
54238.1
53801
53317
52774.7
52159.6
51451.4