/*--------------------------------*- C++ -*----------------------------------*\
| =========                 |                                                 |
| \\      /  F ield         | OpenFOAM: The Open Source CFD Toolbox           |
|  \\    /   O peration     | Version:  v2012                                 |
|   \\  /    A nd           | Website:  www.openfoam.com                      |
|    \\/     M anipulation  |                                                 |
\*---------------------------------------------------------------------------*/
FoamFile
{
    version     2.0;
    format      ascii;
    class       volScalarField;
    location    "13200";
    object      p1;
}
// * * * * * * * * * * * * * * * * * * * * * * * * * * * * * * * * * * * * * //

dimensions      [0 1 0 0 0 0 0];


internalField   nonuniform List<scalar> 
31383
(
4.91014e-11
4.93138e-11
1.2118e-10
4.75032e-11
1.62847e-10
2.92803e-10
4.61789e-11
1.56174e-10
9.64683e-10
9.30084e-10
4.51847e-11
1.51234e-10
9.21715e-10
3.93547e-09
2.60927e-09
4.43598e-11
1.47525e-10
8.89609e-10
3.75922e-09
1.1551e-08
6.20115e-09
4.36539e-11
1.44445e-10
8.65472e-10
3.62727e-09
1.10355e-08
2.76362e-08
1.30679e-08
4.30566e-11
1.41822e-10
8.4541e-10
3.52807e-09
1.0649e-08
2.64176e-08
5.76396e-08
2.53023e-08
4.25493e-11
1.39603e-10
8.2837e-10
3.44555e-09
1.03582e-08
2.55013e-08
5.51621e-08
1.08619e-07
4.6063e-08
4.20989e-11
1.37719e-10
8.13959e-10
3.37548e-09
1.01161e-08
2.48111e-08
5.329e-08
1.0416e-07
1.88552e-07
8.00043e-08
4.16903e-11
1.36057e-10
8.01706e-10
3.3162e-09
9.9105e-09
2.42358e-08
5.1877e-08
1.00765e-07
1.81369e-07
3.04805e-07
1.33743e-07
4.13086e-11
1.34547e-10
7.90956e-10
3.26581e-09
9.73653e-09
2.3747e-08
5.0697e-08
9.81936e-08
1.75834e-07
2.9441e-07
4.62426e-07
2.16218e-07
4.09546e-11
1.33139e-10
7.8117e-10
3.2216e-09
9.58861e-09
2.33331e-08
4.9693e-08
9.604e-08
1.71622e-07
2.86254e-07
4.48834e-07
6.63486e-07
3.38779e-07
4.06244e-11
1.31833e-10
7.72047e-10
3.18137e-09
9.45883e-09
2.29809e-08
4.88426e-08
9.42032e-08
1.68078e-07
2.80015e-07
4.37909e-07
6.47259e-07
9.08067e-07
5.14455e-07
4.03251e-11
1.30616e-10
7.63595e-10
3.14387e-09
9.34073e-09
2.26717e-08
4.8118e-08
9.26452e-08
1.65042e-07
2.7473e-07
4.29509e-07
6.33806e-07
8.9018e-07
1.19604e-06
7.56661e-07
4.00549e-11
1.29517e-10
7.55729e-10
3.10912e-09
9.23063e-09
2.23907e-08
4.74816e-08
9.13159e-08
1.62468e-07
2.70174e-07
4.22333e-07
6.2341e-07
8.74714e-07
1.1777e-06
1.52894e-06
1.07855e-06
3.9813e-11
1.28529e-10
7.4864e-10
3.07676e-09
9.12862e-09
2.21284e-08
4.69024e-08
9.01467e-08
1.60263e-07
2.66314e-07
4.16097e-07
6.14449e-07
8.62711e-07
1.16081e-06
1.51123e-06
1.91213e-06
1.48869e-06
3.95951e-11
1.27642e-10
7.42273e-10
3.04763e-09
9.03361e-09
2.18856e-08
4.63618e-08
8.9082e-08
1.5832e-07
2.62993e-07
4.10828e-07
6.06604e-07
8.52258e-07
1.14766e-06
1.49328e-06
1.89568e-06
2.35399e-06
1.98423e-06
3.94021e-11
1.26846e-10
7.36548e-10
3.02145e-09
8.94807e-09
2.16592e-08
4.5861e-08
8.80863e-08
1.56549e-07
2.60055e-07
4.06265e-07
5.99973e-07
8.43034e-07
1.13609e-06
1.47927e-06
1.87652e-06
2.33972e-06
2.86354e-06
2.54874e-06
3.92282e-11
1.26139e-10
7.31435e-10
2.99794e-09
8.87124e-09
2.14553e-08
4.5394e-08
8.71647e-08
1.54886e-07
2.57379e-07
4.02206e-07
5.94205e-07
8.35226e-07
1.12577e-06
1.46687e-06
1.86149e-06
2.31918e-06
2.85279e-06
3.45056e-06
3.16204e-06
3.90731e-11
1.25507e-10
7.26877e-10
2.97693e-09
8.80218e-09
2.12722e-08
4.49736e-08
8.63043e-08
1.53349e-07
2.54852e-07
3.98518e-07
5.89042e-07
8.28432e-07
1.11703e-06
1.45574e-06
1.84826e-06
2.30303e-06
2.83073e-06
3.44519e-06
4.12519e-06
3.8117e-06
3.89339e-11
1.24942e-10
7.2282e-10
2.95819e-09
8.7405e-09
2.11077e-08
4.45956e-08
8.55289e-08
1.51912e-07
2.52523e-07
3.95011e-07
5.84371e-07
8.22309e-07
1.10943e-06
1.44628e-06
1.83645e-06
2.28884e-06
2.81334e-06
3.4216e-06
4.12771e-06
4.8975e-06
4.49628e-06
3.88097e-11
1.24436e-10
7.19192e-10
2.94151e-09
8.68549e-09
2.09607e-08
4.42559e-08
8.48311e-08
1.50615e-07
2.50335e-07
3.91782e-07
5.79898e-07
8.1678e-07
1.10254e-06
1.4381e-06
1.82637e-06
2.27616e-06
2.79803e-06
3.40284e-06
4.10275e-06
4.91093e-06
5.7771e-06
5.21464e-06
3.86977e-11
1.23983e-10
7.1594e-10
2.92659e-09
8.63648e-09
2.08294e-08
4.3952e-08
8.42038e-08
1.49446e-07
2.48359e-07
3.88739e-07
5.75766e-07
8.11462e-07
1.09632e-06
1.43064e-06
1.81772e-06
2.26532e-06
2.78438e-06
3.38628e-06
4.08256e-06
4.88505e-06
5.8047e-06
6.77283e-06
5.96868e-06
3.85963e-11
1.23577e-10
7.13039e-10
2.91325e-09
8.5927e-09
2.07125e-08
4.36814e-08
8.36427e-08
1.48396e-07
2.4657e-07
3.85985e-07
5.71872e-07
8.06533e-07
1.09032e-06
1.42387e-06
1.80979e-06
2.25607e-06
2.77267e-06
3.37154e-06
4.06463e-06
4.8636e-06
5.7788e-06
6.81824e-06
7.89333e-06
6.75857e-06
3.85033e-11
1.23209e-10
7.10436e-10
2.90132e-09
8.55353e-09
2.06082e-08
4.34397e-08
8.31417e-08
1.47455e-07
2.44967e-07
3.83482e-07
5.68341e-07
8.01887e-07
1.08474e-06
1.41737e-06
1.80251e-06
2.24756e-06
2.76268e-06
3.35885e-06
4.04872e-06
4.84438e-06
5.75646e-06
6.79359e-06
7.96345e-06
9.1496e-06
7.57346e-06
3.84172e-11
1.22872e-10
7.0808e-10
2.89062e-09
8.51847e-09
2.05146e-08
4.32241e-08
8.26952e-08
1.46614e-07
2.43526e-07
3.81246e-07
5.65124e-07
7.97667e-07
1.0795e-06
1.41127e-06
1.79557e-06
2.23969e-06
2.75352e-06
3.34802e-06
4.035e-06
4.82728e-06
5.73619e-06
6.77099e-06
7.9415e-06
9.25628e-06
1.05549e-05
8.40276e-06
3.83377e-11
1.22559e-10
7.05908e-10
2.88094e-09
8.48706e-09
2.0431e-08
4.30307e-08
8.22959e-08
1.45865e-07
2.4224e-07
3.79223e-07
5.62255e-07
7.93812e-07
1.07472e-06
1.40556e-06
1.78906e-06
2.23222e-06
2.74502e-06
3.33812e-06
4.02325e-06
4.8125e-06
5.71808e-06
6.75015e-06
7.91925e-06
9.23896e-06
1.07128e-05
1.21219e-05
9.24253e-06
3.82651e-11
1.22271e-10
7.03913e-10
2.87202e-09
8.4586e-09
2.03561e-08
4.28578e-08
8.1938e-08
1.45194e-07
2.41091e-07
3.7742e-07
5.59644e-07
7.90376e-07
1.07034e-06
1.40036e-06
1.78295e-06
2.22519e-06
2.73692e-06
3.32889e-06
4.01254e-06
4.79983e-06
5.70238e-06
6.73136e-06
7.89815e-06
9.21768e-06
1.07032e-05
1.235e-05
1.38627e-05
1.00785e-05
3.8199e-11
1.22008e-10
7.0207e-10
2.8638e-09
8.4324e-09
2.02882e-08
4.27028e-08
8.16178e-08
1.44593e-07
2.40062e-07
3.75809e-07
5.57327e-07
7.87246e-07
1.06645e-06
1.3956e-06
1.77737e-06
2.2186e-06
2.72927e-06
3.3201e-06
4.00252e-06
4.78832e-06
5.68894e-06
6.715e-06
7.87897e-06
9.19655e-06
1.0684e-05
1.23521e-05
1.41858e-05
1.57889e-05
1.08983e-05
3.81389e-11
1.21769e-10
7.00387e-10
2.85623e-09
8.40826e-09
2.02257e-08
4.25623e-08
8.13307e-08
1.44054e-07
2.39139e-07
3.74365e-07
5.55242e-07
7.84468e-07
1.06289e-06
1.39134e-06
1.77229e-06
2.21257e-06
2.72214e-06
3.31178e-06
3.99299e-06
4.77749e-06
5.67668e-06
6.70101e-06
7.86214e-06
9.1771e-06
1.06634e-05
1.23364e-05
1.42055e-05
1.62397e-05
1.79114e-05
1.17062e-05
3.8085e-11
1.21553e-10
6.98857e-10
2.84932e-09
8.38603e-09
2.01681e-08
4.2433e-08
8.10704e-08
1.43571e-07
2.38311e-07
3.73068e-07
5.53378e-07
7.81958e-07
1.05974e-06
1.38748e-06
1.76773e-06
2.2071e-06
2.71561e-06
3.30402e-06
3.98396e-06
4.7672e-06
5.66507e-06
6.68817e-06
7.8477e-06
9.15983e-06
1.0644e-05
1.23172e-05
1.41955e-05
1.62851e-05
1.85325e-05
2.0239e-05
1.25369e-05
3.8037e-11
1.21359e-10
6.97482e-10
2.84305e-09
8.36568e-09
2.0115e-08
4.23135e-08
8.08308e-08
1.43133e-07
2.37569e-07
3.71903e-07
5.51701e-07
7.79721e-07
1.0569e-06
1.38405e-06
1.7636e-06
2.20218e-06
2.70966e-06
3.29694e-06
3.97552e-06
4.75745e-06
5.65406e-06
6.67597e-06
7.83439e-06
9.14504e-06
1.06267e-05
1.22984e-05
1.41787e-05
1.62834e-05
1.86142e-05
2.10856e-05
2.27784e-05
1.33893e-05
3.79936e-11
1.21187e-10
6.96249e-10
2.83738e-09
8.34723e-09
2.00665e-08
4.22038e-08
8.06097e-08
1.42729e-07
2.36895e-07
3.70859e-07
5.50194e-07
7.77703e-07
1.05435e-06
1.38095e-06
1.75995e-06
2.19774e-06
2.70436e-06
3.29049e-06
3.96783e-06
4.7483e-06
5.64362e-06
6.66438e-06
7.8217e-06
9.13136e-06
1.06117e-05
1.22814e-05
1.41611e-05
1.62705e-05
1.8625e-05
2.12186e-05
2.39211e-05
2.55318e-05
1.41393e-05
3.79535e-11
1.2103e-10
6.95149e-10
2.83231e-09
8.33059e-09
2.00224e-08
4.21033e-08
8.0406e-08
1.42357e-07
2.36274e-07
3.6991e-07
5.48842e-07
7.75891e-07
1.05206e-06
1.37818e-06
1.75663e-06
2.19381e-06
2.69956e-06
3.28472e-06
3.96085e-06
4.74001e-06
5.63383e-06
6.65336e-06
7.80961e-06
9.11814e-06
1.05978e-05
1.22666e-05
1.41448e-05
1.62551e-05
1.8618e-05
2.12473e-05
2.41257e-05
2.70615e-05
2.8494e-05
1.46984e-05
3.79163e-11
1.20886e-10
6.94155e-10
2.82779e-09
8.31569e-09
1.99828e-08
4.20123e-08
8.02198e-08
1.42014e-07
2.35702e-07
3.69034e-07
5.47612e-07
7.74265e-07
1.05e-06
1.37568e-06
1.75368e-06
2.19024e-06
2.69529e-06
3.27952e-06
3.95459e-06
4.7325e-06
5.62499e-06
6.64304e-06
7.79806e-06
9.10555e-06
1.05842e-05
1.22526e-05
1.41305e-05
1.62402e-05
1.86059e-05
2.12485e-05
2.41796e-05
2.7365e-05
3.05282e-05
3.16507e-05
1.50223e-05
3.78783e-11
1.20753e-10
6.93233e-10
2.82369e-09
8.30241e-09
1.9947e-08
4.193e-08
8.0051e-08
1.417e-07
2.35173e-07
3.68226e-07
5.46479e-07
7.72781e-07
1.04815e-06
1.37345e-06
1.75101e-06
2.18707e-06
2.69145e-06
3.27493e-06
3.94897e-06
4.72574e-06
5.61697e-06
6.6337e-06
7.78728e-06
9.09346e-06
1.05712e-05
1.22389e-05
1.41168e-05
1.62269e-05
1.85931e-05
2.12414e-05
2.41929e-05
2.74541e-05
3.09677e-05
3.43416e-05
3.49746e-05
1.50668e-05
3.7846e-11
1.20615e-10
6.92379e-10
2.81992e-09
8.29039e-09
1.99154e-08
4.18564e-08
7.98983e-08
1.41415e-07
2.3469e-07
3.67481e-07
5.45429e-07
7.71413e-07
1.04647e-06
1.37142e-06
1.74864e-06
2.18421e-06
2.68802e-06
3.27075e-06
3.944e-06
4.71969e-06
5.60976e-06
6.62525e-06
7.7775e-06
9.08218e-06
1.05587e-05
1.22256e-05
1.41031e-05
1.62138e-05
1.85815e-05
2.12319e-05
2.41928e-05
2.74842e-05
3.11058e-05
3.49657e-05
3.85191e-05
3.84239e-05
1.47935e-05
3.79443e-11
1.20501e-10
6.91501e-10
2.81641e-09
8.27928e-09
1.98865e-08
4.17905e-08
7.97617e-08
1.41158e-07
2.34252e-07
3.66801e-07
5.44464e-07
7.70145e-07
1.04491e-06
1.36959e-06
1.74647e-06
2.18165e-06
2.68494e-06
3.26705e-06
3.93949e-06
4.71434e-06
5.60329e-06
6.61764e-06
7.76866e-06
9.072e-06
1.0547e-05
1.22128e-05
1.40899e-05
1.62005e-05
1.85695e-05
2.12227e-05
2.41879e-05
2.7494e-05
3.11591e-05
3.51715e-05
3.93931e-05
4.30727e-05
4.19516e-05
1.41729e-05
4.87311e-11
1.20524e-10
6.90779e-10
2.8128e-09
8.26899e-09
1.98601e-08
4.17309e-08
7.96395e-08
1.40927e-07
2.33855e-07
3.66181e-07
5.43579e-07
7.68976e-07
1.04346e-06
1.36789e-06
1.74452e-06
2.17934e-06
2.68217e-06
3.26372e-06
3.93549e-06
4.70948e-06
5.5976e-06
6.61085e-06
7.7607e-06
9.06277e-06
1.05364e-05
1.22008e-05
1.40769e-05
1.61874e-05
1.85569e-05
2.12125e-05
2.41821e-05
2.74957e-05
3.11825e-05
3.52573e-05
3.96916e-05
4.42824e-05
4.80085e-05
4.55044e-05
1.31886e-05
3.96391e-11
2.6998e-10
6.89334e-10
2.80986e-09
8.25838e-09
1.98355e-08
4.1676e-08
7.95289e-08
1.40721e-07
2.335e-07
3.65618e-07
5.42774e-07
7.6791e-07
1.04213e-06
1.36632e-06
1.7427e-06
2.17724e-06
2.67968e-06
3.26074e-06
3.93189e-06
4.70519e-06
5.59246e-06
6.60487e-06
7.75366e-06
9.05448e-06
1.05269e-05
1.21899e-05
1.40647e-05
1.61744e-05
1.85442e-05
2.1201e-05
2.41745e-05
2.74949e-05
3.11934e-05
3.52997e-05
3.98217e-05
4.47075e-05
4.96658e-05
5.33228e-05
4.90175e-05
1.18527e-05
4.00515e-11
1.41554e-10
1.7785e-09
2.80342e-09
8.24975e-09
1.98102e-08
4.1625e-08
7.94266e-08
1.40534e-07
2.33182e-07
3.65115e-07
5.42043e-07
7.6694e-07
1.04092e-06
1.36487e-06
1.74104e-06
2.17529e-06
2.67743e-06
3.25804e-06
3.92868e-06
4.70133e-06
5.58789e-06
6.59948e-06
7.74741e-06
9.04712e-06
1.05183e-05
1.21802e-05
1.40537e-05
1.61622e-05
1.85315e-05
2.11892e-05
2.41648e-05
2.7491e-05
3.11993e-05
3.5323e-05
3.98897e-05
4.48983e-05
5.02627e-05
5.55722e-05
5.89997e-05
5.24179e-05
1.0218e-05
4.35781e-11
1.47501e-10
8.74509e-10
7.14843e-09
8.23054e-09
1.97895e-08
4.15726e-08
7.9332e-08
1.40362e-07
2.32894e-07
3.64666e-07
5.41389e-07
7.6606e-07
1.03982e-06
1.36355e-06
1.73949e-06
2.17349e-06
2.67533e-06
3.2556e-06
3.92577e-06
4.69787e-06
5.58375e-06
6.59468e-06
7.74178e-06
9.04058e-06
1.05108e-05
1.21715e-05
1.4044e-05
1.61513e-05
1.85194e-05
2.11771e-05
2.41544e-05
2.74839e-05
3.12005e-05
3.53379e-05
3.99299e-05
4.50011e-05
5.0536e-05
5.64012e-05
6.20255e-05
6.50067e-05
5.56314e-05
8.39454e-06
4.13312e-11
1.86778e-10
9.36501e-10
3.61932e-09
2.06841e-08
1.9743e-08
4.153e-08
7.92344e-08
1.40202e-07
2.32628e-07
3.64259e-07
5.40806e-07
7.65274e-07
1.03882e-06
1.36235e-06
1.73808e-06
2.17183e-06
2.67339e-06
3.25334e-06
3.92313e-06
4.69475e-06
5.5801e-06
6.59038e-06
7.73677e-06
9.03471e-06
1.0504e-05
1.21637e-05
1.4035e-05
1.61415e-05
1.85088e-05
2.11655e-05
2.41432e-05
2.74754e-05
3.11969e-05
3.53456e-05
3.9957e-05
4.50641e-05
5.06864e-05
5.67863e-05
6.31664e-05
6.90418e-05
7.12924e-05
5.85969e-05
6.55719e-06
3.87371e-11
1.6696e-10
1.28692e-09
3.91594e-09
1.06409e-08
4.91138e-08
4.14309e-08
7.91552e-08
1.40036e-07
2.32381e-07
3.63883e-07
5.40278e-07
7.64575e-07
1.03793e-06
1.36126e-06
1.7368e-06
2.17031e-06
2.6716e-06
3.25124e-06
3.92069e-06
4.69193e-06
5.57678e-06
6.58651e-06
7.73227e-06
9.02949e-06
1.0498e-05
1.21568e-05
1.40272e-05
1.61326e-05
1.84993e-05
2.11553e-05
2.41325e-05
2.74658e-05
3.11913e-05
3.53474e-05
3.99741e-05
4.51078e-05
5.07799e-05
5.70008e-05
6.37028e-05
7.05995e-05
7.66259e-05
7.77784e-05
6.12773e-05
4.92796e-06
3.81952e-11
1.40822e-10
1.10671e-09
5.39613e-09
1.16779e-08
2.53498e-08
1.02419e-07
7.89648e-08
1.39901e-07
2.32122e-07
3.63536e-07
5.39789e-07
7.63938e-07
1.03714e-06
1.3603e-06
1.73565e-06
2.16895e-06
2.66998e-06
3.24929e-06
3.91841e-06
4.68929e-06
5.57379e-06
6.58307e-06
7.72825e-06
9.02484e-06
1.04926e-05
1.21507e-05
1.40203e-05
1.61249e-05
1.84906e-05
2.11464e-05
2.41232e-05
2.7456e-05
3.11837e-05
3.53456e-05
3.99825e-05
4.51371e-05
5.08457e-05
5.71357e-05
6.40036e-05
7.13393e-05
7.87366e-05
8.47665e-05
8.43553e-05
6.36663e-05
3.69728e-06
3.77294e-11
1.3678e-10
8.68348e-10
4.58324e-09
1.60807e-08
2.82607e-08
5.28724e-08
1.9466e-07
1.39563e-07
2.31914e-07
3.63171e-07
5.39336e-07
7.63349e-07
1.03641e-06
1.35944e-06
1.73463e-06
2.16772e-06
2.6685e-06
3.24755e-06
3.91632e-06
4.68684e-06
5.57097e-06
6.57992e-06
7.72466e-06
9.02064e-06
1.04878e-05
1.21453e-05
1.40141e-05
1.61181e-05
1.84831e-05
2.1138e-05
2.41149e-05
2.7448e-05
3.11761e-05
3.53409e-05
3.99862e-05
4.51548e-05
5.08914e-05
5.72309e-05
6.41941e-05
7.17565e-05
7.97495e-05
8.76061e-05
9.34307e-05
9.08804e-05
6.57624e-05
2.92794e-06
3.76273e-11
1.20776e-10
8.2964e-10
3.55033e-09
1.35367e-08
3.89748e-08
5.93891e-08
1.00114e-07
3.43749e-07
2.31362e-07
3.6288e-07
5.38865e-07
7.62804e-07
1.03574e-06
1.35866e-06
1.73373e-06
2.16663e-06
2.6672e-06
3.24597e-06
3.91444e-06
4.68459e-06
5.56838e-06
6.577e-06
7.72136e-06
9.01689e-06
1.04835e-05
1.21403e-05
1.40086e-05
1.61119e-05
1.84764e-05
2.11309e-05
2.41071e-05
2.74408e-05
3.11697e-05
3.53359e-05
3.99857e-05
4.51657e-05
5.09214e-05
5.72984e-05
6.43287e-05
7.20215e-05
8.03227e-05
8.89838e-05
9.72242e-05
0.000102559
9.72132e-05
6.7494e-05
2.5422e-06
3.75841e-11
1.19426e-10
6.8803e-10
3.36846e-09
1.04013e-08
3.25762e-08
8.24632e-08
1.12202e-07
1.75434e-07
5.67938e-07
3.62053e-07
5.38491e-07
7.62236e-07
1.03513e-06
1.35794e-06
1.73291e-06
2.16567e-06
2.66603e-06
3.24456e-06
3.91275e-06
4.68257e-06
5.56598e-06
6.57425e-06
7.7183e-06
9.01346e-06
1.04796e-05
1.2136e-05
1.40037e-05
1.61066e-05
1.84706e-05
2.11246e-05
2.41007e-05
2.74342e-05
3.11641e-05
3.53317e-05
3.99839e-05
4.51707e-05
5.09419e-05
5.7345e-05
6.44253e-05
7.22083e-05
8.06876e-05
8.97661e-05
9.90871e-05
0.00010759
0.000112058
0.000103247
6.86011e-05
2.39306e-06
3.75588e-11
1.19206e-10
6.79657e-10
2.78524e-09
9.81133e-09
2.48225e-08
6.85224e-08
1.582e-07
1.94385e-07
2.87534e-07
8.78201e-07
5.37362e-07
7.61781e-07
1.03447e-06
1.35727e-06
1.73215e-06
2.16481e-06
2.66502e-06
3.24332e-06
3.91123e-06
4.68076e-06
5.56383e-06
6.5717e-06
7.71548e-06
9.01029e-06
1.04761e-05
1.2132e-05
1.39994e-05
1.61018e-05
1.84654e-05
2.11191e-05
2.40951e-05
2.74286e-05
3.11586e-05
3.53283e-05
3.99831e-05
4.51738e-05
5.09548e-05
5.73783e-05
6.44936e-05
7.23436e-05
8.09442e-05
9.02645e-05
0.000100149
0.000110094
0.000118678
0.000121793
0.000108874
6.85828e-05
2.3486e-06
3.7522e-11
1.19085e-10
6.77276e-10
2.75035e-09
8.15001e-09
2.32739e-08
5.16279e-08
1.30818e-07
2.8055e-07
3.13669e-07
4.43755e-07
1.27228e-06
7.60375e-07
1.03397e-06
1.35656e-06
1.73144e-06
2.16401e-06
2.66409e-06
3.24224e-06
3.9099e-06
4.67913e-06
5.56189e-06
6.56948e-06
7.71282e-06
9.0073e-06
1.04728e-05
1.21284e-05
1.39954e-05
1.60974e-05
1.84607e-05
2.11143e-05
2.40902e-05
2.74238e-05
3.11544e-05
3.53249e-05
3.99826e-05
4.51772e-05
5.09639e-05
5.74013e-05
6.45442e-05
7.24412e-05
8.11307e-05
9.0614e-05
0.000100825
0.000111526
0.000122024
0.000130431
0.000131579
0.000113993
6.69799e-05
2.33954e-06
3.74842e-11
1.18924e-10
6.76034e-10
2.73736e-09
8.04333e-09
1.95028e-08
4.80817e-08
9.69719e-08
2.31032e-07
4.63183e-07
4.76921e-07
6.48708e-07
1.738e-06
1.03237e-06
1.35601e-06
1.73068e-06
2.16325e-06
2.66323e-06
3.24125e-06
3.90875e-06
4.67772e-06
5.56019e-06
6.56744e-06
7.71049e-06
9.00454e-06
1.04697e-05
1.2125e-05
1.39918e-05
1.60935e-05
1.84566e-05
2.11099e-05
2.40859e-05
2.74197e-05
3.11511e-05
3.53224e-05
3.99816e-05
4.51805e-05
5.0973e-05
5.74192e-05
6.45808e-05
7.25145e-05
8.1267e-05
9.0868e-05
0.000101298
0.000112439
0.000123948
0.000134875
0.000142752
0.000141165
0.00011852
6.36662e-05
2.34e-06
3.7458e-11
1.1876e-10
6.74535e-10
2.73069e-09
7.99774e-09
1.9237e-08
4.08591e-08
8.98424e-08
1.67975e-07
3.80194e-07
7.12342e-07
6.87871e-07
9.04531e-07
2.26183e-06
1.35438e-06
1.73011e-06
2.16245e-06
2.66245e-06
3.24033e-06
3.9077e-06
4.6765e-06
5.55869e-06
6.56566e-06
7.70843e-06
9.00213e-06
1.04669e-05
1.21219e-05
1.39884e-05
1.609e-05
1.84528e-05
2.1106e-05
2.40818e-05
2.74162e-05
3.11481e-05
3.53206e-05
3.99818e-05
4.5183e-05
5.09816e-05
5.74356e-05
6.46097e-05
7.2569e-05
8.13705e-05
9.10559e-05
0.000101641
0.000113075
0.000125176
0.000137448
0.000148615
0.00015549
0.000150293
0.000122389
5.84061e-05
2.34241e-06
3.74375e-11
1.18647e-10
6.73024e-10
2.72302e-09
7.97445e-09
1.91141e-08
4.02861e-08
7.77983e-08
1.55693e-07
2.72286e-07
5.8375e-07
1.02209e-06
9.47871e-07
1.21246e-06
2.83401e-06
1.7286e-06
2.16184e-06
2.66156e-06
3.23949e-06
3.90672e-06
4.67539e-06
5.55741e-06
6.56409e-06
7.70655e-06
8.99999e-06
1.04644e-05
1.21189e-05
1.39852e-05
1.60865e-05
1.84493e-05
2.11025e-05
2.40784e-05
2.7413e-05
3.11454e-05
3.53193e-05
3.9982e-05
4.51863e-05
5.09885e-05
5.74508e-05
6.46362e-05
7.26128e-05
8.14487e-05
9.11994e-05
0.000101897
0.000113539
0.000126029
0.000139091
0.000152038
0.000163172
0.000168436
0.000158763
0.000125492
5.09395e-05
2.34504e-06
3.74181e-11
1.18562e-10
6.71982e-10
2.71521e-09
7.94841e-09
1.90517e-08
4.00071e-08
7.66928e-08
1.37459e-07
2.53663e-07
4.17137e-07
8.38321e-07
1.379e-06
1.25762e-06
1.57446e-06
3.44912e-06
2.16058e-06
2.66093e-06
3.23856e-06
3.90583e-06
4.67436e-06
5.55626e-06
6.56277e-06
7.70495e-06
8.99808e-06
1.04621e-05
1.21164e-05
1.39822e-05
1.60834e-05
1.8446e-05
2.10993e-05
2.40753e-05
2.74101e-05
3.11433e-05
3.53181e-05
3.99827e-05
4.51895e-05
5.0996e-05
5.74638e-05
6.46602e-05
7.26523e-05
8.15125e-05
9.13095e-05
0.000102094
0.000113885
0.00012665
0.000140232
0.000154231
0.000167703
0.000178422
0.000181309
0.000166424
0.000127614
4.13821e-05
2.34745e-06
3.74002e-11
1.18482e-10
6.71242e-10
2.70985e-09
7.92185e-09
1.89827e-08
3.98662e-08
7.61356e-08
1.35516e-07
2.2795e-07
3.9103e-07
6.07439e-07
1.13579e-06
1.77156e-06
1.6186e-06
1.99486e-06
4.10484e-06
2.66003e-06
3.23786e-06
3.90482e-06
4.6734e-06
5.55515e-06
6.56157e-06
7.70362e-06
8.99645e-06
1.04602e-05
1.21142e-05
1.39797e-05
1.60805e-05
1.8443e-05
2.10963e-05
2.40725e-05
2.74077e-05
3.11411e-05
3.53172e-05
3.99834e-05
4.51928e-05
5.10028e-05
5.74765e-05
6.46809e-05
7.26877e-05
8.15688e-05
9.1399e-05
0.000102245
0.000114151
0.000127114
0.000141061
0.00015575
0.000170617
0.000184385
0.000194175
0.000193738
0.000173179
0.000128395
3.0558e-05
2.3494e-06
3.73862e-11
1.1841e-10
6.70577e-10
2.70616e-09
7.90359e-09
1.89124e-08
3.97125e-08
7.58559e-08
1.34512e-07
2.24808e-07
3.57036e-07
5.72957e-07
8.45711e-07
1.47089e-06
2.19642e-06
2.03488e-06
2.48199e-06
4.80094e-06
3.23752e-06
3.90406e-06
4.67233e-06
5.55417e-06
6.56045e-06
7.70241e-06
8.99514e-06
1.04586e-05
1.21122e-05
1.39774e-05
1.60779e-05
1.84401e-05
2.10932e-05
2.40698e-05
2.74054e-05
3.11396e-05
3.53163e-05
3.99842e-05
4.5196e-05
5.10098e-05
5.74885e-05
6.47006e-05
7.27183e-05
8.1619e-05
9.14773e-05
0.000102369
0.000114359
0.000127473
0.000141683
0.000156854
0.000172634
0.00018824
0.000201975
0.000210161
0.000205332
0.000178968
0.000127212
2.01766e-05
2.35068e-06
3.7377e-11
1.18355e-10
6.69984e-10
2.70288e-09
7.89127e-09
1.8864e-08
3.95546e-08
7.55516e-08
1.34011e-07
2.23156e-07
3.52338e-07
5.30621e-07
8.02203e-07
1.13332e-06
1.8459e-06
2.65728e-06
2.51515e-06
3.04682e-06
5.53856e-06
3.90444e-06
4.6715e-06
5.55301e-06
6.55941e-06
7.70124e-06
8.99391e-06
1.04572e-05
1.21106e-05
1.39755e-05
1.60757e-05
1.84376e-05
2.10905e-05
2.40671e-05
2.74029e-05
3.11376e-05
3.53156e-05
3.99849e-05
4.51989e-05
5.10161e-05
5.74998e-05
6.47187e-05
7.27473e-05
8.1663e-05
9.15474e-05
0.000102477
0.000114528
0.000127754
0.000142163
0.000157683
0.000174101
0.000190911
0.00020705
0.000220293
0.00022602
0.000215783
0.000183657
0.000122729
1.22877e-05
2.35134e-06
3.73598e-11
1.18315e-10
6.69553e-10
2.70006e-09
7.88048e-09
1.88318e-08
3.94464e-08
7.52408e-08
1.33469e-07
2.22338e-07
3.49837e-07
5.24075e-07
7.51981e-07
1.08004e-06
1.47205e-06
2.26894e-06
3.1627e-06
3.06967e-06
3.70061e-06
6.32025e-06
4.67268e-06
5.55213e-06
6.55821e-06
7.7002e-06
8.99276e-06
1.0456e-05
1.21093e-05
1.3974e-05
1.60738e-05
1.84355e-05
2.10883e-05
2.40645e-05
2.74005e-05
3.11361e-05
3.53148e-05
3.99856e-05
4.52016e-05
5.1022e-05
5.75103e-05
6.4736e-05
7.27738e-05
8.17036e-05
9.16082e-05
0.000102572
0.000114674
0.000127983
0.000142541
0.000158325
0.000175202
0.000192852
0.000210574
0.000226939
0.000239071
0.000241275
0.000224862
0.000186905
0.000114024
7.55638e-06
2.35146e-06
3.69545e-11
1.18253e-10
6.69252e-10
2.69804e-09
7.87119e-09
1.88039e-08
3.93752e-08
7.50266e-08
1.32913e-07
2.21456e-07
3.48608e-07
5.20559e-07
7.43377e-07
1.02253e-06
1.4078e-06
1.86498e-06
2.74877e-06
3.7269e-06
3.70953e-06
4.45436e-06
7.15057e-06
5.55416e-06
6.55728e-06
7.69899e-06
8.99167e-06
1.04549e-05
1.21081e-05
1.39727e-05
1.60724e-05
1.84338e-05
2.10864e-05
2.40625e-05
2.73983e-05
3.11342e-05
3.5314e-05
3.99861e-05
4.52041e-05
5.10272e-05
5.75197e-05
6.47517e-05
7.27984e-05
8.17404e-05
9.16642e-05
0.000102656
0.000114802
0.000128179
0.000142848
0.00015883
0.000176056
0.000194312
0.000213137
0.00023157
0.000247721
0.000257939
0.000255404
0.000232442
0.000188273
0.000100536
5.35227e-06
2.35133e-06
2.89948e-11
1.17399e-10
6.68847e-10
2.69668e-09
7.86474e-09
1.87801e-08
3.93135e-08
7.4887e-08
1.32531e-07
2.20547e-07
3.47287e-07
5.18847e-07
7.38739e-07
1.01172e-06
1.34336e-06
1.78816e-06
2.31787e-06
3.29462e-06
4.36772e-06
4.44668e-06
5.31819e-06
8.03678e-06
6.56016e-06
7.69799e-06
8.99045e-06
1.04538e-05
1.2107e-05
1.39716e-05
1.60712e-05
1.84325e-05
2.10848e-05
2.40609e-05
2.73968e-05
3.11326e-05
3.53127e-05
3.99861e-05
4.52061e-05
5.1032e-05
5.75283e-05
6.47659e-05
7.28208e-05
8.17749e-05
9.17149e-05
0.000102731
0.000114914
0.000128351
0.000143111
0.000159242
0.00017673
0.000195446
0.000215068
0.000234943
0.00025378
0.000269123
0.00027641
0.000267958
0.000238501
0.000186829
8.20651e-05
4.58203e-06
2.35099e-06
4.01479e-12
9.87702e-11
6.66315e-10
2.69496e-09
7.86054e-09
1.87636e-08
3.92616e-08
7.47672e-08
1.32284e-07
2.19923e-07
3.45919e-07
5.17011e-07
7.36504e-07
1.00587e-06
1.33016e-06
1.71657e-06
2.227e-06
2.84007e-06
3.91963e-06
5.09682e-06
5.29292e-06
6.30201e-06
8.99021e-06
7.70172e-06
8.98943e-06
1.04525e-05
1.21059e-05
1.39706e-05
1.60703e-05
1.84315e-05
2.10837e-05
2.40597e-05
2.73954e-05
3.11312e-05
3.53117e-05
3.99859e-05
4.52077e-05
5.10362e-05
5.7536e-05
6.47787e-05
7.28413e-05
8.18063e-05
9.17615e-05
0.0001028
0.000115015
0.0001285
0.00014334
0.000159591
0.000177278
0.000196342
0.000216567
0.000237489
0.000258207
0.000277007
0.000290747
0.000293845
0.000278601
0.000242916
0.000181643
6.00569e-05
4.3729e-06
2.3505e-06
1.80937e-11
4.42492e-11
5.93842e-10
2.68542e-09
7.85535e-09
1.87532e-08
3.92261e-08
7.4666e-08
1.32073e-07
2.19524e-07
3.4498e-07
5.15099e-07
7.34101e-07
1.00309e-06
1.32304e-06
1.70067e-06
2.14743e-06
2.73389e-06
3.44232e-06
4.63843e-06
5.91978e-06
6.25933e-06
7.41892e-06
1.00306e-05
8.99403e-06
1.04515e-05
1.21046e-05
1.39695e-05
1.60693e-05
1.84308e-05
2.10829e-05
2.40587e-05
2.73946e-05
3.11304e-05
3.53111e-05
3.99859e-05
4.52089e-05
5.10396e-05
5.75429e-05
6.47905e-05
7.28596e-05
8.18343e-05
9.1804e-05
0.000102862
0.000115106
0.000128635
0.000143539
0.000159893
0.00017774
0.000197069
0.000217754
0.000239466
0.000261551
0.000282788
0.000300945
0.000312061
0.000309582
0.000287145
0.000245211
0.000170853
3.79877e-05
4.32476e-06
2.35013e-06
1.63324e-11
5.4299e-10
3.41436e-10
2.40289e-09
7.82786e-09
1.87408e-08
3.92039e-08
7.45976e-08
1.31895e-07
2.19184e-07
3.44387e-07
5.13787e-07
7.31606e-07
1.00012e-06
1.3197e-06
1.69219e-06
2.12835e-06
2.64574e-06
3.31916e-06
4.13759e-06
5.46135e-06
6.84852e-06
7.35656e-06
8.68537e-06
1.11886e-05
1.04569e-05
1.21035e-05
1.39682e-05
1.60683e-05
1.84298e-05
2.10823e-05
2.40583e-05
2.73943e-05
3.11302e-05
3.5311e-05
3.9986e-05
4.52098e-05
5.10423e-05
5.75489e-05
6.48008e-05
7.28761e-05
8.18597e-05
9.18422e-05
0.000102919
0.00011519
0.000128756
0.000143716
0.000160157
0.000178141
0.000197681
0.000218718
0.000241034
0.000264152
0.000287168
0.000308461
0.000325158
0.00033237
0.000323086
0.000293516
0.00024388
0.000152734
2.15643e-05
4.31459e-06
2.3499e-06
1.78976e-11
2.68075e-10
5.09968e-09
1.39314e-09
7.00788e-09
1.86761e-08
3.91782e-08
7.45562e-08
1.31775e-07
2.18898e-07
3.43881e-07
5.12974e-07
7.29888e-07
9.97007e-07
1.31615e-06
1.68824e-06
2.11827e-06
2.62294e-06
3.22211e-06
3.99469e-06
4.93783e-06
6.39548e-06
7.90876e-06
8.59881e-06
1.01175e-05
1.25035e-05
1.21098e-05
1.39671e-05
1.60672e-05
1.8429e-05
2.10817e-05
2.4058e-05
2.73941e-05
3.11304e-05
3.53113e-05
3.99869e-05
4.52112e-05
5.10449e-05
5.75538e-05
6.48099e-05
7.28913e-05
8.18827e-05
9.1877e-05
0.00010297
0.000115265
0.000128865
0.000143874
0.00016039
0.000178486
0.000198208
0.000219526
0.000242308
0.000266221
0.000290583
0.000314175
0.000334873
0.000349052
0.000350872
0.000333976
0.000297493
0.00023768
0.000125942
1.2205e-05
4.31255e-06
2.34974e-06
1.91619e-11
2.65382e-10
2.07066e-09
2.26209e-08
4.04849e-09
1.67366e-08
3.90482e-08
7.45081e-08
1.31704e-07
2.18705e-07
3.43458e-07
5.12279e-07
7.2884e-07
9.94875e-07
1.31241e-06
1.68409e-06
2.11363e-06
2.61102e-06
3.19493e-06
3.888e-06
4.77301e-06
5.85409e-06
7.45087e-06
9.11063e-06
1.00051e-05
1.17328e-05
1.40228e-05
1.39742e-05
1.60661e-05
1.84281e-05
2.10811e-05
2.40577e-05
2.73941e-05
3.11306e-05
3.5312e-05
3.99879e-05
4.52129e-05
5.10477e-05
5.75584e-05
6.48175e-05
7.29042e-05
8.19036e-05
9.19081e-05
0.000103016
0.000115333
0.000128964
0.000144018
0.000160598
0.000178793
0.000198663
0.000220219
0.000243374
0.000267897
0.000293298
0.000318637
0.000342291
0.000361527
0.000371845
0.000366831
0.000342065
0.000298509
0.00022536
9.14384e-05
8.00529e-06
4.3121e-06
2.34961e-06
2.06232e-11
2.78591e-10
2.03583e-09
8.69513e-09
6.79299e-08
9.6427e-09
3.50767e-08
7.42789e-08
1.31623e-07
2.18594e-07
3.43178e-07
5.11697e-07
7.27948e-07
9.93593e-07
1.30987e-06
1.67971e-06
2.10879e-06
2.60559e-06
3.1809e-06
3.85579e-06
4.65556e-06
5.66591e-06
6.89648e-06
8.64606e-06
1.04661e-05
1.15944e-05
1.35507e-05
1.57914e-05
1.60739e-05
1.84269e-05
2.10803e-05
2.40574e-05
2.73944e-05
3.11314e-05
3.53134e-05
3.99896e-05
4.52154e-05
5.10508e-05
5.7563e-05
6.48245e-05
7.29155e-05
8.19218e-05
9.1936e-05
0.000103058
0.000115394
0.000129054
0.000144149
0.000160786
0.000179066
0.000199065
0.000220815
0.000244282
0.000269299
0.000295504
0.000322196
0.000348103
0.000371107
0.000387742
0.00039261
0.000379693
0.00034725
0.000294373
0.000204431
5.61889e-05
6.61061e-06
4.31192e-06
2.34947e-06
2.17424e-11
3.15259e-10
2.13672e-09
8.37634e-09
2.8283e-08
1.62559e-07
2.02268e-08
6.70314e-08
1.31268e-07
2.18469e-07
3.43017e-07
5.11317e-07
7.272e-07
9.925e-07
1.30835e-06
1.67672e-06
2.10367e-06
2.59998e-06
3.17459e-06
3.83937e-06
4.61763e-06
5.53688e-06
6.6845e-06
8.078e-06
9.99868e-06
1.19936e-05
1.33873e-05
1.55924e-05
1.78331e-05
1.84356e-05
2.1079e-05
2.40567e-05
2.73942e-05
3.1132e-05
3.53146e-05
3.99916e-05
4.5218e-05
5.10545e-05
5.75679e-05
6.48316e-05
7.29259e-05
8.19375e-05
9.19604e-05
0.000103096
0.000115449
0.000129134
0.000144265
0.000160956
0.000179311
0.000199421
0.000221341
0.000245065
0.000270493
0.000297343
0.000325087
0.000352749
0.000378641
0.000400034
0.000412616
0.000410456
0.000389121
0.000349081
0.000284314
0.000172001
3.02825e-05
6.26386e-06
4.3118e-06
2.34935e-06
2.27874e-11
3.48121e-10
2.42373e-09
8.75734e-09
2.53758e-08
7.54575e-08
3.3582e-07
3.89137e-08
1.19354e-07
2.17993e-07
3.42839e-07
5.11103e-07
7.2671e-07
9.9158e-07
1.30706e-06
1.67496e-06
2.10019e-06
2.59404e-06
3.1681e-06
3.83199e-06
4.59849e-06
5.49259e-06
6.54343e-06
7.84031e-06
9.4171e-06
1.1525e-05
1.3712e-05
1.54064e-05
1.78813e-05
2.01565e-05
2.10886e-05
2.40555e-05
2.73939e-05
3.11323e-05
3.53159e-05
3.99937e-05
4.52211e-05
5.10586e-05
5.75733e-05
6.48387e-05
7.29358e-05
8.19521e-05
9.19826e-05
0.000103129
0.000115498
0.000129206
0.00014437
0.000161107
0.000179532
0.000199739
0.000221806
0.00024575
0.000271517
0.000298906
0.000327498
0.000356527
0.000384681
0.000409748
0.000428272
0.000435098
0.000424682
0.000394926
0.000345688
0.000266276
0.000126928
1.61433e-05
6.1919e-06
4.31168e-06
2.34925e-06
2.38463e-11
3.70532e-10
2.68446e-09
1.00136e-08
2.617e-08
6.60563e-08
1.73879e-07
6.2489e-07
7.03858e-08
2.0037e-07
3.42299e-07
5.10869e-07
7.2645e-07
9.90996e-07
1.30596e-06
1.67346e-06
2.09816e-06
2.59001e-06
3.16117e-06
3.82451e-06
4.58987e-06
5.4703e-06
6.49228e-06
7.68655e-06
9.14987e-06
1.09326e-05
1.32441e-05
1.56429e-05
1.76768e-05
2.04426e-05
2.27744e-05
2.4066e-05
2.7393e-05
3.11325e-05
3.53167e-05
3.99958e-05
4.52244e-05
5.10631e-05
5.75792e-05