/*--------------------------------*- C++ -*----------------------------------*\
| =========                 |                                                 |
| \\      /  F ield         | OpenFOAM: The Open Source CFD Toolbox           |
|  \\    /   O peration     | Version:  v2012                                 |
|   \\  /    A nd           | Website:  www.openfoam.com                      |
|    \\/     M anipulation  |                                                 |
\*---------------------------------------------------------------------------*/
FoamFile
{
    version     2.0;
    format      ascii;
    class       volScalarField;
    location    ""0"";
    object      Prt;
}

// * * * * * * * * * * * * * * * * * * * * * * * * * * * * * * * * * * * * * //

dimensions      [0 0 0 0 0 0 0];

internalField   nonuniform List<scalar>
31383
(
0.7934127470053375
0.7934150334497444
0.7930041070487226
0.7934189101308045
0.7929933396364023
0.7930050678520161
0.7934217765617135
0.7929956750688335
0.792939071909892
0.7929876346716961
0.7934239527532703
0.7929974088571938
0.792944041246836
0.7928483271962669
0.7929583197037607
0.7934257446590123
0.7929987189273151
0.7929477595950998
0.7928577969906043
0.7927261240996918
0.7929200272178459
0.7934272647112448
0.7929997979390365
0.7929505668523871
0.7928648971655761
0.7927415657454766
0.7925715904803566
0.7928725771899685
0.7934285590568235
0.793000709947777
0.7929528810851089
0.7928702585629417
0.7927531651325839
0.7925944622895554
0.7923827137464013
0.7928148569690032
0.7934296683722677
0.7930014838029898
0.7929548326867721
0.7928746803290858
0.7927619281228089
0.7926116695660587
0.7924144475409306
0.7921577103553623
0.7927452974059452
0.7934306511263127
0.7930021468493347
0.792956487873647
0.7928784103195714
0.792769158140785
0.7926246781136069
0.7924383722445285
0.7921996206846164
0.7918964369550365
0.7926619857411427
0.793431515619456
0.7930027292988525
0.7929579053506588
0.7928815737901276
0.7927752597177145
0.7926354161262515
0.7924564748218059
0.792231298377801
0.7919494526389772
0.7916019190335712
0.7925630405404172
0.7934322996052985
0.793003244484884
0.7929591448630969
0.7928842831479613
0.7927804347490092
0.7926444780479185
0.7924714279190024
0.7922552986570398
0.791989677987715
0.7916663927380803
0.7912822899934855
0.792446289542138
0.793433006881552
0.7930037115988514
0.7929602448079975
0.7928866518520341
0.7927848661481331
0.7926521676020644
0.7924840542485451
0.79227514437796
0.7920202197564546
0.7917154873533666
0.7913573975125803
0.7909505382069419
0.7923094966670943
0.7934336497688794
0.7930041323360526
0.7929612435325918
0.7928887540758776
0.7927887427064522
0.7926587580160899
0.7924947717148888
0.792291909079116
0.7920455100295276
0.7917528472372127
0.7914149198837608
0.7910343903578516
0.7906221636817428
0.7921534613874712
0.7934342346122413
0.7930045163765881
0.7929621455569764
0.7928906641658733
0.7927921815719088
0.7926645169242487
0.7925039585402596
0.7923061504069178
0.7920668919463998
0.791783847475417
0.7914588542124328
0.7910990538658019
0.7907122440248694
0.7903114527959925
0.7919792208796896
0.7934347648025574
0.7930048633444152
0.792962969997584
0.792892389522799
0.7927953075844139
0.7926696286376661
0.7925119913681338
0.7923183639227682
0.7920850621472204
0.7918101039895571
0.7914953894566125
0.7911486598627681
0.7907822100380135
0.7904051648789103
0.7900282996056276
0.7917873885334482
0.793435240805792
0.7930051775346547
0.7929637133949101
0.7928939661589738
0.792798129730981
0.7926742789601853
0.792519121990179
0.7923290396184695
0.7921006694471652
0.7918324353763617
0.7915263433103668
0.7911900288042992
0.7908360856642609
0.7904784537093945
0.7901236035161594
0.7897758160945667
0.7915853464236571
0.7934356760956369
0.7930054595662623
0.7929643843209206
0.7928953878131823
0.7928007103710664
0.7926784770381219
0.7925256026359552
0.7923385267300804
0.7921143162656077
0.7918516404537379
0.7915527951722765
0.7912251200257866
0.7908811477071501
0.7905350545101266
0.7901985695873983
0.78987187112355
0.7895533337881174
0.7913798332267927
0.7934360672538094
0.7930057162537771
0.7929649876921058
0.7928966712857819
0.7928030381370355
0.7926823129710803
0.792531459151138
0.7923471467651592
0.7921264370884447
0.7918684511876914
0.7915755466979193
0.7912551766165433
0.7909194824298211
0.7905825176395147
0.790256607553858
0.7899477627231171
0.7896494361576946
0.7893599809037313
0.791180966762002
0.7934364251592312
0.7930059473669504
0.7929655343124682
0.7928978254341597
0.7928051396866926
0.7926857757316917
0.7925368135460819
0.7923549361466864
0.7921374658107139
0.7918833811726831
0.7915954890263336
0.7912811070499868
0.7909522967298401
0.7906230001613967
0.7903053385189139
0.7900066841668782
0.7897256482336488
0.7894555058857857
0.7891941702708122
0.7909922537469747
0.7934367517867308
0.7930061579908207
0.7929660265366081
0.7928988705658254
0.7928070288700299
0.7926888994005926
0.7925416385426969
0.7923620579143652
0.792147424223004
0.7918969398648157
0.7916131919158591
0.7913038277932194
0.7909807427610638
0.7906576873732521
0.7903469994703369
0.7900560026687053
0.7897848318257708
0.7895314229452511
0.789288472781833
0.7890531229027338
0.7908187545140857
0.7934370480895204
0.7930063487017467
0.7929664725887103
0.7928998117533137
0.7928087375276887
0.792691707337561
0.7925459958701064
0.7923684797616573
0.7921565319699752
0.7919092304392759
0.7916292684218209
0.7913240214050361
0.7910056713196069
0.7906878517787741
0.7903827417948159
0.7900981169391994
0.7898343505285649
0.7895904567596842
0.7893637284668313
0.7891458828609434
0.7889338286595016
0.7906598760475372
0.7934373173936833
0.7930065221671504
0.7929668762304884
0.7929006639892466
0.7928102788564276
0.7926942522639888
0.7925499168792974
0.7923742779146105
0.7921647462009407
0.7919204525641057
0.7916438488191169
0.7913423668212518
0.7910278306258713
0.7907143281313327
0.7904138519411184
0.7901342730768963
0.7898765802354502
0.7896398018630008
0.7894223705567955
0.7892203173922261
0.7890246184098965
0.7888330992360093
0.7905158852952052
0.7934375649365577
0.7930066795687598
0.7929672425063949
0.7929014349636445
0.7928116727024114
0.7926965428604774
0.7925534680718987
0.792379497768153
0.7921721633505567
0.7919305715093081
0.7916571595412745
0.7913589775056789
0.7910479549988907
0.7907378024704713
0.7904412119656781
0.7901657906960362
0.7899128948944445
0.7896818996777681
0.7894712778953902
0.7892783801303268
0.7890982827087645
0.7889216389757672
0.788748144808967
0.7903878340030333
0.7934377880488945
0.7930068228869432
0.792967574020883
0.7929021346667842
0.792812935941169
0.7926986163165404
0.7925566647458689
0.7923842226889546
0.7921788429715011
0.7919397310598619
0.7916691707358847
0.7913741477354233
0.791066140607591
0.7907591181981342
0.7904654058396121
0.7901935214169038
0.7899445889384518
0.7897181666977432
0.7895130914772768
0.7893267969381833
0.7891556925900935
0.7889945454945226
0.7888344205118407
0.7886766557321089
0.7902766946447077
0.7934379918731473
0.793006952870868
0.7929678747791356
0.792902767722436
0.7928140804694355
0.7927004952375294
0.7925595608121524
0.7923884825992935
0.7921848928660412
0.7919479689155071
0.7916800325995068
0.7913878515929724
0.7910827672255504
0.7907783641342159
0.7904873874076533
0.790217980906817
0.7899724919266073
0.7897498175763762
0.7895490949363306
0.7893681518039277
0.7892035820110878
0.789051329915488
0.7889065211848854
0.7887607256720014
0.788616760658763
0.7901828145005609
0.7934381817597047
0.7930070729253602
0.7929681483415778
0.7929033415363516
0.792815116111313
0.7927021964183265
0.7925621782025895
0.7923923368756097
0.7921903477197497
0.7919554413254746
0.7916898468677376
0.7914002475273295
0.7910978008474857
0.7907959390200815
0.7905071499372152
0.7902401946968832
0.7899970958260242
0.7897777005674267
0.789580543890678
0.7894037951698545
0.7892444344597492
0.7890986680779486
0.7889627157607244
0.788832070579256
0.7886978325093146
0.7885662850290752
0.7901059705411514
0.793438359332038
0.7930071829951353
0.7929684005445055
0.7929038644384754
0.792816054976391
0.7927037365924494
0.7925645575281404
0.7923958258384368
0.7921952876562126
0.7919621830469454
0.79169873320918
0.7914114680024358
0.7911114179995986
0.7908118411654073
0.7905251985996516
0.7902601136587337
0.7900193047139508
0.7898022514392224
0.789608230169509
0.7894349247653668
0.7892796872963503
0.7891390712005737
0.7890095268746715
0.78888769131811
0.7887685974111717
0.788643590946716
0.7885234307552844
0.7900464385340159
0.7934385238229731
0.7930072852521688
0.7929686326714973
0.7929043458624816
0.7928169101506701
0.7927051332528479
0.7925667048815968
0.792398993682808
0.7921997571168057
0.7919682845176119
0.7917067672667246
0.7914216345255868
0.7911237389845207
0.7908262804396501
0.7905415391859735
0.7902782620021572
0.7900392642020951
0.789824344546076
0.7896325935808975
0.789462384583227
0.7893104469024153
0.7891739354487234
0.7890494817701976
0.7889339784216018
0.7888236826537802
0.7887137735242766
0.788596632577502
0.7884873137285073
0.7900051397416179
0.7934386779397605
0.7930073806957505
0.7929688475215617
0.792904789739884
0.7928176981721499
0.7927064050908983
0.7925686538138998
0.7924018571843623
0.7922038177556587
0.7919738189204235
0.7917140436620347
0.7914308542379848
0.7911349263966447
0.7908393432852212
0.7905563751909568
0.7902946978635069
0.790057354183512
0.789844166453605
0.7896544678501568
0.7894864625414508
0.7893376198823575
0.7892043271373945
0.7890839317404696
0.7889734625208139
0.7888695932336665
0.7887684715502026
0.7886662592434266
0.7885558880116269
0.7884571021367275
0.7899849274092476
0.7934388201311257
0.7930074697378106
0.7929690470856479
0.7929052001821197
0.7928184252507722
0.7927075781336401
0.7925704302995701
0.792404453808501
0.7922074940430065
0.7919788443307423
0.7917206416864745
0.7914392019621335
0.791145093337958
0.7908512385712521
0.7905698186907518
0.7903096650336623
0.7900737910205853
0.7898621367497943
0.789674056408155
0.7895080669836185
0.7893614541858441
0.7892312016484696
0.7891140137620828
0.7890075475590681
0.788908708922594
0.7888140106461362
0.7887205149171873
0.7886249294156475
0.788520541470578
0.7884323027508144
0.7899906136937676
0.793438952695956
0.7930075520692851
0.7929692313041491
0.7929055800898999
0.7928190959897975
0.7927086567762263
0.7925720675825128
0.7924068232611992
0.7922108251669414
0.791983392000581
0.7917266375663786
0.7914467853587676
0.7911543108390314
0.790862039658353
0.7905821065967027
0.7903232463417537
0.7900887565426262
0.789878411068476
0.7896917718418192
0.7895273679744084
0.7893827219487821
0.7892547643419878
0.7891405567593535
0.7890373293376564
0.7889424882049588
0.7888528188623273
0.7887657024333329
0.7886787860543107
0.7885889498478106
0.7884899273056556
0.7884123971649954
0.7900239222918931
0.7934390758093534
0.7930076279060356
0.7929694021459583
0.7929059313633141
0.7928197176143048
0.7927096550190029
0.7925735773816966
0.7924090058905718
0.7922138650931985
0.7919875175355303
0.7917320774790807
0.7914536848407487
0.791162692572578
0.7908718648020777
0.7905932447390508
0.7903356399797484
0.7901023133352485
0.7898932374902395
0.7897078277977008
0.7895447603800902
0.7894016993688655
0.7892757560695358
0.7891638600157931
0.7890635865512761
0.7889719687977279
0.7888863257818348
0.78880422775646
0.7887236302121776
0.7886424423612923
0.7885576767757684
0.7884634608507186
0.7883971021129821
0.7900810063781951
0.7934391986072996
0.7930076992621786
0.7929695592544121
0.7929062564706715
0.792820292692372
0.7927105811667416
0.7925749724210085
0.7924110158272661
0.7922166640193895
0.7919912840826984
0.7917370125342159
0.7914599482543554
0.7911703358433699
0.7908808176300002
0.790603415575868
0.7903469261346688
0.7901147276174879
0.7899067239711877
0.7897224396268612
0.7895605482451894
0.789418827359317
0.7892944149692578
0.7891845665981325
0.7890865939136068
0.7889980346913562
0.7889156139277865
0.7888375086610755
0.7887619451170146
0.7886870088050882
0.7886107201842847
0.7885304437938442
0.7884407088265063
0.7883860888011494
0.7901703952359601
0.7934393058101078
0.7930077688842838
0.7929697055217332
0.7929065565654223
0.7928208240127732
0.7927114371270394
0.7925762605951789
0.7924128765672982
0.7922192454523452
0.7919947556837612
0.7917415180539166
0.7914656293993182
0.7911772767938843
0.7908889967799627
0.7906127280826503
0.7903572286982321
0.7901260395991776
0.7899190578177545
0.7897357531994043
0.789574931567092
0.7894342939899784
0.7893112405724861
0.7892029384020038
0.7891070646483738
0.7890208367539348
0.7889414558511514
0.7888665501281383
0.7887949582010526
0.7887250141962598
0.7886550237964225
0.7885830405614822
0.788506728276458
0.788421307903911
0.7883792757947801
0.7902889983527439
0.793439409571794
0.7930078310944743
0.7929698438440116
0.7929068347618649
0.792821314525225
0.7927122260895101
0.7925774557771378
0.7924145965603413
0.7922216304038694
0.7919979534270805
0.7917456719163876
0.7914708221649948
0.7911835840597234
0.7908964225737047
0.7906211972248882
0.7903666528355737
0.7901363895873107
0.7899303162565727
0.7897479622335302
0.7895880105160216
0.7894484276245732
0.7893264531743256
0.7892194556578245
0.7891251949758498
0.7890410630634864
0.7889640965711193
0.7888922434128878
0.7888238328525622
0.7887577961131551
0.7886927486164781
0.7886270205605848
0.7885588928178776
0.7884861463287112
0.7884048870912342
0.7883764096690066
0.790429436191739
0.7934395135115397
0.7930078897432402
0.7929699722752487
0.7929070958583989
0.79282176960223
0.7927129555724572
0.792578557910472
0.7924161849083223
0.7922238410558693
0.7920009120786844
0.7917495024761441
0.7914756116591181
0.7911893461319361
0.7909031905150632
0.7906289172718783
0.7903752589361351
0.7901458811293531
0.7899406394866184
0.7897590607741901
0.7896000301388812
0.7894612785313689
0.7893403429853232
0.7892344287160094
0.789141433891966
0.789059013351169
0.7889841251953571
0.7889147309751225
0.7888493498371733
0.7887865141328548
0.7887253286498335
0.7886645087684165
0.7886025288550398
0.7885378606367566
0.7884684281503522
0.7883913598534981
0.7883775910579068
0.7905892591574957
0.7934395926700897
0.7930079496250568
0.7929700937251807
0.792907341343511
0.7928221946184353
0.7927136309692915
0.7925795782104404
0.7924176580503143
0.7922258826480759
0.7920036535191557
0.7917530396013184
0.7914800344381803
0.7911946739866895
0.7909093745923175
0.790635972002632
0.7903831438064661
0.790154593992215
0.7899501192182112
0.7897693026784757
0.7896109743790052
0.7894730866514901
0.7893529626771401
0.7892481014248194
0.7891561537498173
0.7890750136449647
0.789001892431952
0.7889346332049781
0.7888716653971625
0.788811878486358
0.7887538518674754
0.7886969003016624
0.7886397723148235
0.7885811437503676
0.7885195335097798
0.7884532690098723
0.7883806647218807
0.7883835181073093
0.7907692757607616
0.7934394265248169
0.7930079942537906
0.7929702165655077
0.7929075724569005
0.7928225961991534
0.7927142639227444
0.7925805203231315
0.7924190163881744
0.792227771843408
0.7920061835965959
0.7917563184269142
0.7914841171189502
0.7911995844829391
0.7909150904700687
0.7906424067754871
0.7903903341546039
0.7901625339345082
0.7899588256253687
0.7897787289091628
0.7896210865472773
0.7894839002628108
0.7893646068637421
0.7892605230044616
0.7891696052692726
0.7890895514675664
0.7890177234660277
0.7889522048980449
0.7888914281777677
0.788834027680085
0.7887790718684444
0.7887252310606756
0.7886719467472233
0.7886180981495867
0.7885624978151209
0.7885037115742155
0.7884404391530146
0.788372668622678
0.7883950845712555
0.7909705244421603
0.7934373454971959
0.7930079561866465
0.7929703115694864
0.7929078073480528
0.7928229739332111
0.7927148606657861
0.7925814015859459
0.7924202763844501
0.7922295166725157
0.7920085292975155
0.7917593546078425
0.7914879006467249
0.7912041313748508
0.7909203622086174
0.7906483553289374
0.7903969023049514
0.7901697641981177
0.7899667664603078
0.7897873628932071
0.789630367774762
0.7894938633130713
0.7893752117586157
0.7892719396631066
0.7891818481803343
0.7891028451430888
0.7890321187065759
0.7889678964506481
0.7889088574807539
0.7888536776051503
0.7888011055907831
0.7887502808269087
0.7887001080399323
0.7886500675772132
0.7885991766683851
0.7885462214929685
0.7884901452920806
0.7884299178328997
0.7883674128832957
0.7884128102567799
0.7911936448352352
0.7934398252830933
0.7929887478303838
0.7929703952289573
0.7929079883410595
0.7928233574543941
0.7927154216806745
0.7925822351582958
0.7924214481848274
0.7922311351998417
0.7920106956238568
0.7917621769836781
0.7914914127596069
0.791208349902597
0.7909252451822036
0.7906538695216713
0.7904029809086078
0.790176432881983
0.7899740499987791
0.7897952703814428
0.7896389257226881
0.7895030229590485
0.7893850417749498
0.7892823999278858
0.7891930751455478
0.7891148791037887
0.789045258590381
0.7889821608730732
0.788924443152962
0.7888709692470481
0.7888206205749752
0.7887722261634628
0.7887250237436414
0.7886780261113723
0.7886309048314203
0.7885826240163837
0.7885322209426942
0.7884786995092883
0.7884214646577973
0.7883651115019449
0.7884375407925829
0.791437642853031
0.7934399188066712
0.793006391096285
0.7929085093257291
0.7929081949846906
0.7928236543099684
0.792715993076763
0.7925830197327106
0.7924225612097193
0.7922326445762239
0.7920127105192919
0.791764779099009
0.7914946730628032
0.7912122538242309
0.7909297862373549
0.7906589531750796
0.7904085947430186
0.7901825829167868
0.7899807181192926
0.7898025203446057
0.7896467834988482
0.7895114866476876
0.7893940903803185
0.7892921038104945
0.7892033752871682
0.7891259784817887
0.7890571329349875
0.7889951149960752
0.7889385498206705
0.7888864225352666
0.7888378311188642
0.7887915858633567
0.7887468102121933
0.7887027885169379
0.7886586641860824
0.7886140971626012
0.7885682615314331
0.7885202285789468
0.7884691451848411
0.7884151339874295
0.7883658930635433
0.7884709382867883
0.7916983027468567
0.7934359577678001
0.7930057019159373
0.7929636242674791
0.7927864928993953
0.7928240371817018
0.7927164340653547
0.7925838171879089
0.7924236087980406
0.792234071213592
0.7920145874982889
0.7917671978143257
0.7914976938687681
0.7912158885718232
0.7909339899741894
0.7906636834056123
0.7904137918697058
0.7901882747272412
0.7899868782173278
0.789809154200684
0.7896539245104331
0.78951920505658
0.7894024385886064
0.7893010074304645
0.7892129390133277
0.7891361968173014
0.7890681746571335
0.7890068917344291
0.7889513996371332
0.7889003942665113
0.7888531527970759
0.788808669865534
0.7887660677759761
0.7887244437977413
0.788683252824161
0.7886416608891776
0.7885994609242675
0.7885558985364377
0.7885101081905675
0.7884615663872223
0.7884109906056779
0.7883701036159272
0.7885156531827399
0.7919654003580578
0.7934383760742879
0.7929990302356485
0.7929603372262599
0.7928944500999393
0.792622834563183
0.7927170672890885
0.7925844363043686
0.7924246726623467
0.7922354210697627
0.7920163622328363
0.7917694603174337
0.791500504600136
0.7912192637945897
0.7909379122775497
0.7906681202815772
0.7904186415827061
0.7901935306711481
0.7899925928004892
0.7898152969388953
0.7896605501119773
0.7895263073247264
0.7894100773786987
0.789309248242422
0.7892217660222332
0.7891456330375225
0.7890782445441529
0.7890178056068536
0.7889630913911035
0.7889131509922591
0.788866996625966
0.7888239160709795
0.7887830472967134
0.7887436284456423
0.7887048408071645
0.7886660771783056
0.7886268125484166
0.7885868141527254
0.7885453313976878
0.7885017846630653
0.7884557882521924
0.7884090545939422
0.7883782202532716
0.7885754472266127
0.7922202827039029
0.7934408917562837
0.7930024181706691
0.7929377862207936
0.7928874371187309
0.7928010658652794
0.7924161516334939
0.7925854126005782
0.7924255002211763
0.7922367953053058
0.7920180388456368
0.7917715942768846
0.7915031353349415
0.7912224205796804
0.7909415617662174
0.7906722196496205
0.7904231610581991
0.7901984404556733
0.7899978702993801
0.7898209742330062
0.7896666679268307
0.7895328639492749
0.7894171234059963
0.789316822192541
0.7892299136801504
0.7891543619670129
0.7890876233423855
0.7890277746476996
0.7889738816098425
0.7889247678483121
0.7888796514260871
0.788837661101566
0.7887981707653761
0.7887605413560965
0.788723846387388
0.7886875267295773
0.788651066600952
0.7886139164773157
0.7885759625177602
0.788536504207521
0.7884951587609469
0.7884517997096203
0.7884094269836425
0.7883907307724385
0.7886553084202599
0.7924379423984125
0.7934413080501233
0.7930066587079971
0.7929485791757538
0.7928418340074378
0.792789002732621
0.7926824026234798
0.7921655915743706
0.7924269275690922
0.7922378628731171
0.7920197578769621
0.7917736147626078
0.7915056220941273
0.7912253665276274
0.7909449726247619
0.7906760599859952
0.7904273944864328
0.7902030178206934
0.790002805236625
0.7898262407329864
0.7896722787928888
0.789538910629345
0.7894235632771573
0.7893238000641492
0.7892373494870067
0.7891624156575243
0.789096236125511
0.7890370543049648
0.7889837764375376
0.7889354520481453
0.7888911410752923
0.788850238501419
0.7888118171325673
0.7887755282580551
0.7887406297385051
0.7887064386753887
0.7886723201182414
0.788637963627118
0.7886027454791819
0.7885667272088928
0.7885292959470012
0.7884902042496498
0.7884497569753206
0.7884123576905423
0.7884083425038394
0.7887617251299668
0.7925975561299066
0.7934405831774578
0.793007269250956
0.7929633713022485
0.792864366420448
0.7927119227035679
0.7926643038025858
0.7925364018588001
0.7918734659852732
0.7922398708467088
0.7920210842276887
0.7917756757950332
0.791507973097662
0.7912281597792072
0.7909481722423721
0.7906796449066865
0.7904313158135358
0.7902073280890142
0.7900074179094653
0.7898311708992245
0.7896775340680333
0.7895444962569041
0.7894295656626126
0.7893301924445176
0.789244261123267
0.7891698275363522
0.7891042176821832
0.7890456393336513
0.7889929623193704
0.7889452502917571
0.788901764523951
0.7888616108435309
0.7888243274952282
0.7887890845940491
0.7887555807520512
0.7887231503319264
0.7886911426131845
0.788659076815496
0.7886265628187821
0.7885932598519253
0.7885590921038476
0.788523718925778
0.7884869595772018
0.788449738744442
0.7884182125922695
0.7884330641000596
0.7889018716624512
0.7926958859648479
0.7934406129147873
0.7930085202218571
0.7929655451494064
0.7928947773538586
0.7927510027343515
0.792546797379451
0.7925119307552861
0.7923610774016007
0.7915485533517415
0.7920238169245152
0.7917772672624777
0.79151036972438
0.7912308009306153
0.790951221221188
0.7906830269017909
0.7904350297556901
0.7902113315264617
0.7900117347385399
0.7898357726265677
0.7896824088228382
0.7895496672058085
0.7894350988035184
0.789336064211932
0.789250561570898
0.7891766226673629
0.7891115737335312
0.7890535495519483
0.7890014716029421
0.7889543647288777
0.7889115153114534
0.7888721316595344
0.7888356262919053
0.7888014460848876
0.7887690124039594
0.7887379840259576
0.7887077724636148
0.7886777660390182
0.7886475580456008
0.7886168675176028
0.7885852860409037
0.7885530061310496
0.7885196878392075
0.7884854520794858
0.7884518320050287
0.7884273110473776
0.7884679590019493
0.7890808127658533
0.7927449155063504
0.7934406143414668
0.7930086309902954
0.792971420603455
0.7928994747849498
0.7928029627808497
0.792607478571265
0.792345148452227
0.7923305537860507
0.7921553151177455
0.7912085232991698
0.7917808682686962
0.7915122137757789
0.7912335060759553
0.7909541071749612
0.7906862656555956
0.7904385510749965
0.7902151432677496
0.7900158191428952
0.7898401177686876
0.7896869701139576
0.7895545146552239
0.7894402263166456
0.7893415779923703
0.7892564428284484
0.789182903278564
0.7891183005017289
0.7890607921950477
0.7890093092623905
0.7889628077663606
0.7889205053396365
0.7888818377058817
0.7888460493176728
0.7888127022268112
0.7887813087146218
0.7887513479014232
0.7887224875185517
0.7886942562783769
0.7886661142260878
0.788637601970472
0.7886086101980933
0.7885788299607319
0.7885484365448718
0.7885172859201455
0.7884857955345681
0.7884562463203565
0.7884402512723544
0.7885151220505032
0.7892987785639489
0.7927634883801642
0.7934406224723219
0.7930086499567968
0.7929717847272242
0.7929103428491859
0.7928112508999458
0.7926872883011674
0.792432366928014
0.7921073425962794
0.7921195485586903
0.7919200626231849
0.7908753595997985
0.791516784330964
0.7912355663966707
0.7909570500145526
0.7906893011270697
0.790441889491966
0.7902187070800032
0.7900196478921802
0.7898441865178449
0.7896912884578022
0.789559049073953
0.7894450290910797
0.7893466601636515
0.7892618416821444
0.7891887105141562
0.789124561830938
0.789067544457021
0.7890165398878923
0.7889706089758688
0.7889289367701398
0.788890787721902
0.788855689551711
0.7888230836280061
0.788792496672165
0.7887635494794676
0.7887357610243464
0.7887088858507054
0.7886824638206134
0.7886560056260172
0.7886291822571284
0.788601798337154
0.7885737454476931
0.7885453723134248
0.7885164792954293
0.7884880703632153
0.7884633305185814
0.7884576572898081
0.7885766775887226
0.789559886914279
0.7927688947673874
0.7934406542691914
0.7930086634981269
0.7929718884815917
0.7929111027041604
0.7928277994206253
0.79270024900017
0.792546277025159
0.7922250934584174
0.7918375982139251
0.791880164389513
0.7916596128386076
0.7905675053327268
0.7912411836773677
0.7909592825739804
0.7906924354601903
0.7904450510083666
0.790222156792948
0.7900232795334804
0.7898480609384086
0.7896953578047291
0.7895633670131991
0.7894495462793161
0.789351394416351
0.789266859467933
0.7891940801038307
0.7891303305632398
0.7890737236328788
0.7890231991734775
0.7889778094748602
0.7889366430945102
0.7888991216406785
0.7888645971986477
0.7888326014117605
0.7888027884919929
0.7887746206298709
0.7887478733834883
0.7887220716026071
0.7886969771402401
0.7886722552742002
0.7886473583613355
0.7886221105639628
0.788596383052369
0.7885701444075948
0.7885437664158104
0.7885174079599794
0.7884924717515043
0.7884733987655896
0.7884802684366866
0.7886567340120321
0.7898730111357765
0.7927699345642266
0.7934406752307823
0.7930086908963919
0.792971950460849
0.7929113802999774
0.792829139430195
0.792722931736962
0.7925648907087265
0.7923782843253666
0.7919874441819894
0.7915457795292316
0.7916172589675753
0.7913824360338898
0.7902943841579061
0.7909659389835503
0.7906947800516322
0.7904482910592768
0.7902254007536496
0.7900267627710835
0.7898517182196511
0.789699230061784
0.789567403654299
0.7894537933380066
0.7893558774328511
0.7892715675357108
0.7891990817644219
0.7891356335944844
0.7890794513014259
0.7890293353250271
0.788984408042393
0.7889438046428908
0.7889068121844149
0.7888728393292872
0.7888414511018526
0.7888122706898351
0.7887848517886404
0.7887588533544359
0.7887340666125925
0.7887100578560222
0.788686663405117
0.7886634843495014
0.7886401250931815
0.78861642294377
0.7885923950622203
0.7885679948652122
0.7885438048726614
0.7885202560509605
0.7884992680764457
0.788486935130274
0.7885100407880385
0.7887610905282066
0.7902352071735212
0.7927697962195266
0.7934406960790221
0.7930087129785492
0.7929720412013358
0.7929115417538004
0.7928296934531306
0.7927250499553358
0.7925938742282177
0.7924032188851828
0.7921820570310194
0.7917250324512081
0.7912466834221248
0.7913398174359991
0.7911004155027267
0.7900575215244441
0.790702414883779
0.7904507249840929
0.7902287261288266
0.7900300922047718
0.7898552264195241
0.7897028980033496
0.7895712299184814
0.7894578285093756
0.7893600900931002
0.7892759998911318
0.7892037236817071
0.7891405979132942
0.789084755926279
0.7890350482505013
0.7889905323344156
0.7889503905267905
0.7889138846970961
0.7888805165715784
0.7888496532729625
0.7888210225432183
0.7887942444122759
0.7887689643617072
0.7887449850448911
0.7887219659602118
0.7886995739003135
0.7886777963675758
0.7886561079251034
0.7886342640071509
0.7886120980683197
0.7885897356293396
0.788567307820427
0.7885455463416415
0.7885251126863911
0.7885086871014152
0.7885045301179212
0.7885506496567696
0.788897057572442
0.7906407807559981
0.7927694560082735
0.7934407141547001
0.7930087300322981
0.7929721201740414
0.792911754313951
0.7928300069029746
0.7927259886892795
0.7925969717223897
0.7924384690005261
0.7922136005313916
0.7919577963302192
0.7914475531210183
0.7909556642949866
0.7910597270676221
0.7908260631016286
0.7898539244848639
0.7904592607442202
0.7902312254894559
0.7900334661606943
0.7898585811179413
0.789706430171675
0.7895749215051273
0.7894616642995751
0.7893640793001604
0.7892802044251781
0.7892081198103129
0.7891451973794401
0.7890896838728435
0.7890403178422702
0.7889961780621662
0.7889564448829733
0.7889204557806385
0.7888875325729133
0.7888572354078205
0.7888291897856109
0.7888029620822822
0.7887783207191443
0.7887550107962593
0.7887327722410773
0.7887114358115186
0.7886905718795947
0.7886702397512332
0.7886500531226068
0.7886296556180223
0.7886090901914299
0.7885884962134233
0.7885681809885603
0.7885490919145746
0.788532227584411
0.7885212293542547
0.7885270288311326
0.7886051350901471
0.7890721677055461
0.7910832953017661
0.7927691125985805
0.7934407412469695
0.7930087459945099
0.7929721779463328
0.7929119470115961
0.7928304036977076
0.7927265138757114
0.7925984129587835
0.7924427502059934
0.7922549158775583
0.7919958545040361
0.7917085523958581
0.7911668533555274
0.7906839417904852
0.7907889870857844
0.7905696395180177
0.7896790738093156
0.7902406363615939
0.7900359959389913
0.789862014393649
0.7897098096169662
0.7895784521663095
0.7894653112434622
0.7893678994780761
0.7892841607925025
0.7892122626182172
0.7891495614557845
0.7890942448177978
0.7890452090326432
0.7890014138688963
0.7889620753220539
0.7889264997029917
0.7888940635550769
0.7888642637123031
0.7888367360561184
0.7888110605002207
0.7887869755810459
0.7887643073728874
0.7887427396409138
0.7887221003188739
0.7887022399859686
0.7886829175691515
0.7886639802280722
0.7886452110853444
0.788626302158649
0.7886074496242363
0.7885887218074449
0.7885707418506812
0.7885546367130931
0.7885419361508721
0.7885373348815523
0.7885553335130104
0.7886766342447704
0.7892920964223162
0.7915465472882789
0.7927687868018319
0.7934407630155924
0.7930087643973337
0.7929722261649428