/*--------------------------------*- C++ -*----------------------------------*\
| =========                 |                                                 |
| \\      /  F ield         | OpenFOAM: The Open Source CFD Toolbox           |
|  \\    /   O peration     | Version:  v2012                                 |
|   \\  /    A nd           | Website:  www.openfoam.com                      |
|    \\/     M anipulation  |                                                 |
\*---------------------------------------------------------------------------*/
FoamFile
{
    version     2.0;
    format      ascii;
    class       volScalarField;
    location    "13200";
    object      q2;
}
// * * * * * * * * * * * * * * * * * * * * * * * * * * * * * * * * * * * * * //

dimensions      [0 0 0 0 0 0 0];


internalField   nonuniform List<scalar> 
31383
(
1
1
1
1
1
1
1
1
1
1
1
1
1
1
1
1
1
1
1
1
1
1
1
1
1
1
1
1
1
1
1
1
1
1
1
1
1
1
1
1
1
1
1
1
1
1
1
1
1
1
1
1
1
1
1
1
1
1
1
1
1
1
1
1
1
1
1
1
1
1
1
1
1
1
1
1
0.999998
1
1
1
1
1
1
1
1
1
1
1
0.999999
0.999901
1
1
1
1
1
1
1
1
1
1
1
1
0.999941
0.999611
1
1
1
1
1
1
1
1
1
1
1
1
0.99996
0.999708
0.999554
1
1
1
1
1
1
1
1
1
1
1
1
0.999971
0.999758
0.999632
0.999722
1
1
1
1
1
1
1
1
1
1
1
1
0.999979
0.999794
0.99966
0.999776
0.999886
1
1
1
1
1
1
1
1
1
1
1
1
0.999983
0.999818
0.999684
0.99979
0.99991
0.999977
0.999999
1
1
1
1
1
1
1
1
1
1
1
0.999987
0.999841
0.9997
0.999802
0.99991
0.999982
0.999998
0.999997
1
1
1
1
1
1
1
1
1
1
1
0.99999
0.999857
0.999714
0.999805
0.999911
0.999981
0.999999
1
0.999996
1
1
1
1
1
1
1
1
1
1
1
0.999991
0.999873
0.999728
0.999805
0.99991
0.99998
0.999998
1
1
0.999989
1
1
1
1
1
1
1
1
1
1
1
0.999993
0.999884
0.999739
0.999805
0.999909
0.999978
0.999998
1
1
1
0.999969
1
1
1
1
1
1
1
1
1
1
1
0.999994
0.999895
0.999749
0.999807
0.999909
0.999977
0.999998
1
1
1
1
0.99993
1
1
1
1
1
1
1
1
1
1
1
0.999995
0.999904
0.999759
0.999808
0.99991
0.999977
0.999998
1
1
1
1
1
0.999865
1
1
1
1
1
1
1
1
1
1
1
0.999996
0.999911
0.999767
0.99981
0.999909
0.999976
0.999998
1
1
1
1
1
1
0.999757
1
1
1
1
1
1
1
1
1
1
1
0.999996
0.999918
0.999775
0.99981
0.999909
0.999976
0.999997
1
1
1
1
1
1
1
0.999553
1
1
1
1
1
1
1
1
1
1
1
0.999997
0.999924
0.999782
0.999811
0.999909
0.999975
0.999997
1
1
1
1
1
1
1
1
0.999107
1
1
1
1
1
1
1
1
1
1
1
0.999997
0.999929
0.999789
0.999812
0.999909
0.999974
0.999997
1
1
1
1
1
1
1
1
1
0.997909
1
1
1
1
1
1
1
1
1
1
1
0.999998
0.999934
0.999794
0.999813
0.999908
0.999974
0.999997
1
1
1
1
1
1
1
1
1
1
0.99373
1
1
1
1
1
1
1
1
1
1
1
0.999998
0.999937
0.999801
0.999814
0.999908
0.999973
0.999997
1
1
1
1
1
1
1
1
1
1
1
0.975883
1
1
1
1
1
1
1
1
1
1
1
0.999998
0.99994
0.999806
0.999815
0.999908
0.999973
0.999997
1
1
1
1
1
1
1
1
1
1
1
1
0.912286
1
1
1
1
1
1
1
1
1
1
1
0.999998
0.999943
0.99981
0.999817
0.999908
0.999972
0.999996
1
1
1
1
1
1
1
1
1
1
1
1
1
0.830613
1
1
1
1
1
1
1
1
1
1
1
0.999998
0.999946
0.999814
0.999818
0.999909
0.999972
0.999996
1
1
1
1
1
1
1
1
1
1
1
1
1
1
0.85415
1
1
1
1
1
1
1
1
1
1
1
0.999998
0.999948
0.999818
0.999819
0.999909
0.999972
0.999996
1
1
1
1
1
1
1
1
1
1
1
1
1
1
1
0.830207
1
1
1
1
1
1
1
1
1
1
1
0.999999
0.99995
0.999822
0.99982
0.999909
0.999971
0.999996
1
1
1
1
1
1
1
1
1
1
1
1
1
1
1
1
0.689435
1
1
1
1
1
1
1
1
1
1
1
0.999999
0.999952
0.999825
0.999821
0.999909
0.999971
0.999996
1
1
1
1
1
1
1
1
1
1
1
1
1
1
1
1
1
0.487205
1
1
1
1
1
1
1
1
1
1
1
0.999999
0.999953
0.999828
0.999822
0.99991
0.999971
0.999996
1
1
1
1
1
1
1
1
1
1
1
1
1
1
1
1
1
1
0.293488
1
1
1
1
1
1
1
1
1
1
1
0.999999
0.999955
0.99983
0.999823
0.99991
0.999971
0.999996
1
1
1
1
1
1
1
1
1
1
1
1
1
1
1
1
1
1
1
0.152409
1
1
1
1
1
1
1
1
1
1
1
0.999999
0.999956
0.999832
0.999824
0.999911
0.999971
0.999996
1
1
1
1
1
1
1
1
1
1
1
1
1
1
1
1
1
1
1
1
0.0686537
1
1
1
1
1
1
1
1
1
1
1
0.999999
0.999957
0.999835
0.999825
0.999911
0.999971
0.999996
1
1
1
1
1
1
1
1
1
1
1
1
1
1
1
1
1
1
1
1
1
0.0266147
1
0.00050409
1
1
1
1
1
1
1
1
1
0.999999
0.999958
0.999837
0.999826
0.999911
0.999971
0.999996
1
1
1
1
1
1
1
1
1
1
1
1
1
1
1
1
1
1
1
1
1
1
0.00875001
1
1
7.7581e-05
1
1
1
1
1
1
1
1
0.999999
0.999959
0.999838
0.999827
0.999911
0.999971
0.999995
1
1
1
1
1
1
1
1
1
1
1
1
1
1
1
1
1
1
1
1
1
1
1
0.00241345
1
1
1
2.80924e-05
1
1
1
1
1
1
1
0.999999
0.99996
0.99984
0.999828
0.999912
0.99997
0.999995
1
1
1
1
1
1
1
1
1
1
1
1
1
1
1
1
1
1
1
1
1
1
1
1
0.000567926
1
0.506883
0.999483
1
1.52607e-05
1
1
1
1
1
1
0.999999
0.999961
0.999842
0.999828
0.999912
0.99997
0.999995
1
1
1
1
1
1
1
1
1
1
1
1
1
1
1
1
1
1
1
1
1
1
1
1
1
0.000123905
1
0.943126
0.0659414
0.880292
1
1.05135e-05
1
1
1
1
1
0.999999
0.999961
0.999843
0.999829
0.999912
0.99997
0.999995
1
1
1
1
1
1
1
1
1
1
1
1
1
1
1
1
1
1
1
1
1
1
1
1
1
0.999944
3.04059e-05
1
1
0.206919
0.021524
0.595327
1
8.60558e-06
1
1
1
1
0.999999
0.999962
0.999845
0.99983
0.999913
0.99997
0.999995
1
1
1
1
1
1
1
1
1
1
1
1
1
1
1
1
1
1
1
1
1
1
1
1
1
1
0.996604
1.07813e-05
1
1
0.999998
0.0684759
0.0110645
0.418809
0.999976
8.35976e-06
1
1
1
0.999999
0.999963
0.999846
0.999831
0.999913
0.99997
0.999995
1
1
1
1
1
1
1
1
1
1
1
1
1
1
1
1
1
1
1
1
1
1
1
1
1
1
1
0.960014
7.91964e-06
1
1
1
0.976016
0.0350928
0.00732622
0.311732
0.999444
9.99584e-06
1
1
0.999999
0.999963
0.999847
0.999831
0.999913
0.99997
0.999995
1
1
1
1
1
1
1
1
1
1
1
1
1
1
1
1
1
1
1
1
1
1
1
1
1
1
1
1
0.854411
1.79534e-05
1
1
1
0.999985
0.79767
0.0232284
0.00575843
0.263367
0.995418
1.56716e-05
1
0.999999
0.999964
0.999848
0.999832
0.999914
0.99997
0.999995
1
1
1
1
1
1
1
1
1
1
1
1
1
1
1
1
1
1
1
1
1
1
1
1
1
1
1
1
1
0.738877
6.31597e-05
1
1
1
1
0.9896
0.592474
0.0178801
0.00524687
0.234096
0.982218
3.13255e-05
0.999999
0.999964
0.999849
0.999832
0.999914
0.99997
0.999995
1
1
1
1
1
1
1
1
1
1
1
1
1
1
1
1
1
1
1
1
1
1
1
1
1
1
1
1
1
1
0.592401
0.000166387
1
1
1
1
1
0.903808
0.451765
0.015774
0.00558343
0.234238
0.971104
7.66496e-05
0.999964
0.99985
0.999833
0.999914
0.99997
0.999995
1
1
1
1
1
1
1
1
1
1
1
1
1
1
1
1
1
1
1
1
1
1
1
1
1
1
1
1
1
1
1
0.357459
0.000259047
1
1
1
1
1
1
0.781153
0.364364
0.0157468
0.00720455
0.253966
0.971004
0.000208911
0.999851
0.999833
0.999914
0.999971
0.999995
1
1
1
1
1
1
1
1
1
1
1
1
1
1
1
1
1
1
1
1
1
1
1
1
1
1
1
1
1
1
1
0.999924
0.173711
0.000345648
1
1
1
1
1
1
1
0.660367
0.292359
0.0180519
0.0112892
0.32227
0.976189
0.000577205
0.999835
0.999915
0.999971
0.999995
1
1
1
1
1
1
1
1
1
1
1
1
1
1
1
1
1
1
1
1
1
1
1
1
1
1
1
1
1
1
1
1
0.994039
0.0695368
0.000361642
1
1
1
1
1
1
1
1
0.53972
0.259401
0.0237657
0.0213613
0.429726
0.991426
0.00154059
0.999916
0.999971
0.999995
1
1
1
1
1
1
1
1
1
1
1
1
1
1
1
1
1
1
1
1
1
1
1
1
1
1
1
1
1
1
1
1
1
0.925789
0.0222194
0.00032028
1
1
1
1
1
1
1
1
1
0.451615
0.246554
0.0367476
0.0423275
0.609635
0.99781
0.00388478
0.999971
0.999995
1
1
1
1
1
1
1
1
1
1
1
1
1
1
1
1
1
1
1
1
1
1
1
1
1
1
1
1
1
1
1
1
1
1
0.732993
0.0053465
0.000339521
1
1
1
1
1
1
1
1
1
1
0.441681
0.26764
0.0623261
0.0880649
0.816007
0.999757
0.00917291
0.999995
1
1
1
1
1
1
1
1
1
1
1
1
1
1
1
1
1
1
1
1
1
1
1
1
1
1
1
1
1
1
1
1
1
1
0.999999
0.533751
0.000946941
0.000512904
1
1
1
1
1
1
1
1
1
1
0.999995
0.440197
0.338069
0.114083
0.177904
0.956639
0.999983
0.020382
1
1
1
1
1
1
1
1
1
1
1
1
1
1
1
1
1
1
1
1
1
1
1
1
1
1
1
1
1
1
1
1
1
1
1
0.999406
0.398054
0.000161658
0.00136291
1
1
1
1
1
1
1
1
1
1
1
0.999699
0.490234
0.460292
0.215825
0.341691
0.993471
1
0.0426181
1
1
1
1
1
1
1
1
1
1
1
1
1
1
1
1
1
1
1
1
1
1
1
1
1
1
1
1
1
1
1
1
1
1
1
0.974965
0.230904
6.32453e-05
0.0127344
1
1
1
1
1
1
1
1
1
1
1
0.999969
0.99839
0.606218
0.618662
0.391557
0.588223
0.999631
1
0.0849418
1
1
1
1
1
1
1
1
1
1
1
1
1
1
1
1
1
1
1
1
1
1
1
1
1
1
1
1
1
1
1
1
1
1
1
0.815813
0.10563
7.21497e-05
1
1
1
1
1
1
1
1
1
1
1
1
0.999999
0.999582
0.997382
0.745668
0.78795
0.640191
0.812171
0.999993
1
0.161122
1
1
1
1
1
1
1
1
1
1
1
1
1
1
1
1
1
1
1
1
1
1
1
1
1
1
1
1
1
1
1
1
1
1
0.999977
0.549815
0.0422619
0.000106637
0.0330484
1
1
1
1
1
1
1
1
1
1
1
0.999999
0.999937
0.998881
0.998092
0.867296
0.921683
0.86791
0.952352
1
1
0.283904
1
1
1
1
1
1
1
1
1
1
1
1
1
1
1
1
1
1
1
1
1
1
1
1
1
1
1
1
1
1
1
1
1
1
0.994283
0.374789
0.0141374
0.000277672
0.00529921
1
1
1
1
1
1
1
1
1
1
1
0.999999
0.999947
0.999706
0.998984
0.999222
0.952829
0.984169
0.974976
0.995994
1
1
0.463974
1
1
1
1
1
1
1
1
1
1
1
1
1
1
1
1
1
1
1
1
1
1
1
1
1
1
1
1
1
1
1
1
1
1
0.901381
0.284286
0.00432793
0.00443063
0.0204397
1
1
1
1
1
1
1
1
1
1
1
0.999999
0.999935
0.999765
0.999699
0.999606
0.999731
0.990449
0.998408
0.998525
0.999919
1
1
0.680156
1
1
1
1
1
1
1
1
1
1
1
1
1
1
1
1
1
1
1
1
1
1
1
1
1
1
1
1
1
1
1
1
1
0.999969
0.64173
0.142061
0.0018964
1
0.252168
1
1
1
1
1
1
1
1
1
1
1
0.999999
0.999948
0.999725
0.999725
0.999848
0.999857
0.999958
0.998971
0.999954
0.999982
1
1
1
0.873766
1
1
1
1
1
1
1
1
1
1
1
1
1
1
1
1
1
1
1
1
1
1
1
1
1
1
1
1
1
1
1
1
1
0.991509
0.406874
0.06198
0.00190602
0.0713711
0.958076
1
1
1
1
1
1
1
1
1
1
1
0.999999
0.999956
0.999757
0.999677
0.999844
0.999938
0.999972
0.999997
0.999966
1
1
1
1
1
0.975174
1
1
1
1
1
1
1
1
1
1
1
1
1
1
1
1
1
1
1
1
1
1
1
1
1
1
1
1
1
1
1
1
1
0.864526
0.284162
0.0262935
0.00563806
0.0406629
0.94656
1
1
1
1
1
1
1
1
1
1
1
0.999999
0.999958
0.999808
0.999707
0.999816
0.999942
0.999989
0.999998
1
1
1
1
1
1
1
0.998201
1
1
1
1
1
1
1
1
1
1
1
1
1
1
1
1
1
1
1
1
1
1
1
1
1
1
1
1
1
1
1
1
0.999298
0.570761
0.171414
0.012567
0.35544
0.231284
0.664466
1
1
1
1
1
1
1
1
1
1
1
0.999999
0.999958
0.999803
0.999739
0.999833
0.999931
0.999989
0.999999
1
1
1
1
1
1
1
1
0.999968
1
1
1
1
1
1
1
1
1
1
1
1
1
1
1
1
1
1
1
1
1
1
1
1
1
1
1
1
1
1
1
1
0.953127
0.353867
0.0805584
0.0115431
0.617681
0.99988
0.303678
1
1
1
1
1
1
1
1
1
1
1
0.999999
0.999961
0.999787
0.999732
0.999847
0.999937
0.999986
0.999999
1
1
1
1
1
1
1
1
1
1
1
1
1
1
1
1
1
1
1
1
1
1
1
1
1
1
1
1
1
1
1
1
1
1
1
1
1
1
1
1
1
0.999863
0.703515
0.25045
0.0385786
0.0173434
0.114841
1
0.110692
1
1
1
1
1
1
1
1
1
1
1
0.999999
0.999961
0.999793
0.999724
0.999849
0.999941
0.999987
0.999999
1
1
1
1
1
1
1
1
1
1
1
1
1
1
1
1
1
1
1
1
1
1
1
1
1
1
1
1
1
1
1
1
1
1
1
1
1
1
1
1
1
1
0.976695
0.42069
0.135136
0.0231817
0.13676
0.0793738
0.99944
0.037228
1
1
1
1
1
1
1
1
1
1
1
0.999999
0.999963
0.999799
0.999722
0.999842
0.999937
0.999988
0.999999
1
1
1
1
1
1
1
1
1
1
1
1
1
1
1
1
1
1
1
1
1
1
1
1
1
1
1
1
1
1
1
1
1
1
1
1
1
1
1
1
1
1
0.999901
0.762682
0.267042
0.0642067
0.0267121
1
0.36777
1
0.0142498
1
1
1
1
1
1
1
1
1
1
1
1
0.999962
0.999798
0.99973
0.999846
0.999936
0.999987
0.999999
1
1
1
1
1
1
1
1
1
1
1
1
1
1
1
1
1
1
1
1
1
1
1
1
1
1
1
1
1
1
1
1
1
1
1
1
1
1
1
1
1
1
1
0.978513
0.449259
0.167551
0.0355478
0.0543882
0.211434
0.946622
1
0.00593656
1
1
1
1
1
1
1
1
1
1
1
1
0.999967
0.9998
0.999735
0.999845
0.999936
0.999986
0.999999
1
1
1
1
1
1
1
1
1
1
1
1
1
1
1
1
1
1
1
1
1
1
1
1
1
1
1
1
1
1
1
1
1
1
1
1
1
1
1
1
1
1
1
0.999775
0.761023
0.271712
0.0787822
0.0288637
0.999947
0.61989
0.982296
1
0.00236453
1
1
1
1
1
1
1
1
1
1
1
1
1
0.999815
0.999727
0.999846
0.999936
0.999986
0.999999
1
1
1
1
1
1
1
1
1
1
1
1
1
1
1
1
1
1
1
1
1
1
1
1
1
1
1
1
1
1
1
1
1
1
1
1
1
1
1
1
1
1
1
1
0.96655
0.439819
0.176221
0.0421608
0.0794938
0.621074
1
0.916321
1
0.000881167
1
1
1
1
1
1
1
1
1
1
1
1
1
0.999993
0.999745
0.999844
0.999935
0.999986
0.999999
1
1
1
1
1
1
1
1
1
1
1
1
1
1
1
1
1
1
1
1
1
1
1
1
1
1
1
1
1
1
1
1
1
1
1
1
1
1
1
1
1
1
1
1
0.998973
0.710174
0.260485
0.0804549
0.0342396
0.996161
1
1
0.707008
1
0.000318787
1
1
1
1
1
1
1
1
1
1
1
1
1
1
0.999981
0.999853
0.999934
0.999986
0.999999
1
1
1
1
1
1
1
1
1
1
1
1
1
1
1
1
1
1
1
1
1
1
1
1
1
1
1
1
1
1
1
1
1
1
1
1
1
1
1
1
1
1
1
1
0.999994
0.929757
0.398428
0.161123
0.0423733
0.0779737
0.999128
1
1
0.435393
0.999955
0.000111753
1
1
1
1
1
1
1
1
1
1
1
1
1
1
1
0.999987
0.999938
0.999986
0.999999
1
1
1
1
1
1
1
1
1
1
1
1
1
1
1
1
1
1
1
1
1
1
1
1
1
1
1
1
1
1
1
1
1
1
1
1
1
1
1
1
1
1
1
1
1
0.993888
0.614958
0.234105
0.0713286
0.0366022
0.999403
1
1
0.999851
0.267472
0.936654
4.33093e-05
1
1
1
1
1
1
1
1
1
1
1
1
1
1
1
1
0.999997
0.999986
0.999999
1
1
1
1
1
1
1
1
1
1
1
1
1
1
1
1
1
1
1
1
1
1
1
1
1
1
1
1
1
1
1
1
1
1
1
1
1
1
1
1
1
1
1
1
1
0.999815
0.844213
0.336723
0.130348
0.0388915
0.107179
1
1
1
0.892666
0.165059
0.359285
2.54571e-05
1
1
1
1
1
1
1
1
1
1
1
1
1
1
1
1
1
1
0.999999
1
1
1
1
1
1
1
1
1
1
1
1
1
1
1
1
1
1
1
1
1
1
1
1
1
1
1
1
1
1
1
1
1
1
1
1
1
1
1
1
1
1
1
1
1
0.999998
0.966608
0.491668
0.200578
0.0569673
0.0379739
0.986011
1
1
1
0.600117
0.156792
0.0990049
1.46232e-05
1
1
1
1
1
1
1
1
1
1
1
1
1
1
1
1
1
1
1
1
1
1
1
1
1
1
1
1
1
1
1
1
1
1
1
1
1
1
1
1
1
1
1
1
1
1
1
1
1
1
1
1
1
1
1
1
1
1
1
1
1
1
1
1
1
0.996469
0.695352
0.268448
0.0952492
0.0349135
0.18346
1
1
1
0.999994
0.377801
0.13621
0.0357143
8.50263e-06
1
1
1
1
1
1
1
1
1
1
1
1
1
1
1
1
1
1
1
1
1
1
1
1
1
1
1
1
1
1
1
1
1
1
1
1
1
1
1
1
1
1
1
1
1
1
1
1
1
1
1
1
1
1
1
1
1
1
1
1
1
1
1
1
1
0.999807
0.871834
0.375586
0.162174
0.043006
0.0531744
0.996034
1
1
0.99981
1
0.175269
0.135449
0.0100267
5.07195e-06
1
1
1
1
1
1
1
1
1
1
1
1
1
1
1
1
1
1
1
1
1
1
1
1
1
1
1
1
1
1
1
1
1
1
1
1
1
1
1
1
1
1
1
1
1
1
1
1
1
1
1
1
1
1
1
1
1
1
1
1
1
1
1
1
1
0.999994
0.964586
0.51437
0.210888
0.0649672
0.0324381
0.480564
1
1
0.999773
0.997681
0.936969
0.0689379
0.255327
0.00261812
3.19823e-06
1
1
1
1
1
1
1
1
1
1
1
1
1
1
1
1
1
1
1
1
1
1
1
1
1
1
1
1
1
1
1
1
1
1
1
1
1
1
1
1
1
1
1
1
1
1
1
1
1
1
1
1
1
1
1
1
1
1
1
1
1
1
1
1
1
1
0.993734
0.682185
0.27294
0.102118
0.0332078
0.101808
0.999876
1
1
0.996225
0.792924
0.876548
0.02303
0.91905
0.000603435
2.16071e-06
1
1
1
1
1
1
1
1
1
1
1
1
1
1
1
1
1
1
1
1
1
1
1
1
1
1
1
1
1
1
1
1
1
1
1
1
1
1
1
1
1
1
1
1
1
1
1
1
1
1
1
1
1
1
1
1
1
1
1
1
1
1
1
1
1
1
0.999261
0.835572
0.361538
0.160131
0.0421152
0.0371951
0.270427
1
1
1
0.915085
0.615766
0.393713
0.0101851
1
0.00010707
1.55524e-06
1
1
1
1
1
1
1
1
1
1
1
1
1
1
1
1
1
1
1
1
1
1
1
1
1
1
1
1
1
1
1
1
1
1
1
1
1
1
1
1
1
1
1
1
1
1
1
1
1
1
1
1
1
1
1
1
1
1
1
1
1
1
1
1
1
1
0.999939
0.93347
0.472428
0.199092
0.0605145
0.0287274
0.616857
0.99999
1
1
1
0.738592
0.421763
0.154283
0.00577871
1
1.60475e-05
1.22205e-06
1
1
1
1
1
1
1
1
1
1
1
1
1
1
1
1
1
1
1
1
1
1
1
1
1
1
1
1
1
1
1
1
1
1
1
1
1
1
1
1
1
1
1
1
1
1
1
1
1
1
1
1
1
1
1
1
1
1
1
1
1
1
1
1
1
1
0.999996
0.979173
0.600352
0.246148
0.0887764
0.0295168
0.0992186
0.999998
0.701091
0.999096
1
0.999564
0.621429
0.214883
0.0484088
0.00393477
0.675461
2.56836e-06
1.07309e-06
1
1
1
1
1
1
1
1
1
1
1
1
1
1
1
1
1
1
1
1
1
1
1
1
1
1
1
1
1
1
1
1
1
1
1
1
1
1
1
1
1
1
1
1
1
1
1
1
1
1
1
1
1
1
1
1
1
1
1
1
1
1
1
1
1
1
1
0.994911
0.733573
0.308569
0.129681
0.0354797
0.0367591
0.25865
0.346228
0.341646
0.798698
1
0.979013
0.409433
0.104458
0.0135826
0.00331225
0.0597866
7.84998e-07
1.12808e-06
1
1
1
1
1
1
1
1
1
1
1
1
1
1
1
1
1
1
1
1
1
1
1
1
1
1
1
1
1
1
1
1
1
1
1
1
1
1
1
1
1
1
1
1
1
1
1
1
1
1
1
1
1
1
1
1
1
1
1
1
1
1
1
1
1
1
1
0.998998
0.846308
0.386999
0.169446
0.0470506
0.0252749
0.819415
0.499328
0.0912026
0.150739
0.404737
0.999967
0.722846
0.280512
0.0488347
0.00440705
0.00328749
0.00561715
2.80575e-07
1.6404e-06
1
1
1
1
1
1
1
1
1
1
1
1
1
1
1
1
1
1
1
1
1
1
1
1
1
1
1
1
1
1
1
1
1
1
1
1
1
1
1
1
1
1
1
1
1
1
1
1
1
1
1
1
1
1
1
1
1
1
1
1
1
1
1
1
1
1
1
0.999834
0.922537
0.477138
0.202253
0.0646379
0.0248334
0.167732
0.969561
0.0538803
0.0403304
0.0664592
0.299828
0.873481
0.477506
0.141068
0.019552
0.00165962
0.00608082
0.000509004
1.1746e-07
2.70911e-06
1
1
1
1
1
1
1
1
1
1
1
1
1
1
1
1
1
1
1
1
1
1
1
1
1
1
1
1
1
1
1
1
1
1
1
1
1
1
1
1
1
1
1
1
1
1
1
1
1
1
1
1
1
1
1
1
1
1
1
1
1
1
1
1
1
1
1
0.999976
0.965747
0.574054
0.240932
0.0887474
0.0272433
0.0583811
0.641131
0.069941
0.0214643
0.0200499
0.0394862
0.139785
0.323385
0.226056
0.0762354
0.00848544
0.000605344
0.0274499
3.76902e-05
5.97572e-08
4.32717e-06
1
1
1
1
1
1
1
1
1
1
1
1
1
1
1
1
1
1
1
1
1
1
1
1
1
1
1
1
1
1
1
1
1
1
1
1
1
1
1
1
1
1
1
1
1
1
1
1
1
1
1
1
1
1
1
1
1
1
1
1
1
1
1
1
1
1
1
0.999997
0.986653
0.675736
0.287985
0.120473
0.0325477
0.0286286
0.143117
0.168117
0.0201176
0.0104455
0.01101
0.0201403
0.0538147
0.0959098
0.077345
0.0506159
0.003711
0.000240042
0.0672127
3.36896e-06
3.8716e-08
6.57394e-06
1
1
1
1
1
1
1
1
1
1
1
1
1
1
1
1
1
1
1
1
1
1
1
1
1
1
1
1
1
1
1
1
1
1
1
1
1
1
1
1
1
1
1
1
1
1
1
1
1
1
1
1
1
1
1
1
1
1
1
1
1
1
1
1
1
1
1
1
0.995305
0.770944
0.344328
0.154259
0.0410821
0.0212283
0.609809
0.625999
0.024362
0.00950213
0.00595343
0.00608011
0.00969185
0.023758
0.0284083
0.0465677
0.0259546
0.00144327
0.000136189
0.0636498
2.7515e-07
3.19529e-08
9.8867e-06
1
1
1
1
1
1
1
1
1
1
1
1
1
1
1
1
1
1
1
1
1
1
1
1
1
1
1
1
1
1
1
1
1
1
1
1
1
1
1
1
1
1
1
1
1
1
1
1
1
1
1
1
1
1
1
1
1
1
1
1
1
1
1
1
1
1
1
1
0.998478
0.848707
0.407087
0.178418
0.0530775
0.0209851
0.150509
0.998659
0.0393654
0.0105645
0.00533562
0.00328761
0.003209
0.0048331
0.00932389
0.00877795
0.0346686
0.0122496
0.00056804
0.000113216
0.00226009
5.72618e-08
3.32262e-08
1.60657e-05
1
1
1
1
1
1
1
1
1
1
1
1
1
1
1
1
1
1
1
1
1
1
1
1
1
1
1
1
1
1
1
1
1
1
1
1
1
1
1
1
1
1
1
1
1
1
1
1
1
1
1
1
1
1
1
1
1
1
1
1
1
1
1
1
1
1
1
1
0.999535
0.905574
0.474047
0.204092
0.0683838
0.0222836
0.0648527
0.571373
0.0812743
0.0141334
0.0054754
0.00292466
0.00182656
0.00175051
0.00237029
0.00348476
0.00290878
0.0151741
0.00568642
0.000239246
0.000115398
5.74574e-05
1.75e-08
4.24377e-08
2.85479e-05
1
1
1
1
1
1
1
1
1
1
1
1
1
1
1
1
1
1
1
1
1
1
1
1
1
1
1
1
1
1
1
1
1
1
1
1
1
1
1
1
1
1
1
1
1
1
1
1
1
1
1
1
1
1
1
1
1
1
1
1
1
1
1
1
1
1
1
1
0.999864
0.943938
0.541655
0.232738
0.0871061
0.0250655
0.0353128
0.214782
0.27825
0.0212375
0.00693467
0.00292173
0.00163334
0.0010328
0.000976272
0.00112468
0.00129418
0.00104114
0.00635748
0.00209309
0.000127789
0.000192405
2.03943e-06
8.0078e-09
6.55975e-08
5.94068e-05
1
1
1
1
1
1
1
1
1
1
1
1
1
1
1
1
1
1
1
1
1
1
1
1
1
1
1
1
1
1
1
1
1
1
1
1
1
1
1
1
1
1
1
1
1
1
1
1
1
1
1
1
1
1
1
1
1
1
1
1
1
1
1
1
1
1
1
1
0.999962
0.968269
0.610685
0.26484
0.10941
0.0291836
0.0224203
0.700427
0.853095
0.0405352
0.00985011
0.00368325
0.00156829
0.000915038
0.00060257
0.000540817
0.000520476
0.000478118
0.000411388
0.00115589
0.000768646
8.15387e-05
0.00362355
1.23787e-07
5.05956e-09
1.24562e-07
0.000138842
1
1
1
1
1
1
1
1
1
1
1
1
1
1
1
1
1
1
1
1
1
1
1
1
1
1
1
1
1
1
1
1
1
1
1
1
1
1
1
1
1
1
1
1
1
1
1
1
1
1
1
1
1
1
1
1
1
1
1
1
1
1
1
1
1
1
1
1
0.999989
0.982787
0.679136
0.300705
0.135424
0.0348321
0.0173241
0.249332
0.999997
0.0883613
0.0182883
0.00524386
0.00192217
0.00085118
0.00051949
0.000358299
0.000298829
0.000239818
0.000176138
0.000166147
0.000240212
0.000234796
8.65329e-05
0.000285595
1.55087e-08
4.6778e-09
2.77528e-07
0.000465246
1
1
1
1
1
1
1
1
1
1
1
1
1
1
1
1
1
1
1
1
1
1
1
1
1
1
1
1
1
1
1
1
1
1
1
1
1
1
1
1
1
1
1
1
1
1
1
1
1
1
1
1
1
1
1
1
1
1
1
1
1
1
1
1
1
1
1
1
0.999997
0.991017
0.743333
0.339779
0.15362
0.042047
0.0171606
0.118299
0.966955
0.222534
0.0368895
0.00907759
0.0027339
0.00102286
0.000469431
0.000297405
0.000220599
0.000171207
0.000117475
6.72811e-05
6.43556e-05
5.24106e-05
5.69419e-05
0.000129305
2.89332e-06
3.99914e-09
5.67037e-09
8.51014e-07
0.00165184
1
1
1
1
1
1
1
1
1
1
1
1
1
1
1
1
1
1
1
1
1
1
1
1
1
1
1
1
1
1
1
1
1
1
1
1
0.999996
1
1
1
1
1
1
1
1
1
1
1
1
1
1
1
1
1
1
1
1
1
1
1
1
1
1
1
1
1
1
1
0.999999
0.995453
0.800493
0.381412
0.170246
0.0506323
0.0177059
0.0681353
0.8356
0.676392
0.0778644
0.0177256
0.0047236
0.00143199
0.000549768
0.00026335
0.000173417
0.000140601
0.0001046
5.70413e-05
2.94798e-05
2.32172e-05
1.41617e-05
9.67986e-06
0.000234042
1.1623e-07
1.53531e-09
1.08025e-08
2.65719e-06
0.0188208
1
1
1
1
1
1
1
1
1
1
1
1
1
1
1
1
1
1
1
1
1
1
1
1
1
1
1
1
1
1
1
1
1
1
1
1
1
0.999982
1
1
1
1
1
1
1
1
1
1
1
1
1
1
1
1
1
1
1
1
1
1
1
1
1
1
1
1
1
1
1
0.99776
0.848272
0.42453
0.187164
0.0605625
0.0188878
0.0444574
0.977843
0.999713
0.191006
0.0355417
0.00918277
0.00242487
0.000759014
0.000300678
0.000155381
0.000102189
9.41612e-05
6.1519e-05
3.01127e-05
1.32464e-05
9.30217e-06
4.27729e-06
3.42491e-06
0.000188657
7.38213e-09
1.27616e-09
2.22087e-08
2.38621e-05
0.00714232
1
1
1
1
1
1
1
1
1
1
1
1
1
1
1
1
1
1
1
1
1
1
1
1
1
1
1
1
1
1
1
1
1
1
1
1
1
1
0.999928
1
1
1
1
1
1
1
1
1
1
1
1
1
1
1
1
1
1
1
1
1
1
1
1
1
1
1
1
1
1
0.99892
0.887194
0.468498
0.204856
0.0717681
0.0206487
0.030455
0.619191
1
0.564703
0.0862632
0.018232
0.00445507
0.00120838
0.000399934
0.000168903
9.3986e-05
6.28056e-05
6.17609e-05
3.85121e-05
1.49201e-05
7.6084e-06
3.16649e-06
1.82917e-06
1.43083e-06
1.1098e-06
1.99898e-09
1.13462e-09
1.41672e-07
1.22422e-05
1
1
1
1
1
1
1
1
1
1
1
1
1
1
1
1
1
1
1
1
1
1
1
1
1
1
1
1
1
1
1
1
1
1
1
1
1
1
1
0.999701
1
1
1
1
1
1
1
1
1
1
1
1
1
1
1
1
1
1
1
1
1
1
1
1
1
1
1
1
1
0.999487
0.917383
0.512412
0.223762
0.0843643
0.0229046
0.021927
0.349676
1
0.99228
0.260573
0.0404624
0.00855355
0.00226108
0.000608413
0.000216862
9.65451e-05
5.95244e-05
4.09485e-05
4.52808e-05
2.10544e-05
9.62664e-06
3.60909e-06
1.79161e-06
5.8039e-07
2.20625e-06
1.30226e-07
3.91109e-10
5.82974e-09
5.46284e-08
1
1
1
1
1
1
1
1
1
1
1
1
1
1
1
1
1
1
1
1
1
1
1
1
1
1
1
1
1
1
1
1
1
1
1
1
1
1
1
1
0.998738
1
1
1
1
1
1
1
1
1
1
1
1
1
1
1
1
1
1
1
1
1
1
1
1
1
1
1
1
0.99976
0.940499
0.555344
0.243812
0.0983216
0.0257023
0.0163577
0.207135
0.999994
0.999785
0.827371
0.115576
0.0174349
0.00402876
0.00109305
0.00032693
0.000119343
5.85121e-05
3.78228e-05
2.97599e-05
2.8773e-05
1.49356e-05
5.10671e-06
2.74407e-06
6.20568e-07
7.37077e-07
1.46495e-07
8.49462e-10
3.53977e-09
6.81032e-10
1
1
1
1
1
1
1
1
1
1
1
1
1
1
1
1
1
1
1
1
1
1
1
1
1
1
1
1
1
1
1
1
1
1
1
1
1
1
1
1
1
0.995417
1
1
1
1
1
1
1
1
1
1
1
1
1
1
1
1
1
1
1
1
1
1
1
1
1
1
1
0.999889
0.957852
0.598559
0.265278
0.113635
0.0290538
0.0136866
0.136756
0.999863
1
0.98948
0.402176
0.0451134
0.00818003
0.00196862
0.000538065
0.000170024
6.75619e-05
3.50742e-05
2.75412e-05
2.23235e-05
2.3833e-05
7.91871e-06
4.09799e-06
8.2387e-07
1.44508e-06
1.76185e-08
1.24127e-09
9.16708e-10
2.48215e-11
1
1
1
1
1
1
1
1
1
1
1
1
1
1
1
1
1
1
1
1
1
1
1
1
1
1
1
1
1
1
1
1
1
1
1
1
1
1
1
1
1
1
0.986802
1
1
1
1
1
1
1
1
1
1
1
1
1
1
1
1
1
1
1
1
1
1
1
1
1
1
0.99995
0.970615
0.641505
0.287957
0.13035
0.0329518
0.0137122
0.0991128
0.997917
1
1
0.783276
0.151197
0.0169214
0.00354295
0.000972433
0.000265931
9.09361e-05
3.69634e-05
2.44795e-05
1.87561e-05
2.17647e-05
1.45118e-05
6.64458e-06
9.34023e-07
3.59254e-06
2.33409e-08
5.8883e-10
1.71236e-11
2.45846e-12
1
1
1
1
1
1
1
1
1
1
1
1
1
1
1
1
1
1
1
1
1
1
1
1
1
1
1
1
1
1
1
1
1
1
1
1
1
1
1
1
1
1
1
0.970253
1
1
1
1
1
1
1
1
1
1
1
1
1
1
1
1
1
1
1
1
1
1
1
1
1
0.999977
0.98001
0.68403
0.311984
0.142099
0.0374253
0.0139753
0.0699906
0.718994
1
1
0.999602
0.313498
0.0540254
0.00717869
0.00177052
0.000461156
0.000137642
4.47406e-05
2.40541e-05
1.57252e-05
1.79967e-05
1.82318e-05
1.75264e-05
1.01642e-06
2.52147e-06
7.81119e-09
1.89225e-10
2.50867e-12
6.18407e-13
1
1
1
1
1
1
1
1
1
1
1
1
1
1
1
1
1
1
1
1
1
1
1
1
1
1
1
1
1
1
1
1
1
1
1
1
1
1
1
1
1
1
1
1
0.94779
1
1
1
1
1
1
1
1
1
1
1
1
1
1
1
1
1
1
1
1
1
1
1
1
0.99999
0.986613
0.725172
0.337395
0.152564
0.0424163
0.0144342
0.0526136
0.657497
0.978416
0.990627
0.999998
0.907906
0.104878
0.0170494
0.00315029
0.000808295
0.000220677
6.1757e-05
2.66735e-05
1.36514e-05
1.49622e-05
1.54421e-05
0.00055543
1.28527e-06
6.35686e-07
3.19634e-09
6.65199e-11
8.16302e-13
2.46792e-13
1
1
1
1
1
1
1
1
1
1
1
1
1
1
1
1
1
1
1
1
1
1
1
1
1
1
1
1
1
1
1
1
1
1
1
1
1
1
1
1
1
1
1
1
0.99996
0.929641
1
1
1
1
1
1
1
1
1
1
1
1
1
1
1
1
1
1
1
1
1
1
1
0.999996
0.991322
0.764124
0.363695
0.16318
0.04791
0.0151095
0.0404948
0.40012
0.696405
0.476457
0.645635
0.801693
0.548187
0.0360506
0.00646934
0.00133216
0.000349529
9.40311e-05
3.3358e-05
1.3182e-05
1.18564e-05
9.20451e-06
6.48253e-05
1.74108e-06
1.96841e-07
1.6009e-09
3.58065e-11
4.41862e-13
1.27113e-13
1
1
1
1
1
1
1
1
1
1
1
1
1
1
1
1
1
1
1
1
1
1
1
1
1
1
1
1
1
1
1
1
1
1
1
1
1
1
1
1
1
1
1
1
1
0.987837
0.92995
1
1
1
1
1
1
1
1
1
1
1
1
1
1
1
1
1
1
1
1
1
1
0.999998
0.994359
0.800779
0.391388
0.173979
0.0539514
0.0159877
0.0318981
0.276529
0.428417
0.137419
0.124404
0.173287
0.263679
0.10521
0.0161422
0.00243617
0.000598581
0.000144028
4.88924e-05
1.44727e-05
9.89214e-06
5.48342e-06
2.65608e-05
1.15597e-06
1.62879e-07
1.04005e-09
2.50966e-11
3.05663e-13
7.65724e-14
1
1
1
1
1
1
1
1
1
1
1
1
1
1
1
1
1
1
1
1
1
1
1
1
1
1
1
1
1
1
1
1
1
1
1
1
1
1
1
1
1
1
1
1
1
1
0.848396
0.956328
1
1
1
1
1
1
1
1
1
1
1
1
1
1
1
1
1
1
1
1
1
0.999999
0.996771
0.832538
0.420051
0.185373
0.0606066
0.0170704
0.0256606
0.212191
0.293395
0.05851
0.034729
0.0416207
0.0501541
0.0711421
0.0391389
0.00659549
0.00100678
0.000221822
7.14097e-05
1.86211e-05
1.01087e-05
3.82145e-06
1.07824e-05
7.51575e-07
1.18287e-07
8.13077e-10
1.87226e-11
2.33163e-13
5.06526e-14
1
1
1
1
1
1
1
1
1
1
1
1
1
1
1
1
1
1
1
1
1
1
1
1
1
1
1
1
1
1
1
1
1
1
1
1
1
1
1
1
1
1
1
1
1
1
1
0.5872
0.989518
1
1
1
1
1
1
1
1
1
1
1
1
1
1
1
1
1
1
1
1
0.999999
0.997217
0.868047
0.449175
0.197105
0.0679275
0.018346
0.0209334
0.175159
0.267089
0.0331058
0.0160519
0.0141943
0.0114344
0.0153591
0.0200793
0.011187
0.00291537
0.000373128
0.000112786
2.46649e-05
1.15614e-05
3.31526e-06
5.77014e-06
4.57423e-07
6.312e-08
6.62967e-10
1.46511e-11
1.8755e-13
3.3983e-14
1
1
1
1
1
1
1
1
1
1
1
1
1
1
1
1
1
1
1
1
1
1
1
1
1
1
1
1
1
1
1
1
1
1
1
1
1
1
1
1
1
1
1
1
1
1
1
1
0.400823
0.999313
1
1
1
1
1
1
1
1
1
1
1
1
1
1
1
1
1
1
1
1
0.997543
0.87919
0.481001
0.210264
0.0758972
0.0198619
0.0172867
0.150854
0.26723
0.024677
0.00896751
0.00672496
0.00454644
0.00417828
0.00428355
0.00453349
0.00346859
0.00101833
0.000187646
3.92783e-05
1.49315e-05
3.20693e-06
4.07656e-06
2.96536e-07
3.54946e-08
5.29432e-10
1.18822e-11
1.55072e-13
2.4919e-14
1
1
1
1
1
1
1
1
1
1
1
1
1
1
1
1
1
1
1
1
1
1
1
1
1
1
1
1
1
1
1
1
1
1
1
1
1
1
1
1
1
1
1
1
1
1
1
1
1
0.314008
0.999977
1
1
1
1
1
1
1
1
1
1
1
1
1
1
1
1
1
1
1
0.998824
0.887026
0.502827
0.220343
0.0852402
0.0215376
0.014445
0.142614
0.265378
0.0220714
0.00743486
0.004834
0.00265076
0.00193239
0.00155002
0.00134944
0.00120618
0.000900667
0.000388366
7.02457e-05
2.37597e-05
3.68169e-06
3.43845e-06
2.0899e-07
3.04886e-08
4.23538e-10
1.00274e-11
1.31093e-13
1.82242e-14
1
1
1
1
1
1
1
1
1
1
1
1
1
1
1
1
1
1
1
1
1
1
1
1
1
1
1
1
1
1
1
1
1
1
1
1
1
1
1
1
1
1
1
1
1
1
1
1
1
0.999956
0.277045
0.999998
1
1
1
1
1
1
1
1
1
1
1
1
1
1
1
1
1
1
0.99936
0.917397
0.513751
0.235357
0.0919306
0.0238542
0.0121485
0.108361
0.26491
0.0209462
0.0072554
0.0046725
0.00231186
0.00130649
0.000826556
0.000570051
0.000430348
0.0003913
0.00026926
0.00011079
4.02893e-05
5.1915e-06
4.24155e-06
1.56228e-07
2.72918e-08
3.3345e-10
8.72045e-12
1.13189e-13
3.82846e-14
1
1
1
1
1
1
1
1
1
1
1
1
1
1
1
1
1
1
1
1
1
1
1
1
1
1
1
1
1
1
1
1
1
1
1
1
1
1
1
1
1
1
1
1
1
1
1
1
1
1
0.980371
0.259546
1
1
1
1
1
1
1
1
1
1
1
1
1
1
1
1
1
1
0.99962
0.936566
0.558065
0.241238
0.102803
0.0243976
0.0113331
0.0876834
0.243584
0.020801
0.00726674
0.00519478
0.00242526
0.00126571
0.000650414
0.0004006
0.000234765
0.000168277
0.000124519
8.40741e-05
3.53451e-05
9.32515e-06
6.0579e-06
1.586e-07
2.65691e-08
3.09537e-10
7.71271e-12
9.91555e-14
4.68744e-13
1
1
1
1
1
1
1
1
1
1
1
1
1
1
1
1
1
1
1
1
1
1
1
1
1
1
1
1
1
1
1
1
1
1
1
1
1
1
1
1
1
1
1
1
1
1
1
1
1
1
1
0.782109
0.260487
1
1
1
1
1
1
1
1
1
1
1
1
1
1
1
1
1
0.999793
0.949597
0.592138
0.264733
0.112479
0.0280903
0.0102888
0.0704253
0.201975
0.0241313
0.00727041
0.00592848
0.00303424
0.00158924
0.000755868
0.000400703
0.000204791
0.000125803
7.88141e-05
5.37104e-05
2.69129e-05
9.42153e-06
6.86712e-06
2.24661e-07
1.45135e-08
1.64347e-10
6.96479e-12
8.81054e-14
5.8998e-12
1
1
1
1
1
1
1
1
1
1
1
1
1
1
1
1
1
1
1
1
1
1
1
1
1
1
1
1
1
1
1
1
1
1
1
1
1
1
1
1
1
1
1
1
1
1
1
1
1
1
1
1
0.466705
0.288065
1
1
1
1
1
1
1
1
1
1
1
1
1
1
1
1
0.999877
0.960306
0.619759
0.282353
0.127532
0.0311564
0.0110287
0.0507177
0.153439
0.0265162
0.0075977
0.00614396
0.00397695
0.00223821
0.00106773
0.000540373
0.000263516
0.000144284
8.18351e-05
5.28232e-05
2.50048e-05
1.1098e-05
6.10101e-06
2.16187e-07
9.55636e-09
1.22837e-10
4.30859e-12
7.84723e-14
3.40081e-11
1
1
1
1
1
1
1
1
1
1
1
1
1
1
1
1
1
1
1
1
1
1
1
1
1
1
1
1
1
1
1
1
1
1
1
1
1
1
1
1
1
1
1
1
1
1
1
1
1
1
1
1
1
0.25807
0.35475
1
1
1
1
1
1
1
1
1
1
1
1
1
1
1
0.999918
0.969584
0.647465
0.296194
0.137736
0.0352156
0.0115091
0.0452158
0.104347
0.0389552
0.007267
0.00551662
0.00458358
0.00328818
0.00164892
0.000884637
0.000400462
0.000232472
0.000118098
7.42586e-05
3.33937e-05
1.59989e-05
9.35121e-06
2.31264e-07
6.41717e-09
9.08549e-11
3.86296e-12
7.25255e-14
1.25862e-10
1
1
1
1
1
1
1
1
1
1
1
1
1
1
1
1
1
1
1
1
1
1
1
1
1
1
1
1
1
1
1
1
1
1
1
1
1
1
1
1
1
1
1
1
1
1
1
1
1
1
1
1
1
0.999489
0.153798
0.474449
1
1
1
1
1
1
1
1
1
1
1
1
1
1
0.999943
0.974952
0.679165
0.311611
0.143034
0.0390517
0.0124606
0.0305083
0.195973
0.0186623
0.00910534
0.00504153
0.00428864
0.00416935
0.00272069
0.00161278
0.00072295
0.000439644
0.000218405
0.000121819
5.56785e-05
2.72755e-05
1.53294e-05
1.89979e-07
6.48094e-09
9.18318e-11
3.2674e-12
6.79762e-14
2.62985e-10
1
1
1
1
1
1
1
1
1
1
1
1
1
1
1
1
1
1
1
1
1
1
1
1
1
1
1
1
1
1
1
1
1
1
1
1
1
1
1
1
1
1
1
1
1
1
1
1
1
1
1
1
1
1
0.860021
0.107348
0.646075
1
1
1
1
1
1
1
1
1
1
1
1
1
0.999958
0.978978
0.701122
0.331184
0.149447
0.0424615
0.0133196
0.0350524
0.0138329
0.0906938
0.00332836
0.00560731
0.00378506
0.00389883
0.00395773
0.00285706
0.00144665
0.000842449
0.000454858
0.000247194
0.000105783
4.44559e-05
2.47164e-05
1.41527e-07
6.07425e-09
8.9835e-11
3.60765e-12
6.55625e-14
4.7335e-10
1
1
1
1
1
1
1
1
1
1
1
1
1
1
1
1
1
1
1
1
1
1
1
1
1
1
1
1
1
1
1
1
1
1
1
1
1
1
1
1
1
1
1
1
1
1
1
1
1
1
1
1
1
1
1
0.415482
0.0931244
0.783973
1
1
1
1
1
1
1
1
1
1
1
1
0.999969
0.982136
0.719429
0.345283
0.157245
0.0459655
0.0139022
0.0326713
0.0241643
0.000850806
0.0122799
0.00252813
0.00361288
0.00331934
0.00389134
0.00487822
0.00312734
0.00177109
0.00107577
0.00051836
0.000215407
7.71744e-05
2.99826e-05
1.18625e-07
5.32165e-09
7.57317e-11
3.12811e-12
6.25961e-14
5.73368e-10
1
1
1
1
1
1
1
1
1
1
1
1
1
1
1
1
1
1
1
1
1
1
1
1
1
1
1
1
1
1
1
1
1
1
1
1
1
1
1
1
1
1
1
1
1
1
1
1
1
1
1
1
1
1
1
1
0.172948
0.101121
0.800501
1
1
1
1
1
1
1
1
1
1
1
0.999977
0.984806
0.736259
0.356945
0.163517
0.0494087
0.01444
0.0268167
0.0451936
0.00037353
0.00055293
0.00490686
0.0018975
0.00275374
0.00301927
0.00553092
0.00570455
0.00429641
0.00256749
0.00126453
0.000531593
0.0001151
3.16659e-05
1.05591e-07
5.57283e-09
6.91632e-11
2.93536e-12
5.73957e-14
5.88081e-10
1
1
1
1
1
1
1
1
1
1
1
1
1
1
1
1
1
1
1
1
1
1
1
1
1
1
1
1
1
1
1
1
1
1
1
1
1
1
1
1
1
1
1
1
1
1
1
1
1
1
1
1
1
1
1
1
0.985534
0.0850852
0.133891
0.783953
1
1
1
1
1
1
1
1
1
1
0.999982
0.986926