/*--------------------------------*- C++ -*----------------------------------*\
| =========                 |                                                 |
| \\      /  F ield         | OpenFOAM: The Open Source CFD Toolbox           |
|  \\    /   O peration     | Version:  v2012                                 |
|   \\  /    A nd           | Website:  www.openfoam.com                      |
|    \\/     M anipulation  |                                                 |
\*---------------------------------------------------------------------------*/
FoamFile
{
    version     2.0;
    format      ascii;
    class       volScalarField;
    location    "13200";
    object      q3;
}
// * * * * * * * * * * * * * * * * * * * * * * * * * * * * * * * * * * * * * //

dimensions      [0 0 0 0 0 0 0];


internalField   nonuniform List<scalar> 
31383
(
0.000157423
0.000158126
0.000192502
0.000152318
0.000269023
0.000265651
0.000148066
0.000257983
0.000898728
0.000560519
0.000144874
0.000249801
0.000858567
0.00242244
0.00114848
0.000142226
0.000243658
0.000828521
0.00231375
0.00519
0.00211564
0.000139959
0.000238554
0.00080593
0.00223127
0.00495561
0.0096695
0.00359633
0.000138041
0.000234207
0.000787146
0.00216969
0.00477857
0.00923024
0.0164293
0.0057778
0.000136412
0.000230531
0.000771195
0.00211846
0.00464592
0.00890079
0.0156884
0.026078
0.00891462
0.000134965
0.000227409
0.000757702
0.00207498
0.00453597
0.00865344
0.0151297
0.0249246
0.0391163
0.0133472
0.000133653
0.000224655
0.000746234
0.00203819
0.00444182
0.00844699
0.0147093
0.0240537
0.0374046
0.0552954
0.0195101
0.000132427
0.000222153
0.000736171
0.00200692
0.00436255
0.00827126
0.0143591
0.0233954
0.0361506
0.0530885
0.0735024
0.0279373
0.00013129
0.00021982
0.000727014
0.00197948
0.00429517
0.00812303
0.0140619
0.022846
0.0351985
0.0514484
0.0710389
0.091927
0.0390356
0.00013023
0.000217656
0.000718482
0.00195454
0.00423604
0.00799734
0.0138097
0.0223782
0.0344023
0.050195
0.0691685
0.0894031
0.108423
0.0530648
0.000129269
0.000215641
0.000710576
0.00193129
0.00418232
0.00788642
0.0135959
0.0219822
0.0337227
0.0491395
0.0676409
0.0874173
0.106094
0.121702
0.0695554
0.000128402
0.000213822
0.000703212
0.00190976
0.00413225
0.00778595
0.0134079
0.0216455
0.0331453
0.0482734
0.0663853
0.0858654
0.104257
0.119674
0.132086
0.0869297
0.000127626
0.000212184
0.000696586
0.00188971
0.00408591
0.00769235
0.0132368
0.0213495
0.0326536
0.0474645
0.0653368
0.0845388
0.102807
0.118124
0.130111
0.139922
0.103374
0.000126926
0.000210716
0.000690631
0.00187167
0.00404275
0.00760572
0.013078
0.0210805
0.0322205
0.0468053
0.0643753
0.0833883
0.10158
0.116887
0.128679
0.138156
0.144669
0.117253
0.000126306
0.000209399
0.000685279
0.00185545
0.00400407
0.00752527
0.0129306
0.0208299
0.0318272
0.0462239
0.0635781
0.0824185
0.100467
0.115835
0.127541
0.13705
0.14313
0.146654
0.127977
0.000125748
0.000208227
0.0006805
0.00184089
0.00396902
0.00745266
0.0127938
0.0205978
0.0314829
0.0456943
0.0628957
0.0815352
0.0995387
0.114899
0.126653
0.136158
0.142343
0.145286
0.146559
0.136123
0.00012525
0.00020718
0.000676236
0.00182788
0.00393768
0.00738731
0.0126703
0.0203818
0.0311198
0.0452207
0.0622273
0.0807918
0.0986944
0.114066
0.125908
0.135396
0.141701
0.144803
0.145217
0.144922
0.145418
0.000124803
0.000206244
0.000672441
0.00181627
0.00390968
0.00732876
0.0125597
0.0201876
0.0308029
0.0447404
0.0616241
0.0800717
0.0979741
0.11336
0.125252
0.134739
0.141159
0.144384
0.144946
0.143498
0.142267
0.15366
0.000124404
0.000205406
0.00066905
0.00180602
0.00388472
0.00727646
0.01246
0.0200128
0.0305178
0.0443123
0.0610629
0.0794142
0.0972817
0.112719
0.124671
0.134155
0.140675
0.144034
0.144721
0.143386
0.140656
0.139043
0.160736
0.000124044
0.000204656
0.000666012
0.00179671
0.00386257
0.00722978
0.0123711
0.0198558
0.0302609
0.0439261
0.0605382
0.0788158
0.0966445
0.112117
0.124154
0.133636
0.140236
0.143717
0.144523
0.1433
0.140654
0.137199
0.135648
0.166763
0.000123719
0.000203984
0.000663296
0.00178845
0.0038426
0.00718824
0.0122918
0.0197152
0.0300302
0.043591
0.0600637
0.0782273
0.0960603
0.111568
0.12367
0.133177
0.139847
0.143436
0.144354
0.143233
0.140663
0.137251
0.13367
0.13246
0.172063
0.00012342
0.000203375
0.000660864
0.00178106
0.00382483
0.0071512
0.0122212
0.01959
0.0298235
0.043264
0.0596468
0.0777061
0.0954985
0.111038
0.123226
0.132758
0.139504
0.143178
0.144197
0.143175
0.140688
0.137313
0.133702
0.13082
0.129991
0.177009
0.000123143
0.000202815
0.00065866
0.00177444
0.0038089
0.00711788
0.012158
0.0194783
0.0296391
0.0429832
0.0592478
0.0772342
0.0949788
0.110553
0.122805
0.13236
0.139189
0.142945
0.144054
0.143118
0.140708
0.137394
0.133782
0.130763
0.128258
0.127863
0.181983
0.000122889
0.000202297
0.000656632
0.00176843
0.00379467
0.0070881
0.0121014
0.0193786
0.0294747
0.0427321
0.05891
0.0768069
0.0945156
0.110097
0.122402
0.131984
0.138893
0.142743
0.143919
0.14307
0.140721
0.137468
0.133871
0.130784
0.128158
0.125819
0.125965
0.187565
0.000122655
0.000201821
0.000654759
0.00176291
0.00378175
0.00706146
0.0120508
0.0192891
0.0293276
0.0425079
0.0585891
0.0764304
0.0940956
0.109694
0.122038
0.131632
0.138617
0.14255
0.143803
0.143018
0.140737
0.137531
0.133963
0.130831
0.12817
0.125654
0.12354
0.124328
0.194724
0.000122443
0.000201385
0.000653038
0.00175782
0.00376987
0.00703735
0.0120054
0.0192092
0.0291957
0.0423073
0.0583112
0.0760768
0.0937164
0.109315
0.121705
0.13131
0.138352
0.142369
0.143703
0.142971
0.140751
0.137573
0.134039
0.13088
0.128215
0.125646
0.123292
0.121447
0.122978
0.204881
0.00012225
0.000200989
0.000651463
0.00175313
0.0037589
0.0070151
0.0119643
0.0191374
0.0290776
0.0421271
0.0580618
0.0757739
0.0933798
0.108978
0.121402
0.131014
0.138112
0.142199
0.143608
0.142937
0.14076
0.137625
0.134098
0.130923
0.128265
0.125682
0.123255
0.121095
0.119556
0.121935
0.218396
0.000122078
0.000200631
0.000650037
0.00174885
0.00374881
0.00699461
0.0119266
0.0190724
0.0289717
0.0419657
0.0578377
0.0754889
0.0930723
0.108678
0.121126
0.130745
0.137894
0.142042
0.143518
0.142911
0.140773
0.137673
0.13415
0.130957
0.128311
0.125727
0.123276
0.12102
0.119076
0.117875
0.121222
0.228964
0.000121923
0.000200311
0.000648745
0.00174497
0.00373962
0.00697575
0.0118917
0.0190127
0.0288756
0.0418211
0.0576364
0.0752389
0.0927908
0.108403
0.120879
0.130497
0.137689
0.1419
0.143435
0.142885
0.140792
0.137721
0.134214
0.130992
0.128348
0.12577
0.123311
0.121019
0.118954
0.117241
0.116413
0.120863
0.227699
0.000121784
0.000200024
0.000647593
0.00174146
0.00373122
0.00695851
0.0118596
0.0189575
0.0287874
0.0416896
0.0574559
0.0750138
0.0925412
0.108151
0.120653
0.130274
0.137503
0.141763
0.143356
0.142854
0.140819
0.137768
0.134278
0.131032
0.128386
0.125806
0.123348
0.121042
0.118927
0.11706
0.115588
0.115174
0.120891
0.232614
0.000121655
0.000199765
0.000646564
0.00173832
0.00372367
0.00694284
0.0118302
0.0189067
0.0287058
0.0415685
0.0572918
0.0748116
0.0923166
0.107928
0.120446
0.130071
0.137336
0.141642
0.143287
0.142829
0.140829
0.137821
0.134333
0.131072
0.128429
0.125843
0.123378
0.121069
0.118933
0.117003
0.11534
0.114124
0.114164
0.121353
0.250133
0.000121535
0.000199527
0.00064563
0.00173551
0.0037169
0.00692875
0.0118036
0.0188602
0.0286308
0.041457
0.0571406
0.0746275
0.0921142
0.107725
0.120261
0.129889
0.137181
0.141529
0.143215
0.142801
0.140838
0.13786
0.134392
0.131114
0.128473
0.125886
0.123412
0.121092
0.118947
0.116988
0.115248
0.113793
0.112843
0.113395
0.122314
0.273054
0.000121413
0.000199304
0.00064477
0.00173297
0.00371086
0.00691603
0.0117795
0.018818
0.028562
0.041354
0.0570008
0.0744578
0.0919298
0.107543
0.120095
0.129719
0.137038
0.141424
0.14315
0.142774
0.140842
0.137891
0.134444
0.131153
0.128518
0.12593
0.123451
0.12112
0.118962
0.116989
0.11521
0.113658
0.112413
0.111747
0.112878
0.123859
0.303098
0.000121309
0.000199077
0.000643984
0.00173063
0.00370539
0.00690472
0.0117579
0.0187799
0.0284997
0.0412599
0.0568723
0.0743008
0.0917597
0.107377
0.119942
0.129568
0.136913
0.141327
0.143088
0.142745
0.140851
0.137923
0.134493
0.131188
0.12856
0.125975
0.123493
0.121154
0.118982
0.116992
0.115194
0.113594
0.11223
0.111199
0.110838
0.112629
0.126371
0.342763
0.000121624
0.000198888
0.000643151
0.00172848
0.00370035
0.00689449
0.0117387
0.0187458
0.0284433
0.0411744
0.0567544
0.0741562
0.0916043
0.107225
0.119804
0.12943
0.136795
0.141239
0.143032
0.142718
0.140856
0.137952
0.13453
0.131218
0.128598
0.126018
0.123536
0.121191
0.119009
0.117003
0.115184
0.113558
0.112135
0.110957
0.110148
0.110118
0.112673
0.130362
0.395801
0.000155076
0.000198924
0.000642478
0.00172622
0.00369567
0.00688505
0.0117212
0.0187152
0.0283926
0.0410968
0.056647
0.0740234
0.0914564
0.107082
0.119678
0.129305
0.136689
0.141158
0.142978
0.142691
0.140855
0.13797
0.134563
0.131244
0.128631
0.126056
0.123577
0.121231
0.119041
0.117024
0.115185
0.113535
0.112078
0.110827
0.109836
0.109256
0.109594
0.11304
0.135705
0.467964
0.000125064
0.0146703
0.000641121
0.0017244
0.00369083
0.0068763
0.011705
0.0186875
0.0283473
0.0410273
0.0565519
0.0739023
0.0913228
0.106949
0.119558
0.129187
0.136593
0.141086
0.142935
0.142669
0.140853
0.137987
0.134584
0.131266
0.128659
0.126089
0.123613
0.121268
0.119076
0.117049
0.115197
0.113524
0.112038
0.110746
0.109665
0.108863
0.108527
0.109277
0.113767
0.142438
0.567762
0.000126096
0.000896909
0.046012
0.00172041
0.00368693
0.00686724
0.0116901
0.0186618
0.0283062
0.0409649
0.0564621
0.0737942
0.0912012
0.106827
0.119448
0.129082
0.136502
0.141017
0.14289
0.142648
0.140845
0.138002
0.13461
0.131283
0.128683
0.126118
0.123644
0.121301
0.119109
0.117077
0.115214
0.113526
0.112014
0.110688
0.109556
0.108644
0.108036
0.10796
0.109181
0.114904
0.150694
0.706994
0.000137377
0.00154913
0.00251883
0.101771
0.00367826
0.00685991
0.0116747
0.0186382
0.0282683
0.0409085
0.0563835
0.0736951
0.0910904
0.106717
0.119348
0.128982
0.136421
0.140957
0.142845
0.142621
0.140841
0.138009
0.134627
0.131298
0.128703
0.126142
0.123672
0.121329
0.119137
0.117106
0.115236
0.113536
0.112006
0.11065
0.109478
0.108503
0.10776
0.107352
0.107564
0.109327
0.116513
0.160675
0.898153
0.000130913
0.00372613
0.00448292
0.00567759
0.180809
0.00684362
0.0116622
0.0186137
0.028233
0.040856
0.0563124
0.0736045
0.0909918
0.106616
0.119254
0.128887
0.136343
0.1409
0.142807
0.142609
0.140836
0.13802
0.134648
0.13131
0.128721
0.126162
0.123695
0.121355
0.119162
0.117129
0.115259
0.113551
0.112006
0.110631
0.109424
0.108402
0.107582
0.107009
0.106815
0.107346
0.109742
0.118671
0.172662
1.14153
0.000123146
0.00284094
0.011836
0.0101878
0.0105346
0.282062
0.0116343
0.018594
0.0281986
0.0408076
0.0562465
0.0735236
0.0909001
0.106525
0.119169
0.128805
0.136274
0.140845
0.142774
0.142588
0.140837
0.13803
0.134661
0.13132
0.128735
0.12618
0.123715
0.121376
0.119184
0.117149
0.115277
0.113566
0.112014
0.110621
0.109392
0.10833
0.107454
0.106789
0.106392
0.106426
0.107318
0.110458
0.12148
0.186812
1.39796
0.000121754
0.00139
0.00872903
0.0271142
0.0186176
0.0169853
0.402652
0.0185491
0.0281672
0.0407571
0.0561852
0.0734489
0.0908182
0.106443
0.119093
0.128726
0.136206
0.140798
0.142741
0.142566
0.140836
0.138033
0.134678
0.131329
0.128747
0.126195
0.123732
0.121394
0.119203
0.117168
0.115292
0.113578
0.112023
0.11062
0.109372
0.108284
0.107363
0.10663
0.106121
0.105909
0.106193
0.1075
0.111522
0.125071
0.203018
1.59582
0.000120473
0.00115498
0.00398859
0.0198555
0.0492671
0.0296492
0.0256236
0.534052
0.0280995
0.0407165
0.0561237
0.0733792
0.0907423
0.106368
0.119023
0.128654
0.136146
0.140748
0.142708
0.142555
0.140829
0.138042
0.134688
0.131336
0.128758
0.126208
0.123746
0.121409
0.119218
0.117182
0.115306
0.113589
0.112029
0.110622
0.109362
0.108252
0.1073
0.106516
0.105927
0.105578
0.105562
0.106126
0.107914
0.112988
0.129832
0.220468
1.72236
0.000120233
0.000379273
0.00326941
0.0090292
0.0359527
0.0781364
0.0436818
0.0363517
0.658203
0.0406207
0.0560709
0.0733077
0.0906715
0.106297
0.11896
0.12859
0.136086
0.140704
0.142679
0.142538
0.140824
0.138049
0.13469
0.131342
0.128766
0.126219
0.123758
0.121422
0.119231
0.117195
0.115317
0.113599
0.112034
0.110621
0.109356
0.108233
0.107255
0.106435
0.105786
0.105342
0.105159
0.105357
0.106238
0.108592
0.114929
0.137305
0.236661
1.84919
0.000120146
0.000316346
0.00110526
0.00740477
0.0163812
0.0568565
0.113279
0.0601836
0.0497289
0.745076
0.0559464
0.07325
0.0905982
0.106232
0.118899
0.128531
0.136038
0.140664
0.142649
0.142518
0.140821
0.138051
0.134705
0.131349
0.128774
0.126228
0.123769
0.121433
0.119241
0.117204
0.115326
0.113605
0.112038
0.11062
0.109349
0.108218
0.107225
0.106376
0.105684
0.105169
0.104874
0.104869
0.105304
0.106548
0.109571
0.117432
0.147044
0.248429
2
0.000120084
0.000213793
0.000933029
0.00265524
0.0136383
0.0261024
0.0825681
0.153231
0.0794787
0.0656585
0.77693
0.0731028
0.0905407
0.106165
0.118845
0.128477
0.135986
0.140627
0.142629
0.142503
0.140815
0.138056
0.134714
0.131354
0.128782
0.126237
0.123778
0.121442
0.11925
0.117213
0.115333
0.11361
0.11204
0.110619
0.109341
0.108203
0.107201
0.106333
0.105608
0.105044
0.104666
0.104526
0.104712
0.105412
0.10708
0.110902
0.120611
0.158772
0.265362
2
0.000119989
0.000204008
0.000675194
0.00230373
0.00534442
0.0220394
0.0383418
0.112271
0.194495
0.0999257
0.0823413
0.75463
0.0903824
0.106111
0.118787
0.128423
0.135945
0.140592
0.142601
0.142487
0.140813
0.138058
0.134725
0.13136
0.128789
0.126245
0.123786
0.121451
0.119258
0.11722
0.115338
0.113613
0.112041
0.110617
0.109334
0.108188
0.107178
0.1063
0.105553
0.10495
0.104513
0.104275
0.104299
0.104697
0.1057
0.107865
0.112649
0.124612
0.172473
0.302892
2
0.000119898
0.000210938
0.000649513
0.00177129
0.0045928
0.0093546
0.0324387
0.0532209
0.144385
0.230445
0.120508
0.0985786
0.698961
0.105957
0.118741
0.12837
0.135901
0.140556
0.142578
0.142472
0.140798
0.138062
0.134726
0.131363
0.128796
0.126253
0.123795
0.121458
0.119265
0.117226
0.115343
0.113616
0.112041
0.110613
0.109327
0.108176
0.107156
0.106267
0.105507
0.104878
0.104396
0.10409
0.103998
0.1042
0.104835
0.106187
0.108944
0.11489
0.129634
0.18837
0.354981
2
0.000119834
0.000205275
0.000664282
0.0017189
0.00372564
0.00806035
0.0148215
0.0452987
0.0715435
0.175604
0.254619
0.137377
0.113799
0.632014
0.118599
0.128328
0.13586
0.140523
0.142553
0.142455
0.140789
0.138059
0.134731
0.13137
0.128801
0.12626
0.123803
0.121466
0.119272
0.117231
0.115347
0.113618
0.11204
0.110609
0.109319
0.108163
0.107138
0.106238
0.105465
0.10482
0.104308
0.103948
0.103775
0.10384
0.104239
0.105141
0.106903
0.110366
0.117728
0.137506
0.20681
0.43055
2
0.00011978
0.000197877
0.000649494
0.0017449
0.00364209
0.00683814
0.0131079
0.022313
0.0613247
0.0919472
0.201941
0.263093
0.150603
0.124423
0.565774
0.128174
0.135824
0.140495
0.142533
0.142442
0.140784
0.138055
0.134734
0.131374
0.128804
0.126266
0.12381
0.121473
0.119278
0.117236
0.11535
0.11362
0.112039
0.110605
0.10931
0.10815
0.107118
0.106212
0.105427
0.104767
0.104235
0.103839
0.103603
0.103572
0.103807
0.104424
0.105637
0.107882
0.112198
0.121294
0.148276
0.22778
0.547963
2
0.000119726
0.00019733
0.000631037
0.00171499
0.00367534
0.00671746
0.0115192
0.0201609
0.0326369
0.0801616
0.113834
0.218903
0.261752
0.157808
0.132459
0.505466
0.135677
0.140469
0.142509
0.142434
0.140773
0.138056
0.134735
0.131375
0.128807
0.12627
0.123815
0.12148
0.119285
0.117241
0.115353
0.113621
0.112038
0.1106
0.109302
0.108138
0.107101
0.106187
0.105394
0.104719
0.10417
0.103749
0.10347
0.103365
0.103485
0.103907
0.104773
0.106347
0.109169
0.11452
0.125752
0.161642
0.24977
0.744563
2
0.000119678
0.000197362
0.000630339
0.00167914
0.00362464
0.00675979
0.011417
0.0182313
0.0303285
0.0459903
0.099075
0.134178
0.226965
0.252256
0.160249
0.137083
0.452744
0.140326
0.142494
0.142417
0.14077
0.13805
0.134735
0.131375
0.128807
0.126273
0.123819
0.121484
0.11929
0.117246
0.115356
0.113622
0.112037
0.110597
0.109295
0.108126
0.107083
0.106163
0.105362
0.104677
0.104111
0.10367
0.103362
0.103205
0.103237
0.103521
0.104153
0.105306
0.107304
0.110821
0.117437
0.131327
0.177452
0.268981
1.09671
2
0.000119639
0.000196398
0.000630535
0.00167824
0.00356736
0.0066874
0.0114752
0.0181814
0.0277675
0.0435035
0.0613816
0.118957
0.149877
0.226747
0.239776
0.159175
0.14013
0.407102
0.142358
0.142408
0.140764
0.138042
0.134734
0.131373
0.128806
0.126273
0.123821
0.121488
0.119294
0.11725
0.115361
0.113623
0.112035
0.110592
0.109288
0.108115
0.107067
0.10614
0.105332
0.104638
0.10406
0.103599
0.103266
0.103073
0.103044
0.103225
0.103691
0.104561
0.106048
0.108552
0.112909
0.121086
0.13986
0.195796
0.283655
1.73088
2
0.000119611
0.000195838
0.0006284
0.00168092
0.00356865
0.00660307
0.0113574
0.0183767
0.0275161
0.0402182
0.0587818
0.0790102
0.136146
0.160538
0.22066
0.225962
0.158338
0.141153
0.368024
0.142265
0.140763
0.138047
0.134729
0.131376
0.128805
0.126272
0.123823
0.12149
0.119297
0.117254
0.115364
0.113625
0.112036
0.11059
0.109281
0.108104
0.107052
0.10612
0.105304
0.104602
0.104011
0.103536
0.103181
0.102959
0.102886
0.102992
0.103336
0.104007
0.105152
0.107032
0.110144
0.115526
0.125639
0.151721
0.217121
0.320287
2
2
0.000119558
0.000195677
0.000626529
0.00167586
0.00357517
0.00660907
0.0112627
0.0181871
0.0277783
0.0398182
0.0552209
0.0755757
0.096341
0.148273
0.167261
0.211934
0.211909
0.155562
0.140326
0.334071
0.140605
0.138045
0.134734
0.131377
0.128803
0.126271
0.123822
0.12149
0.119299
0.117256
0.115365
0.113627
0.112036
0.110587
0.109276
0.108095
0.107039
0.106101
0.105278
0.104567
0.103967
0.103479
0.103107
0.102858
0.10275
0.102803
0.103057
0.103582
0.104487
0.105952
0.108299
0.112146
0.118792
0.13133
0.166797
0.241793
0.384143
2
2
0.000118261
0.000195396
0.000625494
0.00166999
0.0035632
0.0066258
0.0112411
0.0180288
0.0274998
0.0398855
0.0547607
0.0721282
0.0930714
0.111758
0.156528
0.17028
0.201906
0.20219
0.151946
0.137872
0.304666
0.137892
0.134738
0.13138
0.128802
0.126271
0.123821
0.121489
0.119298
0.117256
0.115366
0.113628
0.112036
0.110586
0.109271
0.108087
0.107026
0.106084
0.105254
0.104536
0.103927
0.103427
0.103038
0.102769
0.102629
0.102641
0.102831
0.103248
0.103977
0.105153
0.106996
0.109904
0.114648
0.122859
0.139549
0.18515
0.267762
0.484882
2
2
9.27703e-05
0.000194056
0.000625256
0.00166839
0.00355442
0.00660558
0.0112286
0.0179397
0.0271959
0.0396091
0.0548151
0.071771
0.089727
0.109004
0.124034
0.161825
0.17039
0.192129
0.192052
0.147174
0.134784
0.280051
0.134594
0.131383
0.128802
0.12627
0.12382
0.121488
0.119297
0.117255
0.115366
0.113627
0.112035
0.110584
0.109268
0.10808
0.107015
0.106068
0.105233
0.104508
0.103889
0.103379
0.102977
0.102689
0.102525
0.1025
0.102639
0.102977
0.103577
0.104541
0.106033
0.108325
0.111913
0.11776
0.127929
0.151386
0.206879
0.287885
0.659084
2
2
1.28383e-05
0.000163126
0.000622528
0.00166714
0.00355001
0.0065902
0.011201
0.017864
0.0270967
0.0392038
0.054504
0.071904
0.0893677
0.105791
0.121753
0.132995
0.164119
0.167923
0.183503
0.180642
0.142225
0.131589
0.258739
0.131263
0.128803
0.12627
0.123819
0.121487
0.119295
0.117253
0.115363
0.113625
0.112034
0.110583
0.109265
0.108075
0.107006
0.106054
0.105214
0.104482
0.103855
0.103334
0.10292
0.102617
0.102431
0.102376
0.102471
0.102748
0.103254
0.104061
0.105297
0.107162
0.109994
0.114411
0.121628
0.134271
0.166808
0.231782
0.301074
0.990395
2
2
5.78942e-05
7.30685e-05
0.000554233
0.00166146
0.00354794
0.00658229
0.011175
0.0178258
0.0270491
0.0391824
0.0540585
0.0714963
0.0895141
0.105221
0.118523
0.130704
0.140299
0.163567
0.164568
0.173764
0.169944
0.137266
0.129072
0.240565
0.128695
0.126272
0.123819
0.121486
0.119293
0.11725
0.11536
0.113623
0.11203
0.110579
0.109261
0.108069
0.106998
0.106042
0.105197
0.104459
0.103825
0.103295
0.102868
0.10255
0.102346
0.102265
0.102325
0.102551
0.102982
0.103674
0.104721
0.106276
0.108587
0.112073
0.11751
0.126443
0.143951
0.186043
0.258852
0.356831
1.66999
2
2
5.22604e-05
0.000757393
0.00031958
0.00148385
0.00353667
0.00657795
0.0111635
0.0177947
0.0269971
0.0391442
0.0540681
0.071164
0.0890526
0.10538
0.118199
0.128197
0.13831
0.144269
0.161575
0.159443
0.164285
0.15946
0.132728
0.126551
0.223873
0.12617
0.123821
0.121486
0.119292
0.117248
0.115357
0.113618
0.112026
0.110574
0.109256
0.108064
0.106991
0.106031
0.105182
0.104438
0.103798
0.103259
0.102822
0.10249
0.102269
0.102166
0.102196
0.102379
0.102747
0.10335
0.104257
0.105582
0.107516
0.110363
0.114649
0.121355
0.13246
0.157411
0.209373
0.284054
0.444619
2
2
2
5.72719e-05
0.00045109
0.0031793
0.00086625
0.00315762
0.00655782
0.0111573
0.0177751
0.0269518
0.0390784
0.0541097
0.0711069
0.0887184
0.104988
0.118423
0.128133
0.136185
0.143065
0.145978
0.157623
0.153924
0.155156
0.150326
0.129366
0.12407
0.207975
0.123726
0.121488
0.119291
0.117246
0.115354
0.113613
0.112021
0.110569
0.10925
0.108057
0.106983
0.106022
0.105169
0.104419
0.103772
0.103226
0.10278
0.102436
0.102198
0.102076
0.10208
0.102227
0.102546
0.103073
0.10387
0.105025
0.106679
0.109065
0.112564
0.117837
0.126136
0.140932
0.174834
0.236561
0.301208
0.599338
2
2
2
6.13208e-05
0.000443144
0.00201327
0.00785621
0.00184358
0.0058491
0.0111154
0.0177644
0.0269175
0.039008
0.053992
0.0710818
0.0885738
0.104438
0.118063
0.128383
0.135949
0.141046
0.145024
0.145476
0.152964
0.147812
0.146856
0.142985
0.126474
0.121739
0.193568
0.121399
0.119293
0.117244
0.115351
0.113609
0.112015
0.110563
0.109243
0.10805
0.106975
0.106012
0.105156
0.104404
0.103751
0.103197
0.102742
0.102387
0.102135
0.101995
0.101976
0.102092
0.102367
0.102834
0.103541
0.104563
0.10601
0.108054
0.110987
0.115284
0.121787
0.132108
0.153268
0.196669
0.265872
0.337075
0.911379
2
2
2
6.60043e-05
0.000464522
0.00196711
0.00551808
0.0151063
0.00341604
0.00991071
0.0176944
0.0269049
0.0389885
0.0539447
0.0709907
0.0885052
0.104422
0.117723
0.128039
0.136198
0.140888
0.143389
0.144825
0.143389
0.147918
0.14206
0.140583
0.137408
0.123713
0.119522
0.180467
0.119211
0.117246
0.115349
0.113606
0.11201
0.110555
0.109235
0.108041
0.106965
0.106002
0.105145
0.104389
0.103731
0.103171
0.102708
0.102343
0.102079
0.101922
0.101881
0.10197
0.102209
0.102625
0.103259
0.104173
0.105456
0.107246
0.10976
0.11336
0.118645
0.126697
0.140322
0.169678
0.223121
0.291313
0.414092
1.59654
2
2
2
6.95933e-05
0.000527375
0.00206045
0.00538614
0.0117876
0.0249275
0.00579669
0.0157815
0.0268079
0.0389537
0.05389
0.070885
0.0883721
0.104514
0.117718
0.127754
0.135906
0.141293
0.143269
0.143504
0.143009
0.140376
0.142395
0.137457
0.135505
0.132513
0.121211
0.117455
0.168333
0.11717
0.115351
0.113603
0.112006
0.11055
0.109227
0.108032
0.106956
0.105991
0.105132
0.104375
0.103714
0.103148
0.102678
0.102303
0.102028
0.101856
0.101797
0.101861
0.102067
0.102439
0.103012
0.103838
0.104989
0.106582
0.108783
0.111866
0.116285
0.122806
0.132837
0.152407
0.19067
0.25309
0.30689
0.547654
2
2
2
2
7.2944e-05
0.000584277
0.00234742
0.00563972
0.0115354
0.0214181
0.0365145
0.00926603
0.0239694
0.0388436
0.0538885
0.0708421
0.088323
0.104406
0.117728
0.127675
0.135685
0.141079
0.143687
0.143406
0.141942
0.14019
0.136665
0.137673
0.133275
0.130846
0.12852
0.118932
0.11558
0.157806
0.115279
0.113604
0.112002
0.110544
0.10922
0.108023
0.106945
0.10598
0.10512
0.10436
0.103697
0.103127
0.10265
0.102268
0.101982
0.101797
0.10172
0.101763
0.101939
0.102274
0.102795
0.103546
0.104591
0.106023
0.107981
0.11068
0.114459
0.119896
0.127984
0.141424
0.168634
0.216759
0.282517
0.355158
0.821724
2
2
2
2
7.63378e-05
0.000623279
0.00260667
0.00642917
0.0120839
0.0212261
0.034455
0.0477273
0.0141868
0.0348808
0.0537241
0.0708416
0.0882459
0.104314
0.117693
0.127714
0.135779
0.140854
0.143635
0.143795
0.142007
0.139425
0.136606
0.133051
0.133828
0.129403
0.126974
0.125
0.116838
0.113883
0.148752
0.113538
0.112002
0.110539
0.109214
0.108014
0.106934
0.105967
0.105106
0.104345
0.10368
0.103107
0.102626
0.102236
0.101941
0.101744
0.101652
0.101675
0.101826
0.102126
0.102601
0.10329
0.104246
0.105548
0.107311
0.10971
0.113013
0.117653
0.124371
0.134471
0.153878
0.189636
0.247425
0.305004
0.44489
1.46142
2
2
2
2
7.94754e-05
0.000660845
0.00278158
0.00714577
0.0137593
0.0222702
0.0347539
0.049481
0.0556932
0.0209969
0.0486574
0.070672
0.0882631
0.104307
0.117597
0.127631
0.135777
0.140991
0.143484
0.143812
0.142506
0.139433
0.136155
0.133037
0.130316
0.130189
0.1261
0.123647
0.121989
0.11493
0.112291
0.141168
0.11194
0.110538
0.109208
0.108006
0.106924
0.105955
0.105092
0.10433
0.103663
0.103088
0.102603
0.102207
0.101904
0.101696
0.10159
0.101596
0.101724
0.101994
0.102428
0.103062
0.103943
0.105138
0.106742
0.108901
0.111835
0.115882
0.121599
0.129948
0.143928
0.170611
0.216118
0.2791
0.332819
0.610517
2
2
2
2
2
8.24153e-05
0.000697619
0.00295192
0.00763488
0.0152692
0.0251701
0.0364941
0.05091
0.0627913
0.0587788
0.0301425
0.0647497
0.0880931
0.104268
0.117534
0.127617
0.135747
0.141005
0.143474
0.143697
0.142415
0.139804
0.136161
0.132663
0.13032
0.127569
0.126936
0.123049
0.120717
0.11937
0.113171
0.110926
0.134619
0.110481
0.109206
0.107999
0.106915
0.105943
0.105078
0.104314
0.103645
0.103068
0.10258
0.10218
0.10187
0.101653
0.101535
0.101525
0.101633
0.101876
0.102274
0.102861
0.103677
0.104779
0.106253
0.108219
0.110856
0.114444
0.119417
0.126499
0.137018
0.157293
0.192386
0.247609
0.304472
0.408904
0.987012
2
2
2
2
2
8.53436e-05
0.000732051
0.00312092
0.00810372
0.0163041
0.0277263
0.0406035
0.0533387
0.0658201
0.0700266
0.0577532
0.0419521
0.0818276
0.10414
0.117579
0.127581
0.135717
0.140985
0.14352
0.14373
0.142207
0.139843
0.136404
0.132749
0.129904
0.127647
0.124904
0.12389
0.120292
0.118114
0.117142
0.111587
0.109685
0.129107
0.109151
0.107996
0.106907
0.105933
0.105065
0.104298
0.103627
0.103048
0.102557
0.102154
0.101839
0.101615
0.101486
0.101461
0.10155
0.10177
0.102137
0.102681
0.103438
0.104464
0.105827
0.107633
0.110032
0.113254
0.117653
0.123792
0.132626
0.147788
0.175127
0.219928
0.280249
0.326816
0.541669
1.9186
2
2
2
2
2
8.79898e-05
0.000766133
0.0032777
0.00856458
0.0172914
0.0294904
0.0440513
0.0577911
0.0684421
0.0744171
0.0701133
0.0545048
0.0562791
0.0980389
0.117459
0.127586
0.135716
0.140964
0.143503
0.143821
0.142295
0.139742
0.136461
0.133031
0.129996
0.127331
0.125036
0.12235
0.121093
0.117808
0.115874
0.115126
0.110137
0.108611
0.124503
0.107944
0.106903
0.105923
0.105053
0.104283
0.10361
0.103028
0.102534
0.102128
0.101809
0.101579
0.101441
0.101403
0.101476
0.101673
0.102014
0.102521
0.103229
0.104184
0.105454
0.107125
0.109328
0.112256
0.116198
0.121613
0.129238
0.141017
0.162573
0.198352
0.252525
0.306571
0.400392
0.831708
2
2
2
2
2
2
9.04094e-05
0.000795429
0.0034325
0.00899424
0.0182588
0.0311559
0.0464469
0.0610541
0.0713486
0.076445
0.074946
0.0656756
0.0505944
0.0721651
0.111775
0.127483
0.135745
0.14097
0.143509
0.143816
0.142449
0.139783
0.1365
0.133022
0.130316
0.127422
0.124855
0.12253
0.119939
0.118645
0.115573
0.113914
0.113357
0.108813
0.107655
0.120616
0.106851
0.105918
0.105041
0.104269
0.103592
0.103008
0.102512
0.102102
0.101779
0.101544
0.101399
0.101351
0.10141
0.101588
0.101903
0.102378
0.103042
0.103938
0.105123
0.10668
0.108719
0.111405
0.114981
0.119823
0.126528
0.136077
0.153263
0.182121
0.227643
0.285439
0.331763
0.526364
1.58664
2
2
2
2
2
2
9.26224e-05
0.000822045
0.0035651
0.0094176
0.019148
0.0327781
0.0486347
0.0633017
0.0728336
0.0766198
0.0761068
0.0700852
0.0596843
0.0468428
0.0877828
0.122355
0.135597
0.141004
0.14353
0.14382
0.142451
0.139887
0.136578
0.133065
0.130283
0.127719
0.12495
0.122459
0.120193
0.117742
0.116376
0.113567
0.112191
0.111807
0.107618
0.106865
0.117395
0.105866
0.105034
0.104256
0.103577
0.102988
0.102489
0.102077
0.10175
0.10151
0.101359
0.101303
0.10135
0.101511
0.101804
0.102248
0.102875
0.103718
0.104832
0.106288
0.108188
0.110671
0.113948
0.118331
0.124308
0.132675
0.14632
0.169853
0.207455
0.261639
0.311579
0.409265
0.800789
2
2
2
2
2
2
2
9.46222e-05
0.000846366
0.00368588
0.00978071
0.0200013
0.0342145
0.0506953
0.0652572
0.0739097
0.0757672
0.0740885
0.0706384
0.0634346
0.0538727
0.0435553
0.101005
0.129749
0.140966
0.143576
0.143858
0.142468
0.13992
0.136653
0.133209
0.130326
0.127757
0.125228
0.122604
0.120176
0.118072
0.115703
0.114288
0.111811
0.110691
0.110493
0.106587
0.10618
0.114656
0.104981
0.104248
0.103561
0.102971
0.102468
0.102052
0.101721
0.101477
0.10132
0.101257
0.101294
0.101441
0.101714
0.102133
0.102724
0.103522
0.104574
0.105943
0.10772
0.110033
0.11306
0.117069
0.122465
0.129895
0.141094
0.160526
0.19173
0.239035
0.294071
0.346191
0.543463
1.54357
2
2
2
2
2
2
2
9.63797e-05
0.00086834
0.00379634
0.010116
0.0207261
0.0355551
0.0524303
0.0669575
0.0747067
0.0754216
0.0718467
0.067795
0.0636481
0.0569601
0.0488392
0.0408156
0.110574
0.134628
0.143642
0.143913
0.142493
0.139941
0.136676
0.133273
0.130474
0.127796
0.125317
0.122861
0.120326
0.118086
0.116029
0.113793
0.112461
0.110217
0.109402
0.109291
0.105664
0.105604
0.112353
0.10419
0.103551
0.102953
0.102448
0.102027
0.101693
0.101444
0.101283
0.101213
0.10124
0.101376
0.101632
0.102029
0.102589
0.103346
0.104344
0.105638
0.107311
0.109474
0.11229
0.115987
0.120912
0.127601
0.136977
0.153311
0.179492
0.219943
0.274318
0.318268
0.433387
0.848773
2
2
2
2
2
2
2
2
9.78873e-05
0.000887874
0.00389587
0.0104235
0.0214019
0.0367048
0.0539811
0.0682902
0.0752446
0.0750313
0.070738
0.0651919
0.0608559
0.0570512
0.0513621
0.0446658
0.038561
0.11647
0.138279
0.144144
0.142568
0.139965
0.136707
0.133306
0.130543
0.127898
0.125306
0.122902
0.120597
0.118191
0.116111
0.114132
0.11207
0.110784
0.10882
0.108278
0.10822
0.104846
0.10512
0.110395
0.103488
0.102941
0.102428
0.102005
0.101666
0.101412
0.101246
0.10117
0.10119
0.101315
0.101557
0.101934
0.102468
0.103189
0.104137
0.105367
0.106948
0.108984
0.111616
0.115052
0.119585
0.125674
0.134037
0.147656
0.169905
0.204355
0.253966
0.305347
0.370499
0.590745
1.71231
2
2
2
2
2
2
2
2
9.90907e-05
0.000902725
0.00398362
0.0106954
0.022031
0.0377684
0.05533
0.0693635
0.0755519
0.0744673
0.0696818
0.0638808
0.0584553
0.0546025
0.0514395
0.0467509
0.04127
0.0367475
0.119525
0.140321
0.142946
0.140025