/*--------------------------------*- C++ -*----------------------------------*\
| =========                 |                                                 |
| \\      /  F ield         | OpenFOAM: The Open Source CFD Toolbox           |
|  \\    /   O peration     | Version:  v2012                                 |
|   \\  /    A nd           | Website:  www.openfoam.com                      |
|    \\/     M anipulation  |                                                 |
\*---------------------------------------------------------------------------*/
FoamFile
{
    version     2.0;
    format      ascii;
    class       volScalarField;
    location    "13200";
    object      q4;
}
// * * * * * * * * * * * * * * * * * * * * * * * * * * * * * * * * * * * * * //

dimensions      [0 0 0 0 0 0 0];


internalField   uniform 0;

boundaryField
{
    base
    {
        type            calculated;
        value           nonuniform List<scalar> 
317
(
0.012201
0.0121972
0.0119732
0.0118066
0.0116799
0.0115737
0.0114821
0.0114039
0.0113372
0.0112775
0.0112231
0.0111721
0.0111245
0.0110799
0.0110393
0.0110026
0.0109696
0.0109398
0.0109134
0.0108895
0.0108681
0.0108488
0.0108317
0.0108161
0.0108021
0.0107892
0.0107772
0.0107662
0.010756
0.0107468
0.0107384
0.0107309
0.0107242
0.0107181
0.0107125
0.0107073
0.010702
0.0106974
0.0107115
0.0119527
0.0108526
0.0108933
0.011343
0.0110843
0.0107672
0.0107084
0.0106607
0.0106505
0.0106468
0.0106441
0.01064
0.010636
0.0106332
0.0106309
0.0106285
0.0106264
0.0106247
0.0106235
0.0106211
0.0105633
0.00935561
0.00329567
0.00454872
0.0060287
0.00653941
0.00680463
0.00695307
0.00702474
0.00714868
0.00727704
0.00738454
0.00748386
0.00758258
0.0076765
0.00776201
0.00783923
0.00790844
0.00797065
0.00802819
0.00808216
0.00813596
0.00819121
0.0082471
0.00830619
0.00837112
0.00843651
0.00850148
0.00856383
0.00862238
0.00867649
0.008726
0.00877061
0.00881177
0.00884973
0.00888191
0.0089075
0.00892639
0.00894435
0.00895496
0.00895426
0.00894983
0.00893998
0.00892278
0.00889858
0.00886698
0.00882932
0.00878367
0.00872868
0.00865958
0.0085759
0.00847162
0.00834534
0.00819255
0.00799528
0.00773872
0.00732959
0.00684324
0.00498101
0.00470184
0.00644841
0.00695137
0.00742956
0.00778489
0.0080611
0.00829108
0.00848859
0.00865445
0.00877416
0.00886943
0.00896936
0.00906117
0.00913193
0.00921201
0.00926074
0.00933014
0.00942396
0.00947704
0.00954609
0.00960592
0.0096259
0.00964483
0.00967932
0.00973064
0.0097805
0.00980584
0.00978254
0.00980217
0.00981848
0.00983793
0.00990183
0.00991592
0.00992541
0.00993071
0.00988622
0.00988511
0.00994032
0.00992873
0.00985372
0.0098423
0.00982961
0.00982629
0.00969086
0.00950664
0.00965649
0.00978901
0.00973571
0.00967653
0.0096125
0.00932921
0.00922338
0.00930077
0.00915425
0.00899011
0.00876746
0.00856843
0.00831792
0.00801004
0.00759618
0.00712094
0.0067431
0.00630007
0.00589813
0.00538614
0.00449251
0.00342512
0.00179188
0.00236089
0.00384541
0.0048444
0.00621823
0.00725584
0.0076936
0.00847378
0.00918649
0.0098536
0.0105278
0.0111004
0.0117133
0.0128261
0.0133104
0.0131227
0.0135361
0.01397
0.0150642
0.0156079
0.015694
0.0166664
0.017401
0.0170612
0.0166712
0.0170163
0.0174055
0.0173894
0.01864
0.0189192
0.018354
0.0199511
0.0198842
0.0188703
0.0205484
0.0212444
0.0211486
0.0213543
0.0211345
0.0213195
0.0211811
0.0214357
0.0216343
0.0213835
0.0220685
0.0227684
0.02304
0.0228047
0.0228517
0.0235838
0.0238011
0.0239535
0.0242855
0.0244043
0.0246398
0.0259658
0.0261197
0.0251072
0.0264878
0.0266475
0.0241162
0.0216676
0.0281045
0.0341931
0.0341382
0.0285462
0.024289
0.0238087
0.0229086
0.0310127
0.0351833
0.0340607
0.029585
0.0297274
0.030653
0.0245199
0.0233857
0.0231448
0.0234807
0.0315459
0.0361957
0.0304722
0.0233568
0.023414
0.0298381
0.0300745
0.0260084
0.0252066
0.0311907
0.0326299
0.0333093
0.0327697
0.0247319
0.0315012
0.0318584
0.03329
0.0331966
0.0265562
0.0265928
0.0318464
0.0320371
0.0318454
0.0315994
0.0243394
0.0317541
0.0320368
0.024537
0.0243417
0.0254559
0.0269072
0.0266273
0.0308706
0.0332352
0.0261789
0.0320166
0.0318871
0.0254019
0.0319213
0.031919
0.0253928
0.0253028
0.0309259
0.0367647
0.031447
0.0311828
0.0315365
0.0248534
0.0247109
0.0311135
0.0329227
0.0327604
0.031882
)
;
    }
    frontAndBack
    {
        type            empty;
    }
    inlet
    {
        type            calculated;
        value           uniform 0;
    }
    outlet
    {
        type            calculated;
        value           uniform 0;
    }
    top
    {
        type            calculated;
        value           uniform 0;
    }
}


// ************************************************************************* //
