/*--------------------------------*- C++ -*----------------------------------*\
| =========                 |                                                 |
| \\      /  F ield         | OpenFOAM: The Open Source CFD Toolbox           |
|  \\    /   O peration     | Version:  v2012                                 |
|   \\  /    A nd           | Website:  www.openfoam.com                      |
|    \\/     M anipulation  |                                                 |
\*---------------------------------------------------------------------------*/
FoamFile
{
    version     2.0;
    format      ascii;
    class       volScalarField;
    location    "13200";
    object      Rekd;
}
// * * * * * * * * * * * * * * * * * * * * * * * * * * * * * * * * * * * * * //

dimensions      [0 0 0 0 0 0 0];


internalField   nonuniform List<scalar> 
31383
(
0.000157423
0.000158126
0.000192502
0.000152318
0.000269023
0.000265652
0.000148066
0.000257983
0.000898743
0.000560523
0.000144874
0.000249801
0.000858581
0.00242276
0.00114852
0.000142226
0.000243658
0.000828533
0.00231403
0.00519332
0.00211588
0.000139959
0.000238554
0.000805941
0.00223152
0.0049585
0.00969169
0.00359753
0.000138041
0.000234208
0.000787157
0.00216993
0.00478116
0.00924957
0.0165402
0.00578285
0.000136412
0.000230531
0.000771205
0.00211868
0.00464831
0.00891814
0.0157851
0.0265271
0.00893339
0.000134965
0.000227409
0.000757711
0.00207518
0.0045382
0.00866939
0.0152166
0.0253174
0.0406474
0.0134105
0.000133653
0.000224655
0.000746243
0.00203838
0.00444391
0.00846183
0.0147892
0.0244072
0.0387494
0.0597458
0.0197086
0.000132427
0.000222153
0.000736179
0.0020071
0.00436453
0.00828521
0.0144335
0.0237211
0.0373657
0.0570334
0.084597
0.02852
0.00013129
0.00021982
0.000727022
0.00197966
0.00429706
0.00813624
0.0141319
0.0231496
0.036321
0.0550353
0.0810044
0.115838
0.0406383
0.00013023
0.000217656
0.00071849
0.00195471
0.00423786
0.00800996
0.013876
0.0226637
0.0354509
0.0535242
0.078315
0.111176
0.153488
0.0571805
0.000129269
0.000215641
0.000710584
0.00193145
0.00418406
0.00789852
0.0136592
0.0222531
0.0347111
0.0522618
0.0761805
0.107592
0.14769
0.197503
0.0793166
0.000128402
0.000213822
0.00070322
0.00190991
0.00413393
0.0077976
0.0134686
0.0219043
0.0340843
0.0512278
0.0744379
0.104863
0.143203
0.19047
0.247801
0.107971
0.000127626
0.000212184
0.000696593
0.00188986
0.00408754
0.00770359
0.0132953
0.021598
0.0335518
0.050277
0.0729894
0.102571
0.139778
0.185037
0.239525
0.304812
0.144534
0.000126926
0.000210716
0.000690638
0.00187181
0.00404433
0.00761658
0.0131345
0.0213198
0.0330839
0.0495019
0.0716911
0.100612
0.136923
0.180878
0.233045
0.295043
0.369103
0.190294
0.000126306
0.000209399
0.000685286
0.00185559
0.0040056
0.0075358
0.0129851
0.0210609
0.0326597
0.0488211
0.0706159
0.0989781
0.134419
0.177393
0.228102
0.287472
0.357708
0.44127
0.24624
0.000125748
0.000208227
0.000680507
0.00184103
0.00397051
0.00746289
0.0128466
0.0208213
0.0322878
0.0482031
0.0696961
0.0975264
0.132346
0.174376
0.22395
0.281644
0.34884
0.428013
0.522097
0.312591
0.00012525
0.00020718
0.000676243
0.00182802
0.00393913
0.00739727
0.0127217
0.0205983
0.0318986
0.0476498
0.0688116
0.0962981
0.130519
0.171793
0.220362
0.276725
0.342019
0.417727
0.506709
0.612569
0.390209
0.000124803
0.000206244
0.000672447
0.00181641
0.00391111
0.00733848
0.0126097
0.0203981
0.0315584
0.047095
0.0680121
0.0951378
0.128952
0.169611
0.217312
0.272518
0.336302
0.40981
0.494815
0.594761
0.713911
0.480879
0.000124404
0.000205406
0.000669057
0.00180616
0.00388612
0.00728598
0.0125089
0.0202179
0.0312527
0.0466
0.0672727
0.0940769
0.127493
0.167667
0.214686
0.268935
0.331403
0.403178
0.485673
0.581027
0.693281
0.827528
0.586004
0.000124044
0.000204656
0.000666018
0.00179684
0.00386395
0.00723912
0.0124189
0.0200562
0.0309776
0.0461544
0.0665843
0.0931139
0.126147
0.165893
0.212369
0.265866
0.327205
0.39748
0.478008
0.570473
0.677448
0.803691
0.955148
0.707011
0.000123719
0.000203984
0.000663302
0.00178858
0.00384396
0.00719743
0.0123387
0.0199114
0.0307308
0.0457673
0.0659645
0.0921844
0.12492
0.164261
0.210263
0.263146
0.323615
0.392621
0.471432
0.561639
0.66529
0.78544
0.927645
1.09873
0.845333
0.00012342
0.000203375
0.00066087
0.00178119
0.00382616
0.00716024
0.0122673
0.0197825
0.0305099
0.045393
0.0654193
0.0913617
0.12376
0.16273
0.208315
0.260685
0.320439
0.388454
0.465809
0.554052
0.655103
0.77142
0.906598
1.06715
1.26064
1.00252
0.000123144
0.000202815
0.000658666
0.00177456
0.00381023
0.00712679
0.0122035
0.0196677
0.030313
0.045071
0.0649046
0.0906204
0.122702
0.161326
0.206505
0.258382
0.317558
0.384767
0.46099
0.547576
0.64638
0.7597
0.890451
1.04286
1.2245
1.44352
1.18036
0.000122889
0.000202297
0.000656638
0.00176856
0.00379597
0.00709691
0.0121462
0.019565
0.0301375
0.0447836
0.0644661
0.0899541
0.121759
0.160037
0.204813
0.256261
0.314887
0.381429
0.456734
0.542022
0.638919
0.74966
0.876956
1.02424
1.19646
1.4022
1.65028
1.38082
0.000122655
0.000201821
0.000654765
0.00176304
0.00378304
0.00707017
0.012095
0.0194731
0.0299807
0.0445274
0.0640544
0.089366
0.120913
0.158891
0.203291
0.254289
0.312415
0.378342
0.45288
0.537114
0.632533
0.741078
0.865409
1.0087
1.17499
1.36982
1.60301
1.88415
1.60587
0.000122443
0.000201385
0.000653044
0.00175794
0.00377115
0.00704597
0.0120492
0.0193909
0.0298401
0.0442984
0.0636971
0.0888227
0.120153
0.157846
0.201916
0.252508
0.310125
0.375477
0.449319
0.532681
0.626887
0.733733
0.855531
0.995412
1.15707
1.34505
1.56563
1.83011
2.14885
1.85696
0.00012225
0.000200989
0.000651469
0.00175325
0.00376017
0.00702364
0.0120077
0.0193171
0.0297144
0.0440929
0.0633772
0.0883537
0.11948
0.156913
0.20068
0.250897
0.308046
0.372828
0.446026
0.528585
0.621782
0.727246
0.847082
0.984041
1.14176
1.3244
1.53707
1.78693
2.08707
2.44854
2.13301
0.000122078
0.000200631
0.000650042
0.00174897
0.00375007
0.00700307
0.0119695
0.0192503
0.0296016
0.0439091
0.0630904
0.0879189
0.118871
0.156086
0.199567
0.249447
0.306172
0.370432
0.442975
0.524803
0.617087
0.721374
0.839618
0.974311
1.12866
1.30677
1.51326
1.75399
2.03723
2.37798
2.78808
2.42584
0.000121923
0.000200311
0.000648751
0.00174509
0.00374087
0.00698414
0.0119342
0.019189
0.0294994
0.0437445
0.0628332
0.0875365
0.118321
0.155338
0.198578
0.248146
0.304485
0.368264
0.44022
0.521309
0.612753
0.715991
0.832878
0.965721
1.11745
1.29168
1.49295
1.72656
1.99922
2.3204
2.70748
3.17286
2.72285
0.000121784
0.000200024
0.000647598
0.00174158
0.00373246
0.00696684
0.0119018
0.0191322
0.0294055
0.0435949
0.062603
0.0871931
0.117832
0.154664
0.197686
0.24698
0.302964
0.366314
0.437732
0.518146
0.608746
0.711019
0.826696
0.957973
1.10757
1.27878
1.47558
1.70316
1.96758
2.27654
2.64091
3.08083
3.60917
3.02244
0.000121655
0.000199766
0.000646569
0.00173843
0.0037249
0.00695112
0.0118721
0.0190801
0.0293187
0.0434574
0.0623939
0.0868855
0.117393
0.154063
0.196883
0.24593
0.301607
0.364556
0.43549
0.515293
0.605129
0.706436
0.820997
0.950879
1.09865
1.2674
1.46072
1.68316
1.94063
2.24008
2.59035
3.00392
3.50405
4.10403
3.32538
0.000121535
0.000199527
0.000645636
0.00173563
0.00371813
0.00693698
0.0118452
0.0190323
0.029239
0.0433308
0.0622015
0.086606
0.117
0.153523
0.196164
0.244995
0.300388
0.362987
0.433469
0.51272
0.601863
0.702296
0.815751
0.944339
1.0905
1.25714
1.44761
1.66605
1.9176
2.20906
2.54834
2.94556
3.41513
3.98399
4.66584
3.63014
0.000121413
0.000199305
0.000644776
0.00173309
0.00371208
0.00692421
0.0118209
0.018989
0.0291658
0.0432139
0.062024
0.0863489
0.116642
0.153039
0.195521
0.244146
0.299291
0.361577
0.431663
0.510404
0.598917
0.698557
0.811007
0.938331
1.083
1.24777
1.43582
1.65095
1.8979
2.18253
2.51259
2.89712
3.34779
3.88116
4.52835
5.304
3.92741
0.000121309
0.000199078
0.00064399
0.00173075
0.00370661
0.00691287
0.0117991
0.0189498
0.0290997
0.0431071
0.0618608
0.0861115
0.116313
0.152598
0.194937
0.243389
0.298304
0.360306
0.430034
0.508332
0.596262
0.695187
0.80673
0.932897
1.0761
1.23915
1.42505
1.63738
1.88053
2.15985
2.48208
2.85598
3.29198
3.80342
4.40941
5.14606
6.02976
4.2027
0.000121624
0.000198888
0.000643157
0.0017286
0.00370156
0.0069026
0.0117796
0.0189148
0.0290398
0.0430103
0.0617113
0.0858932
0.116012
0.152195
0.19441
0.242704
0.297417
0.359162
0.42857
0.506461
0.593889
0.692144
0.802871
0.927994
1.06988
1.23125
1.41516
1.62502
1.86494
2.13986
2.45595
2.82082
3.24457
3.73905
4.31965
5.00845
5.84717
6.85608
4.43489
0.000155077
0.000198924
0.000642484
0.00172634
0.00369687
0.00689312
0.011762
0.0188834
0.0289859
0.0429224
0.0615753
0.0856931
0.115729
0.151821
0.193927
0.242085
0.296622
0.358133
0.427251
0.504782
0.591744
0.689428
0.799392
0.923574
1.06425
1.22411
1.40609
1.61367
1.85072
2.12193
2.43294
2.79075
3.20409
3.68445
4.24546
4.90478
5.68788
6.64319
7.79808
4.59519
0.000125064
0.0146704
0.000641126
0.00172451
0.00369203
0.00688434
0.0117456
0.018855
0.0289378
0.0428436
0.0614545
0.085511
0.115473
0.151473
0.193476
0.241512
0.295895
0.357207
0.426067
0.503266
0.589816
0.686972
0.796277
0.91959
1.05919
1.21767
1.3979
1.60326
1.83769
2.10559
2.41229
2.76428
3.16947
3.63785
4.18257
4.81919
5.56811
6.45877
7.54718
8.87209
4.64735
0.000126097
0.00089691
0.0460144
0.00172052
0.00368813
0.00687526
0.0117305
0.0188287
0.0288942
0.042773
0.0613414
0.085348
0.11524
0.151156
0.193063
0.240984
0.295227
0.356364
0.424997
0.501905
0.588078
0.684766
0.793466
0.916024
1.05462
1.21186
1.39052
1.59387
1.82575
2.09063
2.39353
2.74054
3.13904
3.59802
4.12892
4.74679
5.46943
6.32033
7.33362
8.57396
10.0959
4.55217
0.000137377
0.00154913
0.00251887
0.10181
0.00367945
0.0068679
0.011715
0.0188043
0.028854
0.0427092
0.0612422
0.0851994
0.115028
0.150869
0.192685
0.240497
0.29461
0.355592
0.424026
0.500674
0.586515
0.68277
0.790932
0.912799
1.05052
1.20662
1.38386
1.58541
1.81499
2.07694
2.37636
2.71899
3.11174
3.56298
4.08308
4.685
5.38595
6.20645
7.17346
8.3267
9.74056
11.4873
4.28162
0.000130913
0.00372613
0.00448299
0.00567814
0.181128
0.00685155
0.0117024
0.0187792
0.0288166
0.0426499
0.0611525
0.0850643
0.11484
0.150608
0.192338
0.24005
0.29404
0.354874
0.423133
0.499556
0.585103
0.680978
0.788649
0.909893
1.04683
1.20192
1.37785
1.57777
1.80528
2.0646
2.36066
2.69926
3.08694
3.5316
4.04274
4.63222
5.31484
6.11031
7.04206
8.14139
9.45423
11.0663
13.063
3.84665
0.000123146
0.00284094
0.0118363
0.010189
0.0105396
0.283802
0.0116742
0.018759
0.0287799
0.0425951
0.0610694
0.0849435
0.114667
0.150373
0.192024
0.239643
0.293519
0.354213
0.422307
0.498529
0.583822
0.679357
0.786587
0.90727
1.04349
1.19768
1.37247
1.57088
1.79652
2.05347
2.3465
2.68124
3.06432
3.50313
4.00667
4.58584
5.2541
6.02838
6.93128
7.98965
9.23971
10.7348
12.573
14.834
3.32982
0.000121754
0.00139
0.0087292
0.02712
0.0186278
0.0170137
0.409852
0.018713
0.0287467
0.042538
0.0609921
0.0848318
0.114512
0.150162
0.191742
0.239272
0.293041
0.353608
0.421544
0.497576
0.582638
0.677885
0.78473
0.904909
1.04048
1.19385
1.36759
1.5647
1.78862
2.04343
2.33373
2.665
3.04362
3.47712
3.97394
4.54431
5.20069
5.95847
6.83693
7.86196
9.06447
10.4863
12.1895
14.2859
16.798
2.87744
0.000120473
0.00115498
0.00398864
0.0198587
0.0493188
0.0297078
0.025749
0.558173
0.0286748
0.0424922
0.0609143
0.0847278
0.114368
0.149971
0.191489
0.23894
0.292607
0.353055
0.420844
0.496701
0.581547
0.676528
0.78304
0.902774
1.03777
1.1904
1.36321
1.55913
1.78154
2.03437
2.32222
2.65038
3.02501
3.45339
3.94405
4.50672
5.15297
5.89703
6.75643
7.75333
8.91722
10.2837
11.9013
13.8424
16.2336
18.9264
2.61456
0.000120233
0.000379274
0.00326945
0.00903008
0.0359802
0.0784322
0.0439363
0.0368066
0.725318
0.0423835
0.0608481
0.0846211
0.114235
0.14979
0.191257
0.238639
0.292216
0.35255
0.420205
0.495895
0.58054
0.675276
0.781486
0.900836
1.03532
1.18728
1.35924
1.55408
1.77513
2.02624
2.31185
2.63716
3.00823
3.43203
3.91685
4.47243
5.10977
5.84214
6.68578
7.66068
8.79205
10.114
11.6671
13.5079
15.7207
18.4488
21.1494
2.58681
0.000120146
0.000316347
0.00110527
0.00740543
0.0163888
0.0570121
0.114549
0.0610742
0.0511566
0.899517
0.0606898
0.0845352
0.114096
0.149624
0.19104
0.238365
0.291863
0.352093
0.41962
0.495159
0.579615
0.674119
0.780046
0.899046
1.03309
1.18447
1.35567
1.54953
1.76935
2.0189
2.30252
2.62528
2.9931
3.4128
3.89236
4.44119
5.07038
5.7925
6.62268
7.57938
8.68545
9.96984
11.4714
13.2371
15.3325
17.8556
20.9675
23.3555
2.77044
0.000120084
0.000213794
0.000933037
0.00265541
0.013644
0.0261451
0.0832318
0.157646
0.0821307
0.0695943
1.07173
0.0843121
0.113987
0.149453
0.190841
0.23811
0.291541
0.351682
0.419093
0.494485
0.578769
0.673057
0.778717
0.897397
1.03104
1.1819
1.35242
1.54543
1.76413
2.01226
2.29409
2.61459
2.97945
3.39544
3.8703
4.41311
5.03456
5.74729
6.56562
7.50678
8.59193
9.84707
11.3053
13.0112
15.0189
17.4046
20.282
23.8218
25.3919
3.08424
0.000119989
0.000204009
0.0006752
0.00230388
0.00534611
0.0220718
0.0385239
0.114577
0.207319
0.106738
0.0917939
1.22836
0.113682
0.149317
0.190633
0.237872
0.29124
0.351307
0.418616
0.493875
0.577993
0.672081
0.777499
0.895874
1.02914
1.17954
1.34948
1.54171
1.75941
2.00626
2.28648
2.60491
2.96719
3.37981
3.85041
4.38783
5.00234
5.70615
6.5137
7.44124
8.50849
9.7395
11.164
12.8199
14.7582
17.0415
19.7584
23.0401
27.0346
27.0704
3.47518
0.000119898
0.000210938
0.000649518
0.0017714
0.00459422
0.00936516
0.0325762
0.0538568
0.151157
0.261704
0.135912
0.118565
1.36324
0.14892
0.190469
0.237625
0.290959
0.350953
0.418179
0.493326
0.577291
0.671194
0.776381
0.894474
1.02739
1.17737
1.34678
1.53833
1.75515
2.00085
2.27959
2.59619
2.95611
3.36574
3.83245
4.36498
4.97334
5.66922
6.46651
7.38162
8.43313
9.64353
11.0402
12.6572
14.5377
16.7405
19.3377
22.4322
26.1751
30.6119
28.1722
3.91895
0.000119834
0.000205275
0.000664287
0.00171901
0.00372678
0.00806926
0.0148708
0.0457793
0.0734672
0.192587
0.318513
0.167786
0.151622
1.47872
0.189964
0.237431
0.290669
0.350625
0.417769
0.492818
0.576657
0.670385
0.77536
0.893192
1.02578
1.17535
1.34427
1.53522
1.75126
1.99595
2.27338
2.58827
2.9461
3.35302
3.81633
4.34444
4.94717
5.63595
6.42413
7.32743
8.36465
9.55696
10.9299
12.5147
14.3504
16.4863
18.9899
21.9446
25.4697
29.7381
34.5278
28.3728
4.41158
0.00011978
0.000197877
0.000649499
0.00174502
0.0036432
0.00684563
0.0131506
0.022504
0.0627913
0.0970228
0.238359
0.37322
0.2043
0.187921
1.57745
0.236803
0.29044
0.350287
0.417387
0.492345
0.576072
0.669655
0.774427
0.892012
1.0243
1.17351
1.34196
1.53234
1.74768
1.99149
2.26775
2.58115
2.93701
3.34154
3.80176
4.32594
4.92359
5.60596
6.38598
7.27884
8.30246
9.47827
10.8304
12.3879
14.1865
16.2707
18.6968
21.5427
24.9042
28.92
33.7857
38.7035
27.2648
4.96143
0.000119726
0.00019733
0.000631043
0.0017151
0.00367646
0.00672479
0.0115564
0.0203298
0.0332842
0.0841251
0.125737
0.285669
0.428549
0.242894
0.230696
1.66329
0.289667
0.35002
0.416993
0.491902
0.575524
0.668979
0.773584
0.890945
1.02295
1.17181
1.33984
1.52968
1.74438
1.98737
2.26262
2.57468
2.92882
3.33112
3.78856
4.3092
4.90238
5.57892
6.35158
7.23512
8.24676
9.40694
10.74
12.2736
14.0408
16.0823
18.4487
21.2048
24.4397
28.2642
32.8379
38.365
42.9726
24.4885
5.57338
0.000119678
0.000197362
0.000630345
0.00167925
0.00362574
0.00676711
0.0114536
0.0183825
0.0309171
0.0479239
0.108437
0.158828
0.334348
0.479759
0.284186
0.277224
1.74059
0.349077
0.416686
0.491444
0.575011
0.668343
0.772808
0.889968
1.02172
1.17025
1.33788
1.52724
1.74133
1.98358
2.25791
2.5688
2.92139
3.32172
3.77662
4.29408
4.8832
5.55458
6.32056
7.19566
8.1966
9.34301
10.6582
12.1698
13.9095
15.9146
18.2319
20.919
24.0501
27.7274
32.0783
37.2855
43.4978
47.0575
20.0655
6.2517
0.000119639
0.000196398
0.000630541
0.00167835
0.00356843
0.00669461
0.0115118
0.0183313
0.0283005
0.045294
0.0664288
0.138896
0.19498
0.38205
0.529852
0.326041
0.330571
1.81138
0.415543
0.491089
0.57448
0.667757
0.772077
0.889074
1.0206
1.16884
1.3361
1.525
1.73853
1.98007
2.25354
2.56339
2.91465
3.31321
3.76584
4.28037
4.86585
5.5326
6.29268
7.16013
8.15135
9.28546
10.5848
12.0758
13.7903
15.7638
18.0393
20.6698
23.7211
27.278
31.4579
36.4068
42.3302
49.1611
50.6057
14.8005
6.99892
0.000119611
0.000195838
0.000628406
0.00168102
0.00356972
0.00661016
0.0113934
0.0185273
0.0280413
0.0418555
0.0635176
0.0907814
0.17388
0.234856
0.428624
0.578989
0.376979
0.391386
1.87927
0.489716
0.57407
0.667141
0.771395
0.888228
1.01957
1.16754
1.33447
1.52294
1.73594
1.97685
2.24952
2.55837
2.90842
3.30543
3.75605
4.268
4.8501
5.51268
6.26746
7.12811
8.11058
9.23364
10.5189
11.9917
13.6824
15.627
17.866
20.4484
23.4346
26.8993
30.9397
35.6901
41.3173
48.044
55.2546
53.0377
10.0989
7.82164
0.000119558
0.000195677
0.000626534
0.00167597
0.00357624
0.00661614
0.0112983
0.0183351
0.0283052
0.0414301
0.0596225
0.0866216
0.120529
0.212035
0.280133
0.477047
0.628302
0.433764
0.460245
1.94368
0.572429
0.666669
0.770684
0.887442
1.01859
1.16635
1.33298
1.52107
1.73358
1.97389
2.24582
2.55375
2.90266
3.29828
3.74714
4.25676
4.83591
5.49465
6.24462
7.09918
8.07393
9.18691
10.4594
11.9161
13.5859
15.5032
17.7089
20.2495
23.18
26.57
30.5041
35.0931
40.4899
46.8837
54.4783
61.5538
53.5159
6.96809
8.72778
0.000118261
0.000195397
0.000625499
0.00167009
0.00356426
0.00663288
0.0112764
0.0181749
0.028018
0.04149
0.059102
0.0825645
0.116029
0.155998
0.255354
0.330506
0.528322
0.681673
0.498567
0.536865
2.00762
0.664722
0.770142
0.886619
1.01768
1.16523
1.3316
1.51935
1.73142
1.97118
2.24243
2.5495
2.89737
3.29169
3.73894
4.24654
4.82303
5.47834
6.22392
7.073
8.04074
9.14483
10.4058
11.848
13.4993
15.3925
17.5669
20.0691
22.9517
26.2778
30.1256
34.5921
39.8023
45.9306
53.1861
61.632
67.6123
50.852
5.5383
9.73281
9.27703e-05
0.000194056
0.000625261
0.00166849
0.00355548
0.00661263
0.0112638
0.0180847
0.0277062
0.0411924
0.0591346
0.0821027
0.111655
0.151468
0.197079
0.304574
0.383736
0.582763
0.741047
0.570363
0.623748
2.08032
0.767849
0.885993
1.01673
1.16417
1.3303
1.51776
1.72945
1.96869
2.2393
2.5456
2.89248
3.28558
3.73134
4.23711
4.81126
5.46355
6.20522
7.04926
8.0107
9.10683
10.3576
11.7866
13.4211
15.2931
17.4399
19.9061
22.7447
26.0156
29.79
34.1572
39.2267
45.1404
52.093
60.3046
69.3994
72.7847
44.2443
5.31219
10.8466
1.28383e-05
0.000163126
0.000622533
0.00166725
0.00355108
0.00659722
0.0112361
0.018008
0.0276036
0.0407641
0.0587728
0.0821965
0.111106
0.146654
0.192417
0.243747
0.357184
0.441819
0.642135
0.806071
0.652214
0.721433
2.15945
0.88331
1.01601
1.16308
1.32909
1.51627
1.72762
1.96642
2.23644
2.54201
2.888
3.27998
3.72434
4.2284
4.80044
5.45006
6.18822
7.02777
7.9835
9.07237
10.314
11.7313
13.3507
15.2035
17.326
19.7606
22.5579
25.7781
29.4895
33.7723
38.7278
44.4796
51.187
59.0655
68.2947
77.5027
76.3242
34.2399
5.66737
12.0823
5.78942e-05
7.30685e-05
0.000554237
0.00166156
0.003549
0.00658929
0.0112099
0.0179691
0.0275538
0.0407373
0.0582745
0.0816713
0.111174
0.145691
0.186784
0.238166
0.29694
0.415034
0.50659
0.708096
0.881918
0.744937
0.831774
2.24658
1.01287
1.16225
1.32782
1.51487
1.7259
1.96431
2.23383
2.53871
2.88386
3.27482
3.71791
4.22036
4.79044
5.43763
6.17273
7.00831
7.95885
9.04114
10.2746
11.6813
13.2873
15.1228
17.2233
19.63
22.3909
25.5638
29.217
33.4274
38.2866
43.9082
50.4305
58.031
66.9374
77.1364
85.4013
76.6953
23.3253
6.25372
13.4655
5.22604e-05
0.000757403
0.00031958
0.00148392
0.00353772
0.00658494
0.0111983
0.0179376
0.0274998
0.0406937
0.0582731
0.0812516
0.110487
0.145721
0.186015
0.232915
0.290859
0.35555
0.480526
0.577649
0.784495
0.964048
0.850096
0.956269
2.34394
1.15859
1.32686
1.5134
1.72428
1.96232
2.23141
2.5357
2.8801
3.27009
3.712
4.21297
4.78121
5.42613
6.1585
6.99054
7.93649
9.01288
10.2387
11.636
13.23
15.0503
17.1309
19.5123
22.2413
25.3725
28.9713
33.1154
37.8914
43.4028
49.7766
57.1669
65.767
75.7899
86.6599
92.2796
72.1259
14.6103
6.95967
15.0144
5.72719e-05
0.000451092
0.00318031
0.000866265
0.00315837
0.00656473
0.0111922
0.0179177
0.0274528
0.0406219
0.0583078
0.0811602
0.109994
0.144986
0.18608
0.232459
0.285461
0.350129
0.422
0.551547
0.659139
0.869862
1.05803
0.969762
1.09651
2.45611
1.32259
1.5123
1.72259
1.96046
2.22911
2.53291
2.87664
3.26576
3.70654
4.20619
4.77272
5.41555
6.14531
6.97416
7.91612
8.98723
10.2063
11.595
13.1781
14.9846
17.0477
19.4064
22.1065
25.2012
28.7521
32.8338
37.5337
42.9505
49.1986
56.4209
64.7855
74.4942
85.6441
96.4368
97.0913
61.2922
9.21168
7.75723
16.7448
6.13208e-05
0.000443146
0.00201343
0.00787577
0.00184373
0.00585403
0.0111498
0.0179067
0.0274174
0.0405465
0.0581723
0.0811087
0.109765
0.144095
0.185223
0.232542
0.284505
0.34395
0.416092
0.495767
0.632209
0.749266
0.964836
1.16763
1.10632
1.2551
2.58314
1.50731
1.72132
1.9585
2.22696
2.53027
2.87341
3.26177
3.70156
4.19991
4.76492
5.40581
6.13314
6.95902
7.89729
8.96383
10.1769
11.5578
13.1311
14.925
16.9725
19.3112
21.9852
25.0467
28.556
32.5827
37.2116
42.541
48.682
55.7616
63.9371
73.3889
84.3014
96.385
105.635
97.9088
45.5274
6.7402
8.65094
18.676
6.60043e-05
0.000464524
0.00196727
0.00552179
0.0152742
0.00341701
0.0099353
0.0178352
0.027404
0.0405248
0.0581154
0.0809856
0.109636
0.143989
0.184491
0.231543
0.284532
0.342995
0.409852
0.48966
0.57786
0.723332
0.850939
1.074
1.2931
1.25998
1.43381
2.73118
1.71551
1.95703
2.22471
2.5278
2.87038
3.25807
3.697
4.19419
4.75776
5.39684
6.12196
6.94504
7.87993
8.94227
10.15
11.5241
13.0885
14.8712
16.9043
19.225
21.8761
24.9078
28.3791
32.3582
36.9243
42.1726
48.2141
55.1723
63.1876
72.4304
83.0829
95.2272
107.633
113.101
92.1383
29.3631
6.20799
9.64983
20.8307
6.95933e-05
0.000527378
0.00206063
0.00538954
0.0118299
0.0258277
0.00580154
0.0158825
0.027302
0.0404868
0.0580528
0.080852
0.109434
0.144041
0.184357
0.230772
0.28343
0.34336
0.408796
0.483316
0.571618
0.669972
0.823345
0.965685
1.20088
1.43548
1.43418
1.63541
2.8981
1.95027
2.22301
2.5252
2.86751
3.25457
3.69272
4.18893
4.75117
5.38861
6.11166
6.93225
7.86391
8.9223
10.1252
11.4932
13.0497
14.8223
16.8425
19.1469
21.7774
24.7828
28.22
32.1559
36.6675
41.8438
47.7931
54.6385
62.5178
71.5823
82.0108
93.9612
107.174
118.593
117.362
77.8989
17.2961
6.56154
10.7648
23.2362
7.2944e-05
0.000584281
0.00234768
0.00564362
0.0115717
0.0217203
0.0400036
0.00928616
0.0243272
0.0403636
0.0580467
0.0807949
0.109348
0.143831
0.184261
0.230461
0.282625
0.342206
0.409198
0.482144
0.565113
0.66342
0.772117
0.937094
1.09397
1.34295
1.60068
1.63135
1.86343
3.09456
2.2151
2.52324
2.86453
3.25129
3.68871
4.18404
4.74513
5.38105
6.1022
6.92041
7.84917
8.9039
10.1024
11.4648
13.0144
14.7779
16.7864
19.076
21.6879
24.6699
28.0772
31.9738
36.436
41.5503
47.4174
54.1582
61.9102
70.8233
81.0577
92.7911
106.063
119.769
128.012
115.389
56.906
10.2371
7.23431
12.0086
25.9219
7.63378e-05
0.000623284
0.00260703
0.00643497
0.012125
0.0214854
0.0359906
0.0581335
0.01426
0.036
0.0578491
0.0807846
0.109237
0.143663
0.184112
0.230378
0.282615
0.341219
0.408251
0.4825
0.564316
0.657164
0.765183
0.886863
1.06468
1.23839
1.50673
1.78771
1.85407
2.12112
3.32254
2.51402
2.86227
3.24782
3.6849
4.17941
4.7395
5.37409
6.09351
6.90952
7.83561
8.887
10.0813
11.4385
12.9818
14.7374
16.7356
19.0118
21.6067
24.5675
27.9478
31.8104
36.2277
41.2857
47.0823
53.7298
61.3636
70.1342
80.2029
91.7332
104.863
119.271
132.179
134.174
103.806
35.5743
7.1694
8.05234
13.396
28.9172
7.94754e-05
0.000660851
0.00278202
0.00715376
0.0138219
0.022563
0.0361119
0.0553886
0.0802988
0.0212379
0.0517744
0.080551
0.10924
0.143627
0.183899
0.230097
0.282417
0.341249
0.407277
0.48153
0.565149
0.655896
0.759447
0.879559
1.0162
1.20809
1.4039
1.69348
2.00094
2.10583
2.41089
3.59003
2.8515
3.24522
3.68093
4.17504
4.73415
5.36765
6.08554
6.89959
7.82311
8.87142
10.0619
11.4143
12.9516
14.7
16.6891
18.9535
21.5331
24.4744
27.8306
31.6624
36.0408
41.048
46.7802
53.3477
60.8757
69.5143
79.4259
90.7789
103.723
118.246
133.155
142.961
134.286
81.6367
19.994
6.55418
8.97957
14.9447
32.2577
8.24153e-05
0.000697626
0.00295244
0.00764462
0.0153577
0.0256152
0.0380305
0.0563658
0.0803344
0.106287
0.0308712
0.0724679
0.108964
0.143541
0.183763
0.229986
0.282201
0.341058
0.406878
0.480439
0.563589
0.656172
0.758043
0.87327
1.00833
1.16125
1.37101
1.59028
1.90505
2.24295
2.38991
2.7396
3.89585
3.23266
3.67793
4.17044
4.72914
5.36149
6.0781
6.8904
7.81171
8.8571
10.044
11.3921
12.9238
14.6654
16.6462
18.9003
21.4664
24.3902
27.7241
31.5283
35.8717
40.8344
46.5087
53.003
60.4403
68.9599
78.7252
89.9087
102.675
117.11
132.769
146.748
150.156
123.989
54.2218
11.1797
6.9548
10.017
16.6727
35.9823
8.53436e-05
0.000732059
0.00312154
0.00811539
0.0164129
0.0283533
0.042887
0.0595138
0.0827809
0.110605
0.1359
0.0439873
0.0987694
0.143276
0.183787
0.229869
0.282019
0.340793
0.406729
0.480152
0.561973
0.65503
0.757797
0.872216
1.00131
1.15287
1.32436
1.55423
1.80093
2.14424
2.51864
2.7111
3.10999
4.24985
3.66327
4.167
4.72385
5.3557
6.07104
6.88187
7.80118
8.84399
10.0276
11.3715
12.8983
14.6335
16.6066
18.8511
21.4054
24.3137
27.6277
31.4066
35.7184
40.6413
46.265
52.6934
60.0483
68.466
78.0981
89.1219
101.712
116.002
131.869
147.87
158.374
150.827
100.483
30.8344
7.45461
7.68615
11.1752
18.6007
40.1373
8.79898e-05
0.000766142
0.00327841
0.00857838
0.0174226
0.0302603
0.0471959
0.0665926
0.0875214
0.115246
0.145595
0.169093
0.0615045
0.131039
0.183491
0.229815
0.281959
0.340609
0.406415
0.480111
0.561823
0.653753
0.756452
0.872398
1.00024
1.14564
1.31533
1.50782
1.76093
2.03904
2.41614
2.82938
3.07356
3.52892
4.65951
4.14985
4.71988
5.34963
6.06438
6.87373
7.79136
8.83189
10.0125
11.3527
12.8747
14.6041
16.57
18.8057
21.3491
24.2439
27.5402
31.2963
35.5792
40.466
46.0444
52.4156
59.6957
68.0204
77.5394
88.4159
100.835
114.962
130.821
147.721
162.336
165.763
139.718
68.3091
16.2814
6.7178
8.56159
12.4674
20.7513
44.773
9.04094e-05
0.000795439
0.00343332
0.00901029
0.018415
0.032081
0.0502628
0.0726793
0.0969253
0.12176
0.153065
0.184985
0.206112
0.0843582
0.16934
0.229511
0.281942
0.340549
0.406275
0.479801
0.561995
0.653361
0.755682
0.870443
1.00074
1.14442
1.30838
1.49808
1.71442
1.99609
2.30821
2.72412
3.18122
3.48245
4.00126
5.13004
4.69984
5.34504
6.0574
6.86613
7.78204
8.82064
9.99859
11.3354
12.8531
14.5772
16.5363
18.7637
21.2969
24.1794
27.4603
31.1962
35.4532
40.307
45.8445
52.1644
59.3794
67.6199
77.0346
87.787
100.048
114.002
129.757
147.023
163.894
174.211
165.374
113.103
38.8762
9.21979
7.1362
9.54932
13.909
23.1498
49.946
9.26224e-05
0.000822056
0.00356602
0.00943619
0.0193302
0.0338761
0.0531652
0.0770739
0.104783
0.133396
0.161496
0.195524
0.228674
0.247385
0.113343
0.213799
0.28161
0.34052
0.406234
0.479615
0.561636
0.653293
0.755567
0.869538
0.998588
1.14484
1.30702
1.49142
1.70435
1.94826
2.26102
2.61242
3.07269
3.57974
3.94406
4.53614
5.67234
5.32158
6.05209
6.85806
7.77323
8.80993
9.98567
11.3194
12.8333
14.5524
16.5053
18.7251
21.2489
24.1197
27.3864
31.1047
35.3388
40.1631
45.6628
51.9364
59.0935
67.2606
76.5811
87.218
99.3446
113.133
128.738
146.099
164.154
178.797
180.789
151.021
75.9541
19.9252
6.97877
7.89558
10.653
15.5169
25.826
55.7206
9.46222e-05
0.000846378
0.00368689
0.00980167
0.020212
0.0354885
0.0560056
0.0812466
0.110542
0.142762
0.174964
0.206056
0.242733
0.277132
0.293469
0.148878
0.264376
0.340334
0.406242
0.479624
0.561477
0.65303
0.75539
0.869873
0.99768
1.14305
1.30735
1.49043
1.69748
1.93808
2.21216
2.55981
2.95737
3.46748
4.03253
4.46691
5.13958
6.29161
6.02464
6.85193
7.764
8.7998
9.97334
11.3046
12.815
14.5296
16.477
18.6896
21.2047
24.0647
27.318
31.0203
35.2341
40.0324
45.4985
51.729
58.834
66.9356
76.1743
86.7061
98.7069
112.354
127.806
145.114
163.743
181.118
190.088
177.359
118.849
42.1391
10.5215
6.97175
8.79769
11.8845
17.3109
28.8113
62.1544
9.63798e-05
0.000868353
0.00379745
0.0101393
0.020963
0.0370155
0.0585115
0.0852755
0.115978
0.149751
0.185706
0.221317
0.255391
0.294981
0.330987
0.345235
0.191217
0.321564
0.406097
0.479653
0.561438
0.652838
0.755036
0.869633
0.998021
1.14201
1.30591
1.49062
1.69638
1.9306
2.2005
2.50949
2.89911
3.34655
3.91507
4.54294
5.05693
5.82104
6.99956
6.81978
7.75691
8.78915
9.96176
11.2905
12.798
14.5086
16.4509
18.657
21.164
24.0139
27.2549
30.9419
35.1374
39.9127
45.3493
51.542
58.5983
66.6412
75.8061
86.2474
98.1331
111.646
126.958
144.165
163.02
181.936
195.793
194.447
156.824
76.3694
20.8874
7.26461
7.62899
9.81314
13.2584
19.3122
32.1432
69.3246
9.78874e-05
0.000887888
0.00389707
0.0104491
0.0216647
0.0383375
0.0608508
0.0888339
0.121179
0.156446
0.193991
0.233324
0.272597
0.310034
0.352933
0.391049
0.403342
0.240576
0.386053
0.479684
0.561508
0.65282
0.754908
0.869307
0.997851
1.14204
1.30423
1.48842
1.6968
1.92856
2.19318
2.49659
2.84617
3.28192
3.78732
4.42152
5.11975
5.72282
6.59018
7.80609
7.71921
8.78096
9.9495
11.2771
12.7818
14.4891
16.4269
18.6271
21.1267
23.9673
27.1968
30.8697
35.0479
39.8022
45.2129
51.372
58.385
66.3729
75.4721
85.8317
97.619
111.008
126.184
143.279
162.198
181.971
199.05
205.265
185.33
116.796
40.3298
10.6833
6.98287
8.48748
10.9472
14.7911
21.5458
35.859
77.3217
9.90907e-05
0.000902739
0.0039849
0.0107231
0.0223191
0.0395694
0.0629258
0.0920851
0.125785
0.162701
0.201762
0.242861
0.286023
0.329269
0.370771
0.417639
0.45843
0.468908
0.297396
0.458535
0.561704
0.652835
0.754936
0.869176
0.997583
1.14202
1.30401
1.48663
1.69438
1.92919
2.19172
2.48934
2.83191
3.22667
3.71481
4.28519
4.9932
5.77074
6.4756
7.45996
8.72427
8.73685
9.94002
11.2631
12.7664
14.4705
16.4044
18.5995
21.0924
23.9245
27.1436
30.8032
34.9655
39.7
45.087
51.2165
58.1915
66.131
75.1686
85.4547
97.1516
110.435
125.483
142.457
161.365
181.608
200.783
212.474
205.258
155.243
69.8115
19.2561
7.30317
7.59173
9.4652
12.2125
16.5016
24.0374
40.0033
86.2406
9.99872e-05
0.000911975
0.00405246
0.0109653
0.0228889
0.0407135
0.064858
0.0949362
0.129935
0.168222
0.209108
0.251862
0.29685
0.344302
0.392494
0.438459
0.490102
0.53415
0.543023
0.362302
0.539924
0.653228
0.754962
0.869224
0.997499
1.14179
1.3044
1.48688
1.69312
1.92689
2.19124
2.48801
2.82366
3.21102
3.65694
4.20425
4.84885
5.63839
6.50598
7.32684
8.44118
9.76864
9.88843
11.2522
12.7503
14.4529
16.3831
18.5738
21.0608
23.8852
27.0945
30.7422
34.8892
39.6057
44.9702
51.0728
58.0145
65.9112
74.8938
85.1117
96.7272
109.914