/*--------------------------------*- C++ -*----------------------------------*\
| =========                 |                                                 |
| \\      /  F ield         | OpenFOAM: The Open Source CFD Toolbox           |
|  \\    /   O peration     | Version:  v2012                                 |
|   \\  /    A nd           | Website:  www.openfoam.com                      |
|    \\/     M anipulation  |                                                 |
\*---------------------------------------------------------------------------*/
FoamFile
{
    version     2.0;
    format      ascii;
    class       volScalarField;
    location    "13200";
    object      Res;
}
// * * * * * * * * * * * * * * * * * * * * * * * * * * * * * * * * * * * * * //

dimensions      [0 0 0 0 0 0 0];


internalField   nonuniform List<scalar> 
31383
(
0.00741914
0.0308593
0.0722448
0.029729
0.27465
0.200949
0.0289016
0.265047
0.664834
0.388433
0.0282803
0.257973
0.648013
0.924856
0.609334
0.0277649
0.252642
0.635251
0.91579
0.992477
0.805144
0.0273234
0.248203
0.62542
0.908231
0.990762
0.999677
0.927372
0.0269499
0.244394
0.617104
0.902234
0.989228
0.999552
0.999995
0.980924
0.0266327
0.241166
0.609872
0.896973
0.987923
0.999431
0.999991
1
0.996696
0.026351
0.23842
0.603672
0.892258
0.986734
0.999319
0.999988
1
1
0.99967
0.0260955
0.235978
0.598346
0.888107
0.985596
0.999209
0.999984
1
1
1
0.999987
0.0258567
0.233759
0.593574
0.884465
0.984571
0.9991
0.99998
1
1
1
1
1
0.0256354
0.231686
0.589208
0.881136
0.983644
0.998996
0.999976
1
1
1
1
1
1
0.0254288
0.229761
0.585104
0.878044
0.982774
0.9989
0.999972
1
1
1
1
1
1
1
0.0252417
0.227966
0.581267
0.875088
0.981947
0.998805
0.999967
1
1
1
1
1
1
1
1
0.0250728
0.226337
0.577672
0.87229
0.981138
0.998712
0.999963
1
1
1
1
1
1
1
1
1
0.0249217
0.224866
0.574391
0.869629
0.980359
0.99862
0.999959
1
1
1
1
1
1
1
1
1
1
0.0247854
0.223548
0.571418
0.867176
0.979604
0.998528
0.999955
0.999999
1
1
1
1
1
1
1
1
1
1
0.0246646
0.222361
0.568742
0.864922
0.978902
0.998438
0.99995
0.999999
1
1
1
1
1
1
1
1
1
1
1
0.0245558
0.221307
0.566323
0.862879
0.978233
0.998351
0.999946
0.999999
1
1
1
1
1
1
1
1
1
1
1
1
0.0244588
0.220358
0.564167
0.861009
0.977625
0.998268
0.999941
0.999999
1
1
1
1
1
1
1
1
1
1
1
1
1
0.0243719
0.21951
0.562221
0.859333
0.977062
0.998191
0.999937
0.999999
1
1
1
1
1
1
1
1
1
1
1
1
1
1
0.0242941
0.21875
0.56048
0.857839
0.976551
0.998118
0.999932
0.999999
1
1
1
1
1
1
1
1
1
1
1
1
1
1
1
0.0242239
0.21807
0.55891
0.856439
0.976087
0.998051
0.999928
0.999999
1
1
1
1
1
1
1
1
1
1
1
1
1
1
1
1
0.0241607
0.217458
0.557505
0.855195
0.975655
0.997988
0.999925
0.999999
1
1
1
1
1
1
1
1
1
1
1
1
1
1
1
1
1
0.0241024
0.216905
0.556238
0.854076
0.975265
0.997931
0.999921
0.999999
1
1
1
1
1
1
1
1
1
1
1
1
1
1
1
1
1
1
0.0240485
0.216394
0.55509
0.853061
0.974912
0.997878
0.999918
0.999999
1
1
1
1
1
1
1
1
1
1
1
1
1
1
1
1
1
1
1
0.023999
0.215923
0.554035
0.852138
0.97459
0.99783
0.999915
0.999999
1
1
1
1
1
1
1
1
1
1
1
1
1
1
1
1
1
1
1
1
0.0239533
0.215489
0.553053
0.851285
0.974295
0.997785
0.999912
0.999999
1
1
1
1
1
1
1
1
1
1
1
1
1
1
1
1
1
1
1
1
1
0.0239119
0.21509
0.552147
0.850489
0.97402
0.997744
0.999909
0.999998
1
1
1
1
1
1
1
1
1
1
1
1
1
1
1
1
1
1
1
1
1
1
0.0238743
0.214728
0.551319
0.849755
0.973764
0.997706
0.999907
0.999998
1
1
1
1
1
1
1
1
1
1
1
1
1
1
1
1
1
1
1
1
1
1
1
0.0238408
0.214399
0.550564
0.849082
0.973526
0.99767
0.999904
0.999998
1
1
1
1
1
1
1
1
1
1
1
1
1
1
1
1
1
1
1
1
1
1
1
1
0.0238108
0.214105
0.549875
0.848462
0.973307
0.997636
0.999902
0.999998
1
1
1
1
1
1
1
1
1
1
1
1
1
1
1
1
1
1
1
1
1
1
1
1
1
0.0237835
0.213841
0.54926
0.8479
0.973103
0.997605
0.9999
0.999998
1
1
1
1
1
1
1
1
1
1
1
1
1
1
1
1
1
1
1
1
1
1
0.999999
0.999999
1
1
0.0237585
0.213603
0.548707
0.847394
0.972918
0.997576
0.999898
0.999998
1
1
1
1
1
1
1
1
1
1
1
1
1
1
1
1
1
1
1
1
1
1
0.999999
0.999999
0.999999
1
1
0.023735
0.213384
0.548208
0.846939
0.972751
0.997549
0.999896
0.999998
1
1
1
1
1
1
1
1
1
1
1
1
1
1
1
1
1
1
1
1
1
1
0.999999
0.999999
0.999999
0.999999
1
1
0.0237112
0.213178
0.547747
0.846529
0.972602
0.997525
0.999895
0.999998
1
1
1
1
1
1
1
1
1
1
1
1
1
1
1
1
1
1
1
1
1
1
0.999999
0.999999
0.999998
0.999998
0.999998
1
1
0.023691
0.21297
0.547334
0.846146
0.972465
0.997503
0.999893
0.999998
1
1
1
1
1
1
1
1
1
1
1
1
1
1
1
1
1
1
1
1
1
1
0.999999
0.999999
0.999998
0.999998
0.999997
0.999998
1
1
0.0237534
0.212793
0.546879
0.845799
0.972338
0.997483
0.999892
0.999998
1
1
1
1
1
1
1
1
1
1
1
1
1
1
1
1
1
1
1
1
1
1
0.999999
0.999999
0.999998
0.999998
0.999997
0.999997
0.999998
1
1
0.0296246
0.213324
0.54651
0.845428
0.972219
0.997465
0.99989
0.999998
1
1
1
1
1
1
1
1
1
1
1
1
1
1
1
1
1
1
1
1
1
1
0.999999
0.999999
0.999998
0.999998
0.999997
0.999996
0.999996
0.999998
1
1
0.0243866
1
0.547569
0.845122
0.972098
0.997447
0.999889
0.999998
1
1
1
1
1
1
1
1
1
1
1
1
1
1
1
1
1
1
1
1
1
1
0.999999
0.999999
0.999998
0.999997
0.999996
0.999995
0.999995
0.999996
0.999999
1
1
0.0245711
0.998917
1
0.845938
0.971997
0.99743
0.999888
0.999998
1
1
1
1
1
1
1
1
1
1
1
1
1
1
1
1
1
1
1
1
1
1
0.999999
0.999999
0.999998
0.999997
0.999996
0.999995
0.999994
0.999994
0.999995
0.999999
1
1
0.0266574
1
0.999999
1
0.972242
0.997415
0.999887
0.999998
1
1
1
1
1
1
1
1
1
1
1
1
1
1
1
1
1
1
1
1
1
1
0.999999
0.999999
0.999998
0.999997
0.999996
0.999995
0.999994
0.999993
0.999993
0.999995
0.999999
1
1
0.0254469
1
1
1
1
0.997446
0.999886
0.999998
1
1
1
1
1
1
1
1
1
1
1
1
1
1
1
1
1
1
1
1
1
1
0.999999
0.999999
0.999998
0.999997
0.999996
0.999995
0.999994
0.999992
0.999992
0.999993
0.999996
1
1
1
0.0240021
1
1
1
1
1
0.999888
0.999998
1
1
1
1
1
1
1
1
1
1
1
1
1
1
1
1
1
1
1
1
1
1
0.999999
0.999999
0.999998
0.999997
0.999996
0.999995
0.999993
0.999992
0.999991
0.999991
0.999992
0.999996
1
1
1
0.0237389
1
1
1
1
1
1
0.999998
1
1
1
1
1
1
1
1
1
1
1
1
1
1
1
1
1
1
1
1
1
1
0.999999
0.999999
0.999998
0.999997
0.999996
0.999995
0.999993
0.999992
0.99999
0.99999
0.99999
0.999993
0.999997
1
1
1
0.0235267
0.999992
1
1
1
1
1
1
1
1
1
1
1
1
1
1
1
1
1
1
1
1
1
1
1
1
1
1
1
1
0.999999
0.999999
0.999998
0.999997
0.999996
0.999995
0.999993
0.999992
0.99999
0.999989
0.999989
0.99999
0.999993
0.999998
1
1
1
0.0234818
0.656946
1
1
1
1
1
1
1
1
1
1
1
1
1
1
1
1
1
1
1
1
1
1
1
1
1
1
1
1
0.999999
0.999999
0.999998
0.999997
0.999996
0.999995
0.999993
0.999991
0.99999
0.999988
0.999987
0.999988
0.99999
0.999994
0.999999
1
1
1
0.0234654
0.502511
0.949801
1
1
1
1
1
1
1
1
1
1
1
1
1
1
1
1
1
1
1
1
1
1
1
1
1
1
1
0.999999
0.999999
0.999998
0.999997
0.999996
0.999995
0.999993
0.999991
0.999989
0.999988
0.999987
0.999986
0.999988
0.999991
0.999995
0.999999
1
1
1
0.0234535
0.247461
0.866582
0.9948
1
1
1
1
1
1
1
1
1
1
1
1
1
1
1
1
1
1
1
1
1
1
1
1
1
1
0.999999
0.999999
0.999998
0.999997
0.999996
0.999995
0.999993
0.999991
0.999989
0.999987
0.999986
0.999985
0.999986
0.999988
0.999992
0.999997
1
1
1
1
0.0234352
0.226276
0.599887
0.978734
0.999773
1
1
1
1
1
1
1
1
1
1
1
1
1
1
1
1
1
1
1
1
1
1
1
1
1
0.999999
0.999999
0.999998
0.999997
0.999996
0.999995
0.999993
0.999991
0.999989
0.999987
0.999985
0.999984
0.999984
0.999985
0.999988
0.999993
0.999998
1
1
1
1
0.0234176
0.241559
0.566471
0.873033
0.997761
0.999993
1
1
1
1
1
1
1
1
1
1
1
1
1
1
1
1
1
1
1
1
1
1
1
1
0.999999
0.999999
0.999998
0.999997
0.999996
0.999995
0.999993
0.999991
0.999989
0.999987
0.999985
0.999984
0.999983
0.999984
0.999986
0.99999
0.999995
0.999999
1
1
1
1
0.0234052
0.229448
0.587117
0.853832
0.977889
0.999847
1
1
1
1
1
1
1
1
1
1
1
1
1
1
1
1
1
1
1
1
1
1
1
1
0.999999
0.999999
0.999998
0.999997
0.999996
0.999995
0.999993
0.999991
0.999989
0.999987
0.999985
0.999983
0.999982
0.999982
0.999984
0.999987
0.999991
0.999996
0.999999
1
1
1
1
0.0233947
0.213865
0.56824
0.864873
0.973385
0.997905
0.999994
1
1
1
1
1
1
1
1
1
1
1
1
1
1
1
1
1
1
1
1
1
1
1
0.999999
0.999999
0.999998
0.999997
0.999996
0.999995
0.999993
0.999991
0.999989
0.999987
0.999984
0.999983
0.999981
0.999981
0.999982
0.999984
0.999988
0.999993
0.999998
1
1
1
1
1
0.0233842
0.212842
0.543862
0.854097
0.975714
0.99739
0.999902
1
1
1
1
1
1
1
1
1
1
1
1
1
1
1
1
1
1
1
1
1
1
1
0.999999
0.999999
0.999998
0.999997
0.999996
0.999995
0.999993
0.999991
0.999989
0.999986
0.999984
0.999982
0.999981
0.99998
0.999981
0.999982
0.999985
0.99999
0.999995
0.999999
1
1
1
1
1
0.023375
0.213027
0.543366
0.839875
0.973002
0.997656
0.999887
0.999998
1
1
1
1
1
1
1
1
1
1
1
1
1
1
1
1
1
1
1
1
1
1
0.999999
0.999999
0.999998
0.999997
0.999996
0.999995
0.999993
0.999991
0.999989
0.999986
0.999984
0.999982
0.99998
0.999979
0.999979
0.999981
0.999983
0.999987
0.999992
0.999997
0.999999
1
1
1
1
1
0.0233673
0.211122
0.544053
0.83996
0.969442
0.997355
0.999902
0.999998
1
1
1
1
1
1
1
1
1
1
1
1
1
1
1
1
1
1
1
1
1
1
0.999999
0.999999
0.999998
0.999997
0.999996
0.999995
0.999993
0.999991
0.999989
0.999986
0.999984
0.999982
0.99998
0.999979
0.999979
0.999979
0.999981
0.999985
0.999989
0.999994
0.999998
1
1
1
1
1
1
0.023362
0.210045
0.541519
0.841535
0.969721
0.996926
0.999884
0.999998
1
1
1
1
1
1
1
1
1
1
1
1
1
1
1
1
1
1
1
1
1
1
0.999999
0.999999
0.999998
0.999997
0.999996
0.999995
0.999993
0.999991
0.999989
0.999986
0.999984
0.999981
0.99998
0.999978
0.999978
0.999978
0.99998
0.999983
0.999987
0.999991
0.999996
0.999999
1
1
1
1
1
1
0.0233517
0.209781
0.539251
0.839751
0.970338
0.996994
0.999867
0.999998
1
1
1
1
1
1
1
1
1
1
1
1
1
1
1
1
1
1
1
1
1
1
0.999999
0.999999
0.999998
0.999997
0.999996
0.999995
0.999993
0.999991
0.999988
0.999986
0.999984
0.999981
0.999979
0.999978
0.999977
0.999977
0.999978
0.999981
0.999984
0.999989
0.999994
0.999998
1
1
1
1
1
1
1
0.0230981
0.209308
0.538064
0.837494
0.969654
0.997119
0.999864
0.999998
1
1
1
1
1
1
1
1
1
1
1
1
1
1
1
1
1
1
1
1
1
1
0.999999
0.999999
0.999998
0.999997
0.999996
0.999995
0.999993
0.999991
0.999988
0.999986
0.999983
0.999981
0.999979
0.999977
0.999976
0.999976
0.999977
0.999979
0.999982
0.999987
0.999991
0.999996
0.999999
1
1
1
1
1
1
1
0.0181339
0.20727
0.538031
0.837011
0.969142
0.997026
0.999863
0.999997
1
1
1
1
1
1
1
1
1
1
1
1
1
1
1
1
1
1
1
1
1
1
0.999999
0.999999
0.999998
0.999997
0.999996
0.999995
0.999993
0.999991
0.999988
0.999986
0.999983
0.999981
0.999979
0.999977
0.999976
0.999975
0.999976
0.999978
0.999981
0.999985
0.999989
0.999994
0.999997
0.999999
1
1
1
1
1
1
1
0.00247737
0.164155
0.532995
0.836733
0.968906
0.996953
0.999858
0.999997
1
1
1
1
1
1
1
1
1
1
1
1
1
1
1
1
1
1
1
1
1
1
0.999999
0.999999
0.999998
0.999997
0.999996
0.999995
0.999993
0.999991
0.999988
0.999986
0.999983
0.999981
0.999978
0.999977
0.999975
0.999975
0.999975
0.999977
0.999979
0.999983
0.999987
0.999992
0.999996
0.999999
1
1
1
1
1
1
1
1
0.00397379
0.0268812
0.438391
0.833023
0.968852
0.996918
0.999853
0.999997
1
1
1
1
1
1
1
1
1
1
1
1
1
1
1
1
1
1
1
1
1
1
0.999999
0.999999
0.999998
0.999997
0.999996
0.999995
0.999993
0.999991
0.999988
0.999986
0.999983
0.99998
0.999978
0.999976
0.999975
0.999974
0.999974
0.999976
0.999978
0.999981
0.999985
0.99999
0.999994
0.999998
0.999999
1
1
1
1
1
1
0.99951
1
0.00734343
0.030986
0.0879984
0.740523
0.967636
0.996907
0.999851
0.999997
1
1
1
1
1
1
1
1
1
1
1
1
1
1
1
1
1
1
1
1
1
1
0.999999
0.999999
0.999998
0.999997
0.999996
0.999995
0.999993
0.999991
0.999988
0.999986
0.999983
0.99998
0.999978
0.999976
0.999974
0.999974
0.999974
0.999975
0.999977
0.99998
0.999983
0.999988
0.999992
0.999996
0.999999
1
1
1
1
1
1
1
1
1
0.00871854
0.0639605
0.0726643
0.199334
0.927508
0.996726
0.999851
0.999997
1
1
1
1
1
1
1
1
1
1
1
1
1
1
1
1
1
1
1
1
1
1
0.999999
0.999999
0.999998
0.999997
0.999996
0.999995
0.999993
0.999991
0.999988
0.999985
0.999983
0.99998
0.999978
0.999976
0.999974
0.999973
0.999973
0.999974
0.999975
0.999978
0.999982
0.999986
0.999991
0.999995
0.999998
0.999999
1
1
1
1
1
1
1
1
1
0.00946763
0.0772959
0.171681
0.114546
0.369564
0.988454
0.999836
0.999997
1
1
1
1
1
1
1
1
1
1
1
1
1
1
1
1
1
1
1
1
1
1
0.999999
0.999999
0.999998
0.999997
0.999996
0.999995
0.999993
0.999991
0.999988
0.999985
0.999983
0.99998
0.999977
0.999975
0.999974
0.999972
0.999972
0.999973
0.999974
0.999977
0.99998
0.999985
0.999989
0.999993
0.999997
0.999999
1
1
1
1
1
1
1
1
1
1
0.00990218
0.0843104
0.210336
0.320789
0.139084
0.586375
0.999006
0.999996
1
1
1
1
1
1
1
1
1
1
1
1
1
1
1
1
1
1
1
1
1
1
0.999999
0.999999
0.999998
0.999997
0.999996
0.999995
0.999993
0.999991
0.999988
0.999985
0.999983
0.99998
0.999977
0.999975
0.999973
0.999972
0.999972
0.999972
0.999973
0.999976
0.999979
0.999983
0.999987
0.999992
0.999996
0.999998
1
1
1
1
1
1
1
1
1
1
1
0.0101221
0.0884702
0.230083
0.395727
0.491557
0.12391
0.796093
0.999958
1
1
1
1
1
1
1
1
1
1
1
1
1
1
1
1
1
1
1
1
1
1
0.999999
0.999999
0.999998
0.999997
0.999996
0.999995
0.999993
0.999991
0.999988
0.999985
0.999983
0.99998
0.999977
0.999975
0.999973
0.999972
0.999971
0.999971
0.999973
0.999975
0.999978
0.999982
0.999986
0.99999
0.999994
0.999997
0.999999
1
1
1
1
1
1
1
1
1
1
1
0.0104895
0.0906441
0.242253
0.431657
0.600359
0.650529
0.0484575
0.932706
0.999999
1
1
1
1
1
1
1
1
1
1
1
1
1
1
1
1
1
1
1
1
1
0.999999
0.999999
0.999998
0.999997
0.999996
0.999995
0.999993
0.999991
0.999988
0.999985
0.999982
0.99998
0.999977
0.999975
0.999973
0.999971
0.999971
0.999971
0.999972
0.999974
0.999977
0.99998
0.999985
0.999989
0.999993
0.999996
0.999999
1
1
1
1
1
1
1
1
1
1
1
1
0.0108765
0.0941633
0.248574
0.453009
0.647241
0.774006
0.76468
0.0846503
0.986527
1
1
1
1
1
1
1
1
1
1
1
1
1
1
1
1
1
1
1
1
0.999999
1
0.999999
0.999998
0.999997
0.999996
0.999995
0.999993
0.999991
0.999988
0.999985
0.999982
0.99998
0.999977
0.999974
0.999972
0.999971
0.99997
0.99997
0.999971
0.999973
0.999976
0.999979
0.999983
0.999988
0.999992
0.999996
0.999998
0.999999
1
1
1
1
1
1
1
1
0.999999
1
1
1
0.0112068
0.0976824
0.257791
0.464528
0.673083
0.818106
0.88256
0.818292
0.227644
0.998506
1
1
1
1
1
1
1
1
1
1
1
1
1
1
1
1
1
1
1
0.999999
0.999999
1
0.999998
0.999997
0.999996
0.999995
0.999993
0.99999
0.999988
0.999985
0.999982
0.999979
0.999977
0.999974
0.999972
0.999971
0.99997
0.99997
0.99997
0.999972
0.999975
0.999978
0.999982
0.999987
0.999991
0.999995
0.999997
0.999999
1
1
1
1
1
1
1
1
1
1
1
1
1
0.0115157
0.100663
0.267326
0.480493
0.68646
0.838395
0.914848
0.93005
0.807094
0.32598
0.999913
1
1
1
1
1
1
1
1
1
1
1
1
1
1
1
1
1
1
1
0.999999
0.999998
1
0.999997
0.999996
0.999995
0.999993
0.99999
0.999988
0.999985
0.999982
0.999979
0.999977
0.999974
0.999972
0.99997
0.999969
0.999969
0.99997
0.999971
0.999974
0.999977
0.999981
0.999985
0.99999
0.999994
0.999997
0.999999
1
1
1
1
1
1
1
1
1
1
1
1
1
1
0.011826
0.103466
0.27571
0.496266
0.70401
0.847724
0.924553
0.952827
0.93469
0.718654
0.367896
0.999997
1
1
1
1
1
1
1
1
1
1
1
1
1
1
1
1
1
1
1
0.999998
0.999997
1
0.999996
0.999995
0.999993
0.99999
0.999988
0.999985
0.999982
0.999979
0.999976
0.999974
0.999972
0.99997
0.999969
0.999969
0.999969
0.999971
0.999973
0.999976
0.99998
0.999984
0.999989
0.999993
0.999996
0.999998
0.999999
1
1
1
1
1
1
1
1
1
1
1
1
1
1
0.0121247
0.10631
0.283273
0.509552
0.720831
0.859993
0.927086
0.954254
0.955381
0.89492
0.554735
0.372168
1
1
1
1
1
1
1
1
1
1
1
1
1
1
1
1
1
1
0.999999
0.999999
0.999997
0.999995
1
0.999995
0.999993
0.99999
0.999988
0.999985
0.999982
0.999979
0.999976
0.999974
0.999971
0.99997
0.999969
0.999968
0.999969
0.99997
0.999972
0.999975
0.999979
0.999983
0.999987
0.999992
0.999995
0.999998
0.999999
1
1
1
1
1
1
1
1
1
1
1
1
1
1
1
0.0124
0.10903
0.290816
0.521613
0.734524
0.871178
0.932583
0.950439
0.948381
0.921192
0.784622
0.371043
0.359317
1
1
1
1
1
1
1
1
1
1
1
1
1
1
1
1
1
0.999999
0.999999
0.999999
0.999996
0.999994
1
0.999993
0.99999
0.999988
0.999985
0.999982
0.999979
0.999976
0.999974
0.999971
0.999969
0.999968
0.999968
0.999968
0.999969
0.999971
0.999974
0.999978
0.999982
0.999986
0.999991
0.999994
0.999997
0.999999
1
1
1
1
1
1
1
1
1
1
1
0.999839
1
1
1
1
0.0126511
0.111543
0.297945
0.533489
0.746478
0.879911
0.937223
0.950601
0.935444
0.898264
0.821495
0.606814
0.224984
0.341795
1
1
1
1
1
1
1
1
1
1
1
1
1
1
1
1
1
0.999999
0.999998
0.999998
0.999994
0.999992
1
0.99999
0.999988
0.999985
0.999982
0.999979
0.999976
0.999973
0.999971
0.999969
0.999968
0.999967
0.999968
0.999969
0.999971
0.999974
0.999977
0.999981
0.999986
0.99999
0.999994
0.999996
0.999998
1
1
1
1
1
1
1
1
1
1
1
1
0.999992
1
1
1
1
0.0128785
0.113819
0.30456
0.544579
0.757841
0.886622
0.940266
0.950544
0.929217
0.866543
0.775036
0.651579
0.425435
0.127194
0.325757
1
1
1
1
1
1
1
1
1
1
1
1
1
1
1
1
0.999999
0.999998
0.999998
0.999997
0.999992
0.99999
0.999999
0.999988
0.999985
0.999982
0.999979
0.999976
0.999973
0.999971
0.999969
0.999968
0.999967
0.999967
0.999968
0.99997
0.999973
0.999976
0.99998
0.999985
0.999989
0.999993
0.999996
0.999998
0.999999
1
1
1
1
1
1
1
1
1
1
1
1
1
1
1
1
1
0.0130847
0.115891
0.310543
0.555141
0.767823
0.892789
0.942067
0.949208
0.922781
0.84844
0.723379
0.597189
0.470234
0.285929
0.0651943
0.313061
1
1
1
1
1
1
1
1
1
1
1
1
1
1
1
0.999999
0.999998
0.999997
0.999996
0.999996
0.999989
0.999989
0.999998
0.999985
0.999982
0.999979
0.999976
0.999973
0.999971
0.999969
0.999967
0.999967
0.999967
0.999968
0.99997
0.999972
0.999976
0.999979
0.999984
0.999988
0.999992
0.999995
0.999998
0.999999
1
1
1
1
1
1
1
1
1
1
1
1
1
1
1
1
1
1
0.0132768
0.11795
0.315935
0.56466
0.777437
0.898368
0.943675
0.947331
0.914671
0.831207
0.695287
0.544217
0.428508
0.326972
0.190784
0.0258326
0.304464
1
1
1
1
1
1
1
1
1
1
1
1
1
1
0.999999
0.999998
0.999998
0.999996
0.999995
0.999995
0.999986
0.999987
0.999997
0.999981
0.999979
0.999976
0.999973
0.999971
0.999969
0.999967
0.999966
0.999966
0.999967
0.999969
0.999972
0.999975
0.999979
0.999983
0.999987
0.999991
0.999995
0.999997
0.999999
1
1
1
1
1
1
1
1
1
1
1
0.999853
1
1
1
1
1
1
1
0.0134584
0.119672
0.321189
0.572713
0.786291
0.903612
0.945525
0.94537
0.906465
0.811646
0.66933
0.517216
0.389155
0.301868
0.227654
0.127785
0.00735144
0.299698
1
1
1
1
1
1
1
1
1
1
1
1
1
0.999999
0.999999
0.999997
0.999996
0.999994
0.999993
0.999993
0.999983
0.999985
0.999996
0.999978
0.999976
0.999973
0.99997
0.999968
0.999967
0.999966
0.999966
0.999967
0.999968
0.999971
0.999974
0.999978
0.999982
0.999986
0.999991
0.999994
0.999997
0.999999
1
1
1
1
1
1
1
1
1
1
1
1
0.999999
1
1
1
1
1
1
1
0.0136403
0.121156
0.325727
0.580517
0.793283
0.908289
0.947374
0.943953
0.898403
0.793318
0.643091
0.49327
0.369539
0.27698
0.215294
0.16081
0.085231
0.0222071
0.298633
1
1
1
1
1
1
1
1
1
1
1
1
0.999999
0.999999
0.999998
0.999996
0.999994
0.999991
0.999992
0.999991
0.99998
0.999984
0.999994
0.999975
0.999973
0.99997
0.999968
0.999967
0.999966
0.999966
0.999966
0.999968
0.99997
0.999974
0.999977
0.999981
0.999986
0.99999
0.999994
0.999996
0.999998
0.999999
1
1
1
1
1
1
1
1
1
1
1
0.999739
1
1
1
1
1
1
1
1
0.0138281
0.122996
0.329561
0.586544
0.799481
0.911878
0.948865
0.943008
0.891651
0.776755
0.619784
0.469818
0.3524
0.264872
0.20063
0.156663
0.109747
0.0555212
0.0361127
0.301263
1
1
1
1
1
1
1
1
1
1
1
0.999999
0.999999
0.999998
0.999996
0.999994
0.999992
0.999989
0.99999
0.999989
0.999978
0.999983
0.999992
0.999971
0.99997
0.999968
0.999966
0.999965
0.999965
0.999966
0.999968
0.99997
0.999973
0.999977
0.999981
0.999985
0.999989
0.999993
0.999996
0.999998
0.999999
1
1
1
1
1
1
1
1
1
1
1
1
0.998946
1
1
1
1
1
1
1
1
0.0140192
0.124678
0.333819
0.591845
0.80475
0.915036
0.949849
0.941989
0.885832
0.763042
0.599952
0.449992
0.335729
0.253952
0.193781
0.14875
0.116133
0.0746664
0.0339781
0.0475126
0.306983
1
1
1
1
1
1
1
1
1
1
0.999999
0.999999
0.999998
0.999997
0.999995
0.999992
0.999989
0.999986
0.999988
0.999987
0.999975
0.999982
0.99999
0.999968
0.999968
0.999966
0.999965
0.999965
0.999966
0.999967
0.999969
0.999972
0.999976
0.99998
0.999984
0.999989
0.999992
0.999995
0.999998
0.999999
1
1
1
1
1
1
1
1
1
1
1
1
1
1
1
1
1
1
1
1
1
1
0.0142224
0.126208
0.33813
0.5985
0.809761
0.917776
0.950794
0.940734
0.880426
0.751069
0.584416
0.433866
0.321851
0.243102
0.187222
0.145278
0.112604
0.0874033
0.0554273
0.0177745
0.0572625
0.31618
1
1
1
1
1
1
1
1
1
0.999999
0.999999
0.999998
0.999997
0.999995
0.999993
0.999989
0.999986
0.999984
0.999986
0.999985
0.999974
0.999981
0.999988
0.999965
0.999966
0.999965
0.999965
0.999965
0.999967
0.999969
0.999972
0.999975
0.99998
0.999984
0.999988
0.999992
0.999995
0.999997
0.999999
1
1
1
1
1
1
1
1
1
1
1
1
1
1
1
1
1
1
1
1
1
1
1
0.0144471
0.128232
0.342498
0.604778
0.815579
0.920821
0.951632
0.93979
0.87523
0.740355
0.570758
0.421245
0.310709
0.234097
0.180398
0.141586
0.111353
0.0865763
0.0662097
0.0405326
0.0057329
0.0661371
0.328941
1
1
1
1
1
1
1
1
0.999999
0.999999
0.999998
0.999997
0.999995
0.999993
0.99999
0.999986
0.999983
0.999981
0.999984
0.999983
0.999973
0.99998
0.999985
0.999963
0.999965
0.999964
0.999965
0.999966
0.999968
0.999971
0.999975
0.999979
0.999983
0.999987
0.999991
0.999995
0.999997
0.999999
1
1
1
1
1
1
1
1
1
1
1
1
1
1
1
1
1
1
1
1
1
1
1
1
0.014675
0.130308
0.347552
0.610653
0.821152
0.924361
0.953158
0.939357
0.870969
0.730828
0.558796
0.410749
0.302135
0.22691
0.174687
0.137373
0.109554
0.0868704
0.067312
0.050138
0.0285109
0.00698437
0.0745704
0.345489
1
1
1
1
1
1
1
0.999999
0.999999
0.999998
0.999997
0.999996
0.999993
0.999991
0.999987
0.999982
0.99998
0.999978
0.999982
0.999981
0.999972
0.99998
0.999982
0.999962
0.999964
0.999964
0.999966
0.999968
0.999971
0.999974
0.999978
0.999983
0.999987
0.999991
0.999994
0.999997
0.999999
0.999999
1
1
1
1
1
1
1
1
1
1
1
1
1
1
1
1
1
1
1
1
1
1
1
1
0.0149031
0.132189
0.352652
0.618297
0.826529
0.927782
0.955563
0.940112
0.86806
0.722993
0.548548
0.401564
0.295077
0.221392
0.170174
0.133814
0.107067
0.0862888
0.0685934
0.0525504
0.0374967
0.0183106
0.0155282
0.0829315
0.365898
1
1
1
1
1
1
0.999999
0.999999
0.999998
0.999997
0.999996
0.999994
0.999991
0.999988
0.999983
0.999979
0.999977
0.999976
0.99998
0.999979
0.999972
0.99998
0.999979
0.999961
0.999964
0.999965
0.999967
0.99997
0.999974
0.999978
0.999982
0.999986
0.99999
0.999994
0.999997
0.999998
0.999999
1
1
1
1
1
1
1
1
1
1
1
1
1
1
1
1
1
1
1
1
1
1
1
1
1
0.0151234
0.134228
0.357416
0.625687
0.832778
0.93173
0.958078
0.942378
0.86767
0.717415
0.540831
0.393706
0.288927
0.21674
0.166716
0.131042
0.104943
0.0849852
0.0688665
0.0545313
0.0408765
0.0272471
0.0091227
0.0234605
0.091472
0.391202
1
1
1
1
1
0.999999
0.999999
0.999998
0.999997
0.999996
0.999994
0.999992
0.999988
0.999984
0.99998
0.999975
0.999974
0.999974
0.999979
0.999977
0.999972
0.999981
0.999976
0.999962
0.999965
0.999967
0.99997
0.999973
0.999977
0.999982
0.999986
0.99999
0.999993
0.999996
0.999998
0.999999
1
1
1
1
1
1
1
1
1
1
1
1
1
1
1
1
1
1
1
1
1
1
1
1
1
1
0.0153316
0.136154
0.362451
0.63204
0.839016
0.936
0.961367
0.945774
0.870608
0.715664
0.535312
0.387625
0.283575
0.212683
0.163785
0.128892
0.103306
0.0838026
0.0683605
0.0553902
0.0433876
0.0313891
0.0186912
0.00199224
0.0308339
0.100533
0.421477
1
1
1
1
0.999999
0.999999
0.999998
0.999997
0.999996
0.999994
0.999992
0.999989
0.999985
0.999981
0.999976
0.999971
0.999971
0.999973
0.999978
0.999976
0.999972
0.999981
0.999974
0.999963
0.999967
0.999969
0.999973
0.999977
0.999981
0.999985
0.99999
0.999993
0.999996
0.999998
0.999999
1
1
1
1
1
1
1
1
1
1
1
1
1
1
1
1
1
1
1
1
1
1
1
1
1
1
1
0.0155253
0.137986
0.367167
0.639012
0.844874
0.939918
0.965055
0.950478
0.876215
0.718935
0.53299
0.383487
0.279575
0.20925
0.161248
0.127133
0.102017
0.0829169
0.0678386
0.0554714
0.0446821
0.0343256
0.0234583
0.0113309
0.00645221
0.0379264
0.110188
0.457047
1
1
1
0.999999
0.999999
0.999998
0.999997
0.999996
0.999994
0.999992
0.999989
0.999986
0.999982
0.999977
0.999972
0.999968
0.999969
0.999972
0.999977
0.999976
0.999973
0.999981
0.999972
0.999965
0.999969
0.999972
0.999976
0.999981
0.999985
0.999989
0.999993
0.999996
0.999998
0.999999
1
1
1
1
1
1
1
1
1
1
1
1
1
1
1
1
1
1
1
1
1
1
1
1
1
1
1
1
0.015703
0.13969
0.371695
0.64545
0.850647
0.943784
0.968187
0.955727
0.884735
0.726234
0.535871
0.381899
0.276746
0.206799
0.159082
0.125619
0.100958
0.0822169
0.0674749
0.0554134
0.0452099
0.0359576
0.0267517
0.0166477
0.00293322
0.0129033
0.0448611
0.12085
0.499454
1
1
0.999999
0.999999
0.999998
0.999997
0.999996
0.999994
0.999992
0.99999
0.999987
0.999983
0.999978
0.999974
0.999969
0.999966
0.999968
0.999971
0.999977
0.999976
0.999974
0.999981
0.999971
0.999968
0.999972
0.999976
0.99998
0.999984
0.999989
0.999992
0.999995
0.999998
0.999999
1
1
1
1
1
1
1
1
1
1
1
1
1
1
1
1
1
1
1
1
1
1
1
1
1
1
1
1
1
0.015864
0.14125
0.375835
0.651593
0.855959
0.94745
0.971287
0.960364
0.894936
0.737828
0.542676
0.384013
0.275878
0.205173
0.157502
0.124259
0.100012
0.0816527
0.067216
0.0554528
0.0455329
0.0367999
0.0286555
0.0202485
0.0106633
0.000632501
0.0190476
0.0518436
0.132487
0.548502
1
1
0.999999
0.999998
0.999997
0.999996
0.999994
0.999992
0.99999
0.999987
0.999984
0.99998
0.999975
0.99997
0.999966
0.999964
0.999967
0.999971
0.999977
0.999977
0.999976
0.999982
0.999971
0.999971
0.999975
0.99998
0.999984
0.999988
0.999992
0.999995
0.999997
0.999999
1
1
1
1
1
1
1
1
1
1
1
1
1
1
1
1
1
1
1
1
1
1
1
1
1
1
1
1
1
1
0.0160134
0.142677
0.379633
0.657115
0.860959
0.950808
0.974209
0.965051
0.904457
0.752966
0.553517
0.389168
0.277571
0.204651
0.156521
0.123256
0.0992034
0.0811314
0.0669683
0.0554722
0.04582
0.0374164
0.0297568
0.0223947
0.0145457
0.00504974
0.00409117
0.0250193
0.0589911
0.145769
0.604233
1
1
0.999999
0.999997
0.999996
0.999995
0.999993
0.99999
0.999987
0.999984
0.99998
0.999976
0.999971
0.999967
0.999963
0.999963
0.999967
0.999972
0.999977
0.999977
0.999978
0.999983
0.999972
0.999975
0.999979
0.999984
0.999988
0.999992
0.999995
0.999997
0.999999
1
1
1
1
1
1
1
1
1
1
1
1
1
1
1
1
1
1
1
1
1
1
1
1
1
1
1
1
1
1
1
0.0161516
0.144004
0.38307
0.66211
0.86537
0.953903
0.976884
0.969459
0.91442
0.767961
0.568264
0.397317
0.281164
0.205959
0.156376
0.122656
0.0986481
0.0806617
0.0667559
0.0554899
0.0460635
0.0379327
0.0306066
0.0237249
0.0168869
0.00943471
0.000584006
0.00890073
0.0309572
0.0665044
0.160619
0.668065
1
1
0.999998
0.999996
0.999995
0.999993
0.99999
0.999988
0.999984
0.999981
0.999977
0.999973
0.999968
0.999964
0.999962
0.999963
0.999968
0.999973
0.999978
0.999979
0.99998
0.999984
0.999974
0.999979
0.999983
0.999987
0.999991
0.999995
0.999997
0.999999
0.999999
1
1
1
1
1
1
1
1
1
1
1
1
1
1
1
1
1
1
1
1
1
1
1
1
1
1
1
1
1
1
1
0.0162692
0.145195
0.386275
0.666563
0.869298
0.956611
0.979296
0.97354
0.924155
0.784074
0.583416
0.408611
0.286991
0.208683
0.157442
0.122733
0.0983699
0.0803966
0.0665667
0.0554695
0.0462615
0.0383429
0.0313
0.0247628
0.0184262
0.0119413
0.00477287
0.00387077
0.0152078
0.036882
0.074468
0.177882
0.752887
1
1
0.999997
0.999995
0.999993
0.999991
0.999988
0.999985
0.999981
0.999978
0.999974
0.99997
0.999965
0.999962
0.999961
0.999963
0.999969
0.999975
0.999979
0.999981
0.999982
0.999985
0.999977
0.999983
0.999987
0.999991
0.999994
0.999997
0.999998
0.999999
1
1
1
1
1
1
1
1
1
1
1
1
1
1
1
1
1
1
1
1
1
1
1
1
1
1
1
1
1
1
1
1
0.0163628
0.146219
0.389097
0.670592
0.872718
0.958948
0.981366
0.977165
0.93356
0.800971
0.600264
0.420569
0.294992
0.212807
0.159537
0.123667
0.0985587
0.0803221
0.0664909
0.0554811
0.0464299
0.0386887
0.0318583
0.0256016
0.0196203
0.0136721
0.00741267
0.0010764
0.0090785
0.0219758
0.0429146
0.0830217
0.197824
0.87932
1
1
0.999995
0.999993
0.999991
0.999988
0.999985
0.999982
0.999978
0.999974
0.999971
0.999967
0.999963
0.999961
0.999962
0.999965
0.999971
0.999976
0.99998
0.999982
0.999984
0.999987
0.999981
0.999987
0.999991
0.999994
0.999997
0.999998
0.999999
1
1
1
1
1
1
1
1
1
1
1
1
1
1
1
1
1
1
1
1
1
1
1
1
1
1
1
1
1
1
1
1
1
0.0164326
0.147003
0.391496
0.674146
0.875693
0.960958
0.983119
0.980258
0.942213
0.818195
0.618615
0.434053
0.30364
0.218477
0.162584
0.125275
0.0993875
0.0806152
0.0665355
0.055546
0.0465643
0.0389731
0.0323178
0.0262914
0.020614
0.015013
0.00931553
0.00322515
0.00414336
0.0135538
0.027026
0.0491881
0.0923612
0.22134
0.963283
1
1
0.999994
0.999991
0.999988
0.999985
0.999982
0.999979
0.999975
0.999971
0.999968
0.999964
0.999962
0.999961
0.999963
0.999967
0.999974
0.999978
0.999982
0.999984
0.999986
0.999989
0.999985
0.999991
0.999994
0.999996
0.999998
0.999999
1
1
1
1
1
1
1
1
1
1
1
1
1
1
1
1
1
1
1
1
1
1
1
1
1
1
1
1
1
1
1
1
1
1
0.0164966
0.147576
0.393283
0.677116
0.878236
0.962622
0.984576
0.982851
0.949841
0.834952
0.638076
0.448957
0.313413
0.224708
0.166635
0.127645
0.100667
0.0813202
0.0668751
0.0557169
0.0467249
0.0392135
0.0326918
0.0268289
0.0213853
0.0161213
0.0108141
0.00524984
0.00129896
0.00822971
0.0180094
0.0321925
0.0557822
0.102698
0.249106
0.991937
1
0.999999
0.999992
0.999988
0.999986
0.999982
0.999979
0.999976
0.999972
0.999969
0.999965
0.999963
0.999961
0.999962
0.999965
0.99997
0.999976
0.999981
0.999984
0.999987
0.999988
0.999991
0.999989
0.999994
0.999996
0.999998
0.999999
1
1
1
1
1
1
1
1
1
1
1
1
1
1
1
1
1
1
1
1
1
1
1
1
1
1
1
1
1
1
1
1
1
1
1
0.0165347
0.148061
0.394545
0.679295
0.880312
0.963927
0.985705
0.98495
0.956375
0.850581
0.657822
0.464951
0.324238
0.231683
0.171198
0.130674
0.102518
0.0823802
0.0675099
0.0560738
0.0469851
0.0394844
0.0330338
0.0273071
0.0220306
0.017006
0.0120211
0.00689957
0.00153563
0.0049592
0.012331
0.0225187
0.0375329
0.0628391
0.114249
0.28236
0.998419
1
0.999999
0.999989
0.999986
0.999983
0.99998
0.999976
0.999973
0.999969
0.999966
0.999964
0.999962
0.999961
0.999963
0.999968
0.999973
0.999979
0.999983
0.999986
0.999989
0.999991
0.999993
0.999992
0.999996
0.999998
0.999999
1
1
1
1
1
1
1
1
1
1
1
1
1
1
1
1
1
1
1
1
1
1
1
1
1
1
1
1
1
1
1
1
1
1
1
1
0.0165334
0.148367
0.395505
0.680841
0.881801
0.964965
0.986512
0.986505
0.961782
0.86481
0.677128
0.481469
0.335855
0.23937
0.176286
0.134112
0.104881
0.0838781
0.0684199
0.0566884
0.0473636
0.0397933
0.0333748
0.0277119
0.0225739
0.0177218
0.0129911
0.0082149
0.00321274
0.00254036
0.0087974
0.0164567
0.0271449
0.0431296
0.0704099
0.127259
0.32222
0.999701
1
0.999998
0.999987
0.999983
0.99998
0.999977
0.999973
0.99997
0.999967
0.999964
0.999963
0.999962
0.999963
0.999966
0.999971
0.999976
0.999982
0.999986
0.999989
0.999991
0.999993
0.999995
0.999995
0.999998
0.999999
1
1
1
1
1
1
1
1
1
1
1
1
1
1
1
1
1
1
1
1
1
1
1
1
1
1
1
1
1
1
1
1
1
1
1
1
0.0165163
0.148297
0.396087
0.681852
0.882881
0.965705
0.987138
0.987556
0.965819
0.877182
0.695495
0.497943
0.347866
0.24758
0.181863
0.137883
0.107483
0.0857382