/*--------------------------------*- C++ -*----------------------------------*\
| =========                 |                                                 |
| \\      /  F ield         | OpenFOAM: The Open Source CFD Toolbox           |
|  \\    /   O peration     | Version:  v2012                                 |
|   \\  /    A nd           | Website:  www.openfoam.com                      |
|    \\/     M anipulation  |                                                 |
\*---------------------------------------------------------------------------*/
FoamFile
{
    version     2.0;
    format      ascii;
    class       volScalarField;
    location    "13200";
    object      Rew;
}
// * * * * * * * * * * * * * * * * * * * * * * * * * * * * * * * * * * * * * //

dimensions      [0 0 0 0 0 0 0];


internalField   nonuniform List<scalar> 
31383
(
0.00741891
0.0308593
0.0722428
0.029729
0.27465
0.200944
0.0289016
0.265047
0.664834
0.388424
0.0282803
0.257973
0.648013
0.924856
0.609323
0.0277649
0.252642
0.635251
0.91579
0.992477
0.805134
0.0273234
0.248203
0.62542
0.908231
0.990762
0.999677
0.927366
0.0269499
0.244394
0.617104
0.902234
0.989228
0.999552
0.999995
0.980922
0.0266327
0.241166
0.609872
0.896973
0.987923
0.999431
0.999991
1
0.996696
0.026351
0.23842
0.603672
0.892258
0.986734
0.999319
0.999988
1
1
0.999669
0.0260955
0.235978
0.598346
0.888107
0.985596
0.999209
0.999984
1
1
1
0.999987
0.0258567
0.233759
0.593574
0.884465
0.984571
0.9991
0.99998
1
1
1
1
1
0.0256354
0.231686
0.589208
0.881136
0.983644
0.998996
0.999976
1
1
1
1
1
1
0.0254288
0.229761
0.585104
0.878044
0.982774
0.9989
0.999972
1
1
1
1
1
1
1
0.0252417
0.227966
0.581267
0.875088
0.981947
0.998805
0.999967
1
1
1
1
1
1
1
1
0.0250728
0.226337
0.577672
0.87229
0.981138
0.998712
0.999963
1
1
1
1
1
1
1
1
1
0.0249217
0.224866
0.574391
0.869629
0.980359
0.99862
0.999959
1
1
1
1
1
1
1
1
1
1
0.0247854
0.223548
0.571418
0.867176
0.979604
0.998528
0.999955
0.999999
1
1
1
1
1
1
1
1
1
1
0.0246646
0.222361
0.568742
0.864922
0.978902
0.998438
0.99995
0.999999
1
1
1
1
1
1
1
1
1
1
1
0.0245558
0.221307
0.566323
0.862879
0.978233
0.998351
0.999946
0.999999
1
1
1
1
1
1
1
1
1
1
1
1
0.0244588
0.220358
0.564167
0.861009
0.977625
0.998268
0.999941
0.999999
1
1
1
1
1
1
1
1
1
1
1
1
1
0.0243719
0.21951
0.562221
0.859333
0.977062
0.998191
0.999937
0.999999
1
1
1
1
1
1
1
1
1
1
1
1
1
1
0.0242941
0.21875
0.56048
0.857839
0.976551
0.998118
0.999932
0.999999
1
1
1
1
1
1
1
1
1
1
1
1
1
1
1
0.0242239
0.21807
0.55891
0.856439
0.976087
0.998051
0.999928
0.999999
1
1
1
1
1
1
1
1
1
1
1
1
1
1
1
1
0.0241607
0.217458
0.557505
0.855195
0.975655
0.997988
0.999925
0.999999
1
1
1
1
1
1
1
1
1
1
1
1
1
1
1
1
1
0.0241024
0.216905
0.556238
0.854076
0.975265
0.997931
0.999921
0.999999
1
1
1
1
1
1
1
1
1
1
1
1
1
1
1
1
1
1
0.0240485
0.216394
0.55509
0.853061
0.974912
0.997878
0.999918
0.999999
1
1
1
1
1
1
1
1
1
1
1
1
1
1
1
1
1
1
1
0.023999
0.215923
0.554035
0.852138
0.97459
0.99783
0.999915
0.999999
1
1
1
1
1
1
1
1
1
1
1
1
1
1
1
1
1
1
1
1
0.0239533
0.215489
0.553053
0.851285
0.974295
0.997785
0.999912
0.999999
1
1
1
1
1
1
1
1
1
1
1
1
1
1
1
1
1
1
1
1
1
0.0239119
0.21509
0.552147
0.850489
0.97402
0.997744
0.999909
0.999998
1
1
1
1
1
1
1
1
1
1
1
1
1
1
1
1
1
1
1
1
1
1
0.0238743
0.214728
0.551319
0.849755
0.973764
0.997706
0.999907
0.999998
1
1
1
1
1
1
1
1
1
1
1
1
1
1
1
1
1
1
1
1
1
1
1
0.0238408
0.214399
0.550564
0.849082
0.973526
0.99767
0.999904
0.999998
1
1
1
1
1
1
1
1
1
1
1
1
1
1
1
1
1
1
1
1
1
1
1
1
0.0238108
0.214105
0.549875
0.848462
0.973307
0.997636
0.999902
0.999998
1
1
1
1
1
1
1
1
1
1
1
1
1
1
1
1
1
1
1
1
1
1
1
1
1
0.0237835
0.213841
0.54926
0.8479
0.973103
0.997605
0.9999
0.999998
1
1
1
1
1
1
1
1
1
1
1
1
1
1
1
1
1
1
1
1
1
1
0.999999
0.999999
1
1
0.0237585
0.213603
0.548707
0.847394
0.972918
0.997576
0.999898
0.999998
1
1
1
1
1
1
1
1
1
1
1
1
1
1
1
1
1
1
1
1
1
1
0.999999
0.999999
0.999999
1
1
0.023735
0.213384
0.548208
0.846939
0.972751
0.997549
0.999896
0.999998
1
1
1
1
1
1
1
1
1
1
1
1
1
1
1
1
1
1
1
1
1
1
0.999999
0.999999
0.999999
0.999999
1
1
0.0237112
0.213178
0.547747
0.846529
0.972602
0.997525
0.999895
0.999998
1
1
1
1
1
1
1
1
1
1
1
1
1
1
1
1
1
1
1
1
1
1
0.999999
0.999999
0.999998
0.999998
0.999998
1
1
0.023691
0.21297
0.547334
0.846146
0.972465
0.997503
0.999893
0.999998
1
1
1
1
1
1
1
1
1
1
1
1
1
1
1
1
1
1
1
1
1
1
0.999999
0.999999
0.999998
0.999998
0.999997
0.999998
1
1
0.0237534
0.212793
0.546879
0.845799
0.972338
0.997483
0.999892
0.999998
1
1
1
1
1
1
1
1
1
1
1
1
1
1
1
1
1
1
1
1
1
1
0.999999
0.999999
0.999998
0.999998
0.999997
0.999997
0.999998
1
1
0.0296246
0.213324
0.54651
0.845428
0.972219
0.997465
0.99989
0.999998
1
1
1
1
1
1
1
1
1
1
1
1
1
1
1
1
1
1
1
1
1
1
0.999999
0.999999
0.999998
0.999998
0.999997
0.999996
0.999996
0.999998
1
1
0.0243866
1
0.547569
0.845122
0.972098
0.997447
0.999889
0.999998
1
1
1
1
1
1
1
1
1
1
1
1
1
1
1
1
1
1
1
1
1
1
0.999999
0.999999
0.999998
0.999997
0.999996
0.999995
0.999995
0.999996
0.999999
1
1
0.0245711
0.998917
1
0.845938
0.971997
0.99743
0.999888
0.999998
1
1
1
1
1
1
1
1
1
1
1
1
1
1
1
1
1
1
1
1
1
1
0.999999
0.999999
0.999998
0.999997
0.999996
0.999995
0.999994
0.999994
0.999995
0.999999
1
1
0.0266574
1
0.999999
1
0.972242
0.997415
0.999887
0.999998
1
1
1
1
1
1
1
1
1
1
1
1
1
1
1
1
1
1
1
1
1
1
0.999999
0.999999
0.999998
0.999997
0.999996
0.999995
0.999994
0.999993
0.999993
0.999995
0.999999
1
1
0.0254469
1
1
1
1
0.997446
0.999886
0.999998
1
1
1
1
1
1
1
1
1
1
1
1
1
1
1
1
1
1
1
1
1
1
0.999999
0.999999
0.999998
0.999997
0.999996
0.999995
0.999994
0.999992
0.999992
0.999993
0.999996
1
1
1
0.0240021
1
1
1
1
1
0.999888
0.999998
1
1
1
1
1
1
1
1
1
1
1
1
1
1
1
1
1
1
1
1
1
1
0.999999
0.999999
0.999998
0.999997
0.999996
0.999995
0.999993
0.999992
0.999991
0.999991
0.999992
0.999996
1
1
1
0.0237389
1
1
1
1
1
1
0.999998
1
1
1
1
1
1
1
1
1
1
1
1
1
1
1
1
1
1
1
1
1
1
0.999999
0.999999
0.999998
0.999997
0.999996
0.999995
0.999993
0.999992
0.99999
0.99999
0.99999
0.999993
0.999997
1
1
1
0.0235267
0.999992
1
1
1
1
1
1
1
1
1
1
1
1
1
1
1
1
1
1
1
1
1
1
1
1
1
1
1
1
0.999999
0.999999
0.999998
0.999997
0.999996
0.999995
0.999993
0.999992
0.99999
0.999989
0.999989
0.99999
0.999993
0.999998
1
1
1
0.0234818
0.656946
1
1
1
1
1
1
1
1
1
1
1
1
1
1
1
1
1
1
1
1
1
1
1
1
1
1
1
1
0.999999
0.999999
0.999998
0.999997
0.999996
0.999995
0.999993
0.999991
0.99999
0.999988
0.999987
0.999988
0.99999
0.999994
0.999999
1
1
1
0.0234654
0.502511
0.949801
1
1
1
1
1
1
1
1
1
1
1
1
1
1
1
1
1
1
1
1
1
1
1
1
1
1
1
0.999999
0.999999
0.999998
0.999997
0.999996
0.999995
0.999993
0.999991
0.999989
0.999988
0.999987
0.999986
0.999988
0.999991
0.999995
0.999999
1
1
1
0.0234535
0.247461
0.866582
0.9948
1
1
1
1
1
1
1
1
1
1
1
1
1
1
1
1
1
1
1
1
1
1
1
1
1
1
0.999999
0.999999
0.999998
0.999997
0.999996
0.999995
0.999993
0.999991
0.999989
0.999987
0.999986
0.999985
0.999986
0.999988
0.999992
0.999997
1
1
1
1
0.0234352
0.226276
0.599887
0.978734
0.999773
1
1
1
1
1
1
1
1
1
1
1
1
1
1
1
1
1
1
1
1
1
1
1
1
1
0.999999
0.999999
0.999998
0.999997
0.999996
0.999995
0.999993
0.999991
0.999989
0.999987
0.999985
0.999984
0.999984
0.999985
0.999988
0.999993
0.999998
1
1
1
1
0.0234176
0.241559
0.566471
0.873033
0.997761
0.999993
1
1
1
1
1
1
1
1
1
1
1
1
1
1
1
1
1
1
1
1
1
1
1
1
0.999999
0.999999
0.999998
0.999997
0.999996
0.999995
0.999993
0.999991
0.999989
0.999987
0.999985
0.999984
0.999983
0.999984
0.999986
0.99999
0.999995
0.999999
1
1
1
1
0.0234052
0.229448
0.587117
0.853832
0.977889
0.999847
1
1
1
1
1
1
1
1
1
1
1
1
1
1
1
1
1
1
1
1
1
1
1
1
0.999999
0.999999
0.999998
0.999997
0.999996
0.999995
0.999993
0.999991
0.999989
0.999987
0.999985
0.999983
0.999982
0.999982
0.999984
0.999987
0.999991
0.999996
0.999999
1
1
1
1
0.0233947
0.213865
0.56824
0.864873
0.973385
0.997905
0.999994
1
1
1
1
1
1
1
1
1
1
1
1
1
1
1
1
1
1
1
1
1
1
1
0.999999
0.999999
0.999998
0.999997
0.999996
0.999995
0.999993
0.999991
0.999989
0.999987
0.999984
0.999983
0.999981
0.999981
0.999982
0.999984
0.999988
0.999993
0.999998
1
1
1
1
1
0.0233842
0.212842
0.543862
0.854097
0.975714
0.99739
0.999902
1
1
1
1
1
1
1
1
1
1
1
1
1
1
1
1
1
1
1
1
1
1
1
0.999999
0.999999
0.999998
0.999997
0.999996
0.999995
0.999993
0.999991
0.999989
0.999986
0.999984
0.999982
0.999981
0.99998
0.999981
0.999982
0.999985
0.99999
0.999995
0.999999
1
1
1
1
1
0.023375
0.213027
0.543366
0.839875
0.973002
0.997656
0.999887
0.999998
1
1
1
1
1
1
1
1
1
1
1
1
1
1
1
1
1
1
1
1
1
1
0.999999
0.999999
0.999998
0.999997
0.999996
0.999995
0.999993
0.999991
0.999989
0.999986
0.999984
0.999982
0.99998
0.999979
0.999979
0.999981
0.999983
0.999987
0.999992
0.999997
0.999999
1
1
1
1
1
0.0233673
0.211122
0.544053
0.83996
0.969442
0.997355
0.999902
0.999998
1
1
1
1
1
1
1
1
1
1
1
1
1
1
1
1
1
1
1
1
1
1
0.999999
0.999999
0.999998
0.999997
0.999996
0.999995
0.999993
0.999991
0.999989
0.999986
0.999984
0.999982
0.99998
0.999979
0.999979
0.999979
0.999981
0.999985
0.999989
0.999994
0.999998
1
1
1
1
1
1
0.023362
0.210045
0.541519
0.841535
0.969721
0.996926
0.999884
0.999998
1
1
1
1
1
1
1
1
1
1
1
1
1
1
1
1
1
1
1
1
1
1
0.999999
0.999999
0.999998
0.999997
0.999996
0.999995
0.999993
0.999991
0.999989
0.999986
0.999984
0.999981
0.99998
0.999978
0.999978
0.999978
0.99998
0.999983
0.999987
0.999991
0.999996
0.999999
1
1
1
1
1
1
0.0233517
0.209781
0.539251
0.839751
0.970338
0.996994
0.999867
0.999998
1
1
1
1
1
1
1
1
1
1
1
1
1
1
1
1
1
1
1
1
1
1
0.999999
0.999999
0.999998
0.999997
0.999996
0.999995
0.999993
0.999991
0.999988
0.999986
0.999984
0.999981
0.999979
0.999978
0.999977
0.999977
0.999978
0.999981
0.999984
0.999989
0.999994
0.999998
1
1
1
1
1
1
0.997721
0.0230981
0.209308
0.538064
0.837494
0.969654
0.997119
0.999864
0.999998
1
1
1
1
1
1
1
1
1
1
1
1
1
1
1
1
1
1
1
1
1
1
0.999999
0.999999
0.999998
0.999997
0.999996
0.999995
0.999993
0.999991
0.999988
0.999986
0.999983
0.999981
0.999979
0.999977
0.999976
0.999976
0.999977
0.999979
0.999982
0.999987
0.999991
0.999996
0.999999
1
1
1
1
1
1
1
0.0181339
0.20727
0.538031
0.837011
0.969142
0.997026
0.999863
0.999997
1
1
1
1
1
1
1
1
1
1
1
1
1
1
1
1
1
1
1
1
1
1
0.999999
0.999999
0.999998
0.999997
0.999996
0.999995
0.999993
0.999991
0.999988
0.999986
0.999983
0.999981
0.999979
0.999977
0.999976
0.999975
0.999976
0.999978
0.999981
0.999985
0.999989
0.999994
0.999997
0.999999
1
1
1
1
1
1
1
0.00247736
0.164155
0.532995
0.836733
0.968906
0.996953
0.999858
0.999997
1
1
1
1
1
1
1
1
1
1
1
1
1
1
1
1
1
1
1
1
1
1
0.999999
0.999999
0.999998
0.999997
0.999996
0.999995
0.999993
0.999991
0.999988
0.999986
0.999983
0.999981
0.999978
0.999977
0.999975
0.999975
0.999975
0.999977
0.999979
0.999983
0.999987
0.999992
0.999996
0.999999
1
1
1
1
1
1
1
1
0.00397378
0.026881
0.438391
0.833023
0.968852
0.996918
0.999853
0.999997
1
1
1
1
1
1
1
1
1
1
1
1
1
1
1
1
1
1
1
1
1
1
0.999999
0.999999
0.999998
0.999997
0.999996
0.999995
0.999993
0.999991
0.999988
0.999986
0.999983
0.99998
0.999978
0.999976
0.999975
0.999974
0.999974
0.999976
0.999978
0.999981
0.999985
0.99999
0.999994
0.999998
0.999999
1
1
1
1
1
1
0.992885
1
0.00734343
0.0309859
0.0879975
0.740523
0.967636
0.996907
0.999851
0.999997
1
1
1
1
1
1
1
1
1
1
1
1
1
1
1
1
1
1
1
1
1
1
0.999999
0.999999
0.999998
0.999997
0.999996
0.999995
0.999993
0.999991
0.999988
0.999986
0.999983
0.99998
0.999978
0.999976
0.999974
0.999974
0.999974
0.999975
0.999977
0.99998
0.999983
0.999988
0.999992
0.999996
0.999999
1
1
1
1
1
1
1
1
1
0.00871854
0.0639605
0.072664
0.199331
0.927508
0.996726
0.999851
0.999997
1
1
1
1
1
1
1
1
1
1
1
1
1
1
1
1
1
1
1
1
1
1
0.999999
0.999999
0.999998
0.999997
0.999996
0.999995
0.999993
0.999991
0.999988
0.999985
0.999983
0.99998
0.999978
0.999976
0.999974
0.999973
0.999973
0.999974
0.999975
0.999978
0.999982
0.999986
0.999991
0.999995
0.999998
0.999999
1
1
1
1
1
1
1
1
1
0.00946763
0.0772959
0.171681
0.114545
0.369558
0.988454
0.999836
0.999997
1
1
1
1
1
1
1
1
1
1
1
1
1
1
1
1
1
1
1
1
1
1
0.999999
0.999999
0.999998
0.999997
0.999996
0.999995
0.999993
0.999991
0.999988
0.999985
0.999983
0.99998
0.999977
0.999975
0.999974
0.999972
0.999972
0.999973
0.999974
0.999977
0.99998
0.999985
0.999989
0.999993
0.999997
0.999999
1
1
1
1
1
1
1
1
1
1
0.00990218
0.0843104
0.210336
0.320789
0.139082
0.586366
0.999006
0.999996
1
1
1
1
1
1
1
1
1
1
1
1
1
1
1
1
1
1
1
1
1
1
0.999999
0.999999
0.999998
0.999997
0.999996
0.999995
0.999993
0.999991
0.999988
0.999985
0.999983
0.99998
0.999977
0.999975
0.999973
0.999972
0.999972
0.999972
0.999973
0.999976
0.999979
0.999983
0.999987
0.999992
0.999996
0.999998
1
1
1
1
1
1
1
1
1
1
1
0.0101221
0.0884702
0.230083
0.395727
0.491558
0.1239
0.796084
0.999958
1
1
1
1
1
1
1
1
1
1
1
1
1
1
1
1
1
1
1
1
1
1
0.999999
0.999999
0.999998
0.999997
0.999996
0.999995
0.999993
0.999991
0.999988
0.999985
0.999983
0.99998
0.999977
0.999975
0.999973
0.999972
0.999971
0.999971
0.999973
0.999975
0.999978
0.999982
0.999986
0.99999
0.999994
0.999997
0.999999
1
1
1
1
1
1
1
1
1
1
0.999679
0.0104895
0.0906441
0.242253
0.431657
0.600359
0.650529
0.0483843
0.932701
0.999999
1
1
1
1
1
1
1
1
1
1
1
1
1
1
1
1
1
1
1
1
1
0.999999
0.999999
0.999998
0.999997
0.999996
0.999995
0.999993
0.999991
0.999988
0.999985
0.999982
0.99998
0.999977
0.999975
0.999973
0.999971
0.999971
0.999971
0.999972
0.999974
0.999977
0.99998
0.999985
0.999989
0.999993
0.999996
0.999999
1
1
1
1
1
1
1
1
1
1
1
0.999982
0.0108765
0.0941633
0.248574
0.453009
0.647241
0.774006
0.76468
0.0845404
0.986526
1
1
1
1
1
1
1
1
1
1
1
1
1
1
1
1
1
1
1
1
0.999999
1
0.999999
0.999998
0.999997
0.999996
0.999995
0.999993
0.999991
0.999988
0.999985
0.999982
0.99998
0.999977
0.999974
0.999972
0.999971
0.99997
0.99997
0.999971
0.999973
0.999976
0.999979
0.999983
0.999988
0.999992
0.999996
0.999998
0.999999
1
1
1
1
1
1
1
1
0.999317
1
1
0.999722
0.0112068
0.0976824
0.257791
0.464528
0.673083
0.818106
0.88256
0.818291
0.227567
0.998506
1
1
1
1
1
1
1
1
1
1
1
1
1
1
1
1
1
1
1
0.999999
0.999999
1
0.999998
0.999997
0.999996
0.999995
0.999993
0.99999
0.999988
0.999985
0.999982
0.999979
0.999977
0.999974
0.999972
0.999971
0.99997
0.99997
0.99997
0.999972
0.999975
0.999978
0.999982
0.999987
0.999991
0.999995
0.999997
0.999999
1
1
1
1
1
1
1
1
1
1
1
0.971943
0.999462
0.0115157
0.100663
0.267326
0.480493
0.68646
0.838395
0.914848
0.93005
0.807091
0.325906
0.999913
1
1
1
1
1
1
1
1
1
1
1
1
1
1
1
1
1
1
1
0.999999
0.999998
1
0.999997
0.999996
0.999995
0.999993
0.99999
0.999988
0.999985
0.999982
0.999979
0.999977
0.999974
0.999972
0.99997
0.999969
0.999969
0.99997
0.999971
0.999974
0.999977
0.999981
0.999985
0.99999
0.999994
0.999997
0.999999
1
1
1
1
1
1
1
1
1
1
1
0.992441
0.999999
1
0.011826
0.103466
0.27571
0.496266
0.70401
0.847724
0.924553
0.952827
0.93469
0.718646
0.367813
0.999997
1
1
1
1
1
1
1
1
1
1
1
1
1
1
1
1
1
1
1
0.999998
0.999997
1
0.999996
0.999995
0.999993
0.99999
0.999988
0.999985
0.999982
0.999979
0.999976
0.999974
0.999972
0.99997
0.999969
0.999969
0.999969
0.999971
0.999973
0.999976
0.99998
0.999984
0.999989
0.999993
0.999996
0.999998
0.999999
1
1
1
1
1
1
1
1
1
1
0.964638
0.997753
0.997284
0.999444
0.0121247
0.10631
0.283273
0.509552
0.720831
0.859993
0.927086
0.954253
0.95538
0.894919
0.554712
0.372072
1
1
1
1
1
1
1
1
1
1
1
1
1
1
1
1
1
1
0.999999
0.999999
0.999997
0.999995
1
0.999995
0.999993
0.99999
0.999988
0.999985
0.999982
0.999979
0.999976
0.999974
0.999971
0.99997
0.999969
0.999968
0.999969
0.99997
0.999972
0.999975
0.999979
0.999983
0.999987
0.999992
0.999995
0.999998
0.999999
1
1
1
1
1
1
1
1
1
1
1
0.999999
0.944408
0.998294
1
0.0124
0.10903
0.290816
0.521613
0.734524
0.871178
0.932583
0.950439
0.948381
0.921191
0.784619
0.370993
0.359206
1
1
1
1
1
1
1
1
1
1
1
1
1
1
1
1
1
0.999999
0.999999
0.999999
0.999996
0.999994
1
0.999993
0.99999
0.999988
0.999985
0.999982
0.999979
0.999976
0.999974
0.999971
0.999969
0.999968
0.999968
0.999968
0.999969
0.999971
0.999974
0.999978
0.999982
0.999986
0.999991
0.999994
0.999997
0.999999
1
1
1
1
1
1
1
1
1
1
1
0.999947
1
0.999886
1
1
0.0126511
0.111543
0.297945
0.533489
0.746478
0.879911
0.937222
0.950601
0.935444
0.898263
0.821494
0.606807
0.22489
0.34165
1
1
1
1
1
1
1
1
1
1
1
1
1
1
1
1
1
0.999999
0.999998
0.999998
0.999994
0.999992
1
0.99999
0.999988
0.999985
0.999982
0.999979
0.999976
0.999973
0.999971
0.999969
0.999968
0.999967
0.999968
0.999969
0.999971
0.999974
0.999977
0.999981
0.999986
0.99999
0.999994
0.999996
0.999998
1
1
1
1
1
1
1
1
1
1
1
0.999832
0.999996
0.548919
1
1
1
0.0128785
0.113819
0.30456
0.544579
0.757841
0.886622
0.940266
0.950544
0.929217
0.866543
0.775035
0.651577
0.425424
0.127017
0.325559
1
1
1
1
1
1
1
1
1
1
1
1
1
1
1
1
0.999999
0.999998
0.999998
0.999997
0.999992
0.99999
0.999999
0.999988
0.999985
0.999982
0.999979
0.999976
0.999973
0.999971
0.999969
0.999968
0.999967
0.999967
0.999968
0.99997
0.999973
0.999976
0.99998
0.999985
0.999989
0.999993
0.999996
0.999998
0.999999
1
1
1
1
1
1
1
1
1
1
0.99999
1
0.999167
0.999997
1
0.999331
1
0.0130847
0.115891
0.310542
0.555141
0.767823
0.892789
0.942067
0.949208
0.922781
0.84844
0.723379
0.597188
0.47023
0.285911
0.064843
0.312791
1
1
1
1
1
1
1
1
1
1
1
1
1
1
1
0.999999
0.999998
0.999997
0.999996
0.999996
0.999989
0.999989
0.999998
0.999985
0.999982
0.999979
0.999976
0.999973
0.999971
0.999969
0.999967
0.999967
0.999967
0.999968
0.99997
0.999972
0.999976
0.999979
0.999984
0.999988
0.999992
0.999995
0.999998
0.999999
1
1
1
1
1
1
1
1
1
1
1
0.852528
1
0.756956
0.999984
0.999983
0.647826
1
0.0132768
0.11795
0.315935
0.56466
0.777437
0.898368
0.943675
0.947331
0.914671
0.831206
0.695287
0.544217
0.428506
0.326967
0.190757
0.0248991
0.304097
1
1
1
1
1
1
1
1
1
1
1
1
1
1
0.999999
0.999998
0.999998
0.999996
0.999995
0.999995
0.999986
0.999987
0.999997
0.999981
0.999979
0.999976
0.999973
0.999971
0.999969
0.999967
0.999966
0.999966
0.999967
0.999969
0.999972
0.999975
0.999979
0.999983
0.999987
0.999991
0.999995
0.999997
0.999999
1
1
1
1
1
1
1
1
1
1
1
0.999956
0.999998
0.761968
0.999999
0.999942
1
1
1
0.0134584
0.119672
0.321189
0.572713
0.786291
0.903612
0.945525
0.94537
0.906465
0.811646
0.66933
0.517216
0.389156
0.301867
0.227647
0.127746
0.00200905
0.299211
1
1
1
1
1
1
1
1
1
1
1
1
1
0.999999
0.999999
0.999997
0.999996
0.999994
0.999993
0.999993
0.999983
0.999985
0.999996
0.999978
0.999976
0.999973
0.99997
0.999968
0.999967
0.999966
0.999966
0.999967
0.999968
0.999971
0.999974
0.999978
0.999982
0.999986
0.999991
0.999994
0.999997
0.999999
1
1
1
1
1
1
1
1
1
1
1
1
0.99784
0.999346
0.999978
0.999997
1
1
1
1
0.0136403
0.121156
0.325727
0.580517
0.793283
0.908289
0.947374
0.943953
0.898403
0.793318
0.643091
0.493269
0.369539
0.276981
0.215292
0.160801
0.0851724
0.0209672
0.297991
1
1
1
1
1
1
1
1
1
1
1
1
0.999999
0.999999
0.999998
0.999996
0.999994
0.999991
0.999992
0.999991
0.99998
0.999984
0.999994
0.999975
0.999973
0.99997
0.999968
0.999967
0.999966
0.999966
0.999966
0.999968
0.99997
0.999974
0.999977
0.999981
0.999986
0.99999
0.999994
0.999996
0.999998
0.999999
1
1
1
1
1
1
1
1
1
1
1
0.999997
0.65803
0.998772
0.999009
1
1
1
1
1
0.0138281
0.122996
0.329561
0.586544
0.799481
0.911878
0.948865
0.943008
0.891651
0.776755
0.619784
0.469818
0.352399
0.264872
0.200631
0.156661
0.109735
0.0554295
0.0352883
0.300437
1
1
1
1
1
1
1
1
1
1
1
0.999999
0.999999
0.999998
0.999996
0.999994
0.999992
0.999989
0.99999
0.999989
0.999978
0.999983
0.999992
0.999971
0.99997
0.999968
0.999966
0.999965
0.999965
0.999966
0.999968
0.99997
0.999973
0.999977
0.999981
0.999985
0.999989
0.999993
0.999996
0.999998
0.999999
1
1
1
1
1
1
1
1
1
1
1
1
0.954267
0.997124
0.415148
1
1
1
1
1
1
0.0140192
0.124678
0.333819
0.591845
0.80475
0.915036
0.949849
0.941989
0.885832
0.763041
0.599952
0.449992
0.335728
0.253951
0.193781
0.148751
0.116131
0.0746512
0.0338215
0.0468169
0.305939
1
1
1
1
1
1
1
1
1
1
0.999999
0.999999
0.999998
0.999997
0.999995
0.999992
0.999989
0.999986
0.999988
0.999987
0.999975
0.999982
0.99999
0.999968
0.999968
0.999966
0.999965
0.999965
0.999966
0.999967
0.999969
0.999972
0.999976
0.99998
0.999984
0.999989
0.999992
0.999995
0.999998
0.999999
1
1
1
1
1
1
1
1
1
1
1
1
0.99839
0.999998
0.976808
1
1
0.988978
0.999998
0.999986
1
0.999876
0.0142224
0.126208
0.33813
0.5985
0.809761
0.917776
0.950794
0.940734
0.880425
0.751069
0.584415
0.433866
0.321851
0.243102
0.187221
0.145278
0.112606
0.0874007
0.0554067
0.0174563
0.056612
0.314872
1
1
1
1
1
1
1
1
1
0.999999
0.999999
0.999998
0.999997
0.999995
0.999993
0.999989
0.999986
0.999984
0.999986
0.999985
0.999974
0.999981
0.999988
0.999965
0.999966
0.999965
0.999965
0.999965
0.999967
0.999969
0.999972
0.999975
0.99998
0.999984
0.999988
0.999992
0.999995
0.999997
0.999999
1
1
1
1
1
1
1
1
1
1
1
1
0.999997
0.999813
0.999425
1
1
1
1
1
1
0.994961
1
0.0144471
0.128232
0.342498
0.604778
0.815579
0.920821
0.951632
0.93979
0.87523
0.740355
0.570758
0.421245
0.310708
0.234097
0.180398
0.141585
0.111353
0.0865777
0.0662067
0.0405032
0.00457371
0.0654912
0.327317
1
1
1
1
1
1
1
1
0.999999
0.999999
0.999998
0.999997
0.999995
0.999993
0.99999
0.999986
0.999983
0.999981
0.999984
0.999983
0.999973
0.99998
0.999985
0.999963
0.999965
0.999964
0.999965
0.999966
0.999968
0.999971
0.999975
0.999979
0.999983
0.999987
0.999991
0.999995
0.999997
0.999999
1
1
1
1
1
1
1
1
1
1
1
1
1
0.777353
0.908586
1
1
1
1
1
1
1
1
1
0.014675
0.130308
0.347552
0.610653
0.821152
0.924361
0.953158
0.939357
0.870969
0.730827
0.558796
0.410748
0.302135
0.226909
0.174686
0.137373
0.109552
0.0868697
0.0673135
0.0501343
0.0284664
0.00597558
0.0739053
0.343491
1
1
1
1
1
1
1
0.999999
0.999999
0.999998
0.999997
0.999996
0.999993
0.999991
0.999987
0.999982
0.99998
0.999978
0.999982
0.999981
0.999972
0.99998
0.999982
0.999962
0.999964
0.999964
0.999966
0.999968
0.999971
0.999974
0.999978
0.999983
0.999987
0.999991
0.999994
0.999997
0.999999
0.999999
1
1
1
1
1
1
1
1
1
1
1
1
0.999732
0.972804
1
1
1
1
1
1
1
1
1
1
0.0149031
0.132189
0.352652
0.618297
0.826529
0.927782
0.955563
0.940112
0.86806
0.722993
0.548548
0.401564
0.295077
0.221392
0.170173
0.133814
0.107066
0.086287
0.0685923
0.0525521
0.0374922
0.0182363
0.0150524
0.0822313
0.363448
1
1
1
1
1
1
0.999999
0.999999
0.999998
0.999997
0.999996
0.999994
0.999991
0.999988
0.999983
0.999979
0.999977
0.999976
0.99998
0.999979
0.999972
0.99998
0.999979
0.999961
0.999964
0.999965
0.999967
0.99997
0.999974
0.999978
0.999982
0.999986
0.99999
0.999994
0.999997
0.999998
0.999999
1
1
1
1
1
1
1
1
1
1
1
1
0.999941
0.996963
1
1
1
0.998839
1
1
1
1
1
1
1
0.0151234
0.134228
0.357416
0.625687
0.832778
0.93173
0.958078
0.942378
0.86767
0.717415
0.540831
0.393706
0.288927
0.216739
0.166715
0.131042
0.104942
0.0849843
0.0688642
0.0545296
0.0408781
0.0272414
0.00896325
0.0231108
0.0907194
0.388221
1
1
1
1
1
0.999999
0.999999
0.999998
0.999997
0.999996
0.999994
0.999992
0.999988
0.999984
0.99998
0.999975
0.999974
0.999974
0.999979
0.999977
0.999972
0.999981
0.999976
0.999962
0.999965
0.999967
0.99997
0.999973
0.999977
0.999982
0.999986
0.99999
0.999993
0.999996
0.999998
0.999999
1
1
1
1
1
1
1
1
1
1
1
1
0.999999
0.999945
1
1
1
0.999994
0.999998
0.613836
1
1
0.999999
1
1
1
0.0153316
0.136154
0.362451
0.63204
0.839016
0.936
0.961367
0.945774
0.870608
0.715664
0.535312
0.387625
0.283574
0.212682
0.163784
0.128892
0.103305
0.0838021
0.0683592
0.0553872
0.0433849
0.0313907
0.0186838
0.000958373
0.0305315
0.0997144
0.417878
1
1
1
1
0.999999
0.999999
0.999998
0.999997
0.999996
0.999994
0.999992
0.999989
0.999985
0.999981
0.999976
0.999971
0.999971
0.999973
0.999978
0.999976
0.999972
0.999981
0.999974
0.999963
0.999967
0.999969
0.999973
0.999977
0.999981
0.999985
0.99999
0.999993
0.999996
0.999998
0.999999
1
1
1
1
1
1
1
1
1
1
1
1
1
0.999948
1
1
1
0.999997
0.999999
0.759083
0.999999
0.983307
1
1
1
1
1
0.0155253
0.137986
0.367167
0.639012
0.844874
0.939918
0.965055
0.950478
0.876215
0.718935
0.53299
0.383487
0.279575
0.209249
0.161248
0.127132
0.102016
0.0829162
0.067838
0.0554698
0.0446781
0.0343215
0.0234594
0.0113204
0.00619469
0.0376445
0.109286
0.45273
1
1
1
0.999999
0.999999
0.999998
0.999997
0.999996
0.999994
0.999992
0.999989
0.999986
0.999982
0.999977
0.999972
0.999968
0.999969
0.999972
0.999977
0.999976
0.999973
0.999981
0.999972
0.999965
0.999969
0.999972
0.999976
0.999981
0.999985
0.999989
0.999993
0.999996
0.999998
0.999999
1
1
1
1
1
1
1
1
1
1
1
1
1
1
1
1
1
1
1
0.999999
1
0.61593
1
1
1
1
1
1
0.015703
0.13969
0.371695
0.645451
0.850647
0.943784
0.968187
0.955727
0.884735
0.726234
0.535872
0.3819
0.276746
0.206799
0.159082
0.125618
0.100957
0.0822157
0.067474
0.0554125
0.0452077
0.0359523
0.0267452
0.0166474
0.00291061
0.0127669
0.0445856
0.11985
0.494347
1
1
0.999999
0.999999
0.999998
0.999997
0.999996
0.999994
0.999992
0.99999
0.999987
0.999983
0.999978
0.999974
0.999969
0.999966
0.999968
0.999971
0.999977
0.999976
0.999974
0.999982
0.999971
0.999968
0.999972
0.999976
0.99998
0.999984
0.999989
0.999992
0.999995
0.999998
0.999999
1
1
1
1
1
1
1
1
1
1
1
1
1
0.99251
0.99997
1
1
1
1
0.726766
0.999431
1
0.999105
1
1
0.999984
1
1
1
0.015864
0.14125
0.375835
0.651593
0.855959
0.94745
0.971287
0.960364
0.894936
0.737829
0.542676
0.384013
0.275878
0.205173
0.157502
0.124258
0.100011
0.0816514
0.0672145
0.0554515
0.0455316
0.0367969
0.0286483
0.0202376
0.0106592
0.000559096
0.018949
0.0515651
0.131368
0.54255
1
1
0.999999
0.999998
0.999997
0.999996
0.999994
0.999992
0.99999
0.999987
0.999984
0.99998
0.999975
0.99997
0.999966
0.999964
0.999967
0.999971
0.999977
0.999977
0.999976
0.999982
0.999971
0.999971
0.999975
0.99998
0.999984
0.999988
0.999992
0.999995
0.999997
0.999999
1
1
1
1
1
1
1
1
1
1
1
1
1
0.999804
0.999997
1
1
1
1
1
0.999946
1
0.999991
0.999997
0.997563
1
0.999999
1
1
1
0.0160134
0.142677
0.379633
0.657115
0.860959
0.950808
0.974209
0.965051
0.904457
0.752966
0.553517
0.389168
0.277571
0.204652
0.156521
0.123256
0.0992025
0.0811302
0.0669666
0.0554703
0.0458183
0.0374146
0.0297527
0.0223845
0.0145267
0.00503025
0.00408803
0.0249387
0.0587034
0.144508
0.59743
1
1
0.999999
0.999997
0.999996
0.999995
0.999993
0.99999
0.999987
0.999984
0.99998
0.999976
0.999971
0.999967
0.999963
0.999963
0.999967
0.999972
0.999977
0.999977
0.999978
0.999983
0.999972
0.999975
0.999979
0.999984
0.999988
0.999992
0.999995
0.999997
0.999999
1
1
1
1
1
1
1
1
1
1
1
1
1
1
0.987482
1
1
1
1
1
0.970549
0.981199
1
1
0.999965
1
1
1
1
1
1
0.0161516
0.144004
0.383071
0.66211
0.86537
0.953903
0.976884
0.969459
0.91442
0.767962
0.568264
0.397318
0.281164
0.20596
0.156376
0.122656
0.0986475
0.0806606
0.0667543
0.0554878
0.046061
0.0379302
0.030604
0.0237191
0.016872
0.00939775
0.000142408
0.00890616
0.0308889
0.0662023
0.15919
0.660601
1
1
0.999998
0.999996
0.999995
0.999993
0.99999
0.999988
0.999984
0.999981
0.999977
0.999973
0.999968
0.999964
0.999962
0.999963
0.999968
0.999973
0.999978
0.999979
0.99998
0.999984
0.999974
0.999979
0.999983
0.999987
0.999991
0.999995
0.999997
0.999999
0.999999
1
1
1
1
1
1
1
1
1
1
1
1
1
0.977286
1
1
1
1
1
1
0.976167
0.869907
1
0.999357
1
1
1
1
1
1
1
0.0162692
0.145195
0.386275
0.666563
0.869298
0.956611
0.979296
0.97354
0.924155
0.784074
0.583416
0.408611
0.286991
0.208684
0.157442
0.122734
0.0983698
0.080396
0.0665655
0.0554676
0.0462588
0.0383396
0.0312966
0.0247588
0.0184177
0.0119176
0.00467969
0.00380339
0.015218
0.0368241
0.074146
0.176258
0.745651
1
1
0.999997
0.999995
0.999993
0.999991
0.999988
0.999985
0.999981
0.999978
0.999974
0.99997
0.999965
0.999962
0.999961
0.999963
0.999969
0.999975
0.999979
0.99998
0.999982
0.999985
0.999977
0.999983
0.999987
0.999991
0.999994
0.999997
0.999998
0.999999
1
1
1
1
1
1
1
1
1
1
1
1
1
0.999842
1
1
1
1
0.9617
0.999969
1
1
0.975549
1
1
1
1
1
1
1
1
1
0.0163628
0.146219
0.389097
0.670592
0.872718
0.958948
0.981366
0.977165
0.93356
0.800971
0.600264
0.420569
0.294993
0.212807
0.159538
0.123668
0.0985592
0.080322
0.06649
0.0554795
0.0464275
0.0386852
0.0318539
0.0255966
0.0196142
0.0136589
0.00736975
0.000255549
0.00903189
0.0219901
0.0428646
0.0826747
0.195965
0.874449
1
1
0.999995
0.999993
0.999991
0.999988
0.999985
0.999982
0.999978
0.999974
0.999971
0.999967
0.999963
0.999961
0.999962
0.999965
0.999971
0.999976
0.99998
0.999982
0.999984
0.999987
0.999981
0.999987
0.999991
0.999994
0.999997
0.999998
0.999999
1
1
1
1
1
1
1
1
1
1
1
1
1
0.999962
1
1
1
0.999999
0.998324
1
1
1
1
0.986458
1
0.999999
1
1
1
1
1
1
1
0.0164326
0.147003
0.391496
0.674146
0.875693
0.960958
0.983119
0.980258
0.942213
0.818195
0.618615
0.434053
0.30364
0.218477
0.162585
0.125275
0.0993881
0.0806156
0.0665353
0.055545
0.0465623
0.03897
0.0323133
0.0262853
0.0206067
0.0150032
0.00929314
0.00311289
0.00397789
0.0135079
0.0270449
0.0491455
0.0919837
0.219184
0.961321
1
1
0.999993
0.999991
0.999988
0.999985
0.999982
0.999979
0.999975
0.999971
0.999968
0.999964
0.999962
0.999961
0.999963
0.999967
0.999974
0.999978
0.999982
0.999984
0.999986
0.999989
0.999985
0.999991
0.999994
0.999996
0.999998
0.999999
1
1
1
1
1
1
1
1
1
1
1
1
1
1
1
1
1
1
0.999606
0.995861
0.949724
0.999973
1
1
0.978088
0.136648
1
1
1
1
1
1
1
1
0.0164966
0.147576
0.393284
0.677116
0.878236
0.962622
0.984576
0.982851
0.949841
0.834952
0.638076
0.448957
0.313412
0.224707
0.166635
0.127645
0.100667
0.0813208
0.0668756
0.0557166
0.0467235
0.0392109
0.0326877
0.0268227
0.0213766
0.0161101
0.0107973
0.00520321
0.000941174
0.00812806
0.0179605
0.0322169
0.0557476
0.102284
0.246539
0.991377
1
0.999999
0.999991
0.999988
0.999986
0.999982
0.999979
0.999976
0.999972
0.999969
0.999965
0.999963
0.999961
0.999962
0.999965
0.99997
0.999976
0.999981
0.999984
0.999987
0.999988
0.999991
0.999989
0.999994
0.999996
0.999998
0.999999
1
1
1
1
1
1
1
1
1
1
1
1
1
1
1
1
1
1
0.607566
0.0749767
1
1
0.989812
0.833887
1
1
1
1
1
1
1
1
1
1
1
0.0165347
0.148061
0.394545
0.679295
0.880312
0.963927
0.985705
0.98495
0.956375
0.850581
0.657822
0.46495
0.324236
0.231682
0.171196
0.130673
0.102517
0.0823803
0.0675105
0.0560743
0.0469847
0.0394826
0.0330305
0.0273015
0.0220222
0.0169934
0.0120028
0.00686644
0.00133507
0.00486732
0.0122463
0.0224641
0.037564
0.0628136
0.113794
0.279212
0.998275
1
0.999999
0.999989
0.999986
0.999983
0.99998
0.999976
0.999973
0.999969
0.999966
0.999964
0.999962
0.999961
0.999963
0.999968
0.999973
0.999979
0.999983
0.999987
0.999989
0.999991
0.999993
0.999992
0.999996
0.999998
0.999999
1
1
1
1
1
1
1
1
1
1
1
1
1
1
1
1
1
1
1
0.458226
0.990952
0.999892
1
0.992784
1
1
1
1
1
1
1
1
1
1
1
1