/*--------------------------------*- C++ -*----------------------------------*\
| =========                 |                                                 |
| \\      /  F ield         | OpenFOAM: The Open Source CFD Toolbox           |
|  \\    /   O peration     | Version:  v2012                                 |
|   \\  /    A nd           | Website:  www.openfoam.com                      |
|    \\/     M anipulation  |                                                 |
\*---------------------------------------------------------------------------*/
FoamFile
{
    version     2.0;
    format      ascii;
    class       volScalarField;
    location    "13200";
    object      rho;
}
// * * * * * * * * * * * * * * * * * * * * * * * * * * * * * * * * * * * * * //

dimensions      [1 -3 0 0 0 0 0];


internalField   nonuniform List<scalar> 
31383
(
0.302172
0.301747
0.302855
0.301408
0.302518
0.303628
0.301278
0.302167
0.303388
0.304503
0.301237
0.302022
0.303019
0.304376
0.305501
0.30117
0.301969
0.302855
0.303981
0.305506
0.306645
0.301075
0.301889
0.302785
0.303793
0.305077
0.306808
0.307963
0.301015
0.301784
0.302691
0.303704
0.304859
0.306336
0.308318
0.309489
0.301005
0.301715
0.302573
0.303592
0.304745
0.306079
0.307791
0.31008
0.311261
0.300973
0.301697
0.302492
0.303458
0.304611
0.305935
0.307488
0.309484
0.312137
0.313334
0.300869
0.301657
0.302464
0.303363
0.304458
0.305775
0.307307
0.309123
0.311456
0.314535
0.315773
0.300693
0.301546
0.302415
0.303323
0.304347
0.305599
0.307115
0.308897
0.311026
0.313744
0.317279
0.318743
0.300459
0.301364
0.302296
0.303263
0.304292
0.305468
0.30691
0.308667
0.310746
0.313231
0.316368
0.320366
0.322248
0.30019
0.301123
0.302106
0.303135
0.304219
0.305396
0.306755
0.308428
0.310469
0.312888
0.315764
0.319325
0.323762
0.32634
0.299944
0.300849
0.301859
0.302935
0.30408
0.305308
0.306663
0.308244
0.310189
0.312556
0.315346
0.318621
0.322583
0.327418
0.331275
0.299729
0.300598
0.301578
0.302679
0.303869
0.305154
0.306556
0.308127
0.309971
0.312231
0.314953
0.318121
0.321771
0.326094
0.331291
0.336739
0.299541
0.300378
0.301321
0.302391
0.303604
0.304931
0.306387
0.307999
0.309825
0.311971
0.314578
0.31766
0.321187
0.325172
0.329813
0.335359
0.342783
0.299389
0.300185
0.301096
0.302127
0.303306
0.304653
0.306148
0.307809
0.30967
0.31179
0.314268
0.317228
0.320654
0.324501
0.328776
0.333715
0.339595
0.349321
0.299273
0.30003
0.300898
0.301895
0.303033
0.304345
0.305856
0.307552
0.309457
0.311604
0.314048
0.316866
0.32016
0.323895
0.328014
0.332558
0.337775
0.343957
0.356194
0.299187
0.299911
0.300738
0.301692
0.302794
0.304062
0.305534
0.307243
0.309179
0.311364
0.313828
0.316602
0.319747
0.323336
0.327332
0.331702
0.336494
0.341951
0.348411
0.363288
0.299128
0.299822
0.300615
0.301526
0.302584
0.303814
0.30524
0.306906
0.30885
0.311062
0.313555
0.316346
0.319435
0.322867
0.326708
0.330941
0.335543
0.340549
0.34621
0.352931
0.370591
0.29909
0.29976
0.300522
0.301399
0.302412
0.303596
0.304981
0.306598
0.308494
0.310708
0.313226
0.316037
0.319139
0.322508
0.326184
0.33025
0.334701
0.3395
0.344684
0.350522
0.357496
0.378162
0.299069
0.29972
0.300458
0.301302
0.30228
0.303417
0.304754
0.306326
0.308169
0.310331
0.312844
0.315675
0.318792
0.322171
0.325776
0.329667
0.333941
0.338577
0.343539
0.348872
0.354863
0.362092
0.385986
0.29906
0.299696
0.300414
0.301234
0.302178
0.303278
0.304567
0.306088
0.307883
0.309987
0.312442
0.315265
0.318397
0.321785
0.325396
0.329209
0.333298
0.337747
0.342534
0.347629
0.353087
0.359219
0.366716
0.394036
0.299059
0.299686
0.300388
0.301187
0.302105
0.303171
0.30442
0.30589
0.307631
0.309683
0.312076
0.314836
0.317957
0.321356
0.324972
0.328785
0.332787
0.337044
0.341634
0.346542
0.351746
0.357315
0.363585
0.371371
0.402289
0.299059
0.299682
0.300375
0.301158
0.302055
0.303093
0.304305
0.305734
0.307421
0.309415
0.311754
0.314446
0.317499
0.320884
0.324507
0.328321
0.332318
0.33648
0.34087
0.345571
0.350577
0.355876
0.36155
0.367972
0.376074
0.410734
0.299058
0.299681
0.30037
0.301143
0.302022
0.303038
0.304222
0.305612
0.307255
0.309192
0.311467
0.314103
0.317082
0.320397
0.324003
0.327821
0.331813
0.335964
0.340253
0.344747
0.349537
0.354624
0.36001
0.365801
0.372399
0.380847
0.419372
0.29906
0.299679
0.300367
0.301135
0.302004
0.303001
0.304161
0.305521
0.307122
0.309013
0.311228
0.313795
0.316716
0.319954
0.323487
0.327284
0.331276
0.335419
0.339691
0.344078
0.348651
0.353513
0.358675
0.364158
0.370086
0.376874
0.385703
0.428219
0.29907
0.299679
0.300363
0.301129
0.301993
0.302979
0.304119
0.305453
0.307023
0.308869
0.311034
0.313539
0.316388
0.319564
0.323017
0.326738
0.330705
0.334845
0.339105
0.34347
0.34793
0.352567
0.357494
0.362738
0.368336
0.374411
0.381402
0.390652
0.43732
0.29909
0.299688
0.300362
0.301123
0.301985
0.302965
0.304092
0.305406
0.306948
0.30876
0.310878
0.313329
0.316114
0.319214
0.322603
0.326241
0.330128
0.33424
0.338494
0.342843
0.347276
0.351794
0.356486
0.361483
0.366826
0.37255
0.378783
0.385991
0.39571
0.446774
0.29912
0.299707
0.300369
0.30112
0.301976
0.302953
0.304074
0.305374
0.306893
0.308675
0.310757
0.313159
0.315886
0.31892
0.322232
0.325802
0.329603
0.333631
0.337855
0.342195
0.346608
0.351094
0.355659
0.360412
0.365496
0.370949
0.376807
0.383207
0.390648
0.400891
0.45673
0.299165
0.299736
0.300387
0.301126
0.301971
0.302942
0.304059
0.305351
0.306855
0.308613
0.310662
0.313024
0.315701
0.318676
0.321918
0.325408
0.329139
0.333078
0.337215
0.341522
0.345923
0.350385
0.354913
0.359531
0.36436
0.369542
0.375112
0.381111
0.387687
0.395382
0.406215
0.467227
0.299222
0.29978
0.300415
0.301142
0.301975
0.302934
0.304045
0.305332
0.306826
0.308567
0.31059
0.312918
0.315553
0.318475
0.321657
0.325074
0.328722
0.332589
0.336634
0.340852
0.345218
0.349664
0.354164
0.358738
0.363424
0.36834
0.373625
0.379319
0.385468
0.392233
0.400202
0.411703
0.477964
0.299288
0.299836
0.300457
0.301169
0.301989
0.302935
0.304034
0.305313
0.306802
0.308532
0.310536
0.312836
0.315434
0.318312
0.32144
0.324794
0.328367
0.332149
0.33612
0.340243
0.344517
0.348924
0.353405
0.357946
0.362581
0.367346
0.372355
0.37775
0.383574
0.389883
0.39685
0.405119
0.41738
0.488775
0.299359
0.299902
0.300513
0.301209
0.302014
0.302947
0.304032
0.305298
0.306778
0.308501
0.310493
0.312772
0.315341
0.31818
0.321262
0.324561
0.328068
0.331774
0.335657
0.339704
0.343881
0.348193
0.352632
0.35715
0.361747
0.366454
0.371303
0.376409
0.38192
0.387884
0.394363
0.401547
0.410145
0.423273
0.500015
0.299432
0.299972
0.300577
0.301264
0.302053
0.30297
0.304041
0.305293
0.306759
0.308472
0.310455
0.312721
0.315267
0.318075
0.321118
0.324369
0.327818
0.331456
0.335261
0.339218
0.343316
0.34753
0.351871
0.356343
0.360912
0.365575
0.370359
0.375297
0.380507
0.386143
0.392255
0.398914
0.406332
0.415294
0.429418
0.51203
0.299503
0.300044
0.300646
0.301327
0.302106
0.303007
0.304062
0.305299
0.306749
0.308447
0.310419
0.312675
0.315206
0.317991
0.321001
0.324211
0.327611
0.331189
0.334925
0.338802
0.342809
0.346941
0.35118
0.355551
0.36007
0.364701
0.369435
0.3743
0.379333
0.384655
0.390422
0.396692
0.403545
0.411214
0.420579
0.435855
0.52499
0.299543
0.300115
0.300717
0.301395
0.302168
0.303059
0.304097
0.305316
0.306752
0.308433
0.310389
0.312632
0.315152
0.317921
0.320906
0.324082
0.327439
0.330966
0.334641
0.338447
0.342371
0.346411
0.350566
0.354832
0.359246
0.363823
0.36852
0.37333
0.378282
0.383416
0.388857
0.394765
0.401203
0.408262
0.416203
0.426019
0.442645
0.539096
0.299894
0.300154
0.300788
0.301466
0.302235
0.303119
0.304146
0.305349
0.306766
0.308431
0.310369
0.312595
0.315102
0.317858
0.320826
0.323976
0.327297
0.33078
0.334402
0.338145
0.341998
0.345953
0.350014
0.354193
0.358498
0.362967
0.367606
0.372374
0.377265
0.38231
0.387552
0.393119
0.399177
0.405793
0.413073
0.42131
0.431634
0.449876
0.554582
0.300152
0.300504
0.300826
0.301535
0.302304
0.303185
0.304205
0.305396
0.306795
0.308441
0.310362
0.312569
0.315057
0.3178
0.320755
0.323886
0.32718
0.330625
0.334202
0.337892
0.34168
0.345561
0.349536
0.353617
0.357833
0.36219
0.366717
0.371422
0.376266
0.381243
0.386388
0.391746
0.397448
0.403664
0.410471
0.417988
0.426547
0.437448
0.457661
0.571734
0.299892
0.300904
0.301175
0.301573
0.302372
0.303253
0.304268
0.305452
0.306839
0.308467
0.310368
0.312556
0.315025
0.317748
0.320688
0.323805
0.32708
0.330497
0.334035
0.337678
0.341411
0.345226
0.349125
0.353118
0.357234
0.361498
0.365909
0.370499
0.375276
0.380201
0.385271
0.390522
0.396003
0.401848
0.408233
0.415243
0.423015
0.431928
0.443488
0.466123
0.590882
0.299844
0.300513
0.301756
0.301921
0.30241
0.303319
0.304335
0.305514
0.306893
0.308508
0.310389
0.312557
0.315006
0.317708
0.320628
0.32373
0.326989
0.330386
0.333895
0.337498
0.341183
0.344942
0.348774
0.352689
0.356714
0.360875
0.365191
0.369661
0.374318
0.379171
0.384183
0.389353
0.394718
0.400329
0.406326
0.412892
0.420118
0.428165
0.437469
0.449788
0.475406
0.612404
0.300192
0.300471
0.301209
0.302723
0.302757
0.303356
0.3044
0.305579
0.306953
0.308559
0.310426
0.312574
0.315001
0.317683
0.320582
0.323662
0.326905
0.330286
0.333774
0.337347
0.340991
0.344701
0.348474
0.35232
0.356265
0.360333
0.364543
0.368915
0.373449
0.378177
0.383113
0.388219
0.393495
0.39898
0.404731
0.410889
0.417646
0.425105
0.433449
0.443188
0.456389
0.485679
0.636638
0.300063
0.300868
0.301176
0.301993
0.303829
0.303702
0.304435
0.305642
0.307015
0.308615
0.310474
0.312607
0.315013
0.317673
0.32055
0.323608
0.326829
0.330193
0.333664
0.337215
0.340828
0.344496
0.348219
0.352005
0.355879
0.359865
0.363979
0.368242
0.372674
0.377276
0.382083
0.387107
0.392312
0.397701
0.403314
0.409213
0.415544
0.422504
0.430212
0.438881
0.449106
0.46334
0.49715
0.663637
0.299793
0.300709
0.301631
0.301971
0.30288
0.305103
0.304781
0.305676
0.307076
0.308675
0.310527
0.31265
0.315041
0.317679
0.320533
0.32357
0.326768
0.330108
0.333562
0.337096
0.340686
0.344321
0.348001
0.351735
0.355548
0.35946
0.363491
0.367655
0.371976
0.376472
0.381148
0.386038
0.391157
0.396468
0.401978
0.407728
0.413784
0.420297
0.427475
0.43545
0.444473
0.455248
0.470703
0.510069
0.692883
0.29976
0.300406
0.301431
0.302496
0.302872
0.303891
0.306578
0.306021
0.307108
0.308733
0.310583
0.3127
0.31508
0.317703
0.320534
0.323547
0.326723
0.33004
0.33347
0.336984
0.340557
0.344169
0.347815
0.351505
0.355264
0.359113
0.363068
0.367146
0.371365
0.375748
0.380314
0.38507
0.390049
0.395269
0.400693
0.40633
0.412225
0.418448
0.425155
0.432566
0.440831
0.450244
0.461646
0.478551
0.524714
0.723013
0.299729
0.300368
0.301085
0.302242
0.303482
0.303902
0.305053
0.308282
0.307452
0.308763
0.310639
0.312753
0.315126
0.317738
0.320553
0.323543
0.326693
0.329987
0.333393
0.336884
0.340437
0.34403
0.347652
0.351307
0.35502
0.358814
0.362704
0.366705
0.370835
0.375114
0.379563
0.384205
0.389046
0.394121
0.399447
0.404992
0.410765
0.416813
0.423213
0.430128
0.437788
0.446367
0.456213
0.468333
0.486982
0.541366
0.752142
0.299733
0.300333
0.301037
0.301841
0.30316
0.304614
0.305086
0.306393
0.310233
0.309106
0.310666
0.312805
0.315176
0.317779
0.320583
0.323556
0.326683
0.329952
0.333334
0.3368
0.340328
0.343901
0.347504
0.351134
0.35481
0.358557
0.36239
0.366324
0.370375
0.374562
0.378904
0.383426
0.388149
0.393081
0.398258
0.403699
0.409371
0.415287
0.421499
0.428087
0.435223
0.443152
0.452073
0.462402
0.475357
0.496169
0.560136
0.775809
0.299744
0.300335
0.300995
0.301781
0.302692
0.304208
0.30592
0.306452
0.307944
0.312392
0.311008
0.312829
0.315223
0.317824
0.32062
0.323581
0.326691
0.329935
0.333291
0.336733
0.340237
0.343784
0.347366
0.350976
0.354626
0.358335
0.36212
0.365995
0.369977
0.374082
0.37833
0.382742
0.387341
0.392151
0.39718
0.402466
0.408027
0.413835
0.419904
0.426289
0.433078
0.440451
0.448669
0.457966
0.468839
0.482769
0.506349
0.580749
0.792151
0.299738
0.300345
0.300995
0.301728
0.302614
0.303656
0.30541
0.307427
0.308032
0.309733
0.314707
0.313169
0.315245
0.317868
0.320662
0.323614
0.326711
0.329937
0.333269
0.336684
0.340163
0.343685
0.347241
0.350829
0.354458
0.35814
0.361885
0.36571
0.369631
0.373666
0.37783
0.382145
0.386631
0.391314
0.396217
0.401349
0.40675
0.41244
0.418391
0.424622
0.431191
0.438194
0.445821
0.454354
0.464065
0.475556
0.490638
0.517759
0.602656
0.80304
0.299743
0.30034
0.301004
0.301726
0.302549
0.303557
0.304757
0.306795
0.309156
0.309853
0.31178
0.317103
0.315582
0.317886
0.320701
0.323651
0.326739
0.329953
0.333265
0.336655
0.340107
0.343604
0.347134
0.350696
0.354302
0.357961
0.361678
0.365463
0.369332
0.373304
0.377396
0.381624
0.386011
0.390577
0.395349
0.400351
0.405593
0.411116
0.416942
0.423045
0.429447
0.436213
0.443445
0.451346
0.460222
0.470394
0.482592
0.499048
0.530653
0.626065
0.810968
0.299735
0.300344
0.300998
0.301733
0.302542
0.303476
0.304632
0.306023
0.308388
0.311112
0.311929
0.314084
0.319519
0.31822
0.320716
0.323686
0.326771
0.329975
0.333276
0.336647
0.340072
0.343542
0.347046
0.350581
0.35416
0.357796
0.361489
0.365244
0.369072
0.37299
0.377017
0.381171
0.385468
0.389932
0.394584
0.399451
0.404558
0.409917
0.415569
0.421539
0.427804
0.434388
0.441363
0.448841
0.457038
0.466291
0.47698
0.489996
0.508101
0.545311
0.651442
0.81675
0.299736
0.300335
0.301001
0.301725
0.302547
0.303464
0.304532
0.305866
0.307484
0.310205
0.313274
0.31426
0.316621
0.321925
0.321044
0.323697
0.326802
0.330003
0.333293
0.336651
0.340058
0.343501
0.346978
0.350486
0.354037
0.357645
0.361314
0.365045
0.368841
0.372717
0.376688
0.380775
0.384996
0.389368
0.393914
0.398658
0.403626
0.408844
0.414327
0.420116
0.426238
0.432674
0.439453
0.446651
0.454393
0.462913
0.472581
0.483856
0.497828
0.517987
0.562055
0.678791
0.820993
0.299736
0.300336
0.300991
0.301728
0.302538
0.303466
0.304513
0.305744
0.30729
0.309168
0.312246
0.315597
0.31682
0.319356
0.324313
0.324019
0.326809
0.330029
0.333316
0.336664
0.340057
0.343481
0.34693
0.35041
0.353935
0.357515
0.361155
0.36486
0.368631
0.372474
0.376401
0.380431
0.384582
0.388875
0.393327
0.397962
0.402803
0.407878
0.413215
0.418828
0.424762
0.431046
0.437664
0.44465
0.452088
0.460116
0.468988
0.479119
0.491061
0.506162
0.528996
0.581271
0.707923
0.824582
0.299744
0.300336
0.300992
0.301717
0.302539
0.303455
0.304512
0.305717
0.307142
0.308933
0.311095
0.314488
0.318036
0.319573
0.322242
0.326693
0.327124
0.330033
0.333337
0.336682
0.340065
0.343475
0.346904
0.350357
0.353852
0.357404
0.361016
0.364691
0.368436
0.372252
0.376145
0.380129
0.384222
0.388443
0.392813
0.397351
0.40208
0.407024
0.412213
0.417675
0.423427
0.429515
0.435971
0.442782
0.449989
0.457685
0.466023
0.475284
0.485934
0.498644
0.515092
0.54144
0.603299
0.738159
0.827599
0.299746
0.300344
0.300991
0.301716
0.302527
0.303454
0.304499
0.305712
0.307107
0.308757
0.310815
0.31327
0.3169
0.320562
0.322477
0.325244
0.329079
0.330338
0.333338
0.336699
0.340078
0.343477
0.346893
0.350324
0.353792
0.357315
0.360898
0.364544
0.368258
0.372047
0.375912
0.379861
0.383905
0.388066
0.392363
0.396816
0.401444
0.406273
0.411327
0.416636
0.422231
0.42813
0.434381
0.441019
0.448037
0.455481
0.463456
0.472133
0.481824
0.493061
0.506665
0.524734
0.55565
0.628177
0.768164
0.82996
0.299749
0.300345
0.300999
0.301715
0.302525
0.30344
0.304496
0.305697
0.307096
0.308712
0.310614
0.312947
0.31568
0.319451
0.32316
0.325505
0.328343
0.33149
0.333633
0.336695
0.34009
0.343486
0.34689
0.350308
0.353754
0.357248
0.360802
0.364418
0.368102
0.37186
0.375696
0.379616
0.383624
0.387735
0.391969
0.396346
0.400887
0.405612
0.410546
0.415717
0.421154
0.426889
0.432943
0.439367
0.4462
0.453439
0.461138
0.469416
0.478465
0.488636
0.500545
0.515199
0.535295
0.571974
0.655338
0.794916
0.831465
0.299753
0.300347
0.301
0.301722
0.302523
0.303437
0.30448
0.305691
0.307078
0.308695
0.310557
0.312725
0.31532
0.318294
0.322115
0.325826
0.328645
0.331512
0.333941
0.33698
0.340083
0.343493
0.346894
0.3503
0.353732
0.357204
0.360728
0.364314
0.367968
0.371694
0.375499
0.379389
0.383367
0.387439
0.391621
0.395934
0.400396
0.405031
0.409859
0.414906
0.420199
0.425772
0.431656
0.437875
0.444483
0.451523
0.458998
0.466974
0.475583
0.485043
0.495755
0.508438
0.524343
0.5471
0.590789
0.684511
0.813303
0.832203
0.299732
0.300352
0.301002
0.301723
0.30253
0.303434
0.304475
0.305672
0.307069
0.308674
0.310534
0.312656
0.315085
0.317905
0.321075
0.324875
0.32856
0.331867
0.334723
0.336451
0.340354
0.343482
0.346896
0.350299
0.353719
0.357176
0.360677
0.364234
0.367857
0.371552
0.375325
0.379181
0.383128
0.387169
0.391312
0.39557
0.399966
0.40452
0.409255
0.414191
0.419357
0.424781
0.430496
0.436538
0.442933
0.449737
0.456998
0.464729
0.473004
0.481976
0.491895
0.503222
0.516807
0.534215
0.560531
0.612572
0.715853
0.822529
0.832245
0.299929
0.300331
0.301006
0.301725
0.30253
0.30344
0.304471
0.305666
0.307047
0.30866
0.310509
0.312626
0.315005
0.317667
0.320667
0.323985
0.327714
0.331384
0.335144
0.337946
0.339034
0.34374
0.346882
0.350296
0.353713
0.357158
0.360643
0.364177
0.367769
0.371433
0.375174
0.378998
0.382911
0.38692
0.391029
0.395246
0.399586
0.40407
0.408721
0.413562
0.418614
0.423906
0.429467
0.435335
0.441544
0.448125
0.455138
0.462638
0.470644
0.479247
0.48862
0.499055
0.511087
0.525734
0.545011
0.576006
0.637786
0.747964
0.827131
0.832002
0.308402
0.300524
0.300984
0.301729
0.302531
0.30344
0.304476
0.30566
0.307038
0.308634
0.310491
0.312598
0.314969
0.317578
0.320436
0.32357
0.327001
0.330625
0.334313
0.33845
0.341166
0.341707
0.347125
0.350278
0.353705
0.357146
0.360619
0.364136
0.367706
0.371338
0.375047
0.378838
0.382717
0.386691
0.390767
0.39495
0.399247
0.403673
0.408252
0.413006
0.417958
0.423133
0.428558
0.434265
0.440293
0.446681
0.453461
0.460698
0.468455
0.476761
0.485724
0.495544
0.506563
0.519413
0.535326
0.55705
0.59398
0.666311
0.778328
0.829584
0.831465
0.382638
0.308926
0.301174
0.301706
0.302535
0.30344
0.304474
0.305663
0.307031
0.308623
0.310461
0.312576
0.314937
0.317537
0.320339
0.323354
0.326595
0.330106
0.333616
0.33732
0.341767
0.344375
0.344481
0.350506
0.353683
0.357133
0.360603
0.364107
0.367659
0.371268
0.374945
0.378703
0.382549
0.386488
0.390528
0.394676
0.398936
0.403318
0.407837
0.412516
0.417379
0.42245
0.427753
0.43332
0.439182
0.445381
0.451958
0.458951
0.466429
0.474464
0.483099
0.492459
0.502782
0.51447
0.528278
0.545718
0.57074
0.614926
0.696842
0.803768
0.830633
0.830719
0.500764
0.38302
0.309485
0.30189
0.302512
0.303444
0.304474
0.305661
0.307033
0.308614
0.310447
0.312541
0.31491
0.317501
0.320294
0.323251
0.326399
0.329722
0.33328
0.336676
0.340381
0.345081
0.347586
0.347372
0.353895
0.357108
0.360584
0.364085
0.367624
0.371215
0.374867
0.378593
0.382405
0.38631
0.390314
0.394425
0.398649
0.402993
0.407465
0.412082
0.416868
0.421846
0.427042
0.432482
0.438199
0.444225
0.450606
0.457386
0.464607
0.472345
0.480683
0.489678
0.499483
0.510375
0.522837
0.53778
0.557148
0.586546
0.639293
0.728923
0.819783
0.830715
0.830185
0.558787
0.501596
0.383407
0.31009
0.302689
0.30342
0.304477
0.30566
0.307029
0.308615
0.310436
0.312525
0.314871
0.31747
0.320255
0.323202
0.326292
0.329554
0.332922
0.336504
0.339775
0.343477
0.348387
0.350806
0.350387
0.357304
0.360555
0.364061
0.367596
0.371173
0.374808
0.378508
0.382287
0.386158
0.390127
0.3942
0.398387
0.402693
0.407126
0.411694
0.416414
0.421312
0.426412
0.431741
0.437327
0.443202
0.449403
0.455978
0.462975
0.470441
0.478462
0.487132
0.496527
0.506831
0.518375
0.53174
0.548046
0.569995
0.604991
0.667242
0.762132
0.826937
0.830622
0.829869
0.590994
0.559725
0.502441
0.383807
0.310752
0.303589
0.304454
0.305663
0.307027
0.30861
0.310435
0.312511
0.314852
0.317427
0.320221
0.323161
0.32624
0.329446
0.332789
0.336175
0.339752
0.342894
0.346601
0.351695
0.354039
0.35352
0.360734
0.364028
0.367567
0.37114
0.37476
0.378442
0.382195
0.386032
0.389965
0.394003
0.398151
0.402418
0.406812
0.411338
0.416008
0.420838
0.425855
0.431084
0.436554
0.442293
0.448338
0.454725
0.461508
0.468738
0.47647
0.484799
0.493834
0.503677
0.514546
0.526843
0.541278
0.559274
0.584707
0.626631
0.698075
0.792327
0.82927
0.830404
0.82964
0.611182
0.592029
0.560679
0.503311
0.384224
0.311486
0.304611
0.305638
0.30703
0.308607
0.310428
0.312508
0.314836
0.317405
0.320174
0.323123
0.326198
0.329392
0.332682
0.336075
0.339457
0.343005
0.346027
0.349754
0.355018
0.357287
0.356761
0.36419
0.367529
0.371105
0.374721
0.378388
0.382122
0.385932
0.389831
0.393832
0.397944
0.402171
0.406524
0.41101
0.415636
0.420413
0.42536
0.430503
0.435869
0.441488
0.447391
0.453615
0.460201
0.467207
0.474689
0.48271
0.491378
0.500818
0.511164
0.522682
0.535859
0.551573
0.571794
0.601816
0.651968
0.730749
0.814545
0.829803
0.830282
0.829433
0.627854
0.612317
0.593085
0.561666
0.504214
0.384664
0.31231
0.305784
0.307004
0.308608
0.310424
0.3125
0.31483
0.317387
0.32015
0.323073
0.326156
0.329349
0.332629
0.335973
0.33939
0.342749
0.346254
0.349181
0.352946
0.358355
0.360556
0.360104
0.367674
0.371063
0.37468
0.378343
0.382061
0.385852
0.389723
0.393689
0.397763
0.401953
0.406265
0.410709
0.415293
0.420025
0.424916
0.429986
0.435262
0.440773
0.446551
0.452627
0.459043
0.465843
0.473088
0.480844
0.489181
0.498223
0.508118
0.519036
0.531304
0.545522
0.562814
0.586049
0.621907
0.681009
0.764401
0.825143
0.82978
0.830227
0.829231
0.639962
0.629107
0.613476
0.594176
0.562695
0.505155
0.385134
0.313242
0.307135
0.308582
0.310425
0.312494
0.31482
0.31738
0.32013
0.323046
0.326103
0.329305
0.332585
0.33592
0.339294
0.342715
0.34604
0.349505
0.352367
0.356186
0.361711
0.363849
0.36354
0.37119
0.374634
0.378296
0.38201
0.385784
0.389635
0.393573
0.397611
0.401763
0.406036
0.410438
0.414978
0.419666
0.424509
0.429521
0.434721
0.440139
0.445803
0.45175
0.458012
0.464633
0.471663
0.479168
0.487222
0.495908
0.505366
0.515775
0.52735
0.540496
0.555959
0.57532
0.602568
0.645594
0.712675
0.795432
0.828594
0.82973
0.830202
0.82906
0.650175
0.641313
0.630385
0.614673
0.595316
0.563776
0.506126
0.385641
0.314305
0.308695
0.310397
0.312494
0.314814
0.317368
0.32012
0.323025
0.326075
0.329249
0.332538
0.335876
0.339243
0.342627
0.346039
0.349329
0.352771
0.355587
0.359475
0.36509
0.367174
0.367062
0.374741
0.378245
0.381956
0.385727
0.389561
0.393478
0.397487
0.401602
0.405835
0.410197
0.414694
0.419337
0.424134
0.429096
0.434235
0.439573
0.445141
0.450969
0.457095
0.463555
0.470398
0.477676
0.485464
0.493845
0.502917
0.512843
0.523837
0.536175
0.55036
0.567368
0.589531
0.62196
0.673144
0.746128
0.817184
0.829248
0.829626
0.830177
0.828918
0.65915
0.651609
0.642692
0.631708
0.615925
0.596516
0.564912
0.507106
0.386195
0.315523
0.31049
0.312466
0.314813
0.317361
0.320107
0.323014
0.326052
0.329219
0.332479
0.335827
0.339198
0.342577
0.34596
0.349357
0.352627
0.356054
0.358844
0.362813
0.368494
0.370534
0.370666
0.378333
0.381902
0.385666
0.389497
0.393396
0.397383
0.401468
0.405664
0.409986
0.414441
0.419039
0.42379
0.428704
0.433791
0.439065
0.444549
0.450276
0.456279
0.462597
0.46927
0.476351
0.483898
0.491996
0.500739
0.510243
0.520699
0.532368
0.5456
0.561032
0.580079
0.605981
0.644897
0.704036
0.779953
0.82651
0.829332
0.829585
0.83015
0.82875
0.666945
0.660662
0.653074
0.644119
0.633091
0.617243
0.59778
0.566087
0.508056
0.386802
0.31692
0.312535
0.314783
0.317359
0.320099
0.323
0.32604
0.329195
0.332449
0.335767
0.339148
0.342535
0.345913
0.349288
0.352681
0.355944
0.359358
0.362138
0.366202
0.371925
0.373938
0.374353
0.381968
0.385607
0.389429
0.393325
0.397294
0.401357
0.405522
0.409805
0.414219
0.418774
0.423479
0.428344
0.43338
0.4386
0.444018
0.449657
0.455554
0.461743
0.468267
0.47517
0.482508
0.49035
0.498789
0.507935
0.517926
0.52899
0.541443
0.555738
0.572738
0.594542
0.625304
0.671817
0.737184
0.808268
0.828887
0.829277
0.82958
0.830147
0.828568
0.673819
0.668528
0.662207
0.65459
0.64561
0.634545
0.618631
0.599094
0.56726
0.508936
0.387473
0.318511
0.314828
0.317328
0.320096
0.32299
0.326024
0.329181
0.332424
0.335736
0.339087
0.342484
0.345873
0.349247
0.352622
0.356023
0.35928
0.362685
0.365474
0.369644
0.375389
0.377389
0.378125
0.385652
0.389365
0.393251
0.397216
0.401259
0.405402
0.409653
0.414028
0.41854
0.423201
0.428018
0.433004
0.438171
0.443531
0.449101
0.454906
0.460983
0.467372
0.474117
0.481269
0.488889
0.497055
0.505872
0.51547
0.526015
0.537782
0.551161
0.566738
0.585837
0.611309
0.64821
0.702366
0.771612
0.823999
0.8292
0.829222
0.829594
0.830148
0.828343
0.679954
0.675465
0.670145
0.663805
0.656174
0.647176
0.63607
0.620071
0.600414
0.568372
0.509718
0.388215
0.320298
0.317346
0.320064
0.322987
0.326014
0.329164
0.332409
0.33571
0.339056
0.342422
0.345822
0.349207
0.352586
0.355973
0.359384
0.362639
0.366038
0.368855
0.373141
0.378889
0.380897
0.381982
0.389388
0.393182
0.397134
0.401174
0.405296
0.409524
0.413866
0.418338
0.422955
0.427726
0.432663
0.437777
0.443082
0.448591
0.454322
0.460304
0.466576
0.473179
0.480164
0.487586
0.495515
0.504038
0.513279
0.52339
0.534572
0.547162
0.561644
0.578867
0.600797
0.63104
0.675166
0.735315
0.802922
0.828389
0.829155
0.829224
0.829618
0.830149
0.8281
0.685495
0.681656
0.677146
0.671819
0.665476
0.657836
0.648811
0.637635
0.62151
0.601667
0.569363
0.510397
0.389034
0.32227
0.320056
0.322954
0.326009
0.329153
0.332391
0.335694
0.33903
0.34239
0.34576
0.349156
0.352548
0.355941
0.359345
0.362767
0.366024
0.369422
0.372284
0.376695
0.382429
0.384466
0.385926
0.39318
0.39706
0.401084
0.405203
0.40941
0.413728
0.418166
0.422741
0.427468
0.432357
0.43742
0.44267
0.448121
0.453788
0.459693
0.465864
0.472343
0.479178
0.486423
0.494141
0.502411
0.511333
0.521052
0.531749
0.543673
0.557238
0.573084
0.592532
0.618202
0.654465
0.705774
0.769901
0.822158
0.829024
0.829129
0.829237
0.829648
0.830142
0.827847
0.690513
0.687247
0.683396
0.678887
0.673569
0.667228
0.659564
0.650469
0.639169
0.622865
0.602785
0.570209
0.510981
0.389926
0.324404
0.32292
0.325976
0.329148
0.332379
0.335675
0.339012
0.342364
0.345726
0.349094
0.352495
0.355906
0.359317
0.362739
0.366174
0.369437
0.372842
0.375765
0.380307
0.386015
0.388104
0.389959
0.397034
0.401005
0.405106
0.409309
0.413605
0.418018
0.422559
0.427242
0.432085
0.437099
0.442296
0.447689
0.453296
0.459133
0.465222
0.471595
0.4783
0.485386
0.492916
0.500959
0.509607
0.518979
0.529242
0.540618
0.553416
0.568151
0.585797
0.608231
0.638754
0.68198
0.73886
0.802317
0.828002
0.829001
0.829136
0.829255
0.829674
0.830126
0.827588
0.695061
0.69231
0.689039
0.685198
0.680707
0.675401
0.669044
0.661306
0.652067
0.640577
0.624061
0.603735
0.570917
0.511486
0.390882
0.326671
0.325916
0.329114
0.332373
0.335662
0.338992
0.342345
0.345699
0.34906
0.352434
0.355853
0.359285
0.362716
0.366158
0.369609
0.372884
0.3763
0.379302
0.383981
0.38965
0.391817
0.394082
0.400952
0.40502
0.409203
0.413496
0.417886
0.4224
0.427049
0.431847
0.436813
0.441959
0.447298
0.452844
0.458617
0.464634
0.470921
0.477513
0.484461
0.491821
0.499664
0.508068
0.517141
0.527022
0.537913
0.550084
0.563922
0.580148
0.600225
0.626591
0.663175
0.713015
0.773784
0.822278
0.828815
0.828994
0.829147
0.829271
0.829696
0.830106
0.827338
0.6992
0.6969
0.694149
0.690895
0.68708
0.68261
0.677294
0.67086
0.662963
0.653504
0.641794
0.625068
0.604523
0.571508
0.511928
0.391884
0.329046
0.329029
0.332338
0.335656
0.338979
0.342324
0.34568
0.349032
0.3524
0.355791
0.359231
0.362686
0.366142
0.369606
0.373075
0.376366
0.379804
0.3829
0.387717
0.393339
0.395612
0.398296
0.404939
0.409112
0.413381
0.417768
0.422258
0.42688
0.431642
0.436563
0.441659
0.446945
0.452434
0.458143
0.464093
0.470304
0.476804
0.483633
0.490845
0.498506
0.506695
0.515504
0.525057
0.535522
0.547143
0.560258
0.575381
0.593615
0.616922
0.648363
0.691695
0.746607
0.805951
0.827985
0.828827
0.829002
0.829158
0.829285
0.829719
0.830084
0.826978
0.702957
0.701075
0.69878
0.696053
0.692833
0.689047
0.684569
0.679172
0.672567
0.664434
0.654725
0.642806
0.625901
0.605178
0.57201
0.512318
0.392912
0.33151
0.332232
0.33562
0.338972
0.34231
0.345659
0.349012
0.352371
0.355756
0.359169
0.362633
0.366115
0.369596
0.373087
0.376576
0.37989
0.383356
0.386561
0.39152
0.397088
0.399495
0.402603
0.409
0.413284
0.417644
0.422132
0.426728
0.431462
0.436345
0.441394
0.446629
0.452063
0.457712
0.463596
0.469735
0.476154
0.482885
0.489971
0.497475
0.505468
0.514043
0.523307
0.53341
0.544552
0.557035
0.571286
0.588107
0.609035
0.636575
0.674211
0.723434
0.781973
0.824035
0.828689
0.828825
0.829012
0.829164
0.829298
0.829744
0.830065
0.82656
0.706377
0.704865
0.702993
0.700728
0.698041
0.694856
0.691065
0.6865
0.680918
0.674064
0.665671
0.655734
0.64364
0.626591
0.605729
0.572441
0.512671
0.393948
0.334059
0.335497
0.338935
0.342303
0.345644
0.34899
0.35235
0.355727
0.359134
0.362571
0.366062
0.369573
0.373083
0.376603
0.380117
0.383458
0.386963
0.390292
0.39539
0.400903
0.403472
0.407005
0.413138
0.417541
0.421998
0.426591
0.4313
0.436153
0.441164
0.44635
0.451731
0.457323
0.463144
0.469213
0.475556
0.482201
0.489182
0.496551
0.504374
0.512737
0.521746
0.53153
0.542268
0.554205
0.567716
0.583426
0.602538
0.627027
0.659961
0.704071
0.757783
0.812256
0.828278
0.828718
0.828835
0.829015
0.829168
0.829316
0.829782
0.830028
0.826104
0.709482
0.708313
0.706816
0.70498
0.702762
0.700115
0.696926
0.69304
0.688277
0.682432
0.675313
0.666688
0.656564
0.644333
0.627171
0.6062
0.572817
0.512993
0.394981
0.336692
0.338801
0.342266
0.345636
0.348975
0.352327
0.355706
0.359105
0.362536
0.365999
0.369521
0.373065
0.376607
0.380159
0.3837
0.387076
0.390629
0.394096
0.399332
0.40479
0.407549
0.411502
0.417358
0.421888
0.426448
0.431153
0.43598
0.44096
0.446106
0.451437
0.456974
0.462735
0.468738
0.475008
0.481571
0.48846
0.495716
0.503394
0.511574
0.520352
0.529854
0.540236
0.551715
0.564597
0.579397
0.597076
0.619226
0.648349
0.687516
0.736739
0.793203
0.826045
0.828687
0.828729
0.828842
0.829016
0.829172
0.829351
0.829813
0.829963
0.82562
0.712308
0.711442
0.710293
0.708838
0.707054
0.704881
0.702231
0.698939
0.694841
0.689803
0.683685
0.676335
0.667524
0.657256
0.644917
0.627667
0.606609
0.573152
0.513291
0.396011
0.339404
0.342126
0.345599
0.348966
0.352312
0.355682
0.359083
0.362507
0.365965
0.369458
0.373014
0.376593
0.380171
0.383759
0.387331