/*--------------------------------*- C++ -*----------------------------------*\
| =========                 |                                                 |
| \\      /  F ield         | OpenFOAM: The Open Source CFD Toolbox           |
|  \\    /   O peration     | Version:  v2012                                 |
|   \\  /    A nd           | Website:  www.openfoam.com                      |
|    \\/     M anipulation  |                                                 |
\*---------------------------------------------------------------------------*/
FoamFile
{
    version     2.0;
    format      ascii;
    class       volScalarField::Internal;
    location    "13200";
    object      Rstream;
}
// * * * * * * * * * * * * * * * * * * * * * * * * * * * * * * * * * * * * * //

dimensions      [0 0 -1 0 0 0 0];


value           nonuniform List<scalar> 
31383
(
0
0
0
0
0
0
0
0
0
0
0
0
0
0
1.94292e-21
0
0
0
-2.38492e-25
0
-1.83422e-21
0
0
0
0
-1.82377e-25
2.41139e-25
0
0
0
0
0
0
0
-2.17575e-25
0
0
0
0
0
0
0
0
-2.51635e-25
0
0
0
0
0
0
2.17427e-25
0
0
-2.92924e-25
0
0
0
0
0
0
0
1.79575e-25
-3.42489e-25
0
0
0
0
0
0
0
0
0
0
0
-2.93454e-25
0
0
2.31246e-20
0
0
0
0
0
0
0
0
0
0
0
0
2.10381e-21
0
0
0
0
0
0
0
0
0
0
0
0
0
-1.89977e-20
0
0
0
0
0
0
0
0
0
0
0
4.53378e-24
0
1.4779e-23
1.95377e-20
0
0
0
0
0
0
0
0
0
0
0
0
4.08027e-24
0
-2.57826e-24
-1.71382e-20
0
0
0
0
0
0
0
0
0
0
0
0
0
0
0
5.3008e-25
1.79424e-20
0
0
0
0
0
0
0
0
0
0
0
0
0
0
0
0
-6.80981e-25
-1.51839e-20
0
0
0
0
-8.1086e-26
-9.78311e-26
0
0
0
0
0
-3.5094e-24
0
0
0
0
0
4.33236e-23
0
0
0
0
0
0
-6.49917e-26
-8.08034e-26
0
0
0
0
0
-3.15164e-24
0
-5.00994e-24
0
0
0
-2.36714e-23
2.58264e-20
0
0
0
0
0
0
0
0
0
0
0
0
0
0
0
-1.00008e-23
0
1.41994e-23
0
2.43249e-23
2.59955e-21
0
0
0
0
0
0
0
0
0
0
0
0
0
0
-4.58128e-24
0
-1.07118e-23
6.38902e-24
1.34596e-23
-1.28697e-23
-9.57779e-23
-5.39692e-20
0
0
0
3.65894e-26
0
0
0
0
0
0
0
0
0
0
0
-9.15024e-24
0
-1.14189e-23
1.27953e-23
0
-1.2328e-23
2.0796e-22
-4.72886e-21
0
0
0
0
2.79858e-26
0
0
1.44587e-25
0
0
0
-1.86423e-24
0
0
-4.36162e-24
4.67715e-24
-9.80345e-24
0
-1.21141e-23
1.35159e-23
0
2.834e-23
2.10187e-22
4.46593e-20
0
0
0
0
0
0
0
0
1.23814e-25
0
0
0
-1.67175e-24
0
0
-4.03881e-24
4.3669e-24
-4.91153e-24
0
-6.08175e-24
2.16628e-23
0
5.69041e-23
-4.1513e-22
4.35878e-21
0
0
0
0
0
5.29919e-26
0
0
0
0
0
0
-2.10693e-24
0
0
-2.39615e-24
-4.94573e-24
0
0
0
0
1.42933e-23
0
-2.06904e-24
5.51327e-22
-3.41791e-20
0
0
0
0
0
0
4.37693e-26
0
0
0
0
0
0
-1.9101e-24
-2.40681e-24
0
-4.77649e-24
-4.64895e-24
0
-1.22571e-23
0
0
0
0
-6.18876e-23
0
2.12543e-20
0
0
0
0
0
0
0
0
0
0
0
0
0
0
0
-4.79535e-24
0
-5.07233e-24
-5.51646e-24
0
-1.17201e-23
0
-1.53645e-23
0
0
3.61158e-23
-1.17733e-21
7.69843e-21
0
0
0
0
0
0
0
0
0
0
0
0
0
2.30171e-24
0
0
-2.3957e-24
-2.76824e-24
-5.36589e-24
-1.10412e-23
0
-1.34364e-23
1.46556e-23
-1.48564e-23
0
0
1.34318e-22
1.49637e-21
1.33759e-20
0
0
0
0
0
0
0
0
0
0
0
0
0
0
2.10797e-24
0
-2.80879e-24
0
-2.61731e-24
-8.62318e-24
-1.16119e-23
0
-2.69588e-23
2.94185e-23
0
0
0
2.04522e-22
0
0
0
0
0
0
0
0
0
0
0
0
0
1.94341e-24
2.14445e-24
0
0
2.64703e-24
0
-2.63785e-24
0
-3.04883e-24
-1.18815e-23
-5.82985e-24
0
-1.35425e-23
1.47795e-23
0
0
0
-2.31493e-22
0
5.33764e-20
0
0
0
0
0
0
6.33411e-26
0
0
0
0
0
1.74067e-24
1.9422e-24
0
0
2.46741e-24
2.9501e-24
0
0
-6.09969e-24
-1.24409e-23
0
0
-3.02866e-23
0
0
0
0
0
0
-8.01728e-20
0
0
0
0
0
0
0
5.34122e-26
0
0
0
0
0
2.34379e-24
2.52026e-24
0
0
0
5.88553e-24
-3.25601e-24
-6.6167e-24
-9.70114e-24
-1.29895e-23
-1.3758e-23
0
-6.08074e-23
-3.4006e-23
-7.39226e-23
0
0
0
0
0
0
0
0
0
0
0
0
0
0
0
0
0
0
0
2.14502e-24
2.32902e-24
0
0
0
6.19272e-24
-6.51038e-24
-6.3478e-24
-6.39791e-24
-6.51848e-24
-1.33278e-23
0
-6.30641e-23
2.05555e-24
-1.48608e-22
0
0
2.44228e-22
0
0
0
0
0
0
0
0
0
0
0
0
0
0
0
0
0
0
0
0
-3.13852e-24
0
3.10262e-24
-1.03435e-23
0
-7.17654e-24
0
0
-3.10022e-23
-6.53357e-23
-3.84371e-23
-1.53765e-22
8.62026e-23
0
-4.31973e-22
0
0
0
0
0
0
0
0
0
0
0
0
0
0
0
0
0
0
0
0
0
-6.26419e-24
0
3.53571e-24
-1.41708e-23
0
-6.95064e-24
0
0
-3.02052e-23
-3.28346e-23
-1.46336e-22
-7.73309e-23
1.73542e-22
0
0
0
-1.38909e-19
0
0
0
0
0
0
0
0
0
0
0
0
0
0
0
0
0
0
3.13484e-24
0
-6.56579e-24
0
7.08037e-24
-1.47347e-23
0
0
-1.55782e-23
-3.17166e-23
0
0
-1.51289e-22
0
1.79501e-22
0
0
0
1.59457e-19
0
0
-1.4725e-25
0
0
0
0
0
0
0
0
0
0
0
0
0
0
0
0
6.25509e-24
0
-3.29071e-24
7.35601e-24
1.11817e-23
8.40759e-24
0
0
-1.51752e-23
3.46279e-23
0
-7.42684e-23
-1.56338e-22
-1.74339e-22
9.03933e-23
0
0
-8.96678e-21
1.47187e-19
0
0
0
-1.03842e-25
0
0
0
0
0
0
0
0
0
-1.21116e-24
0
0
0
0
0
0
6.55169e-24
0
-3.71113e-24
7.10332e-24
1.5289e-23
3.1657e-23
-1.64449e-23
-1.64274e-23
0
1.31801e-22
0
-1.49392e-22
-1.61491e-22
-1.71014e-22
0
0
0
1.18558e-20
-1.19594e-20
0
0
0
0
0
0
0
0
0
0
0
0
0
0
-1.10776e-24
0
1.40463e-24
0
0
0
0
6.84446e-24
0
-7.4364e-24
0
7.66615e-24
3.27202e-23
-1.60171e-23
-1.60246e-23
-6.86227e-23
-3.70538e-24
0
-1.54279e-22
-1.66769e-22
-1.86054e-22
0
0
0
0
1.48897e-19
0
0
0
0
0
0
0
0
0
0
-1.33494e-24
0
0
0
0
0
0
2.80172e-24
0
0
0
0
7.1314e-24
0
-1.17049e-23
0
1.68692e-23
-9.83306e-25
0
0
-6.71083e-23
-1.40701e-22
-7.55391e-23
-1.59283e-22
-1.722e-22
-3.75024e-22
2.11536e-22
4.89866e-22
0
1.85606e-20
-1.3439e-20
0
0
0
0
0
0
0
0
0
0
0
-1.18203e-24
0
0
0
0
0
0
2.96393e-24
3.28072e-24
0
0
0
1.12572e-23
0
-7.73746e-24
0
3.38233e-23
-1.69632e-23
0
0
0
-7.07585e-23
-7.40855e-23
-2.48666e-22
-8.66963e-23
-1.88973e-22
2.08029e-22
4.81924e-22
0
-2.67075e-20
-3.4846e-19
-9.15495e-22
1.31215e-21
-7.69351e-22
6.49026e-21
0
0
0
0
0
0
0
0
0
0
0
0
1.57273e-24
0
0
3.12435e-24
3.13064e-24
0
0
3.84601e-24
1.53882e-23
0
0
0
1.69656e-23
0
0
-7.42819e-23
0
-7.68558e-23
0
-2.52433e-22
-1.8812e-22
0
0
0
4.34254e-21
-1.55187e-20
0
3.64178e-22
-3.01734e-22
6.41981e-22
1.91013e-21
4.95091e-21
0
0
0
0
0
0
0
0
0
0
0
0
3.13152e-24
-1.66114e-24
0
3.28293e-24
0
0
0
3.72275e-24
1.59303e-23
-8.47487e-24
0
0
0
0
0
-7.27813e-23
0
-1.54689e-22
0
-2.64785e-22
-1.84995e-22
0
0
-1.1428e-21
-6.64802e-21
2.57683e-20
0
2.2708e-22
1.20352e-22
0
5.00818e-21
1.864e-21
0
0
0
0
0
0
0
0
0
0
0
0
0
1.56359e-24
-3.32357e-24
-1.75055e-24
3.43917e-24
0
3.88143e-24
0
0
1.64681e-23
-1.69942e-23
0
0
0
0
0
0
-1.59639e-22
8.55771e-23
-1.71183e-22
-1.76371e-22
0
0
0
-1.12541e-21
0
0
7.2293e-19
0
-8.23687e-22
0
1.20918e-20
7.78443e-21
-8.55001e-21
0
0
0
0
0
0
0
0
0
0
0
0
0
0
-3.49032e-24
-3.50517e-24
3.59439e-24
0
3.7567e-24
0
0
2.57595e-23
-8.525e-24
3.72696e-23
0
0
0
0
-8.11174e-23
-3.21178e-22
1.60596e-22
-1.68327e-22
0
-4.15123e-22
0
0
0
0
0
-7.11662e-19
0
0
1.80616e-22
0
-4.86706e-21
-5.75811e-21
3.44074e-21
0
0
0
0
0
0
-4.06733e-24
0
0
-1.51792e-24
0
0
0
0
-1.74784e-24
-3.66444e-24
3.75092e-24
0
0
0
0
1.70658e-23
0
3.64367e-23
0
4.03457e-23
0
-8.32735e-23
-1.63173e-22
-1.61555e-22
1.73655e-22
0
0
-8.38434e-22
-4.764e-22
0
0
0
0
-6.71597e-19
0
0
0
6.30716e-22
0
-4.45929e-20
-1.84206e-20
8.81534e-21
0
0
0
0
0
0
-3.71847e-24
0
0
-1.42325e-24
0
0
0
1.99453e-24
-1.98436e-24
-1.83994e-24
3.90653e-24
0
-8.59917e-24
0
0
0
0
0
0
3.95593e-23
0
-8.17753e-23
-8.20641e-23
0
3.49853e-22
0
-4.07583e-22
2.18993e-23
-4.69463e-22
0
-1.52095e-21
-5.07497e-22
0
5.27251e-19
0
0
1.52033e-22
0
-1.31768e-21
0
-6.56861e-20
-1.07408e-20
2.76812e-20
-1.56983e-19
0
0
0
0
0
0
0
0
-1.69998e-24
0
0
0
3.9984e-24
1.5163e-25
0
4.05959e-24
0
-8.37197e-24
0
0
0
0
0
0
0
0
0
0
-1.79476e-22
3.60774e-22
0
-8.22969e-22
4.38689e-22
0
0
-4.87185e-21
-1.23413e-20
0
-8.96256e-19
0
0
0
1.07298e-22
-1.83491e-21
-6.4031e-21
0
-7.53357e-20
0
2.39805e-20
-2.71543e-19
0
0
0
0
0
0
0
0
-3.40742e-24
0
0
0
2.00719e-24
-2.29358e-24
-4.28168e-24
6.38765e-24
-8.93536e-24
0
-3.73915e-23
0
0
0
0
0
4.38882e-23
0
0
-1.81894e-22
-3.61453e-22
3.72119e-22
-4.00936e-22
-4.15329e-22
0
-1.08741e-21
0
-3.3239e-21
0
0
1.64221e-18
0
0
3.73782e-23
0
-5.48925e-24
-3.10705e-21
-4.34912e-21
0
-1.26189e-19
0
0
-1.19308e-19
0
0
0
0
0
-2.534e-24
0
0
-1.71128e-24
0
0
0
0
-8.61938e-24
-8.60259e-24
8.74023e-24
-8.7122e-24
0
-3.65516e-23
0
0
0
0
0
4.31234e-23
0
-1.86017e-22
-3.66159e-22
-5.62663e-22
5.80332e-22
-3.95117e-22
0
0
-1.07242e-21
0
0
0
0
4.69768e-22
0
0
0
-7.20815e-23
0
2.41997e-22
-4.20941e-21
0
0
-7.76899e-20
0
0
0
0
0
0
-1.83185e-24
0
-4.38208e-24
0
1.85161e-24
-1.96641e-24
0
0
0
0
-8.94995e-24
-8.92627e-24
4.39383e-24
0
0
0
4.0674e-23
0
0
0
9.0283e-23
0
0
-1.83078e-22
-1.84266e-22
-7.67218e-22
3.87099e-22
0
0
-1.04469e-21
0
2.99045e-21
0
-3.07148e-20
-6.21051e-20
-7.18344e-19
1.96647e-23
2.25965e-22
1.96455e-22
1.09198e-22
3.38439e-23
0
5.9841e-22
-2.40998e-21
0
0
0
-1.72294e-20
0
0
0
0
0
-1.71735e-24
0
-1.88953e-24
0
1.77407e-24
-3.93724e-24
0
0
0
0
-4.49817e-24
3.36578e-23
-3.8625e-23
0
0
0
8.17321e-23
0
0
0
1.35164e-22
0
0
0
0
-3.86503e-22
4.1889e-22
0
-9.76109e-22
-1.03063e-21
0
2.94925e-21
-6.23904e-21
-6.49382e-20
-6.11299e-20
0
0
-6.61447e-23
1.34706e-22
1.38796e-22
8.36396e-23
-1.62739e-22
0
3.33024e-22
0
0
0
-2.0131e-20
-1.5337e-20
0
-2.168e-19
0
0
0
0
0
-2.12137e-24
0
1.98987e-24
1.4285e-25
0
0
0
5.01136e-24
0
3.72408e-23
-7.77207e-23
0
0
0
8.41393e-23
0
0
0
9.33327e-23
9.78809e-23
0
0
0
-4.16926e-22
8.46223e-22
-9.21674e-22
-1.9805e-21
0
-2.73823e-21
0
-2.10842e-20
-7.30595e-20
3.56324e-20
1.24739e-18
0
0
-2.32249e-22
-2.47212e-22
-3.16423e-22
0
6.58345e-23
0
1.37759e-21
0
0
0
5.88776e-19
-1.57293e-20
4.2813e-21
-2.05262e-19
0
0
0
-2.36637e-24
0
-2.03245e-24
0
1.92022e-24
4.25183e-24
0
0
0
4.88582e-24
0
0
-3.91072e-23
0
0
0
8.65995e-23
0
0
0
4.6931e-23
1.96943e-22
0
-4.15497e-22
0
-8.4146e-22
4.27259e-22
-9.09372e-22
-1.00406e-21
0
-5.63546e-21
0
-1.46998e-20
-8.0944e-20
3.51815e-20
4.0788e-21
0
0
-1.17785e-22
2.53368e-23
-1.89397e-22
3.54889e-22
-3.70981e-23
-3.2364e-22
4.9098e-23
1.16017e-21
0
0
0
-6.29027e-19
2.11289e-20
1.74793e-20
4.0171e-19
0
0
0
-2.25707e-24
0
-1.90224e-24
0
0
4.41235e-24
-2.45658e-24
0
0
2.14655e-23
0
4.2328e-23
0
0
4.40692e-23
0
4.35324e-23
0
0
0
0
9.90618e-23
0
-4.09592e-22
0
-4.24473e-22
-9.29759e-22
0
2.23017e-21
1.28809e-21
-2.89469e-21
0
0
-4.19536e-20
0
3.79781e-21
0
6.17387e-23
0
-8.19852e-23
4.04658e-22
-4.17353e-22
1.05727e-21
0
-4.64773e-22
0
0
-8.56693e-20
0
0
0
-2.54223e-20
4.72749e-20
3.83987e-19
0
0
0
0
0
-1.83559e-24
2.02859e-24
0
-2.49911e-24
-2.39128e-24
0
0
-1.223e-24
0
4.14581e-23
-4.4172e-23
0
4.32672e-23
0
4.68641e-23
0
0
2.0254e-22
0
2.12278e-22
-4.35507e-22
0
0
-9.19713e-22
-9.1759e-22
-1.04163e-21
2.20152e-21
2.64495e-21
-3.41566e-21
0
0
-9.63701e-20
-1.00394e-20
-1.09961e-18
0
3.4967e-23
-4.61167e-23
1.25835e-24
0
2.27121e-22
4.59251e-22
4.98809e-22
0
-5.25645e-22
0
0
7.11344e-20
0
0
0
-5.39469e-20
-8.00592e-19
0
5.08595e-23
0
0
0
0
-1.94261e-24
4.0565e-24
0
-9.47274e-24
0
0
0
-2.17262e-23
0
0
-4.33362e-23
0
4.67107e-23
0
9.42698e-23
0
0
4.07554e-22
0
2.09256e-22
-8.77281e-22
0
0
-1.86038e-21
-1.00483e-21
-3.20994e-21
0
2.82862e-21
-7.14371e-21
0
0
-1.86713e-19
6.94138e-20
0
0
0
2.12021e-23
-5.7814e-23
0
0
0
6.78807e-22
0
3.73561e-22
6.46851e-22
0
0
7.38508e-20
-8.68099e-22
0
-1.2109e-18
-1.76168e-19
-1.16511e-19
1.16306e-22
9.81218e-23
0
0
0
0
-3.89408e-24
4.18322e-24
0
-4.76488e-24
0
0
0
-2.37434e-23
0
0
0
0
9.39883e-23
0
1.46437e-22
0
-2.08139e-22
2.05012e-22
0
4.48529e-22
-4.41738e-22
0
0
-9.40446e-22
-9.92078e-22
-2.15408e-21
0
1.45383e-21
-3.72265e-21
-1.56753e-20
-5.99246e-20
-9.05555e-20
0
0
0
0
2.55847e-23
-7.4551e-23
9.08133e-25
0
-6.69265e-24
0
0
9.92715e-22
3.27278e-22
7.90706e-22
1.4722e-23
0
-3.94164e-20
-4.81227e-22
0
9.21279e-19
-1.66834e-19
-1.60099e-22
1.96127e-18
9.53203e-23
0
0
0
0
-4.04184e-24
2.09584e-24
0
2.11761e-23
2.28198e-23
0
0
-2.32751e-23
0
4.82858e-23
-4.85555e-23
0
9.67337e-23
0
1.99276e-22
0
-2.05094e-22
0
4.48946e-22
9.03711e-22
0
0
0
-1.02793e-21
0
0
0
3.43431e-21
0
-1.54182e-20
-1.24169e-19
0
0
1.66649e-18
0
0
0
1.91463e-23
-5.79192e-23
-2.19216e-22
3.4835e-22
-2.89655e-22
0
1.34084e-21
8.69715e-22
-4.60517e-22
-5.62931e-22
0
0
8.35828e-20
0
0
0
-1.6928e-19
-2.41445e-19
2.30272e-18
8.982e-23
0
0
-4.71582e-24
0
-4.203e-24
0
0
2.06972e-23
4.60082e-23
0
0
-2.53296e-23
0
4.74362e-23
-9.77927e-23
0
1.50381e-22
0
1.00247e-22
-2.14217e-22
0
0
4.42835e-22
4.55139e-22
0
-9.95346e-22
0
-2.08666e-21
0
-2.56455e-21
0
3.38948e-21
0
0
-1.33833e-19
0
-5.59507e-20
-1.26118e-18
0
0
2.11675e-23
2.80591e-23
-1.08415e-24
1.165e-22
-3.89747e-22
3.09347e-22
-2.46948e-22
0
1.17471e-21
8.45374e-23
-4.27479e-22
-8.3468e-22
0
-7.10232e-23
-1.95494e-20
3.20781e-22
8.82702e-19
-3.82698e-19
-1.61941e-19
-2.32053e-19
0
4.23191e-23
0
0
-4.58222e-24
0
-2.1155e-24
0
0
0
2.31921e-23
0
0
-2.48673e-23
0
0
-1.00826e-22
0
1.00141e-22
0
0
-2.11158e-22
0
0
0
0
0
-2.01264e-21
0
-2.1785e-21
0
-5.26571e-21
0
0
-1.38752e-20
-4.8744e-20
-6.84982e-20
-1.1079e-20
4.1377e-19
0
-3.50897e-23
0
-1.39768e-22
-6.29153e-24
8.24575e-23
-7.42447e-24
9.53622e-23
-1.76945e-22
7.23652e-24
7.32555e-24
-7.76358e-22
9.63862e-22
-7.18599e-23
0
-4.45474e-23
0
-1.58017e-21
2.59429e-22
0
1.45668e-19
8.82411e-20
0
0
0
0
3.26474e-23
-2.50301e-24
0
0
0
0
0
0
2.54919e-23
0
0
0
0
0
-5.07636e-23
0
1.07561e-22
0
0
0
0
0
0
0
-1.0415e-21
-2.08459e-21
2.21542e-21
-1.10648e-21
0
-2.69908e-21
0
0
-1.36559e-20
-9.99306e-20
0
-8.67595e-20
0
0
2.43061e-24
-1.23827e-22
-1.32241e-21
0
0
-1.8796e-22
8.02e-24
-1.44509e-24
-4.60599e-24
6.3224e-22
4.6501e-22
-6.8702e-22
7.89796e-22
0
-3.79484e-22
1.69398e-23
3.93538e-24
1.71466e-21
-1.48024e-22
-3.95545e-22
-9.60826e-22
-7.14033e-20
0
0
0
0
-1.4452e-24
-2.4363e-24
0
0
-1.94964e-23
0
0
0
2.5008e-23
0
0
0
0
0
-1.09413e-22
0
1.05983e-22
0
2.27292e-22
2.32689e-22
0
4.91225e-22
0
0
-3.18322e-21
-2.16338e-21
2.1885e-21
0
0
0
0
1.15533e-20
0
-1.06244e-19
0
-1.22667e-20
6.89732e-19
0
0
-6.08967e-23
1.90871e-22
4.47028e-23
-6.979e-22
1.33182e-21
-9.56456e-22
-6.07374e-24
-4.60866e-24
1.40423e-23
1.07828e-21
4.11488e-22
5.23488e-22
0
-8.29098e-23
-2.26167e-22
-7.04729e-24
0
2.83598e-21
-4.60647e-20
2.01452e-19
-2.94911e-22
-4.91196e-19
0
0
0
0
-3.12285e-23
0
2.01918e-23
0
-1.90754e-23
-2.1675e-23
0
2.592e-23
0
0
0
0
0
0
-1.07763e-22
0
1.13724e-22
0
4.57951e-22
4.68951e-22
0
4.84929e-22
1.03933e-21
0
-3.24491e-21
-2.25041e-21
0
0
0
0
0
3.86063e-20
0
-1.11412e-19
-4.15177e-20
5.9076e-19
-7.98177e-19
-1.68314e-19
0
0
1.14476e-22
1.18266e-22
0
2.03888e-21
-1.86312e-22
-3.20802e-22
9.29263e-24
0
0
4.94683e-22
0
4.73001e-22
-8.5425e-22
0
0
0
0
0
-1.05411e-19
1.92907e-19
0
1.23683e-18
2.61085e-19
0
8.66021e-18
0
0
0
1.97344e-23
0
0
-2.12464e-23
0
2.5446e-23
0
0
0
0
0
0
-1.15934e-22
0
1.12136e-22
0
2.30639e-22
2.36237e-22
0
0
2.09973e-21
0
-1.10314e-21
-1.14106e-21
-5.10747e-21
-2.78244e-21
-6.30285e-21
-7.54893e-21
0
5.87124e-20
0
-5.63809e-20
-4.12818e-20
-7.30173e-19
-5.93743e-20
2.63813e-19
3.78056e-24
-1.41782e-23
-1.32924e-24
-1.69748e-23
5.85675e-22
0
2.02337e-21
-2.49554e-22
5.58127e-22
0
-3.54906e-24
-2.47481e-22
0
0
4.45683e-23
-1.60801e-21
-4.81204e-22
0
0
0
0
-5.90563e-20
0
2.54813e-22
2.50989e-18
-3.50543e-20
0
-3.86682e-19
0
0
0
0
0
0
0
0
0
0
0
0
0
0
0
5.02352e-24
0
0
0
0
0
0
0
3.28004e-21
1.15386e-21
-1.20819e-21
-2.52914e-21
3.53371e-22
-2.74892e-21
-6.2251e-21
-7.45148e-21
2.4278e-20
3.13866e-20
0
-7.93404e-20
0
-1.12155e-21
0
0
0
-6.88044e-24
-2.64363e-24
-9.7326e-24
3.37293e-22
0
1.12844e-20
0
0
1.35885e-21
-2.46423e-23
-1.47325e-22
-6.5315e-22
0
0
-3.01813e-22
-1.40862e-21
-4.86959e-23
0
0
0
-1.59817e-22
-8.87651e-20
2.56255e-22
1.67511e-22
1.27283e-18
-9.66741e-20
0
-8.5665e-18
0
-2.17904e-22
0
0
0
0
0
0
2.90143e-23
0
0
0
0
0
0
2.40388e-22
0
0
0
0
0
0
0
-1.06854e-22
3.53921e-21
-1.19388e-21
-5.16103e-21
1.10742e-20
0
0
0
2.39109e-20
-4.07245e-20
-4.90285e-20
-1.18297e-19
0
-9.05068e-22
-3.53718e-19
0
0
0
-9.60354e-24
-2.20571e-23
0
-5.3147e-23
0
-2.48989e-22
4.63939e-21
7.87667e-22
-4.93661e-22
0
-1.39155e-22
-3.70272e-22
0
-2.63364e-23
2.51801e-22
-6.40582e-22
3.7895e-22
1.36126e-22
0
3.49278e-21
0
-8.58233e-20
0
6.26917e-19
1.38694e-18
0
-3.10123e-21
0
0
2.12253e-22
0
0
0
0
0
0
5.86025e-23
0
0
0
0
-1.26986e-22
0
1.21081e-22
0
-2.54871e-22
-5.13281e-22
0
0
0
0
-1.07833e-21
3.62156e-21
-2.64691e-21
-5.44558e-21
5.67006e-21
6.94047e-21
0
0
0
2.36406e-21
-4.83396e-20
-5.14661e-20
-4.26781e-19
-2.77766e-21
-6.16046e-23
0
0
0
-7.18853e-24
-1.39585e-23
8.75901e-23
2.90477e-23
0
-3.91232e-21
2.17324e-22
4.00141e-21
-7.31556e-21
-7.69702e-22
-3.91856e-23
8.55207e-24
0
-2.63563e-23
2.52703e-23
4.98577e-22
0
1.36321e-22
-2.56835e-22
-4.50523e-22
-3.10932e-21
-1.56317e-20
1.0447e-19
9.47099e-23
4.38268e-20
1.34767e-18
6.01318e-20
2.97603e-20
-8.57622e-18
0
0
0
0
0
0
0
0
6.07157e-23
0
0
0
0
-2.55889e-22
0
-2.60111e-22
0
-2.51602e-22
-5.06819e-22
5.42193e-22
5.57384e-22
0
0
-1.30612e-21
1.23612e-21
-2.61591e-21
-2.78194e-21
0
6.85454e-21
0
0
0
4.16817e-20
-5.99558e-20
-1.4336e-20
-1.17348e-21
-1.8726e-21
-1.51684e-22
-2.11153e-19
0
0
-1.77913e-25
8.51491e-24
-6.00994e-23
1.2111e-22
1.14981e-22
7.40913e-23
-5.36463e-21
2.7926e-21
-1.39592e-20
2.56305e-22
6.54963e-22
-7.76892e-23
-7.61057e-23
1.57271e-23
4.99686e-23
-2.99688e-22
-3.42314e-22
0
-4.17792e-22
-1.90597e-22
-1.87654e-22
0
-1.53887e-20
1.01744e-19
0
-5.52964e-19
1.39883e-18
-2.9219e-20
2.91045e-20
-8.37235e-18
0
-1.65293e-22
0
0
2.49006e-23
0
0
0
6.28489e-23
0
0
0
-6.8004e-23
-2.63402e-22
2.67474e-22
-2.56707e-22
2.68916e-22
0
0
5.35591e-22
5.50694e-22
0
0
1.38472e-22
0
0
0
7.16223e-21
0
0
0
0
8.53011e-20
-5.95032e-20
-2.61044e-21
-5.72676e-22
0
0
2.16395e-19
0
-1.39308e-24
-4.66816e-24
-5.00003e-24
0
-2.55806e-23
3.05449e-24
-4.05899e-22
4.80622e-23
1.39671e-20
3.13619e-21
0
7.84327e-21
-6.11004e-22
-2.20408e-23
1.39558e-23
-1.88904e-22
-3.6419e-22
-1.98911e-22
-7.92411e-22
-4.19243e-22
6.07641e-22
3.11733e-22
0
-8.199e-23
0
-3.8744e-22
0
-2.43602e-21
-1.96775e-20
2.93252e-20
0
1.54973e-17
0
2.64037e-23
0
0
5.0478e-23
-2.772e-23
0
3.17323e-23
6.50003e-23
0
0
0
-6.70741e-23
-2.71165e-22
5.39415e-22
2.75871e-22
8.19766e-22
-5.58376e-22
0
0
5.97414e-22
0
0
-1.5414e-22
2.89984e-21
-6.27602e-21
-6.8917e-21
7.074e-21
0
0
-3.48863e-20
-3.93584e-20
8.42457e-20
0
4.62905e-19
5.44538e-22
0
0
0
0
0
-2.40709e-24
1.15457e-23
-4.91499e-24
-4.65417e-24
0
-2.92411e-23
-1.44719e-22
-1.51087e-21
3.12275e-20
-3.53427e-21
1.78623e-20
1.89636e-21
0
0
1.23808e-22
-4.97217e-23
3.71816e-23
2.62756e-22
1.14568e-24
-4.39712e-22
9.68472e-22
3.0066e-22
0
6.70929e-23
-3.88926e-22
2.51968e-19
-6.61783e-22
2.07606e-21
-1.35733e-18
1.0891e-19
1.47322e-20
1.5142e-17
0
1.45175e-22
0
0
2.55727e-23
-5.62063e-23
0
3.12523e-23
1.01547e-22
0
0
0
1.44001e-22
-1.36642e-22
-1.19229e-23
8.41131e-22
5.47379e-22
-5.51582e-22
0
0
1.83096e-21
0
0
-2.68844e-21
2.86614e-21
-6.20204e-21
-6.80842e-21
0
0
0
-7.10338e-20
3.97711e-20
3.22059e-20
1.28088e-19
0
-3.97493e-23
0
0
0
0
0
-2.2373e-24
-1.87837e-24
1.03826e-23
-2.20017e-23
1.73765e-23
0
0
-3.5285e-22
-3.08261e-21
-2.4977e-20
-3.83561e-21
9.90459e-21
2.11324e-20
-1.69242e-21
0
2.77893e-23
2.21637e-22
2.97306e-22
2.50393e-22
7.25806e-24
-4.62482e-22
0
6.06606e-22
1.27064e-22
6.91248e-21
-3.74349e-22
2.46041e-19
1.12318e-21
-4.66265e-21
2.52769e-18
1.39307e-19
2.98417e-19
-1.36422e-17
0
0
0
0
0
-5.86448e-23
0
3.4062e-23
1.03258e-22
0
0
0
-6.12543e-24
0
-2.80257e-22
5.61698e-22
0
-5.96181e-22
0
0
1.87181e-21
0
0
-3.02492e-21
6.5627e-21
0
0
0
2.64116e-20
-3.38683e-20
-3.61369e-20
7.75534e-20
3.2071e-20
-4.6777e-19
0
-5.8429e-22
0
0
1.16242e-19
1.09867e-24
-4.04838e-24
-2.19778e-24
2.62414e-24
0
-5.9991e-23
-3.79915e-23
3.7858e-23
6.66564e-23
1.92828e-22
-1.4482e-21
-1.96019e-21
-3.91733e-21
3.71423e-20
2.0928e-20
-8.65888e-21
0
-6.65189e-23
-2.8414e-23
0
2.92014e-22
6.19285e-23
-3.57501e-22
-4.24727e-22
0
8.2366e-22
-4.27904e-22
6.87403e-21
0
2.08493e-21
0
-5.07909e-21
2.48394e-18
6.15737e-20
5.42342e-19
-2.60502e-17
0
1.80638e-23
0
0
2.94722e-23
-6.11259e-23
0
3.3573e-23
1.08231e-22
0
1.51942e-22
0
-2.99051e-22
6.05277e-22
0
6.05787e-22
0
-1.20646e-21
-1.2534e-21
0
1.98609e-21
-2.83245e-21
0
-2.98991e-21
1.35289e-20
0
0
0
2.60017e-20
-3.33053e-20
0
0
8.48268e-20
0
-2.22359e-22
0
0
0
-5.53371e-20
5.38976e-25
6.3921e-24
2.05578e-24
0
2.02299e-24
-3.4392e-23
-1.091e-22
2.91579e-23
6.63908e-23
0
0
0
0
2.10354e-19
-7.03324e-20
-3.73634e-20
3.49033e-20
2.48692e-22
-2.84188e-23
0
0
-8.1814e-23
0
-2.72324e-23
1.40519e-23
1.7588e-22
-9.2123e-23
4.3527e-22
-1.71525e-20
9.56452e-22
2.49243e-19
9.44957e-19
5.40154e-21
2.2285e-18
-1.64018e-19
2.45006e-19
-1.24366e-17
0
-2.52082e-23
0
0
5.9723e-23
-6.36529e-23
0
0
7.22347e-23
-1.54451e-22
1.49952e-22
0
-1.5079e-22
5.9779e-22
0
1.22463e-21
6.31836e-22
-1.2506e-21
-1.23891e-21
0
1.33247e-21
-5.78263e-21
0
-6.87924e-21
-6.72284e-22
0
0
0
0
0
0
0
-4.79627e-19
0
-4.56116e-22
0
0
3.10126e-20
-6.05396e-20
0
1.80011e-25
4.55904e-24
2.42892e-24
4.18727e-23
1.12656e-23
-2.71303e-23
1.00872e-22
-6.84445e-23
-1.26729e-22
0
0
0
3.88221e-21
7.37877e-18
0
5.71216e-20
0
0
-2.4523e-23
9.69593e-23
-1.14846e-22
-3.44908e-22
-4.85233e-23
8.19418e-22
0
-2.19072e-22
2.88001e-22
1.13949e-21
-1.65097e-20
0
2.45925e-19
9.25528e-19
-3.98545e-21
2.18495e-18
-8.52094e-20
-6.38354e-21
0
0
-2.80244e-23
0
3.03147e-23
9.41503e-23
-6.62203e-23
0
0
0
6.63635e-24
1.61067e-22
0
0
0
0
1.26677e-21
1.27968e-21
-1.29889e-21
0
0
0
-6.1039e-21
0
6.27596e-22
-1.5973e-20
0
0
-3.10837e-20
0
0
0
-1.11308e-19
6.13584e-22
0
-4.85207e-22
0
0
-2.31598e-21
2.98793e-20
0
-3.3581e-24
1.05135e-23
1.93335e-23
7.71365e-25
3.77428e-23
-4.33953e-24
-1.01436e-23
1.16954e-22
-2.77647e-22
0
0
-1.95188e-21
6.51032e-22
4.10945e-21
1.13293e-19
0
3.80898e-20
0
-1.21201e-22
2.80015e-23
-4.60589e-23
-6.9069e-23
-5.86544e-22
-5.24262e-22
1.55643e-21
-3.68022e-22
2.88244e-22
-5.11152e-22
1.31009e-21
0
2.06898e-21
-2.43989e-19
-4.00486e-21
0
0
3.37126e-21
0
0
0
-2.75879e-23
0
2.98679e-23
1.29508e-22
-1.04127e-22
0
0
0
1.57021e-22
1.59038e-22
0
0
0
0
1.31237e-21
1.32853e-21
-2.04571e-21
0
0
-3.13475e-21
-6.47701e-21
0
7.33727e-21
-8.3281e-21
0
-2.85954e-20
2.76819e-21
0
0
5.14245e-21
1.11017e-18
6.13586e-22
4.97936e-22
-2.5145e-22
0
-2.21263e-21
9.21849e-20
1.18017e-19
0
-3.32287e-24
5.38636e-24
1.28784e-23
-6.64565e-24
-4.27037e-23
2.93783e-23
6.16693e-24
-2.84075e-23
-8.84713e-23
1.01981e-22
1.85589e-22
0
3.57739e-21
3.03961e-21
-5.30399e-21
1.40196e-19
2.2301e-20
0
1.48965e-20
5.40829e-22
-2.35893e-22
0
0
-5.67199e-22
-5.08173e-22
1.50521e-21
-1.51181e-22
1.65043e-21
5.10599e-22
-2.3614e-21
-1.76179e-20
-7.67953e-20
-2.41282e-19
0
0
-1.70683e-18
0
-3.70577e-18
-1.75594e-17
-1.18106e-22
0
0
0
6.5588e-23
-1.42969e-22
-1.54159e-22
0
0
0
0
0
0
6.89473e-22
0
2.0598e-21
1.38226e-21
-2.82203e-21
0
0
-3.09901e-21
-3.31899e-21
0
0
0
0
-2.8144e-20
-3.44672e-20
6.55307e-20
0
-1.46128e-19
-2.45392e-19
0
1.00166e-21
0
0
-4.01008e-21
-6.35859e-20
5.78984e-20
0
0
0
0
7.87197e-25
-1.14798e-22
4.46265e-24
0
1.67202e-23
1.66434e-23
4.22584e-22
1.83555e-22
2.04212e-22
5.30646e-22
2.57403e-21
2.73786e-21
2.49253e-20
6.17045e-19
-2.40045e-20
0
-3.33709e-20
-2.34419e-22
-6.54779e-22
4.55797e-23
0
-1.08244e-22
-5.29094e-22
-3.66465e-25
-7.74787e-21
1.56921e-21
-9.34576e-23
-6.22049e-22
-1.66394e-20
-7.74057e-20
0
3.3767e-21
-1.17108e-20
-1.49428e-19
-3.47423e-20
2.30139e-19
-1.72583e-17
2.42477e-22
0
0
0
0
-1.48429e-22
-3.11675e-22
0
-6.82702e-22
0
0
0
0
1.39609e-21
0
2.833e-21
7.01126e-22
-2.95477e-21
0
-3.32792e-21
3.55623e-21
0
0
-1.02919e-20
2.49612e-20
0
0
-1.33881e-19
2.29027e-20
0
0
0
0
5.03722e-22
0
0
-1.79745e-21
2.08251e-20
0
-1.92929e-23
0
0
7.11502e-24
1.74171e-23
-3.2904e-23
-1.21593e-22
7.8551e-23
1.11618e-22
3.67216e-23
7.49876e-23
3.08033e-22
2.02184e-22
0
0
-1.65501e-21
2.06117e-21
1.17534e-20
-5.28762e-19
1.20943e-19
0
5.21689e-20
-7.28339e-21
-7.20082e-22
0
-5.59484e-23
-5.16413e-22
-1.03721e-21
-1.40748e-21
-3.3899e-21
-1.83006e-22
1.70997e-22
-1.49455e-22
-6.74332e-22
-9.36031e-22
-4.53671e-19
0
-9.0744e-21
1.49976e-18
-5.44746e-20
5.89138e-18
1.45307e-17
0
-3.27853e-23
0
0
1.49704e-22
-2.32923e-22
-1.57487e-22
0
-1.37882e-21
0
0
0
0
1.44842e-21
0
2.19554e-21
1.55201e-21
-4.70601e-21
0
-3.29e-21
7.34889e-21
0
9.88143e-21
-1.01534e-20
2.45936e-20
-3.28583e-20
0
-8.17888e-21
-4.1663e-20
0
0
0
0
0
-7.21633e-22
0
-1.20879e-21
0
-4.85688e-20
0
3.63797e-23
0
1.65282e-25
7.73873e-23
4.03793e-23
0
-7.19698e-23
7.81979e-25
7.65892e-23
1.78531e-23
7.18012e-23
0
-3.65714e-22
0
-5.11249e-23
-6.13088e-21
1.00918e-20
-0
-1.48495e-19
-1.57313e-19
0
-2.01073e-19
5.87072e-21
2.21393e-21
5.23415e-23
9.87715e-23
-5.98532e-22
-3.28718e-24
-6.70406e-22
-2.00495e-21
-1.50515e-21
-3.14099e-22
1.40585e-21
4.61618e-22
8.21753e-20
-8.8981e-19
-2.74092e-21
7.05153e-20
2.34669e-18
-2.4279e-20
2.23824e-20
1.42714e-17
0
-3.23254e-23
0
0
1.47741e-22
-3.19478e-22
3.41086e-22
0
-6.95992e-22
0
0
0
0
2.27787e-21
0
2.33952e-21
3.16701e-21
-3.16621e-21
0
0
-4.603e-21
-9.56241e-21
-1.52624e-21
-2.71283e-20
0
-3.23368e-20
0
5.80063e-20
0
0
0
4.8442e-22
1.00219e-21
0
-1.54393e-21
0
6.07611e-20
2.62136e-20
-1.36403e-19
0
-5.06351e-24
2.56214e-23
1.05469e-22
-2.5088e-23
1.02834e-22
-2.41913e-22
1.86555e-22
0
-9.13291e-23
-1.26873e-24
0
7.10442e-23
-8.87787e-23
-3.58021e-22
2.11222e-22
-1.28091e-23
8.76334e-21
5.4308e-21
-1.35937e-20
2.71666e-19
-2.47762e-19
-2.72048e-19
-1.81672e-20
9.9454e-22
0
-2.4014e-23
-8.05828e-23
0
6.2179e-22
1.01728e-23
0
-1.75984e-21
-4.81445e-22
5.694e-21
0
1.61375e-19
-4.34951e-19
-3.92126e-19
2.63978e-19
4.38449e-18
0
0
0
-3.23425e-22
0
0
0
1.61752e-22
-1.61609e-22
3.36865e-22
0
-7.51617e-22
0
0
0
0
2.33256e-21
-1.63349e-21
3.24199e-21
1.61411e-21
0
0
0
-8.29056e-21
-2.0289e-20
-1.11221e-20
-2.67181e-20
3.38079e-20
0
0
3.36699e-20
-1.45597e-21
0
0
4.84421e-22
1.00219e-21
0
-1.77993e-21
0
0
-9.29754e-20
-8.78308e-20
-3.43025e-23
-6.18262e-24
0
0
7.1691e-23
0
1.30667e-22
-1.23033e-22
3.73508e-22
8.65811e-23
2.14585e-22
0
4.87537e-24
6.46545e-23
-7.11069e-22
8.00787e-22
3.26914e-22
0
0
0
1.46073e-19
-3.45055e-21
6.18829e-20
2.23355e-19
4.11319e-19
0
-5.9821e-22
-1.0396e-22
-7.05805e-23
1.28229e-22
0
-7.07776e-22
4.53544e-23
0
-7.50061e-22
6.6275e-21
-7.23903e-22
-9.56729e-21
0
-3.85772e-19
4.82536e-19
2.81605e-19
2.71289e-19
0
-1.11115e-17
4.03629e-22
-7.42554e-23
0
0
1.59713e-22
0
0
0
-1.52018e-21
0
0
0
0
2.48263e-21
-3.33179e-21
3.41575e-21
0
0
0
0
0
-1.07025e-20
0
0
3.32942e-20
0
0
6.92368e-21
-1.45597e-21
0
0
4.94788e-22
0
1.03004e-21
-3.26295e-21
0
0
1.34129e-19
-6.51574e-20
0
-1.09266e-23
-1.07199e-22
0
1.4333e-22
-2.66101e-22
-3.90538e-23
2.36572e-22
2.3417e-22
3.19523e-22
0
2.06095e-22
-3.0855e-23
-6.79448e-24
7.97119e-23
-4.30643e-22
0
0
-7.62151e-23
-3.29005e-21
0
1.31804e-20
8.03391e-19
6.28187e-19
5.71572e-19
-7.91259e-20
5.97987e-22
-4.00956e-22
-7.05908e-23
0
0
0
-6.41321e-22
-1.96355e-21
4.14613e-22
-1.03048e-21
6.84842e-21
0
-7.66143e-20
0
4.9346e-19
6.43332e-19
-1.75861e-18
3.07175e-19
-2.25292e-17
-1.09435e-17
0
8.12733e-23
0
0
-3.489e-22
0
3.7817e-22
0
-7.68383e-22
0
0
0
0
3.43761e-21
-1.69741e-21
1.7442e-21
0
-4.15794e-21
0
0
0
0
0
0
0
0
0
1.40264e-21
-1.3759e-21
0
0
4.94787e-22
0
1.03004e-21
-5.03885e-21
0
0
-7.53449e-21
-6.51526e-20
-2.94295e-23
0
4.64979e-24
-7.96089e-23
-1.78361e-22
4.18491e-22
-2.06499e-22
2.24894e-23
0
2.60854e-22
-9.68044e-23
9.66637e-23
2.65331e-22
-2.13605e-22
-5.41869e-23
0
4.21785e-22
-8.48364e-22
-6.02444e-22
-2.39641e-21
0
-4.41285e-20
-9.09263e-22
7.76287e-19
-3.62299e-19
0
-3.03575e-19
3.67602e-21
-6.16293e-22
9.78324e-23
0
-3.05039e-22
-1.58873e-22
-5.84509e-23
-1.32551e-21
-4.8897e-23
8.36622e-22
5.71891e-21
4.94473e-21
0
2.88884e-21
4.58222e-19
4.2189e-19
-6.8565e-20
5.70017e-20
1.82393e-17
1.83685e-17
0
1.52568e-22
0
0
-3.44657e-22
0
7.65362e-22
0
-8.35276e-22
0
0
0
0
1.75072e-21
0
3.99712e-21
4.21736e-21
-4.10938e-21
0
0
1.38425e-20
0
-3.38896e-20
0
-2.19842e-20
0
0
0
-2.82067e-21
0
0
-4.97608e-22
-7.68365e-22
0
-2.73353e-21
0
0
-6.48502e-20
3.90117e-20
-3.91001e-25
-3.37701e-23
8.59529e-25
-8.72505e-24
0
-5.24421e-22
2.74736e-22
2.22917e-23
1.81564e-23
-7.70865e-23
-9.61039e-23
9.59255e-23
8.04764e-23
-1.00275e-23
-4.69131e-23
4.26369e-23
4.21478e-22
-1.49887e-21
-2.96186e-21
0
0
-3.26659e-21
-0
-3.13004e-20
0
-3.39691e-19
-5.86488e-19
0
-1.18176e-21
3.17221e-22
1.67003e-22
2.33255e-22
-1.39977e-22
0
1.28252e-22
0
2.53061e-21
1.22927e-21
-1.79728e-21
0
-1.87278e-21
0
5.06701e-20
-3.46803e-20
1.06338e-18
-1.91945e-19
-1.72069e-17
2.36967e-18
0
0
0
0
0
0
3.87098e-22
0
-1.69384e-21
0
-9.15963e-22
-1.87977e-21
0
1.97702e-21
0
3.95172e-21
4.16848e-21
0
1.15338e-20
0
1.3637e-20
3.43634e-20
2.82583e-22
0
-2.18511e-20
-4.37991e-19
0
0
-1.44477e-21
0
0
-4.97609e-22
-1.45522e-21
0
0
-4.45587e-21
0
0
3.81539e-20
2.89806e-25
-4.59977e-24
-3.64567e-24
-1.47102e-23
9.04778e-24
-3.54426e-23
-3.18775e-22
0
1.80059e-23
-6.30525e-23
0
-4.98138e-22
0
5.73898e-22
-6.34281e-22
2.78139e-22
-6.93807e-23
1.00674e-23
-1.02437e-21
-1.14903e-21
0
5.04927e-21
0
9.59081e-22
-6.8239e-20
0
-9.54968e-19
0
1.43057e-19
-1.93967e-20
5.92983e-22
-3.22816e-22
-3.16388e-22
3.68822e-22
-1.84297e-22
0
-1.44197e-22
7.17283e-22
-7.28795e-22
4.76406e-22
5.24147e-21
0
4.96783e-19
3.48328e-20
-2.92503e-20
1.83912e-18
-1.22699e-19
-1.70565e-18
-2.51541e-18
0
0
0
0
-3.91364e-22
0
0
0
-1.76239e-21
0
-9.05791e-22
-1.85893e-21
0
4.0608e-21
-4.39938e-21
4.6823e-21
0
0
1.1379e-20
0
-3.4108e-20
1.01625e-19
6.47158e-20
0
-2.71432e-19
-1.87779e-21
0
2.3731e-21
0
0
0
0
5.1631e-22
0
-4.29983e-21
-4.4559e-21
-5.47971e-20
0
0
-3.34017e-24
-5.27455e-24
1.83266e-22
-2.26216e-23
8.93294e-24
-5.93607e-22
5.13254e-22
0
0
6.89612e-22
5.74684e-22
4.68097e-23
-1.78148e-23
9.57072e-23
3.00322e-22
-4.74053e-22
-1.25938e-22
-1.34242e-22
4.74894e-22
2.17766e-21
-8.92693e-22
0
-1.1186e-21
2.58063e-20
-1.34014e-20
1.16676e-19
-1.43002e-18
-4.54044e-19
0
-6.2022e-20
-4.0343e-20
-1.40177e-22
6.60088e-23
-4.82482e-22
5.5249e-22
4.10363e-22
-1.44239e-22
9.22386e-22
-1.98123e-21
-1.00063e-21
4.85073e-21
-4.72404e-20
0
4.63449e-19
3.9832e-20
0
1.55261e-18
-4.10932e-21
1.01947e-17
1.28489e-17
0
0
0
0
-3.86819e-22
0
0
0
-2.7824e-21
0
0
0
0
-1.73441e-22
-4.349e-21
9.81414e-21
0
0
0
0
-6.77705e-20
1.33309e-19
-4.63051e-21
0
-4.75733e-21
0
0
2.37309e-21
0
0
9.41289e-22
0
1.20317e-21
-2.58643e-21
-1.4286e-20
0
1.04245e-19
0
-2.56643e-20
0
1.11233e-22
0
1.16969e-22
3.41545e-22
-6.68375e-22