/*--------------------------------*- C++ -*----------------------------------*\
| =========                 |                                                 |
| \\      /  F ield         | OpenFOAM: The Open Source CFD Toolbox           |
|  \\    /   O peration     | Version:  v2012                                 |
|   \\  /    A nd           | Website:  www.openfoam.com                      |
|    \\/     M anipulation  |                                                 |
\*---------------------------------------------------------------------------*/
FoamFile
{
    version     2.0;
    format      ascii;
    class       volSymmTensorField;
    location    "13200";
    object      Sp;
}
// * * * * * * * * * * * * * * * * * * * * * * * * * * * * * * * * * * * * * //

dimensions      [0 0 -1 0 0 0 0];


internalField   nonuniform List<symmTensor> 
31383
(
(-5228.78 1.20104e+06 0 9274.57 0 -4045.79)
(-1.35024 5.00404e+06 0 1.88987 0 -0.539638)
(-5238.4 1.2862e+06 0 9218 0 -3979.6)
(-2.52515 4.82609e+06 0 3.57161 0 -1.04647)
(-1.37364 5.01405e+06 0 0.90066 0 0.472984)
(-5173.21 1.27704e+06 0 9105.59 0 -3932.38)
(-0.624584 4.69379e+06 0 0.0821588 0 0.542425)
(-5.49514 4.83562e+06 0 6.52824 0 -1.0331)
(-1.87349 5.02522e+06 0 1.44063 0 0.432859)
(-5103.68 1.27379e+06 0 8982.59 0 -3878.91)
(-0.950489 4.5935e+06 0 0.933399 0 0.0170902)
(-3.43621 4.70288e+06 0 3.3501 0 0.0861145)
(-8.9124 4.84615e+06 0 10.3163 0 -1.40391)
(-1.64983 5.03721e+06 0 1.12536 0 0.524478)
(-5029.98 1.28136e+06 -2.65148e-19 8848.78 -1.32671e-21 -3818.79)
(-2.0488 4.51081e+06 0 3.24565 0 -1.19685)
(-2.93349 4.60228e+06 0 2.94677 0 -0.0132773)
(-6.01733 4.71295e+06 0 6.10666 0 -0.0893265)
(-12.573 4.85745e+06 8.99775e-19 14.4888 9.47291e-25 -1.91587)
(-1.13676 5.04853e+06 0 0.650817 0 0.485945)
(-4951.41 1.28872e+06 2.54341e-19 8702.58 1.2564e-21 -3751.18)
(-1.6299 4.4405e+06 0 2.49707 0 -0.867174)
(-3.30124 4.51926e+06 0 4.03073 0 -0.72949)
(-5.06273 4.61194e+06 0 5.20968 0 -0.146954)
(-8.594 4.72372e+06 0 8.77288 0 -0.178877)
(-16.4142 4.8682e+06 -8.60204e-19 18.8814 -9.0563e-25 -2.46719)
(-0.732991 5.05534e+06 1.25453e-18 0.534106 9.92432e-26 0.198885)
(-4863.99 1.2876e+06 0 8540.26 0 -3676.27)
(-1.26662 4.38067e+06 0 1.84683 0 -0.580208)
(-2.86299 4.44869e+06 0 3.42313 0 -0.560137)
(-4.93234 4.52858e+06 0 5.53495 0 -0.602606)
(-7.2368 4.62224e+06 0 7.49449 0 -0.257694)
(-11.3535 4.73401e+06 0 11.6921 0 -0.338625)
(-20.4757 4.87496e+06 0 23.5371 0 -3.06136)
(0.6275 5.04911e+06 -1.17801e-18 -0.688261 -9.3277e-26 0.0607614)
(-4768.7 1.28724e+06 0 8361.03 0 -3592.34)
(-0.678178 4.32928e+06 0 0.727674 0 -0.0494965)
(-2.50167 4.38868e+06 0 2.93105 0 -0.42938)
(-4.38267 4.45773e+06 0 4.88948 0 -0.506818)
(-6.84253 4.53854e+06 0 7.53821 0 -0.69568)
(-9.53007 4.6322e+06 0 9.92397 0 -0.3939)
(-14.2301 4.74076e+06 0 14.7064 0 -0.476333)
(-24.7835 4.87024e+06 0 28.4842 0 -3.7007)
(3.14783 5.01501e+06 -1.54461e-18 -3.5162 1.82792e-26 0.368368)
(-4662.83 1.2893e+06 0 8160.81 0 -3497.98)
(-0.753629 4.28395e+06 0 0.922942 0 -0.169314)
(-2.04582 4.33708e+06 0 2.19374 0 -0.147924)
(-3.93894 4.39747e+06 0 4.38983 0 -0.450888)
(-6.1135 4.46739e+06 0 6.72412 0 -0.610616)
(-8.85431 4.54819e+06 0 9.66262 0 -0.808309)
(-11.9331 4.6389e+06 -1.343e-18 12.4574 -1.01205e-24 -0.524313)
(-17.2716 4.73716e+06 0 17.8897 0 -0.618137)
(-29.3362 4.84015e+06 0 33.7242 0 -4.388)
(5.76095 4.9324e+06 1.43021e-18 -5.85715 -1.69341e-26 0.0961972)
(-4543.69 1.29973e+06 0 7932.19 0 -3388.5)
(-1.01016 4.2439e+06 0 1.46959 0 -0.459427)
(-1.94897 4.2916e+06 0 2.13416 0 -0.185195)
(-3.48124 4.34565e+06 0 3.76767 0 -0.286421)
(-5.51859 4.40683e+06 0 6.08455 0 -0.56596)
(-7.92683 4.47674e+06 0 8.64976 0 -0.72293)
(-10.9875 4.55481e+06 0 11.9256 0 -0.938101)
(-14.4781 4.63599e+06 1.26107e-18 15.1399 9.50312e-25 -0.661737)
(-20.4796 4.71049e+06 1.60569e-18 21.248 1.94544e-24 -0.768461)
(-34.1269 4.76327e+06 0 39.2817 0 -5.15477)
(7.93484 4.76761e+06 0 -7.64524 0 -0.289609)
(-4402.68 1.34732e+06 0 7659.17 0 -3256.48)
(-1.02081 4.20753e+06 0 1.5171 0 -0.496292)
(-2.00921 4.25138e+06 0 2.35567 0 -0.346459)
(-3.26198 4.29999e+06 0 3.55438 0 -0.2924)
(-4.92434 4.35482e+06 0 5.31265 0 -0.388312)
(-7.14435 4.41594e+06 0 7.80599 0 -0.661636)
(-9.85109 4.48327e+06 0 10.7039 0 -0.852805)
(-13.2552 4.55243e+06 0 14.3383 0 -1.08306)
(-17.1665 4.61164e+06 0 17.9728 0 -0.806363)
(-23.8061 4.64081e+06 -1.48679e-18 24.7262 -1.80138e-24 -0.920078)
(-39.069 4.61421e+06 0 45.0368 0 -5.96783)
(9.11714 4.50216e+06 0 -9.08447 0 -0.0326727)
(-4189.85 1.40608e+06 -4.19846e-18 7228.15 -1.69731e-20 -3038.3)
(-1.0915 4.17478e+06 0 1.68167 0 -0.590171)
(-1.87226 4.2149e+06 0 2.16134 0 -0.289078)
(-3.18553 4.2596e+06 0 3.57192 0 -0.386393)
(-4.61176 4.30893e+06 0 5.0077 0 -0.395944)
(-6.42196 4.36374e+06 0 6.90608 0 -0.484121)
(-8.86817 4.4224e+06 0 9.63881 0 -0.770645)
(-11.895 4.48132e+06 0 12.8917 0 -0.996636)
(-15.6548 4.52992e+06 0 16.8942 0 -1.23934)
(-19.9688 4.54697e+06 0 20.9299 0 -0.961156)
(-27.1629 4.50433e+06 0 28.2476 0 -1.08471)
(-43.7954 4.37423e+06 0 50.6439 0 -6.84858)
(4.70777 4.14761e+06 0 -6.40308 0 1.69531)
(-3941.62 1.38471e+06 -4.83597e-19 6745.88 -1.66765e-21 -2804.26)
(-1.08981 4.14485e+06 0 1.69821 0 -0.608403)
(-1.89323 4.182e+06 0 2.27291 0 -0.379679)
(-2.94883 4.22298e+06 0 3.23211 0 -0.283281)
(-4.48266 4.26838e+06 0 4.99151 0 -0.508852)
(-6.01827 4.31766e+06 0 6.51693 0 -0.498658)
(-8.00545 4.3701e+06 0 8.59504 0 -0.58959)
(-10.6908 4.42083e+06 0 11.5735 0 -0.88266)
(-14.0539 4.4603e+06 0 15.1995 0 -1.14558)
(-18.1542 4.46941e+06 0 19.5554 0 -1.40116)
(-22.8055 4.4186e+06 0 23.9341 0 -1.12864)
(-30.3945 4.28125e+06 0 31.6576 0 -1.26311)
(-48.0939 4.04424e+06 0 55.7912 0 -7.69729)
(-3.85295 3.73037e+06 0 0.0661036 0 3.78685)
(-3685.74 1.37583e+06 4.09607e-18 6254.73 1.46659e-20 -2568.99)
(-0.887797 4.11774e+06 0 1.31526 0 -0.427458)
(-1.88974 4.15198e+06 0 2.32617 0 -0.436433)
(-2.9064 4.18993e+06 0 3.2649 0 -0.358502)
(-4.23462 4.23159e+06 0 4.68488 0 -0.45026)
(-5.83094 4.27696e+06 0 6.45997 0 -0.629033)
(-7.50334 4.32397e+06 0 8.11335 0 -0.610005)
(-9.67824 4.3688e+06 0 10.3728 0 -0.69456)
(-12.6216 4.401e+06 0 13.6248 0 -1.00321)
(-16.3135 4.40384e+06 0 17.6196 0 -1.30607)
(-20.6576 4.34794e+06 0 22.2239 0 -1.56632)
(-25.5713 4.2072e+06 0 26.8708 0 -1.29955)
(-33.3239 3.96914e+06 -1.53617e-17 34.7595 -3.36158e-23 -1.4356)
(-52.0695 3.64867e+06 0 60.7414 0 -8.6719)
(-17.2788 3.29363e+06 -1.45979e-17 11.5313 3.75339e-24 5.74757)
(-3460 1.34154e+06 -4.78506e-18 5807.98 -1.57285e-20 -2347.97)
(-0.709849 4.09312e+06 0 0.982274 0 -0.272424)
(-1.74317 4.12477e+06 0 2.0971 0 -0.35393)
(-2.90008 4.15981e+06 0 3.35426 0 -0.45418)
(-4.12213 4.19843e+06 0 4.62673 0 -0.504596)
(-5.56355 4.24e+06 0 6.17377 0 -0.610219)
(-7.25265 4.28318e+06 0 8.00738 0 -0.754735)
(-9.07487 4.32288e+06 0 9.79823 0 -0.723364)
(-11.4505 4.34999e+06 0 12.2577 0 -0.807222)
(-14.6448 4.34647e+06 0 15.7793 0 -1.1346)
(-18.6139 4.29027e+06 0 20.0912 0 -1.47737)
(-23.0273 4.14637e+06 0 24.7568 0 -1.7295)
(-28.0893 3.90947e+06 0 29.5555 0 -1.46624)
(-35.8639 3.59035e+06 1.39753e-17 37.4655 3.05819e-23 -1.60162)
(-54.2291 3.2278e+06 0 62.5043 0 -8.27525)
(-38.174 2.87908e+06 1.32142e-17 27.8707 -3.40718e-24 10.3033)
(-3243.47 1.18477e+06 4.32566e-18 5424.32 1.39375e-20 -2180.85)
(-0.475059 4.07102e+06 0 0.533003 0 -0.0579432)
(-1.59234 4.10008e+06 0 1.86417 0 -0.271828)
(-2.75321 4.13246e+06 0 3.1682 0 -0.414985)
(-4.06723 4.16815e+06 0 4.66132 0 -0.594094)
(-5.40381 4.20672e+06 0 6.07235 0 -0.668538)
(-6.9524 4.24618e+06 0 7.71716 0 -0.764764)
(-8.75811 4.28226e+06 0 9.64441 0 -0.886299)
(-10.7389 4.30491e+06 0 11.5825 0 -0.84363)
(-13.3063 4.29773e+06 0 14.2328 0 -0.926484)
(-16.7411 4.23578e+06 0 18.0198 0 -1.27867)
(-20.8346 4.09658e+06 0 22.4739 0 -1.63936)
(-25.2419 3.86036e+06 0 27.1222 0 -1.88038)
(-30.2541 3.54441e+06 0 31.8725 0 -1.61846)
(-38.0105 3.18248e+06 0 39.772 0 -1.76145)
(-53.7314 2.82261e+06 0 59.1994 0 -5.46797)
(-57.6467 2.50243e+06 -1.3816e-17 41.6592 -4.55804e-24 15.9875)
(-3052.27 1.04883e+06 -4.66433e-18 5085.27 -1.47768e-20 -2033)
(-0.342982 4.05081e+06 0 0.287692 0 0.0552896)
(-1.3888 4.07788e+06 0 1.51854 0 -0.12974)
(-2.59132 4.10768e+06 0 2.95986 0 -0.368536)
(-3.86589 4.14071e+06 0 4.41158 0 -0.545684)
(-5.28709 4.17635e+06 0 6.0282 0 -0.741103)
(-6.73342 4.21283e+06 0 7.55379 0 -0.820364)
(-8.41277 4.24548e+06 0 9.33122 0 -0.918452)
(-10.349 4.26509e+06 0 11.372 0 -1.023)
(-12.4816 4.25459e+06 0 13.4523 0 -0.970762)
(-15.1975 4.1911e+06 0 16.2469 0 -1.04938)
(-18.8319 4.04986e+06 0 20.2568 0 -1.42496)
(-22.8627 3.81825e+06 0 24.6575 0 -1.79479)
(-27.1685 3.50621e+06 0 29.1884 0 -2.01993)
(-32.0865 3.14663e+06 0 33.8424 0 -1.75591)
(-39.8966 2.78595e+06 0 41.7834 0 -1.8868)
(-52.884 2.45307e+06 0 55.3116 0 -2.42762)
(-77.0615 2.15993e+06 -1.40525e-17 54.2263 -1.5657e-23 22.8353)
(-2916.24 949879 4.41853e-18 4810.32 1.31432e-20 -1894.09)
(-0.299403 4.03263e+06 0 0.218631 0 0.0807729)
(-1.27508 4.05763e+06 0 1.34766 0 -0.0725776)
(-2.39174 4.0854e+06 0 2.66437 0 -0.272626)
(-3.64607 4.11581e+06 0 4.13712 0 -0.491049)
(-5.02904 4.14881e+06 8.70043e-19 5.71293 4.10127e-25 -0.683894)
(-6.57172 4.18241e+06 9.66895e-19 7.46691 5.81311e-25 -0.895192)
(-8.15075 4.21227e+06 0 9.13772 0 -0.986969)
(-9.96985 4.22929e+06 0 11.0598 0 -1.08992)
(-11.9919 4.2165e+06 0 13.1484 0 -1.1565)
(-14.2689 4.15183e+06 0 15.3804 0 -1.11152)
(-17.027 4.01064e+06 0 18.2002 0 -1.1732)
(-20.7064 3.78193e+06 1.76911e-17 22.2786 2.81454e-23 -1.57214)
(-24.6198 3.47365e+06 0 26.5511 0 -1.93134)
(-28.7723 3.11676e+06 0 30.9015 0 -2.12927)
(-33.6968 2.75677e+06 0 35.564 0 -1.86726)
(-41.5962 2.42345e+06 0 43.5805 0 -1.98429)
(-53.0256 2.11785e+06 0 53.5657 0 -0.540092)
(-96.1923 1.85192e+06 1.12658e-17 66.2753 2.23191e-24 29.9171)
(-2847.19 895359 0 4605.54 0 -1758.34)
(-0.33386 4.01601e+06 0 0.303242 0 0.0306189)
(-1.20057 4.03939e+06 0 1.25316 0 -0.0525946)
(-2.24176 4.06507e+06 0 2.46097 0 -0.21921)
(-3.40579 4.09345e+06 0 3.80371 0 -0.39792)
(-4.74893 4.1238e+06 0 5.36746 0 -0.61853)
(-6.24902 4.15483e+06 -8.23943e-19 7.07022 -3.88396e-25 -0.821196)
(-7.92995 4.182e+06 -9.07914e-19 8.98371 -5.4585e-25 -1.05376)
(-9.64742 4.19636e+06 0 10.8082 0 -1.16073)
(-11.597 4.18356e+06 0 12.8658 0 -1.26878)
(-13.6344 4.11644e+06 0 14.9406 0 -1.30624)
(-16.0112 3.97741e+06 0 17.2614 0 -1.25012)
(-18.7105 3.74947e+06 0 20.0062 0 -1.29574)
(-22.3162 3.4454e+06 -1.60944e-17 24.0075 -2.56052e-23 -1.69124)
(-26.0736 3.09234e+06 0 28.1108 0 -2.03723)
(-30.148 2.7332e+06 1.60651e-17 32.3704 4.38748e-23 -2.22243)
(-35.1183 2.40042e+06 0 37.0756 0 -1.95731)
(-43.0589 2.09512e+06 0 45.1382 0 -2.07933)
(-53.6688 1.81605e+06 0 53.0462 0 0.622624)
(-113.975 1.58148e+06 -1.25297e-17 77.4588 -2.91021e-23 36.5163)
(-2787.14 829526 -1.06723e-17 4427.04 -2.68722e-20 -1639.9)
(-0.278778 4.00094e+06 0 0.208015 0 0.0707637)
(-1.16365 4.02271e+06 0 1.2272 0 -0.0635462)
(-2.13088 4.04677e+06 0 2.33024 0 -0.199353)
(-3.20479 4.073e+06 0 3.5379 0 -0.333105)
(-4.46931 4.10136e+06 0 5.00052 0 -0.531211)
(-5.91162 4.12979e+06 0 6.66495 0 -0.75333)
(-7.54595 4.15453e+06 0 8.51735 0 -0.971408)
(-9.37153 4.16667e+06 0 10.5954 0 -1.22387)
(-11.229 4.15078e+06 0 12.5697 0 -1.34066)
(-13.2185 4.08625e+06 0 14.6305 0 -1.41196)
(-15.2997 3.94563e+06 0 16.7546 0 -1.45481)
(-17.6172 3.7223e+06 0 18.9903 0 -1.37308)
(-20.2025 3.42026e+06 0 21.6104 0 -1.40783)
(-23.674 3.07105e+06 0 25.4632 0 -1.78917)
(-27.2664 2.71425e+06 0 29.3868 0 -2.12037)
(-31.3369 2.3819e+06 1.07539e-18 33.6303 8.10947e-24 -2.29343)
(-36.3378 2.07737e+06 0 38.3833 0 -2.04556)
(-44.3051 1.79868e+06 -2.66262e-17 46.4721 -1.23056e-22 -2.16698)
(-54.5056 1.54976e+06 0 53.0318 0 1.47379)
(-130.11 1.34748e+06 -9.9079e-19 87.7936 -1.67196e-23 42.3162)
(-2728.85 767089 -5.35797e-19 4258.33 -2.02134e-21 -1529.48)
(-0.677395 3.98723e+06 0 1.01797 0 -0.340572)
(-1.09793 4.00757e+06 0 1.14178 0 -0.0438468)
(-2.06581 4.03003e+06 0 2.27926 0 -0.213451)
(-3.05019 4.05462e+06 0 3.35792 0 -0.307736)
(-4.22199 4.08083e+06 0 4.68473 0 -0.46274)
(-5.57952 4.10732e+06 0 6.24133 0 -0.661814)
(-7.1448 4.12964e+06 0 8.04227 0 -0.897469)
(-8.91695 4.13971e+06 0 10.0447 0 -1.12774)
(-10.8745 4.12236e+06 0 12.2724 0 -1.39784)
(-12.8793 4.05605e+06 0 14.3976 0 -1.51834)
(-14.8358 3.91849e+06 0 16.4191 0 -1.58336)
(-16.8772 3.69601e+06 0 18.4813 0 -1.60417)
(-19.0294 3.39829e+06 0 20.5174 0 -1.488)
(-21.4629 3.05197e+06 0 22.9628 0 -1.4999)
(-24.7907 2.6978e+06 1.73749e-17 26.6664 3.96222e-23 -1.87561)
(-28.3333 2.36642e+06 0 30.5184 0 -2.18509)
(-32.4015 2.06289e+06 9.31358e-19 34.749 8.37422e-24 -2.34751)
(-37.4204 1.78476e+06 -1.37853e-17 39.558 -5.55727e-23 -2.1376)
(-45.4044 1.53588e+06 2.39676e-17 47.6611 1.10769e-22 -2.25673)
(-55.5022 1.31854e+06 2.30095e-17 53.3907 1.77285e-22 2.11156)
(-145.047 1.14725e+06 -2.18969e-17 97.6224 -8.68736e-23 47.4244)
(-2672.55 710050 3.33496e-17 4096.75 7.34161e-20 -1424.2)
(-1.56724 3.97479e+06 0 2.80892 0 -1.24168)
(-1.27692 3.99381e+06 0 1.53767 0 -0.260749)
(-1.98181 4.01485e+06 0 2.18736 0 -0.205548)
(-2.94984 4.03782e+06 -4.50441e-19 3.27187 -1.08804e-25 -0.322034)
(-4.01794 4.06239e+06 0 4.44751 0 -0.42957)
(-5.28265 4.08679e+06 0 5.87067 0 -0.588019)
(-6.75603 4.10728e+06 0 7.55554 0 -0.799507)
(-8.42995 4.11525e+06 0 9.45898 0 -1.02903)
(-10.346 4.09659e+06 0 11.6312 0 -1.28514)
(-12.4055 4.03004e+06 0 13.9798 0 -1.57436)
(-14.4597 3.8934e+06 0 16.1745 0 -1.7148)
(-16.3058 3.6737e+06 0 18.0516 0 -1.74583)
(-18.2397 3.37866e+06 0 19.9799 0 -1.74016)
(-20.1988 3.03517e+06 0 21.7805 0 -1.58175)
(-22.5117 2.68265e+06 0 24.0906 0 -1.57887)
(-25.7949 2.35279e+06 1.17726e-18 27.7245 7.41896e-24 -1.92954)
(-29.3041 2.05034e+06 0 31.5402 0 -2.23607)
(-33.335 1.77345e+06 8.00683e-19 35.7507 8.61575e-24 -2.41571)
(-38.3827 1.52505e+06 -6.54027e-19 40.6292 -9.19377e-24 -2.24655)
(-46.3984 1.30729e+06 0 48.7535 0 -2.35505)
(-56.6008 1.12046e+06 -2.0682e-17 53.9696 -1.59352e-22 2.63126)
(-159.397 977586 1.81947e-17 107.328 4.11905e-23 52.0684)
(-2621.24 654341 9.14088e-19 3948.26 3.68468e-21 -1327.01)
(-2.3885 3.96344e+06 0 4.46188 0 -2.07337)
(-1.7315 3.98132e+06 0 2.48015 0 -0.748642)
(-1.99476 4.00102e+06 0 2.27833 0 -0.283568)
(-2.81456 4.02261e+06 0 3.10875 0 -0.294196)
(-3.864 4.04553e+06 4.30631e-19 4.2892 1.04019e-25 -0.425204)
(-5.02931 4.0683e+06 0 5.57723 0 -0.547927)
(-6.40418 4.08681e+06 0 7.12113 0 -0.716953)
(-8.00099 4.09327e+06 -1.36467e-18 8.94416 -8.87096e-25 -0.943169)
(-9.80102 4.07335e+06 0 10.9895 0 -1.18853)
(-11.801 4.0063e+06 0 13.253 0 -1.45196)
(-13.8994 3.87073e+06 0 15.6494 0 -1.74999)
(-15.8959 3.65377e+06 1.09373e-17 17.7863 1.48872e-23 -1.89038)
(-17.5627 3.36124e+06 0 19.441 0 -1.87835)
(-19.3458 3.02087e+06 0 21.1955 0 -1.84966)
(-21.1533 2.66973e+06 1.88991e-17 22.8115 3.7258e-23 -1.65817)
(-23.4523 2.34032e+06 -1.75971e-17 25.0859 -4.05351e-23 -1.6336)
(-26.7014 2.03949e+06 1.02049e-18 28.6769 7.66871e-24 -1.97544)
(-30.1436 1.76374e+06 0 32.4341 0 -2.2905)
(-34.166 1.51611e+06 6.84498e-19 36.6592 8.83833e-24 -2.4932)
(-39.2591 1.29861e+06 -5.56917e-19 41.6296 -9.43485e-24 -2.37048)
(-47.3152 1.11114e+06 0 49.7721 0 -2.45682)
(-57.7767 952755 -4.01925e-17 54.69 -3.61944e-22 3.08671)
(-173.183 835044 1.76295e-17 116.933 7.35287e-23 56.2497)
(-2574.09 599974 -4.51572e-17 3811.82 -9.01996e-20 -1237.73)
(-2.62519 3.95311e+06 0 4.94422 0 -2.31903)
(-2.16404 3.96995e+06 0 3.37761 0 -1.21357)
(-2.24414 3.98848e+06 0 2.83513 0 -0.590984)
(-2.80546 4.00871e+06 0 3.18145 0 -0.375989)
(-3.68115 4.03024e+06 0 4.06257 0 -0.38142)
(-4.83079 4.0514e+06 0 5.36598 0 -0.535188)
(-6.09836 4.06839e+06 0 6.76768 0 -0.669311)
(-7.59408 4.07316e+06 0 8.44814 0 -0.85406)
(-9.30299 4.05206e+06 1.26362e-18 10.3938 8.2141e-25 -1.09081)
(-11.2044 3.98566e+06 0 12.5642 0 -1.35977)
(-13.194 3.85011e+06 0 14.814 0 -1.61999)
(-15.2984 3.63507e+06 0 17.2303 0 -1.93181)
(-17.1092 3.34597e+06 -9.95016e-18 19.1306 -1.35436e-23 -2.02139)
(-18.6226 3.00758e+06 0 20.6229 0 -2.00035)
(-20.2598 2.65879e+06 0 22.1927 0 -1.93296)
(-21.9879 2.32981e+06 -1.70761e-17 23.6998 -3.36641e-23 -1.71189)
(-24.291 2.02958e+06 1.58755e-17 25.9694 3.65693e-23 -1.67837)
(-27.4889 1.75541e+06 -1.46384e-17 29.5148 -4.20437e-23 -2.02583)
(-30.8876 1.50861e+06 0 33.2478 0 -2.36026)
(-34.9172 1.29158e+06 -1.22046e-17 37.51 -5.2463e-23 -2.59285)
(-40.0697 1.10404e+06 -1.20081e-17 42.5844 -7.56956e-23 -2.51471)
(-48.1733 944821 0 50.7345 0 -2.56118)
(-59.0151 813042 -1.25854e-18 55.5178 -4.02624e-23 3.49732)
(-186.215 716505 -3.38069e-17 126.296 -2.21017e-22 59.9195)
(-2528.89 547905 -7.65402e-19 3683.82 -3.37978e-21 -1154.94)
(-2.26037 3.94356e+06 0 4.22118 0 -1.96082)
(-2.25695 3.95959e+06 0 3.58899 0 -1.33204)
(-2.49698 3.97706e+06 0 3.39427 0 -0.897295)
(-2.99528 3.99614e+06 0 3.6424 0 -0.647116)
(-3.62158 4.0163e+06 0 4.06324 0 -0.441662)
(-4.60027 4.03609e+06 -6.68411e-19 5.08111 -2.47485e-25 -0.480839)
(-5.85156 4.05159e+06 0 6.5007 0 -0.649138)
(-7.22944 4.05507e+06 0 8.0263 0 -0.796862)
(-8.83366 4.03277e+06 0 9.82454 0 -0.99088)
(-10.6603 3.96533e+06 0 11.9131 0 -1.25276)
(-12.5558 3.83222e+06 0 14.0584 0 -1.50267)
(-14.5014 3.61832e+06 0 16.2793 0 -1.77799)
(-16.5141 3.33165e+06 1.15953e-17 18.6102 1.76595e-23 -2.09614)
(-18.1338 2.99633e+06 0 20.2848 0 -2.15101)
(-19.4769 2.64871e+06 0 21.565 0 -2.08811)
(-21.0312 2.32092e+06 9.59781e-18 23.0314 2.12606e-23 -2.00015)
(-22.7397 2.02113e+06 1.7692e-17 24.4899 4.40035e-23 -1.75015)
(-25.0279 1.74779e+06 0 26.7525 0 -1.72462)
(-28.1744 1.50215e+06 0 30.2603 0 -2.08592)
(-31.5567 1.28566e+06 0 34.0041 0 -2.44743)
(-35.6131 1.09841e+06 0 38.3225 0 -2.70938)
(-40.8391 938866 2.07248e-17 43.5099 1.1863e-22 -2.6708)
(-49.009 805885 0 51.6826 0 -2.67366)
(-60.2529 697820 6.81377e-17 56.3941 6.96468e-22 3.85876)
(-198.5 618379 3.03392e-17 135.58 2.00112e-22 62.9196)
(-2483.78 499013 6.74316e-17 3560.95 1.27707e-19 -1077.16)
(-1.72549 3.93477e+06 0 3.15737 0 -1.43189)
(-2.03709 3.95001e+06 0 3.16904 0 -1.13195)
(-2.52113 3.96664e+06 0 3.48589 0 -0.964759)
(-3.18042 3.98466e+06 0 4.0887 0 -0.908282)
(-3.76041 4.00368e+06 0 4.44886 0 -0.688448)
(-4.49585 4.02214e+06 0 5.02002 0 -0.524166)
(-5.57147 4.03632e+06 6.27642e-19 6.15301 2.3239e-25 -0.581543)
(-6.93052 4.03851e+06 0 7.69649 0 -0.765972)
(-8.41707 4.0154e+06 0 9.34657 0 -0.929507)
(-10.1126 3.94776e+06 0 11.2526 0 -1.14002)
(-12.0081 3.81445e+06 0 13.422 0 -1.41396)
(-13.8328 3.60312e+06 0 15.4978 0 -1.66504)
(-15.6575 3.3188e+06 0 17.5846 0 -1.92709)
(-17.4844 2.98593e+06 -1.05203e-17 19.6971 -1.60222e-23 -2.21264)
(-18.9479 2.64015e+06 1.07935e-17 21.2197 2.10218e-23 -2.27173)
(-20.2278 2.31309e+06 0 22.3936 0 -2.1658)
(-21.7188 2.01405e+06 5.88107e-19 23.7597 3.76692e-24 -2.04096)
(-23.3918 1.74113e+06 -1.5942e-17 25.1845 -3.9651e-23 -1.79277)
(-25.6723 1.49635e+06 0 27.4505 0 -1.77823)
(-28.7857 1.28056e+06 2.77591e-17 30.9455 1.11979e-22 -2.15989)
(-32.184 1.09361e+06 0 34.7352 0 -2.5512)
(-36.2723 934185 0 39.1159 0 -2.84361)
(-41.5893 800716 0 44.4334 0 -2.84419)
(-49.8819 691167 0 52.6903 0 -2.80842)
(-61.5644 601758 9.31486e-19 57.469 4.13097e-23 4.09537)
(-209.869 536294 0 144.408 0 65.4609)
(-2437.4 453954 -8.80982e-17 3440.29 -1.62104e-19 -1002.89)
(-1.50355 3.92663e+06 0 2.71963 0 -1.21608)
(-1.73034 3.94119e+06 0 2.57624 0 -0.845905)
(-2.33212 3.95707e+06 0 3.142 0 -0.809881)
(-3.15375 3.9742e+06 0 4.09962 0 -0.945863)
(-3.9317 3.99217e+06 0 4.88966 0 -0.957961)
(-4.58359 4.00948e+06 0 5.33033 0 -0.746739)
(-5.42146 4.02242e+06 0 6.03173 0 -0.610261)
(-6.60597 4.02347e+06 0 7.29704 0 -0.691066)
(-8.06894 3.99946e+06 0 8.95984 0 -0.890897)
(-9.63798 3.9315e+06 0 10.7082 0 -1.07026)
(-11.37 3.79937e+06 0 12.6653 0 -1.29534)
(-13.2186 3.5891e+06 0 14.7871 0 -1.5685)
(-14.9449 3.30702e+06 0 16.756 0 -1.81107)
(-16.6054 2.97652e+06 0 18.6604 0 -2.05499)
(-18.2807 2.63246e+06 0 20.608 0 -2.32728)
(-19.6402 2.30605e+06 7.46318e-19 21.9833 3.93644e-24 -2.34307)
(-20.8845 2.00771e+06 0 23.1067 0 -2.2222)
(-22.3176 1.73576e+06 5.06844e-19 24.4004 3.86658e-24 -2.08284)
(-23.9714 1.49113e+06 1.60464e-17 25.816 5.00958e-23 -1.84463)
(-26.2459 1.2761e+06 0 28.0891 0 -1.84327)
(-29.3497 1.0895e+06 -2.49514e-17 31.6034 -1.00653e-22 -2.25371)
(-32.7733 930260 0 35.4447 0 -2.67138)
(-36.9176 796607 2.0822e-17 39.9153 1.40542e-22 -2.99764)
(-42.3622 686491 0 45.3973 0 -3.03503)
(-50.7997 595679 0 53.7684 0 -2.96868)
(-63.0422 520533 -8.77194e-17 58.8251 -1.08602e-21 4.21708)
(-220.463 466650 -5.3089e-17 152.966 -6.47906e-22 67.4971)
(-2388.3 413592 -1.15554e-18 3318.49 -5.93524e-21 -930.186)
(-2.25142 3.91904e+06 0 4.2221 0 -1.97067)
(-1.59779 3.93302e+06 0 2.32761 0 -0.729821)
(-2.08446 3.94819e+06 0 2.67923 0 -0.594771)
(-2.96317 3.96458e+06 0 3.76565 0 -0.802478)
(-3.83868 3.98168e+06 0 4.78703 0 -0.948349)
(-4.74304 3.99797e+06 0 5.77291 0 -1.02988)
(-5.45604 4.0098e+06 0 6.26516 0 -0.80912)
(-6.40635 4.00978e+06 0 7.1104 0 -0.704053)
(-7.69396 3.98499e+06 0 8.50158 0 -0.807615)
(-9.23743 3.91668e+06 0 10.2568 0 -1.01933)
(-10.8602 3.78467e+06 0 12.0684 0 -1.20819)
(-12.5362 3.57667e+06 0 13.957 0 -1.42084)
(-14.2748 3.29633e+06 0 15.9814 0 -1.70654)
(-15.8459 2.96782e+06 -1.26515e-17 17.7752 -1.94895e-23 -1.92933)
(-17.3719 2.62534e+06 0 19.5337 0 -2.16178)
(-18.961 2.29984e+06 0 21.3764 0 -2.4154)
(-20.2732 2.00232e+06 -9.47167e-18 22.6793 -2.06874e-23 -2.40611)
(-21.4393 1.7309e+06 9.24526e-18 23.7101 2.533e-23 -2.27087)
(-22.8343 1.4869e+06 4.34179e-19 24.9713 3.95783e-24 -2.13699)
(-24.4988 1.27205e+06 7.05448e-19 26.4066 7.85121e-24 -1.90778)
(-26.7643 1.08592e+06 0 28.6902 0 -1.92599)
(-29.8929 926904 2.43224e-17 32.256 1.22964e-22 -2.36312)
(-33.345 793217 -2.16939e-17 36.1539 -1.34377e-22 -2.80882)
(-37.5857 682799 -1.86914e-17 40.7555 -1.26161e-22 -3.1698)
(-43.1525 591478 0 46.3956 0 -3.24314)
(-51.7388 514962 0 54.8937 0 -3.15487)
(-64.4559 451446 -1.39762e-18 59.9544 -8.58378e-23 4.50154)
(-230.533 407331 4.76169e-17 161.594 5.8799e-22 68.9391)
(-2334.98 379076 4.15699e-17 3191.69 7.2199e-20 -856.713)
(-4.06138 3.91201e+06 0 7.84917 0 -3.7878)
(-2.01273 3.9254e+06 0 3.17629 0 -1.16356)
(-1.98429 3.93996e+06 0 2.50737 0 -0.523077)
(-2.72503 3.95566e+06 0 3.33259 0 -0.60756)
(-3.63661 3.972e+06 0 4.44468 0 -0.808066)
(-4.64207 3.98745e+06 0 5.67427 0 -1.03221)
(-5.5774 3.99833e+06 0 6.657 0 -1.0796)
(-6.38455 3.99737e+06 0 7.26105 0 -0.876499)
(-7.44322 3.97179e+06 0 8.24798 0 -0.804754)
(-8.81473 3.90336e+06 0 9.7437 0 -0.928973)
(-10.3919 3.77183e+06 0 11.5454 0 -1.15349)
(-12.0073 3.56464e+06 0 13.3569 0 -1.34955)
(-13.5649 3.28646e+06 0 15.1229 0 -1.55799)
(-15.1614 2.95988e+06 0 16.9838 0 -1.82246)
(-16.5817 2.61874e+06 1.14525e-17 18.6042 1.76424e-23 -2.02247)
(-18.0285 2.29422e+06 0 20.2676 0 -2.23913)
(-19.5517 1.99733e+06 1.06459e-17 22.0288 2.56591e-23 -2.47705)
(-20.8014 1.72685e+06 0 23.27 0 -2.46863)
(-21.917 1.48332e+06 -8.32232e-18 24.2423 -2.28014e-23 -2.32528)
(-23.2995 1.26866e+06 8.28784e-18 25.4989 3.15195e-23 -2.19946)
(-24.9797 1.08276e+06 6.00474e-19 26.9638 8.02686e-24 -1.98404)
(-27.2559 923836 0 29.2773 0 -2.02137)
(-30.4246 790298 7.90879e-19 32.9115 1.77122e-23 -2.48688)
(-33.9389 679721 -6.46122e-19 36.9012 -1.89465e-23 -2.96232)
(-38.2718 588202 0 41.6315 0 -3.35967)
(-43.95 511224 0 47.4136 0 -3.46366)
(-52.7139 446281 0 56.071 0 -3.35707)
(-65.2569 392494 9.86919e-17 59.745 1.35138e-21 5.51188)
(-240.206 356684 0 170.29 0 69.9163)
(-2277.03 351472 0 3057.57 0 -780.537)
(-5.41961 3.90547e+06 0 10.5734 0 -5.1538)
(-2.9899 3.91836e+06 0 5.15402 0 -2.16412)
(-2.27877 3.93236e+06 0 3.13073 0 -0.851964)
(-2.62991 3.94743e+06 0 3.18713 0 -0.557219)
(-3.42468 3.96307e+06 0 4.0799 0 -0.655217)
(-4.45193 3.97775e+06 0 5.3715 0 -0.919569)
(-5.54836 3.98783e+06 0 6.72262 0 -1.17427)
(-6.45367 3.98603e+06 0 7.5755 0 -1.12184)
(-7.36194 3.95983e+06 0 8.30967 0 -0.947733)
(-8.51325 3.89109e+06 0 9.42343 0 -0.910186)
(-9.92072 3.75994e+06 0 10.9779 0 -1.05713)
(-11.4679 3.55413e+06 -1.51818e-17 12.7482 -1.49354e-23 -1.28033)
(-12.9889 3.27744e+06 -1.46214e-17 14.4622 -1.69635e-23 -1.47331)
(-14.4251 2.95245e+06 0 16.095 0 -1.66991)
(-15.8786 2.61273e+06 0 17.7962 0 -1.9176)
(-17.2091 2.28897e+06 -1.21135e-17 19.3043 -2.35339e-23 -2.09522)
(-18.5993 1.993e+06 0 20.9009 0 -2.30161)
(-20.0543 1.72321e+06 -9.59255e-18 22.5858 -2.31203e-23 -2.53155)
(-21.2445 1.48025e+06 0 23.7711 0 -2.52667)
(-22.3305 1.26585e+06 8.28454e-18 24.7193 2.8347e-23 -2.38882)
(-23.7304 1.08008e+06 6.3077e-19 26.001 8.25538e-24 -2.27062)
(-25.4279 921244 -1.27634e-17 27.5045 -4.99347e-23 -2.07661)
(-27.7473 787670 0 29.8764 0 -2.12911)
(-30.967 677061 -2.03163e-17 33.5946 -1.15021e-22 -2.62761)
(-34.5519 585468 1.80563e-17 37.681 1.25256e-22 -3.12905)
(-38.9594 508314 0 42.5223 0 -3.56282)
(-44.7582 442902 0 48.4589 0 -3.70073)
(-53.7171 387643 0 57.2901 0 -3.57299)
(-66.5309 342119 -4.48009e-17 60.3223 -6.15263e-22 6.20856)
(-249.807 313330 0 179.286 0 70.5216)
(-2218.18 328739 8.0716e-17 2921.65 1.42803e-19 -703.467)
(-5.64995 3.89939e+06 0 11.0426 0 -5.39264)
(-3.75777 3.91179e+06 0 6.7139 0 -2.95613)
(-2.9086 3.92529e+06 0 4.42806 0 -1.51946)
(-2.87931 3.93979e+06 0 3.73481 0 -0.855495)
(-3.36169 3.95482e+06 0 4.01158 0 -0.649883)
(-4.26756 3.96879e+06 0 5.07716 0 -0.809602)
(-5.40299 3.97818e+06 -9.98718e-19 6.52682 -6.96712e-25 -1.12383)
(-6.44188 3.97569e+06 0 7.69907 0 -1.25719)
(-7.37635 3.94888e+06 0 8.54168 0 -1.16534)
(-8.37117 3.87989e+06 0 9.39351 0 -1.02234)
(-9.57767 3.749e+06 0 10.5927 0 -1.01502)
(-10.984 3.54399e+06 0 12.1562 0 -1.1722)
(-12.4248 3.26904e+06 1.38123e-17 13.8091 1.35881e-23 -1.38433)
(-13.8041 2.94558e+06 1.32652e-17 15.3699 1.539e-23 -1.56589)
(-15.122 2.60712e+06 0 16.8751 0 -1.75309)
(-16.4943 2.28424e+06 0 18.4841 0 -1.98979)
(-17.766 1.98897e+06 1.09287e-17 19.92 2.12321e-23 -2.15396)
(-19.0739 1.71995e+06 -1.06667e-17 21.4343 -2.72567e-23 -2.36038)
(-20.4771 1.47757e+06 0 23.0732 0 -2.59612)
(-21.6348 1.26356e+06 0 24.2307 0 -2.59586)
(-22.7161 1.07781e+06 3.31298e-19 25.1789 4.24824e-24 -2.46277)
(-24.1327 919069 5.3674e-19 26.4874 8.42192e-24 -2.35465)
(-25.8649 785343 0 28.0435 0 -2.17866)
(-28.2505 674744 0 30.5052 0 -2.25465)
(-31.5262 583080 3.8848e-17 34.3057 2.76089e-22 -2.77954)
(-35.1649 505898 0 38.4722 0 -3.30729)
(-39.6575 440295 0 43.4336 0 -3.77613)
(-45.5883 384607 0 49.5373 0 -3.94902)
(-54.7647 337459 0 58.5661 0 -3.80142)
(-67.9941 298944 0 61.1022 0 6.89185)
(-259.888 276161 0 189.138 0 70.7502)
(-2150.59 299122 -7.57239e-17 2790.85 -1.27158e-19 -640.266)
(-7.67543 3.89375e+06 0 15.102 0 -7.42657)
(-3.8958 3.9057e+06 0 7.01659 0 -3.1208)
(-3.40504 3.9187e+06 0 5.45996 0 -2.05492)
(-3.43675 3.93266e+06 0 4.90088 0 -1.46413)
(-3.55244 3.94712e+06 0 4.45483 0 -0.902391)
(-4.14838 3.9605e+06 0 4.90927 0 -0.760897)
(-5.17927 3.96923e+06 0 6.16705 0 -0.987781)
(-6.30857 3.96617e+06 9.30797e-19 7.54409 6.4933e-25 -1.23552)
(-7.29787 3.93892e+06 0 8.55726 0 -1.25939)
(-8.32123 3.86969e+06 0 9.52755 0 -1.20632)
(-9.37475 3.7391e+06 0 10.47 0 -1.09522)
(-10.5779 3.53488e+06 0 11.6907 0 -1.11281)
(-11.9175 3.2611e+06 0 13.1967 0 -1.27919)
(-13.2327 2.93924e+06 -1.5282e-17 14.7088 -1.93084e-23 -1.47615)
(-14.4896 2.60171e+06 -1.43395e-17 16.1378 -2.1259e-23 -1.64822)
(-15.7345 2.27963e+06 0 17.5531 0 -1.81864)
(-17.0389 1.98519e+06 0 19.0789 0 -2.04006)
(-18.2299 1.71698e+06 0 20.4334 0 -2.20356)
(-19.4723 1.47516e+06 -5.31595e-19 21.8859 -4.37833e-24 -2.41353)
(-20.8482 1.26157e+06 9.13113e-18 23.5132 3.06334e-23 -2.66496)
(-21.9796 1.07598e+06 1.62915e-17 24.6571 6.20477e-23 -2.67752)
(-23.0781 917228 7.55125e-18 25.6226 3.53647e-23 -2.54453)
(-24.5254 783480 4.57555e-19 26.9761 8.59268e-24 -2.45071)
(-26.3217 672650 2.29286e-17 28.6142 1.25913e-22 -2.29256)
(-28.7673 580997 0 31.1604 0 -2.3931)
(-32.0883 503841 1.00842e-18 35.0282 3.79959e-23 -2.93982)
(-35.7794 438176 3.16573e-17 39.2785 3.0914e-22 -3.49915)
(-40.3609 382268 5.5853e-17 44.3671 6.67778e-22 -4.00616)
(-46.4251 334718 0 50.6399 0 -4.21481)
(-55.8689 294472 0 59.913 0 -4.04405)
(-69.8155 261842 0 62.3865 0 7.42897)
(-270.774 244205 0 200.565 0 70.2093)
(-2046.71 254151 0 2655.33 0 -608.617)
(-15.3612 3.88844e+06 0 30.4808 0 -15.1196)
(-4.77304 3.90003e+06 0 8.79537 0 -4.02233)
(-3.56668 3.91258e+06 0 5.82701 0 -2.26034)
(-3.86859 3.92606e+06 0 5.82171 0 -1.95312)
(-3.98976 3.93999e+06 0 5.39721 0 -1.40745)
(-4.29195 3.95282e+06 0 5.27536 0 -0.983408)
(-4.92118 3.96097e+06 0 5.74085 0 -0.819676)
(-5.99528 3.95736e+06 0 7.02218 0 -1.0269)
(-7.14051 3.92971e+06 0 8.37184 0 -1.23133)
(-8.1838 3.86034e+06 0 9.449 0 -1.2652)
(-9.26578 3.7301e+06 0 10.5111 0 -1.24528)
(-10.3088 3.5267e+06 0 11.4745 0 -1.16572)
(-11.4523 3.25401e+06 0 12.653 0 -1.20066)
(-12.6932 2.93334e+06 0 14.0552 0 -1.36206)
(-13.8764 2.59695e+06 1.3834e-17 15.4203 1.74788e-23 -1.54385)
(-15.0673 2.27544e+06 1.29563e-17 16.7685 1.92083e-23 -1.7012)
(-16.2533 1.98164e+06 0 18.1169 0 -1.86363)
(-17.4919 1.71415e+06 0 19.5805 0 -2.08855)
(-18.6211 1.47288e+06 0 20.8773 0 -2.25619)
(-19.8292 1.2597e+06 -4.53951e-19 22.3047 -4.46494e-24 -2.47545)
(-21.1683 1.07451e+06 3.67851e-19 23.9011 4.55896e-24 -2.73276)
(-22.3028 915715 -1.46359e-17 25.0632 -5.57422e-23 -2.76042)
(-23.428 781911 -1.30553e-17 26.0651 -5.57384e-23 -2.63713)
(-24.9253 670942 -1.16073e-17 27.4878 -5.62492e-23 -2.56248)
(-26.7911 579187 -2.05769e-17 29.2109 -1.12999e-22 -2.4197)
(-29.2807 502004 0 31.8228 0 -2.54202)
(-32.647 436392 8.73426e-19 35.7616 3.89048e-23 -3.11462)
(-36.3996 380401 -5.75126e-17 40.1081 -5.9621e-22 -3.70845)
(-41.0813 332644 1.20147e-18 45.3296 8.95342e-23 -4.24825)
(-47.2854 291920 0 51.7796 0 -4.49424)
(-57.0376 257515 0 61.3366 0 -4.29903)
(-71.9423 229906 3.52445e-17 64.0314 6.78679e-22 7.91085)
(-281.629 216694 0 213.238 0 68.3912)
(-1941.71 217450 0 2514.95 0 -573.246)
(-14.2707 3.88343e+06 0 28.3065 0 -14.0358)
(-9.21941 3.8947e+06 0 17.7094 0 -8.49001)
(-3.89945 3.90686e+06 0 6.53409 0 -2.63464)
(-4.10883 3.91993e+06 0 6.3624 0 -2.25357)