/*--------------------------------*- C++ -*----------------------------------*\
| =========                 |                                                 |
| \\      /  F ield         | OpenFOAM: The Open Source CFD Toolbox           |
|  \\    /   O peration     | Version:  v2012                                 |
|   \\  /    A nd           | Website:  www.openfoam.com                      |
|    \\/     M anipulation  |                                                 |
\*---------------------------------------------------------------------------*/
FoamFile
{
    version     2.0;
    format      ascii;
    class       volScalarField;
    location    "13200";
    object      T;
}
// * * * * * * * * * * * * * * * * * * * * * * * * * * * * * * * * * * * * * //

dimensions      [0 0 0 1 0 0 0];


internalField   nonuniform List<scalar> 
31383
(
275.707
275.686
275.085
275.688
274.983
274.385
275.693
274.996
274.194
273.596
275.697
275.014
274.223
273.304
272.703
275.702
275.029
274.257
273.355
272.293
271.685
275.706
275.044
274.288
273.41
272.372
271.138
270.522
275.709
275.058
274.315
273.458
272.455
271.253
269.81
269.188
275.712
275.07
274.341
273.502
272.524
271.368
269.97
268.277
267.656
275.715
275.08
274.363
273.541
272.587
271.463
270.125
268.494
266.509
265.885
275.718
275.09
274.383
273.575
272.642
271.549
270.252
268.696
266.794
264.477
263.831
275.72
275.099
274.4
273.606
272.691
271.625
270.364
268.86
267.052
264.849
262.189
261.373
275.722
275.107
274.416
273.633
272.734
271.691
270.464
269.005
267.261
265.172
262.652
259.663
258.53
275.724
275.114
274.43
273.657
272.773
271.748
270.55
269.133
267.444
265.432
263.045
260.22
256.94
255.289
275.726
275.12
274.444
273.679
272.807
271.8
270.626
269.243
267.604
265.658
263.362
260.687
257.592
254.071
251.487
275.727
275.126
274.456
273.699
272.838
271.846
270.693
269.34
267.743
265.855
263.636
261.065
258.134
254.818
251.101
247.407
275.729
275.132
274.466
273.718
272.866
271.888
270.753
269.426
267.864
266.027
263.871
261.39
258.573
255.435
251.945
248.054
243.045
275.73
275.136
274.476
273.734
272.892
271.926
270.807
269.502
267.972
266.175
264.083
261.667
258.948
255.932
252.635
248.999
244.96
238.497
275.731
275.141
274.485
273.75
272.915
271.961
270.857
269.571
268.066
266.308
264.262
261.917
259.271
256.358
253.191
249.762
246.006
241.854
233.895
275.732
275.145
274.493
273.763
272.937
271.992
270.902
269.634
268.153
266.424
264.422
262.13
259.558
256.724
253.666
250.376
246.84
243.001
238.763
229.329
275.733
275.149
274.501
273.775
272.956
272.02
270.942
269.691
268.232
266.529
264.563
262.316
259.806
257.049
254.074
250.9
247.51
243.901
240.012
235.705
224.81
275.734
275.152
274.507
273.787
272.973
272.046
270.979
269.742
268.303
266.627
264.688
262.485
260.02
257.33
254.435
251.349
248.081
244.625
240.975
237.059
232.695
220.31
275.735
275.155
274.513
273.797
272.989
272.069
271.012
269.789
268.367
266.714
264.807
262.634
260.217
257.574
254.749
251.747
248.571
245.241
241.749
238.082
234.159
229.741
215.845
275.736
275.158
274.519
273.806
273.003
272.09
271.042
269.831
268.426
266.793
264.912
262.773
260.389
257.797
255.021
252.092
249.004
245.77
242.408
238.905
235.24
231.32
226.845
211.436
275.737
275.16
274.524
273.814
273.016
272.109
271.07
269.87
268.478
266.865
265.007
262.898
260.549
257.992
255.268
252.392
249.382
246.237
242.974
239.604
236.108
232.456
228.543
224.002
207.1
275.737
275.162
274.528
273.822
273.028
272.126
271.094
269.904
268.526
266.929
265.092
263.01
260.693
258.172
255.486
252.664
249.709
246.645
243.473
240.205
236.846
233.369
229.734
225.818
221.201
202.843
275.738
275.165
274.532
273.829
273.039
272.142
271.117
269.936
268.569
266.988
265.171
263.11
260.823
258.335
255.686
252.904
250.005
246.999
243.909
240.735
237.48
234.143
230.689
227.064
223.133
218.429
198.666
275.738
275.167
274.536
273.835
273.048
272.157
271.137
269.964
268.608
267.041
265.241
263.203
260.939
258.483
255.867
253.123
250.266
247.317
244.289
241.198
238.039
234.809
231.499
228.061
224.435
220.484
215.68
194.562
275.739
275.168
274.54
273.841
273.057
272.17
271.156
269.99
268.643
267.089
265.305
263.286
261.046
258.614
256.031
253.322
250.505
247.599
244.629
241.601
238.528
235.396
232.195
228.906
225.475
221.842
217.866
212.947
190.514
275.739
275.17
274.543
273.847
273.065
272.181
271.173
270.013
268.676
267.132
265.363
263.362
261.142
258.735
256.177
253.501
250.72
247.856
244.929
241.962
238.953
235.908
232.808
229.632
226.355
222.924
219.282
215.276
210.226
186.484
275.74
275.172
274.546
273.852
273.073
272.192
271.188
270.035
268.705
267.172
265.415
263.43
261.23
258.844
256.312
253.662
250.916
248.088
245.203
242.281
239.333
236.355
233.344
230.272
227.111
223.839
220.405
216.751
212.71
207.51
182.419
275.74
275.173
274.549
273.856
273.08
272.203
271.202
270.054
268.732
267.208
265.463
263.493
261.309
258.943
256.433
253.81
251.091
248.297
245.451
242.57
239.669
236.754
233.811
230.831
227.777
224.624
221.355
217.916
214.245
210.163
204.79
178.321
275.74
275.174
274.552
273.86
273.087
272.212
271.215
270.072
268.756
267.24
265.507
263.549
261.381
259.033
256.544
253.943
251.252
248.486
245.674
242.832
239.974
237.106
234.228
231.319
228.359
225.316
222.169
218.9
215.453
211.763
207.632
202.061
174.316
275.741
275.176
274.554
273.865
273.093
272.221
271.227
270.089
268.778
267.27
265.546
263.601
261.447
259.116
256.644
254.065
251.397
248.659
245.875
243.069
240.249
237.425
234.595
231.753
228.867
225.92
222.886
219.744
216.472
213.014
209.299
205.112
199.314
170.461
275.741
275.177
274.556
273.868
273.098
272.229
271.239
270.104
268.799
267.298
265.582
263.647
261.507
259.19
256.736
254.176
251.53
248.816
246.06
243.282
240.497
237.712
234.928
232.135
229.318
226.448
223.513
220.485
217.344
214.067
210.594
206.851
202.599
196.541
166.63
275.742
275.178
274.559
273.872
273.103
272.236
271.249
270.118
268.818
267.323
265.615
263.69
261.561
259.258
256.82
254.277
251.65
248.959
246.227
243.477
240.721
237.972
235.227
232.482
229.716
226.916
224.061
221.134
218.111
214.967
211.681
208.191
204.415
200.087
193.729
162.72
275.742
275.179
274.561
273.875
273.108
272.243
271.259
270.132
268.836
267.347
265.646
263.729
261.611
259.32
256.896
254.37
251.761
249.089
246.381
243.654
240.927
238.207
235.499
232.793
230.075
227.329
224.545
221.701
218.781
215.759
212.611
209.314
205.802
201.988
197.573
190.87
158.703
275.742
275.18
274.563
273.878
273.113
272.25
271.268
270.144
268.852
267.368
265.674
263.766
261.656
259.377
256.965
254.454
251.862
249.209
246.52
243.817
241.114
238.422
235.743
233.075
230.399
227.702
224.973
222.203
219.368
216.451
213.427
210.272
206.96
203.424
199.567
195.05
187.943
154.55
275.743
275.181
274.564
273.881
273.117
272.256
271.276
270.155
268.867
267.388
265.7
263.799
261.699
259.429
257.028
254.53
251.954
249.318
246.648
243.965
241.285
238.618
235.968
233.33
230.691
228.037
225.359
222.645
219.885
217.057
214.141
211.113
207.948
204.619
201.055
197.148
192.513
184.925
150.235
275.691
275.183
274.566
273.884
273.121
272.262
271.284
270.166
268.882
267.407
265.725
263.83
261.738
259.477
257.086
254.6
252.037
249.417
246.765
244.101
241.441
238.797
236.172
233.563
230.956
228.34
225.705
223.043
220.342
217.591
214.766
211.849
208.814
205.637
202.287
198.691
194.728
189.955
181.781
145.728
275.741
275.001
274.57
273.886
273.126
272.267
271.292
270.176
268.895
267.425
265.747
263.859
261.774
259.521
257.14
254.664
252.114
249.508
246.871
244.225
241.585
238.961
236.359
233.776
231.199
228.614
226.019
223.401
220.753
218.062
215.316
212.492
209.572
206.528
203.335
199.963
196.33
192.302
187.368
178.484
141.005
275.739
275.171
274.225
273.892
273.128
272.273
271.299
270.186
268.908
267.441
265.768
263.886
261.807
259.563
257.19
254.724
252.184
249.591
246.969
244.338
241.716
239.111
236.53
233.971
231.42
228.866
226.303
223.725
221.122
218.485
215.801
213.059
210.233
207.307
204.252
201.041
197.642
193.968
189.866
184.745
175.001
136.049
275.721
275.163
274.535
273.35
273.135
272.277
271.306
270.195
268.92
267.456
265.788
263.911
261.838
259.601
257.236
254.779
252.25
249.667
247.058
244.442
241.836
239.249
236.688
234.149
231.623
229.095
226.563
224.018
221.456
218.865
216.237
213.558
210.816
207.988
205.052
201.983
198.753
195.324
191.604
187.416
182.073
171.302
130.868
275.731
275.101
274.519
273.823
272.354
272.285
271.311
270.204
268.931
267.471
265.807
263.934
261.867
259.636
257.279
254.83
252.31
249.738
247.14
244.537
241.945
239.375
236.832
234.314
231.808
229.306
226.8
224.287
221.759
219.209
216.628
214.006
211.33
208.586
205.752
202.806
199.721
196.467
193.005
189.233
184.947
179.342
167.352
125.538
275.742
275.138
274.405
273.797
273.021
271.217
271.321
270.21
268.942
267.484
265.824
263.956
261.895
259.67
257.319
254.878
252.366
249.803
247.215
244.624
242.045
239.49
236.964
234.464
231.979
229.498
227.018
224.532
222.036
219.521
216.982
214.408
211.79
209.114
206.367
203.525
200.566
197.463
194.183
190.684
186.852
182.452
176.538
163.116
120.234
275.743
275.178
274.48
273.621
272.981
272.112
269.912
270.222
268.95
267.498
265.841
263.977
261.92
259.701
257.356
254.922
252.419
249.864
247.286
244.705
242.138
239.596
237.085
234.602
232.136
229.676
227.218
224.758
222.289
219.807
217.304
214.773
212.203
209.587
206.909
204.157
201.305
198.331
195.206
191.898
188.356
184.457
179.924
173.643
158.563
115.217
275.745
275.185
274.558
273.743
272.731
272.056
271.076
268.42
268.964
267.508
265.857
263.997
261.944
259.73
257.391
254.964
252.467
249.921
247.351
244.779
242.223
239.693
237.195
234.728
232.279
229.839
227.402
224.964
222.522
220.068
217.598
215.103
212.578
210.011
207.395
204.713
201.953
199.089
196.098
192.949
189.609
186.02
182.044
177.355
170.638
153.69
110.749
275.745
275.191
274.573
273.87
272.914
271.718
271.001
269.89
266.732
267.525
265.87
264.016
261.967
259.758
257.424
255.003
252.513
249.974
247.412
244.849
242.302
239.783
237.297
234.843
232.41
229.988
227.571
225.155
222.735
220.308
217.866
215.406
212.917
210.396
207.83
205.211
202.524
199.754
196.876
193.865
190.691
187.314
183.673
179.608
174.735
167.48
148.544
107.365
275.745
275.192
274.586
273.897
273.101
271.974
270.558
269.793
268.531
264.889
265.889
264.031
261.991
259.784
257.456
255.039
252.556
250.024
247.469
244.914
242.376
239.866
237.391
234.95
232.531
230.124
227.725
225.329
222.932
220.528
218.114
215.682
213.228
210.744
208.224
205.657
203.034
200.339
197.557
194.664
191.631
188.427
185.01
181.309
177.142
172.052
164.114
143.278
105.146
275.745
275.193
274.589
273.918
273.143
272.234
270.903
269.232
268.409
266.98
262.94
264.054
262.008
259.811
257.485
255.074
252.596
250.071
247.523
244.975
242.445
239.944
237.478
235.048
232.642
230.249
227.867
225.489
223.112
220.731
218.34
215.936
213.512
211.063
208.582
206.061
203.491
200.862
198.157
195.363
192.451
189.394
186.158
182.696
178.927
174.641
169.294
160.498
138.072
103.715
275.746
275.193
274.591
273.924
273.175
272.295
271.25
269.68
267.726
266.832
265.227
260.953
262.036
259.831
257.515
255.107
252.635
250.114
247.573
245.033
242.51
240.017
237.56
235.139
232.744
230.365
227.997
225.636
223.278
220.917
218.55
216.17
213.774
211.355
208.909
206.428
203.905
201.33
198.693
195.978
193.167
190.235
187.151
183.879
180.367
176.52
172.095
166.442
156.6
132.911
102.695
275.746
275.194
274.592
273.927
273.185
272.341
271.334
270.128
268.287
266.042
265.055
263.282
258.98
259.863
257.538
255.141
252.671
250.157
247.621
245.087
242.571
240.085
237.636
235.224
232.839
230.471
228.116
225.771
223.429
221.088
218.742
216.385
214.014
211.624
209.209
206.764
204.281
201.754
199.172
196.526
193.798
190.97
188.016
184.902
181.589
178.02
174.083
169.495
163.477
152.393
127.733
101.961
275.746
275.195
274.593
273.929
273.19
272.355
271.397
270.238
268.844
266.715
264.207
263.089
261.172
257.045
257.577
255.166
252.708
250.197
247.666
245.138
242.628
240.15
237.708
235.304
232.928
230.57
228.227
225.894
223.569
221.245
218.918
216.583
214.235
211.871
209.485
207.071
204.625
202.14
199.607
197.017
194.359
191.616
188.77
185.79
182.642
179.285
175.65
171.609
166.829
160.358
147.856
122.587
101.426
275.746
275.195
274.595
273.932
273.193
272.363
271.417
270.321
268.986
267.38
264.972
262.262
260.964
258.935
255.152
255.212
252.736
250.237
247.71
245.186
242.682
240.21
237.776
235.379
233.012
230.662
228.329
226.009
223.697
221.388
219.079
216.764
214.439
212.098
209.738
207.354
204.941
202.492
200.002
197.462
194.862
192.191
189.432
186.563
183.556
180.371
176.963
173.254
169.092
164.082
157.023
142.971
117.543
100.978
275.746
275.196
274.596
273.934
273.197
272.368
271.428
270.347
269.09
267.556
265.724
263.083
260.25
258.715
256.616
253.293
252.79
250.268
247.753
245.233
242.734
240.268
237.84
235.45
233.09
230.749
228.425
226.115
223.815
221.521
219.227
216.931
214.626
212.307
209.972
207.614
205.231
202.815
200.363
197.866
195.317
192.706
190.021
187.242
184.35
181.311
178.085
174.619
170.824
166.521
161.239
153.415
137.754
112.728
100.602
275.746
275.196
274.596
273.936
273.201
272.373
271.434
270.362
269.124
267.682
265.935
263.879
261.081
258.2
256.386
254.247
251.456
250.33
247.786
245.28
242.784
240.323
237.9
235.518
233.164
230.831
228.516
226.215
223.925
221.643
219.364
217.083
214.797
212.499
210.187
207.854
205.497
203.113
200.694
198.236
195.731
193.172
190.547
187.846
185.046
182.127
179.053
175.781
172.249
168.355
163.885
158.277
149.494
132.303
108.325
100.308
275.746
275.196
274.597
273.937
273.204
272.379
271.442
270.37
269.143
267.725
266.082
264.123
261.864
258.996
256.124
254.001
251.848
249.628
247.858
245.315
242.834
240.375
237.958
235.581
233.234
230.908
228.6
226.308
224.028
221.757
219.49
217.224
214.954
212.675
210.384
208.075
205.743
203.386
200.998
198.574
196.109
193.596
191.024
188.385
185.665
182.842
179.893
176.78
173.455
169.848
165.839
161.171
155.156
145.23
126.824
104.679
100.118
275.746
275.197
274.598
273.939
273.206
272.382
271.449
270.38
269.154
267.749
266.134
264.285
262.136
259.713
256.854
254.028
251.574
249.439
247.795
245.397
242.872
240.428
238.013
235.642
233.301
230.982
228.681
226.396
224.125
221.863
219.607
217.354
215.099
212.837
210.565
208.277
205.97
203.638
201.278
198.886
196.456
193.982
191.458
188.873
186.217
183.476
180.627
177.645
174.488
171.103
167.41
163.265
158.361
151.809
140.607
121.423
102.313
100.02
275.746
275.197
274.598
273.94
273.207
272.385
271.454
270.39
269.167
267.763
266.164
264.347
262.306
260.005
257.464
254.672
251.915
249.132
247.047
245.947
242.964
240.468
238.069
235.7
233.364
231.051
228.757
226.48
224.216
221.963
219.717
217.474
215.232
212.986
210.731
208.463
206.177
203.87
201.537
199.173
196.775
194.337
191.854
189.316
186.716
184.041
181.278
178.4
175.381
172.174
168.72
164.926
160.622
155.436
148.174
135.609
116.11
101.167
100.004
275.748
275.197
274.599
273.941
273.209
272.388
271.458
270.397
269.179
267.779
266.18
264.382
262.377
260.174
257.765
255.152
252.466
249.768
246.696
244.691
244.073
240.571
238.111
235.759
233.425
231.117
228.829
226.559
224.303
222.057
219.82
217.588
215.356
213.123
210.884
208.633
206.368
204.083
201.774
199.438
197.069
194.664
192.217
189.721
187.17
184.553
181.857
179.068
176.158
173.096
169.833
166.299
162.389
157.895
152.358
144.195
130.251
111.124
100.604
100.022
275.779
275.202
274.599
273.941
273.21
272.39
271.461
270.402
269.188
267.795
266.2
264.402
262.416
260.251
257.926
255.452
252.798
250.242
247.58
244.286
242.381
242.165
238.225
235.803
233.487
231.181
228.899
226.634
224.385
222.147
219.917
217.694
215.473
213.251
211.025
208.79
206.543
204.278
201.992
199.681
197.34
194.964
192.551
190.093
187.585
185.018
182.382
179.663
176.845
173.898
170.789
167.461
163.835
159.786
155.067
149.067
139.834
124.679
106.789
100.307
100.074
275.863
275.311
274.608
273.942
273.211
272.392
271.464
270.407
269.194
267.806
266.219
264.425
262.438
260.293
258.007
255.598
253.086
250.42
247.999
245.372
241.915
240.122
240.214
235.927
233.533
231.245
228.965
226.706
224.463
222.232
220.01
217.794
215.583
213.371
211.156
208.935
206.704
204.458
202.193
199.905
197.589
195.242
192.858
190.435
187.965
185.442
182.858
180.2
177.455
174.605
171.617
168.453
165.051
161.318
157.106
152.115
145.493
135.073
119.22
103.409
100.181
100.151
275.772
275.586
274.813
273.957
273.212
272.393
271.467
270.41
269.2
267.813
266.232
264.447
262.464
260.318
258.053
255.683
253.214
250.686
248.035
245.745
243.166
239.592
237.904
238.216
233.668
231.293
229.032
226.775
224.537
222.313
220.098
217.89
215.686
213.484
211.279
209.07
206.853
204.623
202.377
200.11
197.818
195.497
193.142
190.749
188.315
185.831
183.292
180.688
178.007
175.233
172.347
169.312
166.085
162.595
158.737
154.33
148.995
141.574
129.927
113.978
101.389
100.17
100.199
275.77
275.314
275.306
274.277
273.234
272.395
271.468
270.413
269.205
267.821
266.242
264.462
262.49
260.348
258.079
255.731
253.3
250.789
248.276
245.658
243.503
240.974
237.319
235.719
236.166
231.439
229.082
226.845
224.609
222.39
220.181
217.981
215.784
213.59
211.395
209.196
206.991
204.776
202.546
200.298
198.028
195.731
193.403
191.04
188.637
186.189
183.69
181.133
178.507
175.799
172.993
170.065
166.977
163.677
160.087
156.08
151.441
145.639
137.26
124.486
109.012
100.514
100.182
100.22
275.76
275.308
274.85
275.018
273.691
272.424
271.47
270.416
269.209
267.827
266.25
264.473
262.507
260.376
258.112
255.759
253.349
250.875
248.351
245.874
243.31
241.288
238.802
235.086
233.566
234.074
229.238
226.896
224.681
222.464
220.262
218.067
215.878
213.691
211.505
209.315
207.121
204.917
202.702
200.472
198.221
195.946
193.643
191.307
188.934
186.518
184.056
181.54
178.963
176.312
173.575
170.732
167.758
164.607
161.224
157.514
153.33
148.402
141.976
132.522
118.992
104.858
100.233
100.208
100.228
275.746
275.278
274.838
274.373
274.717
273.045
271.509
270.418
269.212
267.831
266.258
264.484
262.521
260.396
258.143
255.794
253.378
250.925
248.434
245.923
243.496
241.003
239.104
236.65
232.886
231.443
231.947
227.063
224.734
222.539
220.338
218.15
215.967
213.788
211.609
209.428
207.243
205.05
202.848
200.632
198.399
196.144
193.863
191.553
189.207
186.823
184.393
181.915
179.38
176.78
174.102
171.332
168.447
165.419
162.196
158.715
154.865
150.469
145.154
137.942
127.374
113.675
101.994
100.17
100.223
100.231
275.727
275.235
274.788
274.355
273.88
274.4
272.324
270.468
269.215
267.835
266.263
264.493
262.533
260.41
258.163
255.826
253.414
250.953
248.483
246.001
243.521
241.158
238.741
236.944
234.509
230.717
229.345
229.794
224.911
222.594
220.415
218.229
216.052
213.88
211.708
209.535
207.358
205.176
202.984
200.781
198.563
196.326
194.066
191.778
189.458
187.102
184.705
182.26
179.764
177.208
174.582
171.874
169.065
166.133
163.042
159.737
156.14
152.122
147.465
141.625
133.488
121.944
108.676
100.684
100.175
100.229
100.231
275.712
275.178
274.715
274.283
273.853
273.368
274.062
271.513
269.279
267.839
266.267
264.499
262.543
260.424
258.179
255.848
253.449
250.991
248.512
246.049
243.593
241.158
238.864
236.52
234.801
232.376
228.576
227.268
227.622
222.781
220.472
218.309
216.134
213.968
211.803
209.637
207.468
205.294
203.113
200.92
198.715
196.494
194.252
191.985
189.689
187.359
184.991
182.579
180.118
177.602
175.022
172.367
169.624
166.773
163.785
160.623
157.219
153.485
149.268
144.261
137.744
128.593
116.529
104.435
100.265
100.183
100.232
100.224
275.699
275.131
274.62
274.179
273.757
273.327
272.841
273.698
270.592
267.918
266.272
264.504
262.55
260.436
258.194
255.865
253.472
251.027
248.551
246.076
243.638
241.223
238.842
236.615
234.33
232.675
230.251
226.461
225.21
225.439
220.67
218.367
216.216
214.051
211.893
209.734
207.573
205.407
203.234
201.052
198.858
196.65
194.424
192.176
189.901
187.595
185.254
182.872
180.444
177.964
175.425
172.819
170.132
167.35
164.449
161.398
158.151
154.632
150.735
146.267
140.785
133.451
123.331
111.309
101.653
100.187
100.198
100.235
100.211
275.687
275.092
274.54
274.044
273.622
273.206
272.777
272.312
273.302
269.545
266.368
264.509
262.556
260.444
258.207
255.882
253.49
251.051
248.588
246.116
243.666
241.267
238.899
236.573
234.402
232.169
230.563
228.132
224.369
223.168
223.247
218.575
216.277
214.137
211.98
209.827
207.673
205.515
203.35
201.177
198.993
196.796
194.583
192.352
190.096
187.812
185.495
183.141
180.744
178.298
175.797
173.233
170.597
167.874
165.046
162.088
158.963
155.618
151.962
147.869
143.064
136.965
128.707
117.921
106.487
100.504
100.177
100.206
100.238
100.198
275.676
275.056
274.475
273.932
273.445
273.037
272.627
272.209
271.8
272.869
268.355
264.625
262.562
260.45
258.216
255.895
253.507
251.07
248.612
246.154
243.707
241.292
238.94
236.623
234.343
232.217
230.035
228.465
226.021
222.299
221.136
221.048
216.495
214.199
212.067
209.916
207.769
205.617
203.46
201.295
199.121
196.934
194.733
192.515
190.276
188.012
185.717
183.388
181.02
178.606
176.14
173.615
171.023
168.352
165.588
162.708
159.684
156.472
153.01
149.19
144.848
139.585
132.735
123.552
112.623
102.755
100.216
100.185
100.209
100.238
100.187
275.667
275.023
274.414
273.839
273.299
272.818
272.424
272.029
271.645
271.326
272.393
267.013
262.698
260.457
258.222
255.904
253.521
251.087
248.631
246.178
243.743
241.333
238.964
236.659
234.385
232.143
230.061
227.924
226.38
223.916
220.247
219.113
218.844
214.427
212.131
210.007
207.86
205.716
203.566
201.409
199.242
197.065
194.875
192.668
190.443
188.196
185.922
183.615
181.273
178.888
176.455
173.966
171.415
168.791
166.082
163.27
160.331
157.229
153.915
150.313
146.296
141.61
135.758
128.046
118.179
107.604
100.788
100.179
100.192
100.211
100.237
100.176
275.658
274.995
274.359
273.753
273.178
272.637
272.164
271.791
271.43
271.112
270.907
271.868
265.52
260.613
258.23
255.912
253.531
251.102
248.649
246.197
243.767
241.369
239.003
236.682
234.418
232.179
229.972
227.93
225.836
224.305
221.818
218.213
217.096
216.634
212.37
210.072
207.953
205.81
203.667
201.517
199.358
197.189
195.008
192.813
190.6
188.367
186.11
183.825
181.505
179.147
176.744
174.289
171.776
169.194
166.534
163.781
160.914
157.905
154.713
151.277
147.508
143.232
138.086
131.515
122.937
112.887
103.41
100.254
100.185
100.193
100.211
100.235
100.164
275.651
274.97
274.312
273.675
273.065
272.487
271.95
271.496
271.161
270.864
270.639
270.544
271.292
263.892
258.407
255.919
253.539
251.113
248.665
246.216
243.786
241.394
239.039
236.721
234.439
232.208
230
227.827
225.822
223.767
222.239
219.726
216.193
215.08
214.42
210.322
208.02
205.905
203.763
201.621
199.469
197.308
195.136
192.949
190.748
188.527
186.285
184.017
181.719
179.385
177.009
174.586
172.108
169.566
166.95
164.249
161.445
158.514
155.423
152.124
148.543
144.565
139.93
134.2
126.81
117.606
107.822
100.985
100.177
100.189
100.193
100.211
100.235
100.148
275.645
274.948
274.27
273.608
272.964
272.348
271.772
271.256
270.844
270.571
270.36
270.236
270.231
270.667
262.154
256.115
253.547
251.121
248.676
246.232
243.806
241.412
239.064
236.756
234.478
232.227
230.026
227.848
225.707
223.735
221.714
220.18
217.639
214.184
213.064
212.203
208.281
205.974
203.861
201.719
199.576
197.422
195.258
193.08
190.888
188.678
186.449
184.196
181.917
179.604
177.253
174.858
172.412
169.907
167.333
164.678
161.93
159.067
156.062
152.874
149.447
145.69
141.429
136.32
129.884
121.696
112.342
103.47
100.271
100.181
100.188
100.193
100.212
100.235
100.127
275.639
274.929
274.233
273.548
272.877
272.224
271.608
271.056
270.591
270.247
270.051
269.934
269.9
269.961
270
260.331
253.761
251.13
248.684
246.244
243.822
241.433
239.083
236.78
234.512
232.266
230.043
227.87
225.72
223.61
221.667
219.676
218.126
215.557
212.186
211.045
209.983
206.246
203.932
201.82
199.677
197.531
195.374
193.205
191.021
188.821
186.604
184.364
182.099
179.806
177.478
175.108
172.691
170.219
167.684
165.073
162.374
159.571
156.64
153.547
150.244
146.663
142.679
138.031
132.327
125.103
116.4
107.279
100.952
100.173
100.182
100.188
100.193
100.214
100.234
100.101
275.634
274.912
274.201
273.497
272.799
272.116
271.463
270.873
270.378
269.996
269.734
269.615
269.581
269.619
269.725
269.304
258.449
251.36
248.693
246.252
243.834
241.449
239.103
236.8
234.536
232.3
230.081
227.885
225.738
223.614
221.532
219.615
217.65
216.077
213.479
210.195
209.021
207.761
204.215
201.892
199.78
197.635
195.486
193.324
191.149
188.958
186.75
184.522
182.271
179.993
177.685
175.338
172.948
170.506
168.006
165.436
162.783
160.033
157.166
154.155
150.957
147.517
143.743
139.443
134.296
127.885
119.947
111.164
103.001
100.255
100.172
100.181
100.188
100.194
100.215
100.233
100.079
275.63
274.897
274.172
273.451
272.731
272.02
271.337
270.712
270.185
269.78
269.492
269.309
269.256
269.288
269.381
269.516
268.593
256.524
248.937
246.261
243.843
241.461
239.12
236.82
234.556
232.323
230.115
227.922
225.751
223.628
221.528
219.472
217.578
215.633
214.03
211.406
208.21
206.99
205.539
202.188
199.854
197.741
195.592
193.439
191.271
189.089
186.889
184.672
182.433
180.169
177.877
175.551
173.184
170.77
168.301
165.767
163.157
160.456
157.647
154.706
151.599
148.278
144.671
140.634
135.914
130.152
122.985
114.685
106.147
100.733
100.17
100.173
100.181
100.188
100.195
100.217
100.23
100.059
275.626
274.884
274.147
273.41
272.671
271.937
271.226
270.573
270.017
269.584
269.278
269.077
268.96
268.958
269.042
269.177
269.327
267.881
254.563
246.514
243.853
241.47
239.132
236.837
234.577
232.343
230.138
227.956
225.787
223.638
221.538
219.459
217.427
215.554
213.623
211.985
209.336
206.228
204.95
203.316
200.163
197.817
195.701
193.548
191.388
189.214
187.023
184.815
182.586
180.335
178.057
175.747
173.402
171.013
168.572
166.071
163.5
160.845
158.088
155.209
152.179
148.96
145.489
141.661
137.268
132.016
125.542
117.77
109.49
102.188
100.216
100.167
100.172
100.181
100.188
100.196
100.217
100.227
100.037
275.624
274.873
274.125
273.374
272.618
271.863
271.129
270.452
269.875
269.418
269.086
268.867
268.736
268.67
268.709
268.832
268.998
269.154
267.173
252.568
244.11
241.48
239.142
236.85
234.594
232.364
230.157
227.979
225.82
223.674
221.545
219.465
217.406
215.397
213.539
211.618
209.939
207.27
204.248
202.9
201.093
198.139
195.779
193.659
191.5
189.334
187.151
184.952
182.732
180.492
178.226
175.932
173.603
171.236
168.821
166.35
163.814
161.199
158.491
155.669
152.708
149.574
146.219
142.557
138.424
133.57
127.676
120.513
112.549
104.61
100.476
100.167
100.167
100.172
100.181
100.189
100.196
100.217
100.224
100.013
275.622
274.864
274.107
273.343
272.572
271.799
271.044
270.348
269.751
269.277
268.923
268.679
268.529
268.452
268.425
268.495
268.65
268.84
268.995
266.471
250.546
241.738
239.151
236.86
234.606
232.381
230.178
227.997
225.843
223.706
221.579
219.469
217.407
215.367
213.378
211.532
209.615
207.892
205.207
202.266
200.84
198.872
196.116
193.738
191.614
189.448
187.274
185.083
182.872
180.641
178.387
176.105
173.793
171.443
169.051
166.607
164.102
161.524
158.86
156.09
153.192
150.133
146.874
143.349
139.425
134.889
129.464
122.871
115.303
107.427
101.299
100.178
100.166
100.167
100.173
100.182
100.189
100.196
100.218
100.219
99.9869
275.62
274.858
274.092
273.317
272.532
271.742
270.97
270.256
269.645
269.156
268.787
268.521
268.344
268.248
268.212
268.215
268.31
268.489
268.697
268.846
265.772
248.501
239.405
236.869
234.617
232.394
230.196
228.019
225.861
223.728
221.61
219.502
217.408
215.363
213.339
211.368
209.532
207.614
205.842
203.145
200.281
198.77
196.652
194.093
191.695
189.565
187.391
185.209
183.006
180.784
178.539
176.269
173.97
171.637
169.264
166.844
164.367
161.822
159.197
156.474
153.633
150.643
147.469
144.058
140.303
136.025
130.981
124.892
117.723
110.111
102.923
100.274
100.162
100.166
100.168
100.174
100.181
100.188
100.198
100.217
100.214
99.9611
275.62
274.854
274.081
273.296
272.498
271.692
270.904
270.176
269.552
269.052
268.671
268.389
268.191
268.066
268.009
268.005
268.031
268.146
268.344
268.568
268.704
265.072
246.433
237.116
234.625
232.404
230.209
228.036
225.882
223.746
221.632
219.532
217.439
215.361
213.331
211.321
209.366
207.536
205.611
203.789
201.085
198.29
196.689
194.434
192.069
189.649
187.511
185.328
183.135
180.922
178.686
176.426
174.139
171.82
169.463
167.063
164.611
162.096
159.506
156.825
154.034
151.107
148.01
144.696
141.082
137.014
132.284
126.629
119.899
112.535
105.091
100.615
100.155
100.162
100.166
100.169
100.173
100.18
100.188
100.199
100.217
100.207
99.9353
275.619
274.852
274.074
273.281
272.47
271.651
270.848
270.106
269.472
268.962
268.571
268.277
268.063
267.915
267.828
267.802
267.822
267.868
267.999
268.214
268.449
268.568
264.366
244.342
234.866
232.413
230.22
228.05
225.9
223.767
221.65
219.554
217.469
215.39
213.325
211.308
209.312
207.371
205.542
203.605
201.732
199.026
196.291
194.599
192.22
190.044
187.597
185.451
183.258
181.054
178.827
176.576
174.299
171.992
169.651
167.268
164.837
162.349
159.79
157.146
154.4
151.529
148.501
145.274
141.778
137.886
133.412
128.124
121.821
114.73
107.401
101.44
100.155
100.152
100.162
100.167
100.169
100.172
100.18
100.189
100.201
100.217
100.195
99.9102
275.619
274.851
274.071
273.271
272.45
271.618
270.8
270.046
269.402
268.884
268.484
268.181
267.954
267.79
267.68
267.623
267.62
267.66
267.721
267.866
268.094
268.338
268.437
263.645
242.225
232.646
230.228
228.061
225.914
223.785
221.672
219.571
217.49
215.418
213.352
211.299
209.294
207.31
205.38
203.549
201.596
199.669
196.967
194.282
192.497
190.01
188.014
185.539
183.384
181.179
178.962
176.72
174.453
172.157
169.828
167.461
165.048
162.582
160.051
157.442
154.736
151.913
148.946
145.797
142.405
138.66
134.401
129.419
123.498
116.699
109.56
102.815
100.247
100.135
100.152
100.162
100.167
100.168
100.172
100.18
100.189
100.204
100.217
100.178
99.8862
275.619
274.851
274.07
273.266
272.437
271.593
270.762
269.995
269.342
268.817
268.41
268.097
267.86
267.683
267.556
267.475
267.441
267.457
267.513
267.588
267.744
267.984
268.235
268.308
262.903
240.078
230.453
228.069
225.925
223.799
221.69
219.592
217.506
215.438
213.379
211.323
209.281
207.287