/*--------------------------------*- C++ -*----------------------------------*\
| =========                 |                                                 |
| \\      /  F ield         | OpenFOAM: The Open Source CFD Toolbox           |
|  \\    /   O peration     | Version:  v2012                                 |
|   \\  /    A nd           | Website:  www.openfoam.com                      |
|    \\/     M anipulation  |                                                 |
\*---------------------------------------------------------------------------*/
FoamFile
{
    version     2.0;
    format      ascii;
    class       volScalarField;
    location    "13200";
    object      TuM;
}
// * * * * * * * * * * * * * * * * * * * * * * * * * * * * * * * * * * * * * //

dimensions      [0 0 0 0 0 0 0];


internalField   nonuniform List<scalar> 
31383
(
0.00382813
0.00385056
0.00154968
0.0037133
0.00216788
0.00126881
0.00361124
0.00208135
0.00429511
0.0018827
0.00353389
0.00201635
0.0041083
0.00813853
0.00294063
0.00347008
0.00196714
0.00396681
0.00778181
0.013293
0.00432606
0.00341586
0.00192647
0.00385967
0.00751135
0.0127092
0.0197935
0.0060474
0.00336971
0.00189206
0.00377097
0.00730655
0.0122662
0.0189236
0.0277508
0.00814942
0.00333007
0.00186281
0.00369611
0.00713694
0.0119307
0.0182631
0.026534
0.0372751
0.0106971
0.00329512
0.00183771
0.00363249
0.00699379
0.0116528
0.0177627
0.025609
0.0356534
0.0483944
0.0137722
0.00326422
0.00181572
0.00357792
0.00687215
0.0114182
0.0173482
0.0249079
0.0344184
0.0463261
0.0609482
0.0174708
0.00323618
0.00179617
0.0035303
0.00676783
0.0112189
0.0169983
0.0243269
0.0334814
0.0447463
0.0584281
0.0744981
0.021895
0.00321091
0.00177839
0.00348782
0.00667679
0.011048
0.016701
0.0238363
0.0327043
0.0435452
0.0564936
0.0715774
0.0883586
0.0271195
0.00318784
0.00176231
0.0034491
0.00659559
0.0108988
0.0164459
0.0234194
0.0320479
0.0425479
0.0550187
0.0693171
0.0851334
0.101762
0.0331877
0.00316691
0.0017476
0.003414
0.00652155
0.0107658
0.0162234
0.0230617
0.0314897
0.0417049
0.0537914
0.0675871
0.0826155
0.0983503
0.114092
0.0400373
0.00314793
0.00173431
0.00338181
0.00645443
0.0106445
0.016025
0.0227495
0.0310107
0.0409874
0.0527527
0.0661438
0.0806811
0.0956638
0.110599
0.125022
0.0474214
0.00313088
0.0017223
0.00335282
0.00639289
0.0105346
0.015844
0.0224712
0.0305927
0.040371
0.0518669
0.064919
0.0790615
0.0935933
0.107827
0.121514
0.134522
0.0552139
0.0031153
0.00171148
0.00332668
0.00633748
0.0104338
0.01568
0.0222175
0.0302198
0.0398329
0.0511053
0.0638742
0.0776821
0.0918529
0.105684
0.118714
0.131018
0.142666
0.0632198
0.00310128
0.00170168
0.00330311
0.00628749
0.010343
0.0155297
0.0219875
0.02988
0.0393531
0.0504398
0.0629728
0.0765072
0.0903669
0.103878
0.116544
0.128211
0.139192
0.149537
0.0711601
0.00308847
0.00169284
0.00328184
0.00624243
0.0102611
0.0153942
0.0217766
0.0295719
0.0389155
0.0498461
0.0621846
0.075488
0.0891009
0.102334
0.114716
0.126032
0.136401
0.146112
0.155261
0.0786146
0.00307685
0.00168483
0.00326265
0.00620178
0.0101873
0.0152721
0.0215868
0.0292895
0.0385188
0.0493046
0.0614811
0.0745958
0.0879985
0.101017
0.11315
0.124204
0.134233
0.143354
0.151897
0.159988
0.0854372
0.00306627
0.00167757
0.00324535
0.0061651
0.0101208
0.0151621
0.0214156
0.0290352
0.0381552
0.0488142
0.0608389
0.0738007
0.0870305
0.0998667
0.111812
0.122638
0.132415
0.141207
0.149177
0.156687
0.163865
0.0916676
0.00305667
0.00167098
0.0032297
0.00613206
0.0100607
0.0150628
0.0212612
0.0288058
0.0378277
0.0483644
0.0602591
0.0730735
0.0861721
0.0988547
0.110642
0.121298
0.130858
0.139409
0.147057
0.154007
0.160636
0.167038
0.0972574
0.00304793
0.00166502
0.00321552
0.00610216
0.0100066
0.0149732
0.0211219
0.0285989
0.0375323
0.0479592
0.0597261
0.0724187
0.0853853
0.0979613
0.109612
0.120126
0.129524
0.13787
0.145285
0.151916
0.157991
0.163888
0.169634
0.102165
0.00303996
0.00165961
0.0032027
0.00607507
0.00995758
0.0148925
0.0209963
0.0284123
0.0372657
0.047593
0.0592457
0.0718161
0.084678
0.0971416
0.108705
0.119094
0.128357
0.136549
0.143767
0.15017
0.155929
0.161275
0.166577
0.171766
0.106364
0.00303261
0.00165468
0.0031911
0.00605059
0.00991325
0.0148194
0.020883
0.0282438
0.0370251
0.0472626
0.058811
0.0712724
0.0840274
0.0964058
0.107874
0.118187
0.127328
0.135394
0.142464
0.148676
0.154208
0.159239
0.163992
0.168818
0.173523
0.109844
0.00302582
0.00165013
0.00318053
0.00602845
0.00987315
0.0147533
0.0207806
0.028092
0.0368079
0.0469642
0.0584186
0.0707793
0.0834395
0.0957309
0.10713
0.117359
0.126424
0.134374
0.141325
0.147392
0.152737
0.157541
0.161978
0.166256
0.170705
0.174976
0.112624
0.00301955
0.00164594
0.00317078
0.00600825
0.00983689
0.0146935
0.0206877
0.0279546
0.036612
0.0466945
0.0580639
0.070335
0.0829053
0.0951202
0.106449
0.116618
0.125604
0.13348
0.140319
0.146271
0.151471
0.15609
0.160299
0.16426
0.168162
0.172299
0.176171
0.114728
0.00301371
0.00164206
0.0031618
0.00598964
0.00980383
0.0146394
0.0206039
0.0278301
0.0364348
0.0464514
0.0577425
0.0699318
0.0824245
0.0945638
0.105832
0.115942
0.12487
0.132672
0.139437
0.145279
0.150367
0.154841
0.158865
0.162598
0.166183
0.169776
0.173645
0.177138
0.116165
0.00300829
0.00163847
0.0031535
0.00597249
0.00977335
0.0145901
0.020528
0.0277176
0.0362741
0.046231
0.0574529
0.0695664
0.0819862
0.0940628
0.10527
0.11533
0.124203
0.13195
0.138644
0.144411
0.14939
0.153751
0.157631
0.161179
0.164533
0.16781
0.171141
0.174781
0.177907
0.116891
0.00300324
0.00163515
0.00314583
0.00595665
0.00974525
0.0145446
0.0204588
0.0276158
0.0361287
0.0460312
0.05719
0.0692363
0.0815893
0.0936048
0.104763
0.114771
0.123598
0.131295
0.137936
0.143632
0.148534
0.152787
0.156553
0.159956
0.163126
0.166172
0.169189
0.172297
0.175739
0.178495
0.116728
0.00299857
0.00163208
0.00313877
0.00594202
0.00971933
0.0145028
0.020395
0.0275229
0.0359972
0.0458504
0.0569515
0.0689361
0.0812292
0.09319
0.104298
0.114266
0.123046
0.130702
0.137296
0.142939
0.14777
0.151943
0.1556
0.158888
0.161912
0.164775
0.167562
0.170359
0.173275
0.176542
0.178921
0.1153
0.0029942
0.00162924
0.00313225
0.00592854
0.00969537
0.0144641
0.0203362
0.0274373
0.0358772
0.0456868
0.0567353
0.0686636
0.080902
0.0928126
0.103877
0.113803
0.122547
0.130161
0.136716
0.142315
0.147091
0.151191
0.154766
0.157944
0.160853
0.163571
0.166175
0.168743
0.17135
0.174101
0.17721
0.179193
0.112393
0.00299012
0.0016266
0.00312626
0.00591611
0.00967327
0.0144283
0.0202819
0.0273585
0.0357667
0.0455373
0.0565396
0.0684163
0.080604
0.0924693
0.103493
0.113383
0.122089
0.12967
0.136187
0.141748
0.14648
0.150525
0.154025
0.157119
0.159916
0.162518
0.164979
0.167363
0.169744
0.17219
0.174797
0.177759
0.179322
0.108392
0.00298626
0.00162415
0.00312071
0.00590466
0.00965292
0.0143953
0.0202318
0.0272856
0.0356648
0.0453996
0.0563609
0.0681922
0.0803333
0.0921557
0.103142
0.112999
0.121673
0.12922
0.135707
0.141231
0.145927
0.149926
0.153369
0.156386
0.159097
0.161589
0.163934
0.166175
0.168373
0.170593
0.1729
0.175379
0.178201
0.179309
0.10355
0.00298259
0.00162183
0.00311555
0.00589409
0.00963418
0.014365
0.0201855
0.0272183
0.0355707
0.0452728
0.056196
0.0679874
0.0800876
0.0918704
0.102822
0.112648
0.121291
0.12881
0.135265
0.140762
0.145421
0.149384
0.152781
0.155738
0.158371
0.160776
0.163009
0.165136
0.167192
0.169232
0.171314
0.173498
0.175862
0.178547
0.179161
0.0980018
0.00297888
0.00161963
0.0031107
0.00588425
0.00961686
0.014337
0.0201429
0.0271563
0.0354836
0.0451555
0.056044
0.0677984
0.0798628
0.0916112
0.10253
0.112327
0.120941
0.128433
0.134864
0.14033
0.144962
0.148888
0.152248
0.155159
0.15773
0.160056
0.162201
0.164216
0.166158
0.168057
0.16996
0.171922
0.173997
0.176256
0.178801
0.178878
0.09175
0.00297595
0.00161741
0.00310611
0.00587499
0.00960076
0.0143112
0.0201036
0.027099
0.0354034
0.045047
0.0559037
0.0676241
0.0796553
0.0913738
0.102264
0.112033
0.12062
0.128087
0.134493
0.139937
0.14454
0.148439
0.151761
0.154634
0.157158
0.15942
0.161486
0.163413
0.165244
0.167029
0.168792
0.170576
0.172433
0.174411
0.176568
0.178965
0.178456
0.0847661
0.00298017
0.00161566
0.00310144
0.00586626
0.0095856
0.0142871
0.0200674
0.0270463
0.0353294
0.0449471
0.0557738
0.0674631
0.0794639
0.0911545
0.102021
0.111765
0.120327
0.127769
0.134152
0.139573
0.144154
0.148024
0.151319
0.154154
0.156639
0.158854
0.160856
0.162703
0.164446
0.166119
0.16777
0.169415
0.171097
0.172859
0.174747
0.176808
0.179041
0.177881
0.0770177
0.00376784
0.00161407
0.00309781
0.00585733
0.00957131
0.0142645
0.0200336
0.0269976
0.0352612
0.0448547
0.0556538
0.0673139
0.0792867
0.0909522
0.101796
0.11152
0.12006
0.127479
0.133839
0.139239
0.143797
0.147646
0.150912
0.153718
0.156164
0.15834
0.160295
0.162078
0.163739
0.165325
0.166865
0.168399
0.169943
0.171532
0.17321
0.175014
0.176976
0.179027
0.17712
0.0684877
0.00301638
0.00298404
0.00308769
0.00585043
0.0095567
0.0142432
0.0200018
0.0269523
0.0351981
0.0447696
0.0555427
0.0671759
0.0791226
0.0907649
0.101588
0.111293
0.119814
0.127213
0.133553
0.138931
0.143469
0.147295
0.150539
0.153317
0.155735
0.15787
0.159785
0.16152
0.163118
0.164622
0.166074
0.167499
0.168933
0.170386
0.171893
0.173492
0.175215
0.177078
0.178916
0.176121
0.0592202
0.00303526
0.0017422
0.00685188
0.0058302
0.00954542
0.0142214
0.0199719
0.0269095
0.0351394
0.0446906
0.0554403
0.0670481
0.0789707
0.0905909
0.101396
0.111084
0.119587
0.126969
0.13329
0.138648
0.143165
0.146972
0.150193
0.15295
0.155338
0.157446
0.159321
0.161015
0.162564
0.164004
0.165375
0.166712
0.168038
0.169382
0.170755
0.172188
0.173713
0.175356
0.177112
0.1787
0.174808
0.0493792
0.00330679
0.00180448
0.00348207
0.0127963
0.00951209
0.0142046
0.0199413
0.0268693
0.0350841
0.0446172
0.0553452
0.06693
0.0788296
0.0904298
0.101217
0.11089
0.119377
0.126744
0.133049
0.13839
0.142888
0.146673
0.149875
0.152608
0.154974
0.157052
0.1589
0.160555
0.162064
0.163454
0.164761
0.166017
0.167255
0.168493
0.169759
0.171059
0.172421
0.173875
0.175437
0.177076
0.178364
0.173072
0.0393492
0.00316776
0.00229114
0.00369364
0.00656851
0.020539
0.0141547
0.0199177
0.0268282
0.0350319
0.044548
0.0552568
0.0668201
0.078699
0.0902797
0.10105
0.110709
0.119183
0.126535
0.132826
0.138152
0.142633
0.1464
0.149581
0.152293
0.154636
0.156692
0.15851
0.160137
0.161606
0.162958
0.164214
0.165406
0.166563
0.167713
0.168875
0.17007
0.171303
0.1726
0.173982
0.175461
0.176968
0.177893
0.170768
0.0298203
0.00299365
0.00207844
0.00509886
0.00698976
0.0106802
0.0301174
0.0198472
0.0267965
0.0349785
0.0444827
0.0551733
0.0667176
0.0785773
0.0901407
0.100895
0.110541
0.119002
0.126342
0.13262
0.137931
0.142398
0.146148
0.14931
0.152002
0.154324
0.156357
0.158153
0.15975
0.161191
0.162503
0.16372
0.164862
0.165954
0.167026
0.1681
0.169192
0.170322
0.171492
0.172725
0.174037
0.175426
0.176782
0.177264
0.167693
0.0217142
0.00296828
0.00177403
0.00447827
0.00969054
0.0113716
0.0158512
0.041588
0.0267009
0.0349373
0.0444156
0.0550946
0.0666208
0.0784633
0.0900108
0.100751
0.110383
0.118833
0.126162
0.132429
0.137728
0.142181
0.145917
0.149061
0.151735
0.154036
0.156048
0.157821
0.159396
0.160808
0.162092
0.163269
0.164372
0.165413
0.16642
0.167415
0.168422
0.169451
0.170522
0.171631
0.1728
0.174038
0.175329
0.17651
0.176451
0.163572
0.01579
0.00294236
0.0017373
0.00357298
0.00845353
0.0157601
0.0168546
0.0221876
0.054878
0.0348114
0.0443641
0.0550139
0.0665294
0.0783557
0.0898887
0.100616
0.110237
0.118674
0.125993
0.13225
0.137539
0.14198
0.145702
0.148832
0.151488
0.15377
0.155762
0.157514
0.159067
0.160457
0.161711
0.162861
0.163923
0.164926
0.165882
0.166812
0.167741
0.168686
0.169658
0.17067
0.171721
0.172825
0.173985
0.175166
0.176138
0.17542
0.158064
0.0121235
0.00293854
0.0016013
0.00345407
0.00668862
0.0136902
0.023335
0.0235135
0.0297996
0.0695904
0.0442024
0.0549519
0.0664359
0.0782538
0.0897724
0.100489
0.110099
0.118526
0.125835
0.132083
0.137363
0.141794
0.145504
0.148621
0.151262
0.153526
0.155499
0.15723
0.158762
0.16013
0.161361
0.162483
0.163516
0.164481
0.165398
0.166278
0.167141
0.16801
0.168898
0.169815
0.170773
0.171764
0.1728
0.173876
0.174931
0.175653
0.174104
0.15084
0.0102626
0.00293756
0.00159385
0.00306123
0.00644322
0.010793
0.0202082
0.0324875
0.0314274
0.0387537
0.0848579
0.0547497
0.0663646
0.0781494
0.0896629
0.100367
0.109968
0.118386
0.125686
0.131925
0.137198
0.14162
0.14532
0.148424
0.151051
0.153301
0.155257
0.15697
0.158481
0.159827
0.161038
0.162135
0.163142
0.164077
0.164955
0.165796
0.16661
0.167413
0.168226
0.169063
0.169928
0.17083
0.17176
0.172725
0.173706
0.174617
0.175032
0.172401
0.141794
0.00954695
0.00293657
0.00159301
0.00304268
0.0057676
0.0103741
0.0158957
0.0280827
0.0432314
0.0406322
0.0489995
0.0995022
0.0661192
0.0780702
0.0895508
0.100253
0.109844
0.118254
0.125546
0.131778
0.137042
0.141457
0.145148
0.148242
0.150858
0.153093
0.155033
0.156728
0.158221
0.159547
0.160736
0.161813
0.162796
0.163704
0.164553
0.165357
0.166131
0.166885
0.167634
0.168396
0.169182
0.169996
0.170843
0.171709
0.172597
0.173471
0.174211
0.17425
0.170165
0.131013
0.00933199
0.00293478
0.00159234
0.00303809
0.00573138
0.0093949
0.0152558
0.0220709
0.0373659
0.0553895
0.0510543
0.0602894
0.112519
0.0777818
0.0894658
0.100135
0.109726
0.118127
0.125413
0.131637
0.136895
0.141302
0.144986
0.148073
0.150678
0.1529
0.154826
0.156506
0.157982
0.159289
0.160458
0.161514
0.162476
0.163361
0.164183
0.164958
0.165695
0.16641
0.167109
0.167808
0.168522
0.169259
0.170022
0.170811
0.17161
0.172411
0.173164
0.1737
0.173276
0.167205
0.118477
0.00928579
0.00293336
0.00159116
0.00303537
0.00571926
0.00933328
0.0139638
0.0211657
0.0294087
0.0479943
0.0684592
0.062419
0.072145
0.123476
0.0891379
0.100047
0.109605
0.118007
0.125285
0.131504
0.136755
0.141156
0.144834
0.147912
0.150509
0.152721
0.154635
0.1563
0.157761
0.159051
0.160201
0.161237
0.162179
0.163043
0.163842
0.164589
0.165299
0.165976
0.166638
0.167287
0.167938
0.168606
0.169295
0.170005
0.170734
0.171457
0.172162
0.172774
0.173065
0.172069
0.163289
0.104301
0.00928554
0.00293227
0.00159022
0.00303155
0.00571238
0.00930932
0.0138683
0.0195622
0.0282068
0.0379764
0.0596808
0.0816134
0.0742247
0.0839417
0.132447
0.0996844
0.109515
0.117884
0.125163
0.131376
0.136622
0.141018
0.144689
0.147761
0.150351
0.152554
0.154457
0.15611
0.157556
0.158831
0.159964
0.160982
0.161903
0.162747
0.163526
0.164251
0.164934
0.165583
0.166208
0.16682
0.167422
0.168027
0.168649
0.16929
0.169945
0.170607
0.171249
0.171844
0.172291
0.172284
0.170555
0.158138
0.0886425
0.00929591
0.00293121
0.00158952
0.0030282
0.0057035
0.00929605
0.0138279
0.019424
0.0263011
0.0364691
0.0477595
0.0718681
0.0939769
0.0858568
0.0950884
0.13974
0.109123
0.117792
0.125039
0.131254
0.136494
0.140885
0.144551
0.147618
0.1502
0.152397
0.154292
0.155933
0.157367
0.158628
0.159746
0.160746
0.16165
0.162474
0.163232
0.163937
0.164597
0.165221
0.165818
0.166393
0.166959
0.167516
0.168077
0.168653
0.169243
0.169839
0.17043
0.170979
0.171447
0.171697
0.171325
0.168619
0.151434
0.0717548
0.00930906
0.00293003
0.00158884
0.0030258
0.0056954
0.00927954
0.0138057
0.019362
0.026111
0.0342778
0.0459618
0.0585788
0.0838591
0.104983
0.0967626
0.105176
0.14569
0.117373
0.124947
0.131128
0.136372
0.140757
0.14442
0.147481
0.150058
0.152248
0.154135
0.155769
0.157191
0.158439
0.159543
0.160528
0.161415
0.162221
0.16296
0.163645
0.164285
0.164887
0.165458
0.166007
0.166537
0.167058
0.167572
0.168089
0.168618
0.169153
0.169687
0.170197
0.17064
0.170959
0.170975
0.170151
0.166079
0.142857
0.0542822
0.00932144
0.00292904
0.0015881
0.00302379
0.00568963
0.00926424
0.0137788
0.0193284
0.0260226
0.0340285
0.0435228
0.0565361
0.0700408
0.0950674
0.114477
0.106583
0.114035
0.150584
0.124504
0.131037
0.136246
0.140635
0.144292
0.147349
0.149921
0.152106
0.153986
0.155613
0.157028
0.158265
0.159356
0.160327
0.161198
0.161987
0.162709
0.163375
0.163995
0.164577
0.165127
0.16565
0.166154
0.166641
0.167119
0.16759
0.168061
0.168541
0.169018
0.169481
0.169901
0.170224
0.170368
0.170099
0.168716
0.162688
0.132253
0.0375574
0.00933167
0.0029282
0.00158747
0.0030218
0.00568512
0.00925342
0.0137537
0.0192883
0.025975
0.0339091
0.0432103
0.0539247
0.0678381
0.0815935
0.10517
0.122563
0.11519
0.121696
0.154649
0.130574
0.136155
0.14051
0.144171
0.147223
0.149791
0.151971
0.153845
0.155466
0.156873
0.158101
0.159182
0.16014
0.160998
0.161772
0.162477
0.163125
0.163727
0.16429
0.16482
0.165322
0.165801
0.166261
0.166707
0.167143
0.16757
0.167995
0.16842
0.168835
0.169219
0.169536
0.169718
0.169655
0.169038
0.166931
0.158145
0.119851
0.0235823
0.00933844
0.00292751
0.00158693
0.00302006
0.00568074
0.00924519
0.0137359
0.0192504
0.0259186
0.0338455
0.0430577
0.0535521
0.065168
0.0793404
0.0926686
0.114078
0.129436
0.122645
0.128246
0.158054
0.135674
0.14042
0.144045
0.147102
0.149664
0.15184
0.15371
0.155325
0.156725
0.157947
0.159019
0.159967
0.160812
0.161573
0.162262
0.162895
0.163479
0.164023
0.164535
0.165018
0.165475
0.165912
0.166332
0.166737
0.16713
0.167512
0.167887
0.168254
0.168599
0.168894
0.169092
0.169109
0.168796
0.167754
0.164661
0.152098
0.105613
0.0139326
0.00934184
0.00292648
0.00158646
0.00301869
0.00567699
0.00923737
0.0137227
0.0192237
0.0258653
0.0337704
0.042977
0.0533683
0.0647488
0.0767403
0.0904694
0.102833
0.121824
0.135297
0.129009
0.133781
0.160929
0.139923
0.143956
0.146976
0.149544
0.151714
0.153581
0.155191
0.156587
0.157801
0.158866
0.159805
0.16064
0.161387
0.162064
0.162681
0.16325
0.163777
0.16427
0.164735
0.165174
0.165591
0.165988
0.166367
0.16673
0.167079
0.167414
0.167734
0.168039
0.168304
0.168497
0.168558
0.168378
0.167764
0.166194
0.16169
0.144146
0.0893948
0.00847083
0.00934283
0.0028929
0.00158583
0.00301752
0.00567411
0.00923068
0.0137103
0.0192042
0.0258277
0.033699
0.0428818
0.0532715
0.0645404
0.0762963
0.0880487
0.100762
0.111855
0.128495
0.14031
0.13437
0.138425
0.16337
0.143447
0.146887
0.149419
0.151594
0.153455
0.155061
0.156452
0.157662
0.158721
0.159653
0.160478
0.161216
0.161879
0.162484
0.163038
0.163549
0.164026
0.164472
0.164894
0.165293
0.16567
0.166027
0.166367
0.166688
0.166991
0.167273
0.167536
0.167769
0.167944
0.168019
0.167918
0.167505
0.166522
0.164277
0.157707
0.133849
0.0713162
0.00598408
0.00934287
0.00220706
0.00157339
0.0030161
0.00567174
0.00922564
0.0136997
0.019186
0.0258005
0.0336489
0.042791
0.053157
0.0644312
0.0760752
0.087605
0.0985858
0.109956
0.119692
0.134209
0.144633
0.138848
0.142319
0.165454
0.14637
0.14933
0.151469
0.153335
0.154936
0.156323
0.157529
0.158583
0.159508
0.160327
0.161055
0.161708
0.1623
0.16284
0.163338
0.163799
0.16423
0.164634
0.165016
0.165376
0.165715
0.166032
0.16633
0.166607
0.166861
0.167088
0.167285
0.167438
0.16751
0.167448
0.167156
0.166461
0.165026
0.161857
0.152309
0.121148
0.0523914
0.00512196
0.00934185
0.000246192
0.00128727
0.00300284
0.00566896
0.00922167
0.0136918
0.0191706
0.0257753
0.0336129
0.0427274
0.0530476
0.064301
0.0759592
0.0873836
0.098162
0.10804
0.117988
0.126438
0.139103
0.1483
0.14257
0.145601
0.167235
0.148806
0.151381
0.15321
0.154817
0.156199
0.157401
0.15845
0.159371
0.160183
0.160905
0.161549
0.16213
0.162658
0.163142
0.16359
0.164005
0.164394
0.164759
0.165103
0.165424
0.165725
0.166002
0.166257
0.166487
0.166688
0.166853
0.166977
0.167038
0.16699
0.166768
0.166248
0.165212
0.163217
0.158712
0.145022
0.106597
0.0346189
0.00488888
0.0093402
0.000848245
0.000465541
0.00260286
0.0056455
0.00921704
0.0136858
0.0191592
0.025754
0.0335797
0.0426821
0.0529712
0.0641765
0.0758192
0.0872675
0.0979518
0.107648
0.116315
0.124927
0.132177
0.143289
0.15136
0.145661
0.148396
0.168757
0.150851
0.153122
0.154692
0.156079
0.157277
0.158323
0.159239
0.160046
0.160761
0.161399
0.161971
0.162489
0.162961
0.163395
0.163797
0.164172
0.164521
0.164848
0.165155
0.165439
0.1657
0.165936
0.166146
0.166324
0.166467
0.166564
0.166604
0.16656
0.166373
0.16596
0.165167
0.163715
0.160987
0.154513
0.135376
0.0898066
0.0205161
0.00483502
0.00933935
0.000686204
0.00367879
0.00121265
0.00491289
0.00917902
0.0136788
0.0191506
0.0257385
0.0335517
0.0426404
0.0529168
0.0640898
0.075687
0.0871258
0.0978416
0.107455
0.115958
0.123481
0.130836
0.137028
0.14682
0.153903
0.148242
0.150807
0.170054
0.152587
0.154604
0.155954
0.157158
0.158198
0.159112
0.159915
0.160626
0.161257
0.161822
0.162331
0.162792
0.163214
0.163604
0.163965
0.164301
0.164613
0.164903
0.165174
0.16542
0.165641
0.165833
0.165994
0.166117
0.166195
0.166214
0.166159
0.165992
0.165641
0.165001
0.163878
0.161915
0.15816
0.148813
0.123159
0.0708203
0.0113682
0.0048242
0.0093393
0.000711015
0.00196561
0.00918475
0.00232044
0.00798853
0.0136223
0.0191409
0.0257269
0.0335313
0.0426051
0.0528664
0.0640281
0.0755936
0.0869929
0.0977048
0.107355
0.115785
0.123161
0.129591
0.135816
0.141094
0.149779
0.156027
0.150417
0.152901
0.171145
0.154064
0.155867
0.157033
0.15808
0.158988
0.159788
0.160495
0.161122
0.16168
0.162182
0.162635
0.163047
0.163425
0.163773
0.164096
0.164395
0.164672
0.164926
0.165159
0.165366
0.165544
0.16569
0.165798
0.16586
0.165864
0.165796
0.16563
0.16532
0.164775
0.163863
0.162338
0.159721
0.154459
0.141071
0.108668
0.050878
0.00639746
0.00482187
0.00933951
0.000736094
0.00182505
0.00521952
0.0160477
0.00378029
0.0118532
0.019062
0.0257139
0.0335164
0.0425795
0.0528244
0.0639707
0.0755282
0.0868984
0.0975771
0.107227
0.115696
0.123008
0.129307
0.134735
0.139982
0.144489
0.152269
0.157808
0.152271
0.154732
0.172045
0.155321
0.156945
0.157956
0.15887
0.159665
0.160369
0.160992
0.161546
0.162041
0.162487
0.162891
0.163259
0.163595
0.163906
0.164193
0.164457
0.164698
0.164917
0.165111
0.165277
0.16541
0.165504
0.165554
0.165547
0.165469
0.165299
0.165005
0.164526
0.16375
0.162508
0.16049
0.156977
0.14948
0.130733
0.0917727
0.0324846
0.00419198
0.00482137
0.0093399
0.00077125
0.00185017
0.00482195
0.0100967
0.0237966
0.00561617
0.0165861
0.0256088
0.0334997
0.0425609
0.0527939
0.063923
0.0754666
0.0868327
0.0974868
0.107109
0.115576
0.12293
0.129174
0.134484
0.139028
0.143451
0.147331
0.154384
0.159306
0.153859
0.156346
0.172771
0.156395
0.157867
0.158746
0.159548
0.160247
0.160867
0.161418
0.161908
0.162348
0.162744
0.163104
0.16343
0.16373
0.164005
0.164257
0.164486
0.164692
0.164874
0.165028
0.165151
0.165234
0.165272
0.165257
0.165172
0.165
0.164713
0.164268
0.163588
0.162535
0.160892
0.158249
0.153433
0.142681
0.117688
0.0723686
0.0184148
0.00346116
0.00482135
0.00934045
0.00079779
0.00204401
0.00488467
0.00931251
0.0165329
0.0322346
0.00787296
0.0222937
0.0333658
0.0425404
0.0527716
0.0638884
0.0754151
0.08677
0.0974235
0.107025
0.115468
0.12282
0.129106
0.134368
0.138803
0.142594
0.14634
0.14973
0.156199
0.160574
0.155226
0.157777
0.173337
0.157312
0.158658
0.159424
0.160129
0.160745
0.161293
0.161781
0.162216
0.162606
0.162958
0.163277
0.163566
0.16383
0.164071
0.164289
0.164483
0.164653
0.164796
0.164908
0.164983
0.165013
0.164989
0.164899
0.164727
0.164446
0.164023
0.1634
0.162481
0.161091
0.158957
0.155463
0.148714
0.133453
0.102347
0.0516492
0.0096617
0.00327959
0.00482142
0.00934119
0.000823052
0.00222176
0.00540946
0.00943078
0.0152816
0.0243117
0.0411867
0.0106142
0.0290881
0.0423774
0.0527474
0.0638631
0.0753778
0.0867171
0.0973617
0.106966
0.115392
0.122723
0.129006
0.134309
0.138703
0.14239
0.145557
0.148763
0.151782
0.157761
0.161641
0.156408
0.159056
0.173753
0.158096
0.159336
0.160005
0.160628
0.161172
0.161657
0.162089
0.162475
0.162821
0.163132
0.163413
0.163668
0.163898
0.164105
0.164289
0.164449
0.16458
0.164682
0.164749
0.164772
0.164742
0.164648
0.164475
0.164201
0.163794
0.163211
0.162377
0.161169
0.15937
0.156611
0.151887
0.142292
0.12145
0.0842357
0.0324647
0.0051199
0.0032419
0.00482149
0.00934215
0.000849587
0.00233073
0.00589366
0.0104546
0.0154821
0.022721
0.033239
0.0503791
0.0139242
0.0370518
0.0525586
0.0638357
0.0753504
0.086679
0.0973099
0.106907
0.115337
0.122655
0.128921
0.134219
0.138652
0.142302
0.145367
0.148032
0.150814
0.153547
0.159106
0.162532
0.157436
0.160202
0.174033
0.158768
0.159918
0.160504
0.161055
0.161537
0.161967
0.162349
0.162691
0.162996
0.163271
0.163517
0.163737
0.163935
0.164109
0.164259
0.164381
0.164473
0.16453
0.164547
0.164513
0.164415
0.164241
0.163973
0.163582
0.163028
0.162256
0.161169
0.159611
0.15731
0.153694
0.147147
0.133531
0.106788
0.0635509
0.0178807
0.00321367
0.00323493
0.00482153
0.0093432
0.00087416
0.00243765
0.00618838
0.0114004
0.0171535
0.0230674
0.0314972
0.0430479
0.0594148
0.0178964
0.046183
0.0636304
0.0753211
0.0866504
0.097272
0.106857
0.115281
0.122605
0.12886
0.134145
0.138572
0.14226
0.14529
0.147849
0.150117
0.152569
0.155073
0.160267
0.16327
0.158337
0.161235
0.174188
0.159343
0.160417
0.160932
0.161421
0.161846
0.162228
0.162566
0.162868
0.163136
0.163375
0.163588
0.163776
0.16394
0.164081
0.164195
0.164278
0.164327
0.164336
0.164298
0.164199
0.164026
0.163762
0.163384
0.162857
0.162129
0.161132
0.15974
0.157755
0.154804
0.149948
0.140706
0.121926
0.0894623
0.0424465
0.00896911
0.00263382
0.00323375
0.00482167
0.0093442
0.000897244
0.00254374
0.00647707
0.0119793
0.0186933
0.0254476
0.0320591
0.0413655
0.0532768
0.0678813
0.0226277
0.0563269
0.0751124
0.0866203
0.0972431
0.106821
0.115235
0.122552
0.128815
0.134092
0.138507
0.142187
0.145253
0.14778
0.149936
0.151895
0.154078
0.1564
0.161269
0.163876
0.159132
0.162168
0.174232
0.159835
0.160845
0.161298
0.161732
0.162109
0.162446
0.162744
0.163009
0.163242
0.163448
0.163629
0.163784
0.163915
0.16402
0.164097
0.164138
0.164141
0.164097
0.163996
0.163825
0.163566
0.163198
0.162692
0.162005
0.161073
0.159805
0.158044
0.15553
0.151674
0.144977
0.1319
0.107497
0.0691446
0.0245411
0.00449298
0.0025055
0.00323359
0.00482186
0.00934525
0.000920741
0.00264215
0.0067642
0.0125407
0.019643
0.0276109
0.035139
0.0421897
0.0518563
0.063283
0.0755148
0.0281997
0.0671362
0.0864237
0.0972134
0.106792
0.1152
0.122509
0.128766
0.13405
0.138459
0.14213
0.145185
0.147746
0.14987
0.151711
0.153416
0.155379
0.157561
0.162135
0.164367
0.159839
0.163009
0.174174
0.160256
0.16121
0.16161
0.161994
0.162328
0.162626
0.162887
0.163117
0.163317
0.163491
0.163639
0.163761
0.163858
0.163927
0.163963
0.163959
0.163909
0.163806
0.163636
0.163383
0.163025
0.162536
0.161882
0.161007
0.15983
0.158234
0.156021
0.152807
0.147632
0.138214
0.120196
0.0904068
0.0473006
0.0124091
0.00268575
0.0024821
0.00323364
0.00482202
0.00934654
0.00094162
0.00273981
0.00703046
0.0130987
0.0205592
0.0289694
0.0378855
0.0458579
0.052936
0.0622635
0.0724786
0.0822583
0.0346433
0.0781144
0.0970426
0.106763
0.115172
0.122476
0.128725
0.134004
0.138421
0.142086
0.145135
0.147682
0.149839
0.151645
0.153227
0.154721
0.156508
0.158581
0.162882
0.164757
0.160473
0.163766
0.174025
0.160614
0.161522
0.161873
0.162214
0.162509
0.162769
0.162996
0.163193
0.163361
0.163503
0.163618
0.163707
0.163768
0.163797
0.163789
0.163735
0.163628
0.163458
0.16321
0.162862
0.16239
0.161762
0.160933
0.159834
0.158362
0.156368
0.153583
0.149378
0.142243
0.128964
0.105615
0.0700722
0.0278049
0.00586664
0.00216966
0.00247833
0.00323367
0.00482227
0.00934792
0.000960491
0.00282134
0.00729462
0.0136151
0.0214683
0.0302784
0.0396441
0.0490477
0.0569472
0.0635305
0.071897
0.0805791
0.088196
0.0418876
0.0887447
0.106629
0.115145
0.122449
0.128695
0.133967
0.138378
0.14205
0.145095
0.147638
0.149778
0.151615
0.153157
0.154525
0.155845
0.157492
0.159484
0.163525
0.16506
0.161046
0.164443
0.173793
0.160917
0.161786
0.162094
0.162397
0.162654
0.16288
0.163074
0.163239
0.163375
0.163485
0.163567
0.16362
0.163643
0.163629
0.163572
0.163463
0.163292
0.163046
0.162708
0.162252
0.161648
0.160855
0.159819
0.158452
0.156624
0.15414
0.150573
0.14491
0.134892
0.116771
0.0882203
0.0477767
0.0140327
0.00297813
0.00206596
0.00247782
0.00323374
0.00482241
0.00934944
0.000977575
0.00289427
0.0075147
0.0141255
0.0222981
0.0315694
0.0413368
0.0511248
0.0603324
0.0675719
0.073261
0.0803937
0.0876018
0.0934644
0.0497258
0.098633
0.115053
0.122423
0.128668
0.133938
0.138343
0.142011
0.145061
0.147601
0.149737
0.151556
0.153127
0.15445
0.155638
0.156819
0.158355
0.160285
0.164078
0.165289
0.161569
0.165043
0.173488
0.161172
0.162007
0.162277
0.162543
0.162766
0.16296
0.163122
0.163255
0.16336
0.163436
0.163483
0.163499
0.16348
0.163419
0.163308
0.163137
0.162892
0.16256
0.162119
0.161537
0.160779
0.159793
0.15851
0.15682
0.154557
0.151428
0.146736
0.138908
0.124863
0.101698
0.0673817
0.0277055
0.00643742
0.00202072
0.00204897
0.00247777
0.00323378
0.0048226
0.00935133
0.000992785
0.00296035
0.00771155
0.014551
0.0230958
0.0327356
0.0429907
0.0531181
0.0625704
0.0708898
0.0771037
0.0817911
0.0877442
0.0937117
0.0982012
0.0578409
0.10756
0.122375
0.128643
0.133911
0.138316
0.141978
0.145024
0.147569
0.149703
0.151516
0.15307
0.154418
0.155558
0.156599
0.157666
0.159117
0.161003
0.164549
0.165454
0.162048
0.165565
0.173116
0.161383
0.162189
0.162425
0.162656
0.162847
0.163009
0.16314
0.163242
0.163314
0.163356
0.163365
0.16334
0.163275
0.163162
0.162991
0.162749
0.162421
0.16199
0.161429
0.160701
0.159762
0.158546
0.156966
0.154882
0.152069
0.148037
0.141678
0.130707
0.111836
0.0834946
0.0446954
0.013634
0.00304705
0.00180952
0.00204652
0.00247779
0.0032338
0.00482275
0.00935339
0.00100586
0.00301904
0.00788987
0.0149316
0.0237651
0.0338337
0.0444698
0.0550413
0.0647131
0.0731268
0.0801995
0.0853525
0.0891477
0.0941196
0.0991
0.102523
0.0658939
0.115471
0.128642
0.133888
0.13829
0.141951
0.144993
0.147533
0.149673
0.151485
0.153033
0.154362
0.155524
0.15651
0.157431
0.158409
0.159795
0.161644
0.164949
0.165566
0.16249
0.16601
0.172685
0.161556
0.162336
0.162539
0.162739
0.1629
0.16303
0.16313
0.163198
0.163236
0.163241
0.16321
0.16314
0.163024
0.162853
0.162614
0.162291
0.161869
0.161323
0.160623
0.159724
0.158569
0.157079
0.155139
0.152571
0.149006
0.143652
0.134818
0.119596
0.09594
0.0617322
0.0248899
0.00605009
0.00188589
0.00177494
0.00204622
0.00247782
0.00323383
0.00482308
0.00935532
0.00101665
0.003068
0.00804821
0.0152762
0.0243638
0.0347609
0.0458391
0.0567419
0.0667527
0.0752723
0.0823433
0.0881934
0.0924422
0.0955228
0.0997239
0.103932
0.106522
0.0736285