/*--------------------------------*- C++ -*----------------------------------*\
| =========                 |                                                 |
| \\      /  F ield         | OpenFOAM: The Open Source CFD Toolbox           |
|  \\    /   O peration     | Version:  v2012                                 |
|   \\  /    A nd           | Website:  www.openfoam.com                      |
|    \\/     M anipulation  |                                                 |
\*---------------------------------------------------------------------------*/
FoamFile
{
    version     2.0;
    format      ascii;
    class       volSymmTensorField;
    location    "13200";
    object      turbulenceProperties:R;
}
// * * * * * * * * * * * * * * * * * * * * * * * * * * * * * * * * * * * * * //

dimensions      [0 2 -2 0 0 0 0];


internalField   nonuniform List<symmTensor> 
31383
(
(0.54122 -0.000106271 0 0.541219 0 0.54122)
(0.547538 -0.000447272 0 0.547538 0 0.547538)
(0.0884925 -0.000113571 0 0.0884912 0 0.0884924)
(0.509203 -0.000400718 0 0.509203 0 0.509203)
(0.173113 -0.000832163 0 0.173113 0 0.173113)
(0.0591712 -0.000222796 0 0.0591687 0 0.059171)
(0.481605 -0.000368458 0 0.481605 0 0.481605)
(0.159577 -0.000738961 0 0.159577 0 0.159577)
(0.67758 -0.00977453 0 0.67758 0 0.67758)
(0.129909 -0.00104594 0 0.129897 0 0.129908)
(0.461201 -0.000345268 0 0.461201 0 0.461201)
(0.149775 -0.000674231 0 0.149775 0 0.149775)
(0.619985 -0.00861508 0 0.619985 0 0.619985)
(2.42489 -0.075615 0 2.42489 0 2.42489)
(0.315897 -0.00460284 9.52452e-28 0.315847 4.76574e-30 0.315892)
(0.444705 -0.000326856 0 0.444705 0 0.444705)
(0.142561 -0.000627933 0 0.142561 0 0.142561)
(0.578087 -0.00780844 0 0.578087 0 0.578087)
(2.21739 -0.0666042 -1.23375e-26 2.21739 -1.2989e-32 2.21739)
(6.44525 -0.362642 0 6.44525 0 6.44525)
(0.681149 -0.016155 -3.18835e-27 0.680978 -1.57499e-29 0.681134)
(0.430921 -0.000311695 0 0.430921 0 0.430921)
(0.136735 -0.000591269 0 0.136735 0 0.136735)
(0.547342 -0.00723338 0 0.547342 0 0.547342)
(2.06635 -0.0603312 0 2.06635 0 2.06635)
(5.89319 -0.319457 5.64475e-26 5.89319 5.94284e-32 5.89319)
(14.2294 -1.29091 -3.20353e-25 14.2294 -2.53424e-32 14.2294)
(1.32541 -0.0474471 0 1.32492 0 1.32537)
(0.419363 -0.000299193 0 0.419363 0 0.419363)
(0.131901 -0.000561274 0 0.131901 0 0.131901)
(0.52253 -0.00677892 0 0.52253 0 0.52253)
(1.95554 -0.0558597 0 1.95554 0 1.95554)
(5.49118 -0.289365 0 5.49118 0 5.49118)
(13.0117 -1.13791 0 13.0117 0 13.0117)
(27.8331 -3.76091 8.77456e-25 27.8331 6.94788e-32 27.8331)
(2.39522 -0.12346 0 2.39396 0 2.3951)
(0.409559 -0.000288763 0 0.409559 0 0.409559)
(0.127859 -0.000536624 0 0.127859 0 0.127859)
(0.502032 -0.00640884 0 0.502032 0 0.502032)
(1.86611 -0.0523262 0 1.86611 0 1.86611)
(5.19621 -0.267911 0 5.19621 0 5.19621)
(12.1244 -1.03114 0 12.1244 0 12.1244)
(25.461 -3.3205 0 25.4609 0 25.4609)
(49.9313 -9.42843 2.90393e-24 49.9313 -3.43657e-32 49.9313)
(4.10365 -0.294652 0 4.10071 0 4.10338)
(0.401011 -0.000279749 0 0.401011 0 0.401011)
(0.124442 -0.000516119 0 0.124442 0 0.124442)
(0.484939 -0.00610554 0 0.484939 0 0.484939)
(1.79225 -0.0494498 0 1.79225 0 1.79225)
(4.95811 -0.250949 0 4.95811 0 4.95811)
(11.4731 -0.954941 2.76463e-25 11.4731 2.08336e-31 11.4731)
(23.7303 -3.01225 0 23.7303 0 23.7303)
(45.7184 -8.34986 0 45.7183 0 45.7183)
(83.6093 -20.8301 -6.03995e-24 83.6094 7.15148e-32 83.6093)
(6.75771 -0.662017 0 6.75136 0 6.75713)
(0.393529 -0.000271872 0 0.393529 0 0.393529)
(0.121485 -0.000498514 0 0.121485 0 0.121485)
(0.470512 -0.00585371 0 0.470512 0 0.470512)
(1.73067 -0.0470923 0 1.73067 0 1.73067)
(4.76149 -0.23714 0 4.76149 0 4.76149)
(10.9474 -0.89466 0 10.9474 0 10.9474)
(22.4592 -2.79184 -7.59429e-25 22.4592 -5.72287e-31 22.4592)
(42.638 -7.59189 -2.58789e-24 42.638 -3.13547e-30 42.638)
(76.6975 -18.5325 0 76.6972 0 76.6974)
(131.602 -40.8348 0 131.602 0 131.602)
(10.7919 -1.44967 0 10.7789 0 10.7906)
(0.386801 -0.000264782 0 0.386801 0 0.386801)
(0.118887 -0.000483112 0 0.118887 0 0.118887)
(0.4581 -0.00563865 0 0.4581 0 0.4581)
(1.67871 -0.0451363 0 1.67871 0 1.67871)
(4.59756 -0.225822 0 4.59756 0 4.59756)
(10.5131 -0.84556 0 10.5131 0 10.5131)
(21.4326 -2.61721 0 21.4326 0 21.4326)
(40.3726 -7.04786 0 40.3726 0 40.3726)
(71.6248 -16.9162 5.4195e-24 71.6246 6.56621e-30 71.6247)
(121.114 -36.6203 0 121.114 0 121.114)
(194.921 -71.1981 0 194.921 0 194.921)
(16.7934 -3.05092 9.10981e-24 16.7686 3.68282e-26 16.7909)
(0.380785 -0.000258435 0 0.380785 0 0.380785)
(0.116549 -0.000469269 0 0.116549 0 0.116549)
(0.447167 -0.00545035 0 0.447167 0 0.447167)
(1.63402 -0.0434655 0 1.63402 0 1.63402)
(4.45923 -0.216431 0 4.45923 0 4.45923)
(10.1511 -0.805307 0 10.1511 0 10.1511)
(20.5844 -2.47483 0 20.5844 0 20.5844)
(38.5411 -6.61577 0 38.541 0 38.5411)
(67.8841 -15.749 0 67.8839 0 67.884)
(113.366 -33.6277 0 113.365 0 113.365)
(180.255 -64.5663 0 180.253 0 180.254)
(271.557 -111.08 0 271.558 0 271.557)
(25.4866 -5.79918 2.02531e-24 25.4418 6.98412e-27 25.4818)
(0.375336 -0.000252686 0 0.375336 0 0.375336)
(0.114454 -0.000456876 0 0.114454 0 0.114454)
(0.437317 -0.00528125 0 0.437317 0 0.437317)
(1.59465 -0.0420035 0 1.59465 0 1.59465)
(4.34026 -0.20841 0 4.34026 0 4.34026)
(9.84547 -0.771886 0 9.84547 0 9.84547)
(19.877 -2.35805 0 19.877 0 19.877)
(37.027 -6.26274 0 37.0269 0 37.0269)
(64.8549 -14.8186 0 64.8548 0 64.8549)
(107.628 -31.4416 0 107.628 0 107.628)
(169.303 -59.7532 0 169.302 0 169.303)
(252.636 -101.915 0 252.633 0 252.635)
(356.415 -156.647 0 356.415 0 356.415)
(37.6937 -10.6404 -3.16782e-23 37.6168 -1.13423e-25 37.6851)
(0.370427 -0.000247549 0 0.370427 0 0.370427)
(0.112553 -0.000445663 0 0.112553 0 0.112553)
(0.428481 -0.00512993 0 0.428481 0 0.428481)
(1.55919 -0.0406905 0 1.55919 0 1.55919)
(4.23547 -0.201392 0 4.23547 0 4.23547)
(9.58267 -0.743339 0 9.58267 0 9.58267)
(19.2799 -2.26098 0 19.2799 0 19.2799)
(35.7632 -5.97266 0 35.7631 0 35.7631)
(62.3477 -14.0576 0 62.3475 0 62.3476)
(102.968 -29.6905 0 102.968 0 102.968)
(161.152 -56.1898 0 161.151 0 161.151)
(238.339 -95.1318 3.68187e-22 238.338 8.05697e-28 238.339)
(333.763 -145.347 0 333.759 0 333.762)
(443.016 -203.099 9.00164e-22 443.014 -2.31449e-28 443.014)
(54.0475 -18.2718 6.51722e-23 53.9212 2.14221e-25 54.0323)
(0.366001 -0.000242955 0 0.366001 0 0.366001)
(0.110851 -0.000435684 0 0.110851 0 0.110851)
(0.420457 -0.00499316 0 0.420457 0 0.420457)
(1.52737 -0.039516 0 1.52737 0 1.52737)
(4.14107 -0.195087 0 4.14107 0 4.14107)
(9.35127 -0.718365 0 9.35127 0 9.35127)
(18.7662 -2.17802 0 18.7662 0 18.7662)
(34.6958 -5.73124 0 34.6958 0 34.6958)
(60.252 -13.4266 0 60.2519 0 60.2519)
(99.1028 -28.2648 0 99.1025 0 99.1027)
(154.503 -53.3172 0 154.502 0 154.503)
(227.639 -90.0719 0 227.637 0 227.638)
(316.443 -136.844 -5.32659e-22 316.441 -1.16561e-27 316.442)
(417.529 -190.265 0 417.522 0 417.526)
(525.746 -244.47 -1.12205e-21 525.74 2.89313e-28 525.742)
(74.6006 -27.0213 -9.86558e-23 74.403 -3.17875e-25 74.5764)
(0.362049 -0.000238884 0 0.362049 0 0.362049)
(0.109323 -0.000426799 0 0.109323 0 0.109323)
(0.413298 -0.00487179 0 0.413298 0 0.413298)
(1.49847 -0.0384536 0 1.49847 0 1.49847)
(4.05637 -0.189449 0 4.05637 0 4.05637)
(9.14273 -0.695924 0 9.14273 0 9.14273)
(18.3138 -2.10539 0 18.3138 0 18.3138)
(33.7774 -5.52462 0 33.7774 0 33.7774)
(58.4799 -12.9018 0 58.4798 0 58.4799)
(95.8648 -27.054 0 95.8646 0 95.8647)
(148.966 -50.9607 0 148.966 0 148.966)
(218.863 -85.9559 0 218.862 0 218.863)
(303.407 -130.466 0 303.405 0 303.406)
(397.825 -180.487 0 397.821 0 397.823)
(498.33 -231.722 0 498.321 0 498.326)
(601.297 -279.601 1.54369e-21 601.286 5.09278e-28 601.289)
(99.3622 -38.1023 1.69448e-22 99.0666 5.36818e-25 99.3252)
(0.358457 -0.000235222 0 0.358457 0 0.358457)
(0.107956 -0.000418916 0 0.107956 0 0.107956)
(0.406893 -0.00476404 0 0.406893 0 0.406893)
(1.4727 -0.0375119 0 1.4727 0 1.4727)
(3.97947 -0.184351 0 3.97947 0 3.97947)
(8.95567 -0.675859 0 8.95567 0 8.95567)
(17.9062 -2.04016 0 17.9062 0 17.9062)
(32.9684 -5.34371 0 32.9684 0 32.9684)
(56.9544 -12.4518 0 56.9543 0 56.9543)
(93.1221 -26.0539 0 93.1219 0 93.122)
(144.326 -48.9607 0 144.325 0 144.325)
(211.516 -82.5119 0 211.515 0 211.516)
(292.654 -125.216 0 292.652 0 292.653)
(382.912 -173.094 0 382.909 0 382.911)
(476.931 -221.772 0 476.925 0 476.928)
(572.552 -266.235 0 572.541 0 572.547)
(667.878 -310.567 2.02055e-21 667.859 2.25125e-27 667.863)
(127.845 -52.1683 -2.4267e-22 127.421 -7.21837e-25 127.789)
(0.355239 -0.000231976 0 0.355239 0 0.355239)
(0.106724 -0.000411867 0 0.106724 0 0.106724)
(0.401159 -0.00466842 0 0.401159 0 0.401159)
(1.44964 -0.0366755 0 1.44964 0 1.44964)
(3.91087 -0.179832 -3.77123e-26 3.91087 -1.77771e-32 3.91087)
(8.7858 -0.65771 -1.5205e-25 8.7858 -9.14147e-32 8.7858)
(17.5406 -1.98179 0 17.5406 0 17.5406)
(32.2394 -5.18137 0 32.2394 0 32.2394)
(55.6099 -12.0574 0 55.6098 0 55.6099)
(90.7581 -25.1956 0 90.7579 0 90.758)
(140.376 -47.2874 0 140.376 0 140.376)
(205.363 -79.6492 -3.72582e-22 205.362 -5.92756e-28 205.363)
(283.613 -120.8 0 283.611 0 283.612)
(370.555 -166.962 0 370.552 0 370.553)
(460.665 -214.208 0 460.659 0 460.662)
(549.96 -255.729 0 549.951 0 549.956)
(638.456 -296.883 0 638.441 0 638.449)
(724.458 -336.935 -2.04969e-21 724.428 -4.06069e-28 724.435)
(158.877 -70.408 0 158.291 0 158.791)
(0.352311 -0.00022905 0 0.352311 0 0.352311)
(0.105619 -0.000405613 0 0.105619 0 0.105619)
(0.396022 -0.00458331 0 0.396022 0 0.396022)
(1.42901 -0.035934 0 1.42901 0 1.42901)
(3.84951 -0.175817 0 3.84951 0 3.84951)
(8.63427 -0.641617 1.27239e-25 8.63427 5.99788e-32 8.63427)
(17.2085 -1.92899 4.18784e-25 17.2085 2.51779e-31 17.2085)
(31.5853 -5.03537 0 31.5853 0 31.5853)
(54.3976 -11.7064 0 54.3976 0 54.3976)
(88.6727 -24.438 0 88.6726 0 88.6727)
(136.967 -45.8598 0 136.966 0 136.967)
(200.09 -77.196 0 200.09 0 200.09)
(276.027 -117.11 5.47053e-22 276.025 8.70328e-28 276.026)
(360.133 -161.824 0 360.13 0 360.131)
(447.161 -207.668 -1.22062e-21 447.156 -3.3336e-27 447.159)
(532.732 -247.719 0 532.725 0 532.729)
(615.192 -286.065 0 615.18 0 615.186)
(694.93 -323.179 0 694.911 0 694.92)
(771.006 -358.532 2.84057e-21 770.962 6.59763e-27 770.972)
(190.15 -88.2807 1.13577e-21 189.382 2.85982e-24 190.028)
(0.349666 -0.000226434 0 0.349666 0 0.349666)
(0.104624 -0.000400015 0 0.104624 0 0.104624)
(0.391413 -0.00450777 0 0.391413 0 0.391413)
(1.41053 -0.0352736 0 1.41053 0 1.41053)
(3.79459 -0.172257 0 3.79459 0 3.79459)
(8.49873 -0.627325 0 8.49873 0 8.49873)
(16.9124 -1.88216 0 16.9124 0 16.9124)
(30.9914 -4.90363 0 30.9914 0 30.9914)
(53.3098 -11.3839 0 53.3097 0 53.3097)
(86.7907 -23.7643 0 86.7906 0 86.7907)
(133.957 -44.5781 0 133.956 0 133.957)
(195.528 -75.0995 0 195.527 0 195.527)
(269.496 -113.938 0 269.495 0 269.495)
(351.364 -157.509 0 351.361 0 351.363)
(435.736 -202.031 0 435.732 0 435.734)
(518.47 -241.087 -1.08847e-22 518.463 -8.20811e-28 518.467)
(597.4 -277.791 0 597.39 0 597.395)
(671.414 -312.232 4.62204e-21 671.399 2.13613e-26 671.407)
(741.805 -344.96 0 741.782 0 741.793)
(808.19 -375.798 2.76322e-22 808.129 4.66294e-27 808.142)
(220.182 -102.219 7.13981e-23 219.251 2.69355e-25 220.022)
(0.347267 -0.000224082 0 0.347267 0 0.347267)
(0.103726 -0.000395012 0 0.103726 0 0.103726)
(0.387284 -0.00444047 0 0.387284 0 0.387284)
(1.39394 -0.0346876 0 1.39394 0 1.39394)
(3.74541 -0.169087 0 3.74541 0 3.74541)
(8.37747 -0.614655 0 8.37747 0 8.37747)
(16.6475 -1.84058 0 16.6475 0 16.6475)
(30.4615 -4.78668 0 30.4615 0 30.4615)
(52.322 -11.0957 0 52.3219 0 52.3219)
(85.1041 -23.1448 0 85.1039 0 85.104)
(131.235 -43.4339 0 131.235 0 131.235)
(191.504 -73.2126 0 191.504 0 191.504)
(263.819 -111.179 0 263.817 0 263.818)
(343.784 -153.78 0 343.782 0 343.783)
(426.097 -197.284 -1.27058e-21 426.093 -2.89748e-27 426.095)
(506.389 -235.47 0 506.383 0 506.386)
(582.675 -270.944 -1.22326e-22 582.666 -1.09989e-27 582.671)
(653.384 -303.842 2.34684e-21 653.371 9.46082e-27 653.378)
(718.343 -334.055 -5.21297e-21 718.323 -2.40923e-26 718.334)
(779.629 -362.527 -6.32634e-21 779.599 -4.87435e-26 779.613)
(837.029 -389.197 7.42838e-21 836.947 2.94713e-26 836.964)
(248.416 -115.343 -5.41744e-21 247.317 -1.1926e-23 248.213)
(0.345098 -0.000221973 0 0.345098 0 0.345098)
(0.102914 -0.000390521 0 0.102914 0 0.102914)
(0.383565 -0.00438036 0 0.383565 0 0.383565)
(1.37909 -0.0341657 3.81136e-27 1.37909 9.20634e-34 1.37909)
(3.70128 -0.166275 0 3.70128 0 3.70128)
(8.26887 -0.603373 0 8.26887 0 8.26887)
(16.4103 -1.80367 0 16.4103 0 16.4103)
(29.9873 -4.68269 0 29.9873 0 29.9873)
(51.4402 -10.8397 0 51.4402 0 51.4402)
(83.5701 -22.5908 0 83.5699 0 83.57)
(128.803 -42.4045 0 128.803 0 128.803)
(187.856 -71.5226 0 187.856 0 187.856)
(258.835 -108.752 0 258.833 0 258.834)
(337.172 -150.515 0 337.17 0 337.171)
(417.738 -193.143 0 417.735 0 417.737)
(496.169 -230.717 -1.15443e-22 496.163 -7.2751e-28 496.166)
(570.176 -265.132 0 570.169 0 570.173)
(638.462 -296.899 -1.34045e-22 638.45 -1.44239e-27 638.456)
(700.315 -325.675 1.39668e-22 700.298 1.96333e-27 700.307)
(756.426 -351.739 0 756.4 0 756.414)
(809.399 -376.363 6.94707e-21 809.362 5.35262e-26 809.379)
(858.725 -399.277 -7.4313e-21 858.616 -1.68235e-26 858.639)
(273.999 -127.189 -1.77678e-22 272.722 -7.16219e-25 273.747)
(0.343128 -0.00022007 0 0.343128 0 0.343128)
(0.102182 -0.000386504 0 0.102182 0 0.102182)
(0.380213 -0.0043265 0 0.380213 0 0.380213)
(1.36572 -0.0336997 0 1.36572 0 1.36572)
(3.66176 -0.163769 -1.74326e-26 3.66176 -4.21085e-33 3.66176)
(8.17133 -0.59335 0 8.17133 0 8.17133)
(16.1979 -1.77079 0 16.1979 0 16.1979)
(29.5627 -4.59039 1.5304e-24 29.5627 9.94831e-31 29.5627)
(50.6509 -10.6122 0 50.6508 0 50.6509)
(82.2001 -22.0971 0 82.1999 0 82.2)
(126.585 -41.4685 0 126.585 0 126.585)
(184.602 -70.0133 -2.09579e-22 184.601 -2.85267e-28 184.601)
(254.299 -106.541 0 254.297 0 254.298)
(331.39 -147.677 0 331.388 0 331.389)
(410.436 -189.538 -1.34174e-21 410.433 -2.64514e-27 410.435)
(487.292 -226.59 1.70375e-21 487.288 3.9246e-27 487.29)
(559.581 -260.205 -1.30198e-22 559.574 -9.78401e-28 559.578)
(625.782 -291 0 625.772 0 625.778)
(685.401 -318.742 -1.43907e-22 685.386 -1.85814e-27 685.394)
(738.57 -343.438 1.47286e-22 738.549 2.49519e-27 738.561)
(786.569 -365.749 0 786.537 0 786.554)
(832.283 -387.001 1.63259e-20 832.238 1.47019e-25 832.259)
(874.478 -406.593 -8.58399e-21 874.336 -3.5802e-26 874.366)
(296.214 -137.475 1.03471e-20 294.751 2.06679e-23 295.908)
(0.341337 -0.00021835 0 0.341337 0 0.341337)
(0.10152 -0.000382891 0 0.10152 0 0.10152)
(0.377195 -0.00427839 0 0.377195 0 0.377195)
(1.35367 -0.0332824 0 1.35367 0 1.35367)
(3.62617 -0.161533 0 3.62617 0 3.62617)
(8.08407 -0.584425 0 8.08407 0 8.08407)
(16.0073 -1.74162 0 16.0073 0 16.0073)
(29.1823 -4.50812 0 29.1823 0 29.1823)
(49.9436 -10.4091 -3.24604e-24 49.9435 -2.11007e-30 49.9435)
(80.9714 -21.6611 0 80.9713 0 80.9713)
(124.602 -40.6333 0 124.602 0 124.602)
(181.628 -68.6244 0 181.628 0 181.628)
(250.255 -104.571 3.1097e-22 250.254 4.23275e-28 250.255)
(326.115 -145.055 0 326.113 0 326.114)
(404.064 -186.404 0 404.061 0 404.063)
(479.525 -222.978 1.6343e-21 479.521 3.22188e-27 479.523)
(550.37 -255.922 -2.00183e-21 550.364 -4.61122e-27 550.368)
(615.016 -285.991 2.38489e-21 615.007 6.84975e-27 615.012)
(672.72 -312.849 0 672.706 0 672.714)
(723.802 -336.572 3.18041e-21 723.784 1.36714e-26 723.794)
(769 -357.581 3.88924e-21 768.973 2.45166e-26 768.987)
(809.913 -376.601 0 809.873 0 809.894)
(849.502 -395.005 6.11445e-22 849.446 1.95609e-26 849.472)
(885.38 -411.652 1.9423e-20 885.201 1.26981e-25 885.239)
(314.524 -145.948 2.03883e-22 312.869 9.00286e-25 314.158)
(0.339689 -0.000216772 0 0.339689 0 0.339689)
(0.100918 -0.000379624 0 0.100918 0 0.100918)
(0.374475 -0.0042352 0 0.374475 0 0.374475)
(1.34282 -0.0329095 0 1.34282 0 1.34282)
(3.59411 -0.15953 0 3.59411 0 3.59411)
(8.00547 -0.57646 9.54667e-26 8.00547 3.53473e-32 8.00547)
(15.8365 -1.71561 0 15.8365 0 15.8365)
(28.8409 -4.43503 0 28.8409 0 28.8409)
(49.3098 -10.2283 0 49.3097 0 49.3097)
(79.8701 -21.2645 0 79.8699 0 79.87)
(122.819 -39.8936 0 122.819 0 122.819)
(178.965 -67.3869 0 178.964 0 178.965)
(246.561 -102.757 -3.57629e-22 246.56 -5.44664e-28 246.561)
(321.417 -142.733 0 321.415 0 321.416)
(398.254 -183.515 0 398.251 0 398.253)
(472.753 -219.829 -9.09069e-22 472.749 -2.01372e-27 472.752)
(542.295 -252.166 -2.20733e-21 542.289 -5.49009e-27 542.292)
(605.653 -281.636 0 605.644 0 605.649)
(661.939 -307.838 0 661.927 0 661.934)
(711.248 -330.736 0 711.231 0 711.241)
(754.471 -350.826 0 754.448 0 754.461)
(792.689 -368.593 -8.13642e-21 792.656 -4.65735e-26 792.674)
(827.623 -384.834 0 827.575 0 827.601)
(862.115 -399.663 -3.90246e-20 862.048 -3.98889e-25 862.078)
(892.313 -413.96 -2.03099e-20 892.089 -1.3396e-25 892.138)
(328.604 -152.454 -2.06012e-20 326.757 -3.90159e-23 328.174)
(0.338171 -0.000215322 0 0.338171 0 0.338171)
(0.100365 -0.000376632 0 0.100365 0 0.100365)
(0.372002 -0.00419617 0 0.372002 0 0.372002)
(1.33304 -0.0325747 0 1.33304 0 1.33304)
(3.56524 -0.15774 0 3.56524 0 3.56524)
(7.93467 -0.569326 0 7.93467 0 7.93467)
(15.6828 -1.69238 -2.63163e-25 15.6828 -9.74384e-32 15.6828)
(28.5351 -4.36985 0 28.5351 0 28.5351)
(48.7404 -10.0676 0 48.7403 0 48.7403)
(78.8821 -20.9151 0 78.8819 0 78.882)
(121.222 -39.2196 0 121.222 0 121.222)
(176.564 -66.2749 0 176.564 0 176.564)
(243.245 -101.135 0 243.244 0 243.245)
(317.133 -140.604 4.95387e-22 317.131 7.54467e-28 317.132)
(393.082 -180.949 -7.39758e-22 393.079 -1.44078e-27 393.081)
(466.602 -216.969 0 466.598 0 466.6)
(535.261 -248.896 -7.26779e-23 535.255 -4.65514e-28 535.258)
(597.424 -277.809 2.54365e-21 597.417 6.32658e-27 597.421)
(652.565 -303.481 0 652.554 0 652.56)
(700.561 -325.767 -7.06178e-21 700.545 -2.84868e-26 700.554)
(742.123 -345.085 0 742.102 0 742.114)
(778.447 -361.972 0 778.418 0 778.434)
(810.773 -377 0 810.732 0 810.755)
(840.755 -389.842 0 840.697 0 840.728)
(871.021 -402.659 -6.23294e-22 870.942 -2.76419e-26 870.977)
(895.982 -414.996 0 895.708 0 895.769)
(338.395 -156.969 3.04628e-20 336.363 5.60527e-23 337.899)
(0.33677 -0.000213988 0 0.33677 0 0.33677)
(0.099856 -0.000373882 0 0.099856 0 0.099856)
(0.369731 -0.00416045 0 0.369731 0 0.369731)
(1.32415 -0.0322722 0 1.32415 0 1.32415)
(3.53923 -0.156133 0 3.53923 0 3.53923)
(7.87087 -0.562944 0 7.87087 0 7.87087)
(15.5442 -1.67158 0 15.5442 0 15.5442)
(28.2595 -4.31159 0 28.2595 0 28.2595)
(48.2303 -9.92403 0 48.2302 0 48.2303)
(77.9941 -20.602 0 77.9939 0 77.994)
(119.786 -38.6265 0 119.786 0 119.786)
(174.417 -65.2811 0 174.416 0 174.417)
(240.246 -99.6687 0 240.245 0 240.246)
(313.278 -138.689 0 313.276 0 313.277)
(388.375 -178.613 0 388.373 0 388.374)
(461.124 -214.422 -6.93944e-23 461.12 -3.66019e-28 461.122)
(528.893 -245.934 0 528.887 0 528.89)
(590.263 -274.478 -8.01479e-23 590.255 -6.11428e-28 590.26)
(644.307 -299.643 -3.22453e-21 644.297 -1.00667e-26 644.302)
(691.267 -321.446 0 691.253 0 691.26)
(731.589 -340.187 7.79087e-21 731.57 3.14279e-26 731.581)
(766.346 -356.345 0 766.32 0 766.334)
(796.844 -370.524 -9.6849e-21 796.808 -6.53702e-26 796.828)
(824.29 -382.321 0 824.241 0 824.268)
(850.194 -393.062 0 850.125 0 850.162)
(876.836 -404.459 6.81589e-20 876.741 8.43849e-25 876.783)
(896.856 -414.91 4.72026e-20 896.524 5.76068e-25 896.6)
(343.968 -159.528 4.45707e-22 341.767 2.2893e-24 343.405)
(0.33547 -0.000212757 0 0.33547 0 0.33547)
(0.0993873 -0.000371358 0 0.0993873 0 0.0993873)
(0.367643 -0.00412768 0 0.367643 0 0.367643)
(1.31599 -0.0319954 0 1.31599 0 1.31599)
(3.51559 -0.154682 0 3.51559 0 3.51559)
(7.8134 -0.557223 0 7.8134 0 7.8134)
(15.4195 -1.65296 0 15.4195 0 15.4195)
(28.0112 -4.2594 0 28.0112 0 28.0112)
(47.7706 -9.79561 0 47.7705 0 47.7705)
(77.198 -20.3225 0 77.1979 0 77.198)
(118.492 -38.0867 0 118.492 0 118.492)
(172.477 -64.3919 0 172.476 0 172.477)
(237.566 -98.363 0 237.565 0 237.565)
(309.781 -136.95 5.83805e-22 309.779 8.99344e-28 309.78)
(384.135 -176.499 0 384.132 0 384.133)
(456.15 -212.109 0 456.147 0 456.149)
(523.226 -243.3 1.15089e-21 523.221 2.5137e-27 523.224)
(583.801 -271.472 -1.45001e-21 583.794 -3.97272e-27 583.798)
(637.121 -296.304 -8.65213e-23 637.112 -7.887e-28 637.117)
(683.066 -317.633 -1.76151e-22 683.053 -1.96046e-27 683.06)
(722.435 -335.931 0 722.418 0 722.427)
(756.011 -351.54 -9.2246e-21 755.988 -4.66356e-26 756.001)
(785.002 -365.019 9.983e-21 784.97 6.1837e-26 784.988)
(810.681 -376.109 1.02958e-20 810.638 6.94938e-26 810.662)
(834.135 -385.697 0 834.076 0 834.109)
(856.58 -395.128 0 856.498 0 856.542)
(880.031 -405.118 1.2542e-21 879.92 7.70291e-26 879.969)
(895.288 -413.806 -4.83737e-20 894.889 -5.97336e-25 894.983)
(345.358 -160.153 -1.75625e-20 343.024 -3.05027e-23 344.734)
(0.334265 -0.000211628 0 0.334265 0 0.334265)
(0.0989533 -0.000369032 0 0.0989533 0 0.0989533)
(0.365721 -0.00409754 0 0.365721 0 0.365721)
(1.30849 -0.0317412 0 1.30849 0 1.30849)
(3.49387 -0.153352 0 3.49387 0 3.49387)
(7.7612 -0.55205 0 7.7612 0 7.7612)
(15.3071 -1.63627 0 15.3071 0 15.3071)
(27.7875 -4.21269 0 27.7875 0 27.7875)
(47.356 -9.68045 0 47.3559 0 47.3559)
(76.4794 -20.0729 0 76.4793 0 76.4793)
(117.332 -37.6099 0 117.332 0 117.332)
(170.728 -63.5848 0 170.728 0 170.728)
(235.132 -97.1783 0 235.131 0 235.131)
(306.652 -135.398 0 306.651 0 306.651)
(380.277 -174.574 -7.6346e-22 380.275 -1.1761e-27 380.276)
(451.666 -210.024 0 451.662 0 451.664)
(518.092 -240.912 -1.28407e-21 518.087 -3.09493e-27 518.09)
(578.063 -268.803 0 578.056 0 578.06)
(630.664 -293.302 1.6456e-21 630.655 4.50859e-27 630.66)
(675.932 -314.317 -2.05336e-21 675.92 -7.80914e-27 675.927)
(714.354 -332.174 -1.84215e-22 714.338 -2.4625e-27 714.347)
(747.024 -347.362 0 747.002 0 747.014)
(774.887 -360.316 -3.60581e-22 774.858 -8.07542e-27 774.874)
(799.119 -370.831 3.52501e-22 799.08 1.03365e-26 799.102)
(820.845 -379.621 0 820.793 0 820.822)
(840.94 -387.966 0 840.871 0 840.909)
(860.373 -396.056 0 860.277 0 860.33)
(880.994 -404.792 -1.01784e-19 880.865 -1.39372e-24 880.921)
(891.577 -411.836 0 891.103 0 891.219)
(342.345 -158.751 0 339.936 0 341.669)
(0.333146 -0.000210588 0 0.333146 0 0.333146)
(0.0985533 -0.000366905 0 0.0985533 0 0.0985533)
(0.363949 -0.00406993 0 0.363949 0 0.363949)
(1.30159 -0.0315079 0 1.30159 0 1.30159)
(3.47391 -0.152133 0 3.47391 0 3.47391)
(7.7132 -0.547312 0 7.7132 0 7.7132)
(15.2049 -1.62117 0 15.2049 0 15.2049)
(27.5859 -4.17075 0 27.5859 0 27.5859)
(46.9824 -9.57731 0 46.9823 0 46.9823)
(75.8314 -19.8482 0 75.8313 0 75.8313)
(116.283 -37.1801 0 116.283 0 116.283)
(169.156 -62.8686 2.6855e-22 169.155 2.64191e-28 169.155)
(232.939 -96.1182 4.28807e-22 232.938 4.97492e-28 232.939)
(303.8 -133.98 0 303.799 0 303.799)
(376.821 -172.851 0 376.819 0 376.82)
(447.582 -208.125 1.10143e-21 447.578 2.13982e-27 447.58)
(513.461 -238.759 0 513.456 0 513.459)
(572.873 -266.389 1.4829e-21 572.867 3.57415e-27 572.87)
(624.94 -290.636 0 624.931 0 624.936)
(669.545 -311.348 -2.03766e-21 669.534 -6.97221e-27 669.541)
(707.314 -328.9 -1.92079e-22 707.299 -2.51388e-27 707.307)
(739.089 -343.673 4.76141e-21 739.07 1.86283e-26 739.081)
(766.086 -356.224 0 766.06 0 766.074)
(789.23 -366.304 1.09915e-20 789.195 6.22288e-26 789.215)
(809.555 -374.457 -1.15485e-20 809.509 -8.01118e-26 809.535)
(827.983 -382.038 0 827.921 0 827.956)
(845.166 -389.075 0 845.084 0 845.13)
(861.975 -396.002 0 861.861 0 861.924)
(880.065 -403.711 5.28664e-20 879.915 7.26027e-25 879.979)
(885.939 -409.099 0 885.379 0 885.521)
(333.993 -154.898 -3.80324e-20 331.571 -6.72871e-23 333.279)
(0.332109 -0.000209637 0 0.332109 0 0.332109)
(0.098184 -0.000364953 0 0.098184 0 0.098184)
(0.362319 -0.00404465 0 0.362319 0 0.362319)
(1.29522 -0.031294 0 1.29522 0 1.29522)
(3.45554 -0.151014 0 3.45554 0 3.45554)
(7.66913 -0.542966 0 7.66913 0 7.66913)
(15.111 -1.60735 4.03523e-25 15.111 2.815e-31 15.111)
(27.4027 -4.13283 0 27.4027 0 27.4027)
(46.6455 -9.48463 0 46.6454 0 46.6455)
(75.2467 -19.6464 0 75.2466 0 75.2467)
(115.337 -36.7928 0 115.337 0 115.337)
(167.732 -62.2153 0 167.731 0 167.731)
(230.958 -95.158 -4.02059e-22 230.957 -3.95534e-28 230.957)
(301.229 -132.707 -5.97638e-22 301.227 -6.93366e-28 301.228)
(373.662 -171.278 0 373.66 0 373.661)
(443.915 -206.42 0 443.912 0 443.914)
(509.239 -236.795 -1.30111e-21 509.234 -2.52777e-27 509.237)
(568.19 -264.211 1.63857e-21 568.184 4.18707e-27 568.188)
(619.778 -288.232 0 619.769 0 619.775)
(663.893 -308.72 0 663.881 0 663.888)
(701.04 -325.983 -1.00201e-22 701.026 -1.28487e-27 701.034)
(732.176 -340.458 -1.98829e-22 732.157 -3.1198e-27 732.168)
(758.305 -352.607 0 758.281 0 758.294)
(780.615 -362.386 0 780.584 0 780.601)
(799.893 -370 -2.46514e-20 799.852 -1.75196e-25 799.875)
(816.973 -376.999 0 816.918 0 816.949)
(832.555 -383.291 0 832.482 0 832.523)
(847.219 -389.251 0 847.123 0 847.177)
(861.724 -395.143 0 861.591 0 861.664)
(877.505 -401.978 0 877.331 0 877.404)
(878.562 -405.713 0 877.902 0 878.076)
(318.615 -147.807 3.74179e-20 316.173 6.28332e-23 317.868)
(0.331143 -0.000208765 0 0.331143 0 0.331143)
(0.0978427 -0.000363171 0 0.0978427 0 0.0978427)
(0.36082 -0.00402157 0 0.36082 0 0.36082)
(1.28937 -0.0310981 0 1.28937 0 1.28937)
(3.43859 -0.149985 0 3.43859 0 3.43859)
(7.62853 -0.538973 0 7.62853 0 7.62853)
(15.0247 -1.59465 0 15.0247 0 15.0247)
(27.2343 -4.09809 -9.61759e-25 27.2343 -6.70929e-31 27.2343)
(46.3393 -9.40081 0 46.3392 0 46.3393)
(74.72 -19.4653 0 74.72 0 74.72)
(114.481 -36.4452 0 114.481 0 114.481)
(166.444 -61.6294 0 166.444 0 166.444)
(229.164 -94.287 0 229.163 0 229.163)
(298.897 -131.554 6.83987e-22 298.896 8.64198e-28 298.897)
(370.809 -169.848 9.36131e-22 370.807 1.38786e-27 370.808)
(440.556 -204.858 0 440.553 0 440.555)
(505.443 -235.03 0 505.438 0 505.441)
(563.917 -262.224 0 563.911 0 563.914)
(615.114 -286.06 1.03086e-22 615.106 8.49038e-28 615.11)
(658.812 -306.358 -2.21739e-21 658.801 -7.43896e-27 658.807)
(695.493 -323.404 -4.89669e-21 695.479 -1.86496e-26 695.487)
(726.028 -337.6 -2.77935e-21 726.011 -1.30165e-26 726.021)
(751.538 -349.46 -2.04086e-22 751.515 -3.83264e-27 751.528)
(772.994 -358.884 -1.22333e-20 772.965 -6.71795e-26 772.981)
(791.471 -366.14 0 791.434 0 791.455)
(807.55 -372.687 -7.45922e-22 807.501 -2.81053e-26 807.529)
(821.838 -378.407 -2.73392e-20 821.773 -2.66972e-25 821.81)
(834.967 -383.623 -5.6051e-20 834.882 -6.70146e-25 834.931)
(847.427 -388.632 0 847.315 0 847.378)
(859.888 -393.7 0 859.733 0 859.819)
(873.527 -399.68 0 873.325 0 873.409)
(869.565 -401.692 0 868.79 0 869.005)
(296.073 -137.417 0 293.53 0 295.295)
(0.330242 -0.000207959 0 0.330242 0 0.330242)
(0.0975273 -0.000361544 0 0.0975273 0 0.0975273)
(0.359443 -0.00400054 0 0.359443 0 0.359443)
(1.28399 -0.0309194 0 1.28399 0 1.28399)
(3.42301 -0.149045 0 3.42301 0 3.42301)
(7.59107 -0.53531 0 7.59107 0 7.59107)
(14.9453 -1.58301 0 14.9453 0 14.9453)
(27.0797 -4.06621 0 27.0797 0 27.0797)
(46.058 -9.32399 0 46.058 0 46.058)
(74.24 -19.3008 0 74.24 0 74.24)
(113.71 -36.133 0 113.71 0 113.71)
(165.28 -61.1038 0 165.279 0 165.279)
(227.536 -93.5047 0 227.536 0 227.536)
(296.785 -130.51 0 296.783 0 296.784)
(368.216 -168.565 -8.97945e-22 368.214 -1.13453e-27 368.215)
(437.519 -203.446 -1.15841e-21 437.516 -1.7174e-27 437.517)
(501.957 -233.409 0 501.953 0 501.956)
(560.069 -260.435 0 560.064 0 560.067)
(610.855 -284.077 0 610.847 0 610.852)
(654.215 -304.221 1.0963e-22 654.205 1.0783e-27 654.211)
(690.52 -321.092 -1.09924e-22 690.506 -1.36234e-27 690.514)
(720.608 -335.08 5.35557e-21 720.591 2.03972e-26 720.601)
(745.524 -346.664 5.78813e-21 745.502 2.47119e-26 745.515)
(766.373 -355.859 6.15638e-21 766.345 2.98339e-26 766.361)
(784.023 -362.735 1.2887e-20 783.988 7.07693e-26 784.008)
(799.328 -368.914 0 799.283 0 799.309)
(812.655 -374.235 -7.4902e-22 812.596 -3.33635e-26 812.629)
(824.536 -378.888 5.72838e-20 824.46 5.93838e-25 824.504)
(835.541 -383.203 -1.38408e-21 835.441 -1.03143e-25 835.498)
(846.076 -387.368 0 845.945 0 846.019)
(856.707 -391.732 0 856.527 0 856.627)
(868.298 -396.926 -6.08486e-20 868.063 -1.17172e-24 868.16)
(859.049 -397.083 0 858.143 0 858.408)
(269.375 -123.354 0 266.847 0 268.599)
(0.329389 -0.000207204 0 0.329389 0 0.329389)
(0.0972333 -0.000360041 0 0.0972333 0 0.0972333)
(0.358172 -0.00398132 0 0.358172 0 0.358172)
(1.27904 -0.0307565 0 1.27904 0 1.27904)
(3.4087 -0.148187 0 3.4087 0 3.4087)
(7.55667 -0.531961 0 7.55667 0 7.55667)
(14.8721 -1.57232 0 14.8721 0 14.8721)
(26.9372 -4.03694 0 26.9372 0 26.9372)
(45.7994 -9.25345 0 45.7994 0 45.7994)
(73.7994 -19.1505 0 73.7993 0 73.7993)
(113.007 -35.8498 0 113.007 0 113.007)
(164.228 -60.6278 0 164.228 0 164.228)
(226.062 -92.7986 0 226.061 0 226.061)
(294.861 -129.567 0 294.86 0 294.861)
(365.86 -167.402 0 365.858 0 365.859)
(434.749 -202.158 0 434.746 0 434.747)
(498.803 -231.943 0 498.799 0 498.802)
(556.532 -258.79 0 556.527 0 556.53)
(607.016 -282.29 -2.13747e-21 607.009 -5.54723e-27 607.013)
(650.015 -302.268 0 650.005 0 650.011)
(686.019 -318.999 -2.5568e-21 686.007 -8.14237e-27 686.014)
(715.754 -332.823 -3.0316e-21 715.738 -1.387e-26 715.748)
(740.23 -344.202 0 740.209 0 740.221)
(760.499 -353.204 -6.62718e-21 760.473 -3.53214e-26 760.488)
(777.542 -359.754 0 777.509 0 777.528)
(792.053 -365.609 0 792.012 0 792.035)
(804.645 -370.557 -2.94317e-20 804.592 -2.38919e-25 804.622)
(815.606 -374.81 -7.5017e-22 815.537 -3.94265e-26 815.577)
(825.409 -378.568 -9.10549e-20 825.32 -1.07919e-24 825.371)
(834.555 -382.123 -1.38018e-21 834.439 -1.20931e-25 834.506)
(843.386 -385.582 6.25548e-20 843.233 1.15115e-24 843.321)
(852.347 -389.256 0 852.138 0 852.255)
(861.958 -393.77 6.14924e-20 861.685 1.15292e-24 861.797)
(847.059 -391.882 0 846.007 0 846.334)
(240.35 -106.764 0 238.023 0 239.625)
(0.328581 -0.000206492 0 0.328581 0 0.328581)
(0.0969567 -0.000358638 0 0.0969567 0 0.0969567)
(0.356993 -0.00396367 0 0.356993 0 0.356993)
(1.27448 -0.0306077 0 1.27448 0 1.27448)
(3.39554 -0.147404 0 3.39554 0 3.39554)
(7.52507 -0.528901 0 7.52507 0 7.52507)
(14.8047 -1.56254 0 14.8047 0 14.8047)
(26.8058 -4.01005 0 26.8058 0 26.8058)
(45.5613 -9.18864 0 45.5612 0 45.5613)