/*--------------------------------*- C++ -*----------------------------------*\
| =========                 |                                                 |
| \\      /  F ield         | OpenFOAM: The Open Source CFD Toolbox           |
|  \\    /   O peration     | Version:  v2012                                 |
|   \\  /    A nd           | Website:  www.openfoam.com                      |
|    \\/     M anipulation  |                                                 |
\*---------------------------------------------------------------------------*/
FoamFile
{
    version     2.0;
    format      ascii;
    class       volVectorField;
    location    "13200";
    object      U;
}
// * * * * * * * * * * * * * * * * * * * * * * * * * * * * * * * * * * * * * //

dimensions      [0 1 -1 0 0 0 0];


internalField   nonuniform List<vector> 
31383
(
(4.99501 0.00668368 0)
(4.9993 5.64397e-06 0)
(14.9288 0.0200365 0)
(4.82157 1.77802e-06 0)
(15.0768 4.921e-06 0)
(24.927 0.0334735 0)
(4.68948 -1.30694e-06 0)
(14.5406 7.49213e-06 0)
(25.3566 7.57684e-06 0)
(35.1077 0.0471313 0)
(4.58935 7.44244e-08 0)
(14.1419 2.49453e-07 0)
(24.4544 1.71615e-05 0)
(35.9654 9.49586e-06 0)
(45.6347 0.0611418 0)
(4.50678 2.24225e-06 0)
(13.8397 1.76827e-06 0)
(23.7834 5.34993e-06 0)
(34.6848 3.19197e-05 0)
(47.0328 1.03868e-05 0)
(56.6975 0.0756344 0)
(4.4366 1.60025e-06 0)
(13.5905 6.66908e-06 0)
(23.2748 6.10635e-06 0)
(33.7324 1.31636e-05 0)
(45.357 5.25604e-05 0)
(58.6897 1.02833e-05 0)
(68.2664 0.0907298 0)
(4.37688 1.01491e-06 0)
(13.3786 5.14936e-06 0)
(22.8552 1.1912e-05 0)
(33.0103 1.29351e-05 0)
(44.1105 2.46762e-05 0)
(56.5974 8.01074e-05 0)
(71.0606 1.21891e-05 0)
(80.4634 0.106542 0)
(4.32557 2.01822e-07 0)
(13.1983 3.85607e-06 0)
(22.4985 9.69451e-06 0)
(32.4146 1.94558e-05 0)
(43.1652 2.28403e-05 0)
(55.041 4.03253e-05 0)
(68.5275 0.00011596 0)
(84.2454 5.8653e-06 0)
(93.3502 0.123176 0)
(4.28032 3.33569e-07 0)
(13.0434 1.68087e-06 0)
(22.1951 7.84627e-06 0)
(31.9082 1.63937e-05 0)
(42.3854 2.96739e-05 0)
(53.8606 3.62281e-05 0)
(66.6432 6.087e-05 0)
(81.2479 0.000161805 0)
(98.2922 -1.12295e-05 0)
(107.11 0.140716 0)
(4.24033 8.19996e-07 0)
(12.9068 1.91303e-06 0)
(21.9343 4.97113e-06 0)
(31.4774 1.39453e-05 0)
(41.7225 2.55176e-05 0)
(52.8867 4.30858e-05 0)
(65.2137 5.37866e-05 0)
(79.018 8.73103e-05 0)
(94.8097 0.00021976 0)
(113.163 -3.23712e-05 0)
(121.879 0.159208 0)
(4.20404 9.29063e-07 0)
(12.7861 3.05131e-06 0)
(21.7044 5.05539e-06 0)
(31.1071 1.01321e-05 0)
(41.1585 2.21923e-05 0)
(52.0587 3.75464e-05 0)
(64.0342 6.03301e-05 0)
(77.3256 7.63415e-05 0)
(92.2217 0.000120836 0)
(109.174 0.000292507 0)
(128.633 -6.26483e-05 0)
(138.599 0.178619 0)
(4.17132 1.08536e-06 0)
(12.6765 3.11071e-06 0)
(21.5011 6.31407e-06 0)
(30.7807 9.93151e-06 0)
(40.6739 1.72716e-05 0)
(51.3542 3.30552e-05 0)
(63.0313 5.30602e-05 0)
(75.9288 8.22264e-05 0)
(90.2557 0.000104935 0)
(106.227 0.000162738 0)
(124.177 0.00038266 0)
(144.409 -0.000101202 0)
(156.356 0.199081 0)
(4.14147 1.09449e-06 0)
(12.5778 3.47252e-06 0)
(21.3167 5.90851e-06 0)
(30.4921 1.13014e-05 0)
(40.2465 1.6715e-05 0)
(50.7489 2.68134e-05 0)
(62.178 4.6999e-05 0)
(74.7409 7.27971e-05 0)
(88.6327 0.000109711 0)
(103.985 0.000140727 0)
(120.891 0.000214512 0)
(139.535 0.00049282 0)
(160.148 -0.000129272 0)
(174.893 0.22062 0)
(4.11438 7.50337e-07 0)
(12.4876 3.53325e-06 0)
(21.1504 6.47517e-06 0)
(30.2303 1.04406e-05 0)
(39.8687 1.81814e-05 0)
(50.2151 2.57669e-05 0)
(61.4448 3.9162e-05 0)
(73.7302 6.46687e-05 0)
(87.2519 9.75708e-05 0)
(102.134 0.000143854 0)
(118.38 0.000184976 0)
(135.944 0.000277423 0)
(154.909 0.000624895 0)
(175.546 -0.000133998 0)
(195.218 0.243138 0)
(4.08981 4.67223e-07 0)
(12.4059 2.74697e-06 0)
(20.9987 6.7087e-06 0)
(29.9942 1.10241e-05 0)
(39.526 1.69929e-05 0)
(49.7433 2.73012e-05 0)
(60.7981 3.75066e-05 0)
(72.8616 5.4905e-05 0)
(86.0767 8.68332e-05 0)
(100.562 0.000128456 0)
(116.308 0.000185673 0)
(133.189 0.000238867 0)
(151.054 0.0003526 0)
(169.992 0.000783958 0)
(190.437 -6.7681e-05 0)
(214.944 0.266759 0)
(4.06774 1.08042e-07 0)
(12.3317 2.0516e-06 0)
(20.8611 5.73435e-06 0)
(29.7788 1.14699e-05 0)
(39.217 1.75505e-05 0)
(49.3151 2.57536e-05 0)
(60.2264 3.90637e-05 0)
(72.0954 5.24732e-05 0)
(85.0666 7.47428e-05 0)
(99.2149 0.000114409 0)
(114.561 0.000166445 0)
(130.917 0.000236107 0)
(148.091 0.000303329 0)
(165.916 0.000441196 0)
(184.593 0.000951005 0)
(204.789 6.36334e-05 0)
(234.355 0.291694 0)
(4.04757 -1.2476e-07 0)
(12.2651 1.07963e-06 0)
(20.7363 4.81343e-06 0)
(29.5834 1.02142e-05 0)
(38.935 1.80477e-05 0)
(48.9292 2.6239e-05 0)
(59.7078 3.72115e-05 0)
(71.418 5.40297e-05 0)
(84.1752 7.13482e-05 0)
(98.0608 9.94874e-05 0)
(113.039 0.000148463 0)
(129 0.000212452 0)
(145.647 0.000296317 0)
(162.779 0.000379263 0)
(180.322 0.000544451 0)
(198.661 0.00111239 0)
(218.562 0.000248812 0)
(253.128 0.318019 0)
(4.02942 -1.70887e-07 0)
(12.2042 5.9384e-07 0)
(20.6241 3.46637e-06 0)
(29.4062 8.98825e-06 0)
(38.6793 1.64305e-05 0)
(48.5771 2.67477e-05 0)
(59.2403 3.75098e-05 0)
(70.8036 5.17681e-05 0)
(83.3874 7.28176e-05 0)
(97.0419 9.48907e-05 0)
(111.745 0.000129976 0)
(127.33 0.000189945 0)
(143.581 0.000267359 0)
(160.189 0.000366919 0)
(177.03 0.000467765 0)
(194.213 0.000663997 0)
(212.163 0.00127592 0)
(231.69 0.000491391 0)
(270.835 0.345982 0)
(4.01283 -5.04969e-08 0)
(12.1494 4.50298e-07 0)
(20.5217 2.77106e-06 0)
(29.247 7.20206e-06 0)
(38.4473 1.47998e-05 0)
(48.2577 2.46513e-05 0)
(58.8137 3.79768e-05 0)
(70.2496 5.19395e-05 0)
(82.6743 7.03058e-05 0)
(96.1414 9.6094e-05 0)
(110.604 0.000124017 0)
(125.904 0.000166975 0)
(141.784 0.000239452 0)
(158.001 0.000331841 0)
(174.312 0.000448878 0)
(190.78 0.000570234 0)
(207.56 0.000801699 0)
(225.038 0.0014503 0)
(244.155 0.000797716 0)
(287.336 0.375828 0)
(3.99778 -2.31367e-08 0)
(12.0993 5.9961e-07 0)
(20.4295 2.49222e-06 0)
(29.1016 6.18094e-06 0)
(38.2389 1.25346e-05 0)
(47.9679 2.24984e-05 0)
(58.4269 3.52372e-05 0)
(69.7443 5.2223e-05 0)
(82.0278 7.01044e-05 0)
(95.3341 9.33335e-05 0)
(109.591 0.000124696 0)
(124.655 0.000159376 0)
(140.244 0.000211246 0)
(156.096 0.000297669 0)
(172.022 0.0004066 0)
(187.951 0.000543389 0)
(204.01 0.000688128 0)
(220.308 0.000959433 0)
(237.26 0.00163942 0)
(255.967 0.00117733 0)
(302.777 0.407752 0)
(3.98408 5.6216e-07 0)
(12.0539 4.79191e-07 0)
(20.3452 2.58134e-06 0)
(28.9707 5.72386e-06 0)
(38.0485 1.1127e-05 0)
(47.7077 1.96889e-05 0)
(58.0759 3.24807e-05 0)
(69.2859 4.8736e-05 0)
(81.44 7.01642e-05 0)
(94.5877 9.28518e-05 0)
(108.686 0.000121528 0)
(123.534 0.000159531 0)
(138.897 0.000201707 0)
(154.461 0.00026347 0)
(170.03 0.000365326 0)
(185.571 0.000492558 0)
(201.084 0.000651663 0)
(216.654 0.000823192 0)
(232.417 0.0011394 0)
(248.827 0.00184759 0)
(267.151 0.00164416 0)
(317.385 0.441885 0)
(3.97166 2.29717e-06 0)
(12.0126 2.16445e-06 0)
(20.2687 2.39607e-06 0)
(28.851 5.79717e-06 0)
(37.8772 1.04048e-05 0)
(47.4699 1.78012e-05 0)
(57.7607 2.89883e-05 0)
(68.8701 4.51889e-05 0)
(80.9069 6.56606e-05 0)
(93.9159 9.24215e-05 0)
(107.848 0.000120932 0)
(122.539 0.000156058 0)
(137.685 0.00020133 0)
(153.029 0.000251624 0)
(168.315 0.000324238 0)
(183.499 0.000443267 0)
(198.62 0.000591215 0)
(213.645 0.000775485 0)
(228.675 0.000977634 0)
(243.884 0.00134443 0)
(259.761 0.00207884 0)
(277.749 0.00221608 0)
(331.219 0.478389 0)
(3.96033 3.9226e-06 0)
(11.9751 5.82501e-06 0)
(20.1991 4.21666e-06 0)
(28.7425 5.46823e-06 0)
(37.7206 1.03371e-05 0)
(47.256 1.6734e-05 0)
(57.4727 2.65225e-05 0)
(68.4967 4.08974e-05 0)
(80.4231 6.10376e-05 0)
(93.3066 8.67199e-05 0)
(107.095 0.000119834 0)
(121.619 0.000155176 0)
(136.611 0.000197044 0)
(151.745 0.000250581 0)
(166.814 0.000309611 0)
(181.71 0.000394422 0)
(196.475 0.000532726 0)
(211.109 0.000703871 0)
(225.593 0.000916644 0)
(240.064 0.00115389 0)
(254.726 0.00157763 0)
(270.099 0.00233709 0)
(287.812 0.00291612 0)
(344.313 0.517492 0)
(3.95001 4.41429e-06 0)
(11.9409 9.17917e-06 0)
(20.136 8.84661e-06 0)
(28.6437 7.50582e-06 0)
(37.5786 9.73862e-06 0)
(47.0604 1.64393e-05 0)
(57.2135 2.50053e-05 0)
(68.1553 3.76976e-05 0)
(79.9886 5.59151e-05 0)
(92.7545 8.10106e-05 0)
(106.411 0.000112617 0)
(120.79 0.000153029 0)
(135.622 0.000195994 0)
(150.605 0.000245432 0)
(165.471 0.000307768 0)
(180.147 0.000376449 0)
(194.62 0.000475076 0)
(208.902 0.000635042 0)
(222.995 0.000832298 0)
(236.918 0.00107745 0)
(250.836 0.00135494 0)
(264.979 0.00184265 0)
(279.896 0.00262658 0)
(297.404 0.0037703 0)
(356.707 0.559428 0)
(3.9405 3.69695e-06 0)
(11.9098 1.01463e-05 0)
(20.0785 1.32313e-05 0)
(28.5541 1.296e-05 0)
(37.4492 1.18894e-05 0)
(46.8831 1.55004e-05 0)
(56.9766 2.44034e-05 0)
(67.8482 3.56125e-05 0)
(79.5914 5.1858e-05 0)
(92.2562 7.46731e-05 0)
(105.796 0.000105497 0)
(120.038 0.000143964 0)
(134.727 0.000192947 0)
(149.558 0.000243833 0)
(164.275 0.000301529 0)
(178.752 0.000373649 0)
(193.001 0.000453057 0)
(206.99 0.000567403 0)
(220.735 0.000751703 0)
(234.267 0.000978493 0)
(247.634 0.00126051 0)
(261.024 0.00158413 0)
(274.693 0.00214352 0)
(289.236 0.00295203 0)
(306.602 0.00480809 0)
(368.457 0.604429 0)
(3.93171 2.64993e-06 0)
(11.881 8.69679e-06 0)
(20.0261 1.439e-05 0)
(28.4724 1.81086e-05 0)
(37.332 1.80923e-05 0)
(46.7215 1.76727e-05 0)
(56.7618 2.29957e-05 0)
(67.5675 3.4588e-05 0)
(79.234 4.90355e-05 0)
(91.8018 6.95038e-05 0)
(105.232 9.79647e-05 0)
(119.362 0.000135218 0)
(133.916 0.000181508 0)
(148.61 0.000239822 0)
(163.183 0.000299628 0)
(177.51 0.000366086 0)
(191.558 0.000449062 0)
(205.322 0.000540616 0)
(218.775 0.000672789 0)
(231.961 0.000884506 0)
(244.935 0.00114485 0)
(257.771 0.00146887 0)
(270.677 0.00184533 0)
(283.947 0.00248538 0)
(298.196 0.00331842 0)
(315.477 0.00605719 0)
(379.621 0.652723 0)
(3.92357 2.2314e-06 0)
(11.8545 6.5518e-06 0)
(19.9777 1.24159e-05 0)
(28.398 1.94055e-05 0)
(37.2251 2.39984e-05 0)
(46.5751 2.45473e-05 0)
(56.5661 2.51017e-05 0)
(67.3129 3.25954e-05 0)
(78.9072 4.74504e-05 0)
(91.3929 6.58352e-05 0)
(104.723 9.14387e-05 0)
(118.741 0.00012636 0)
(133.186 0.000170983 0)
(147.751 0.000225756 0)
(162.193 0.000294135 0)
(176.376 0.000363653 0)
(190.274 0.000440166 0)
(203.839 0.000535057 0)
(217.064 0.000640346 0)
(229.96 0.000792826 0)
(242.588 0.00103556 0)
(255.029 0.00133418 0)
(267.376 0.00170606 0)
(279.87 0.00214321 0)
(292.818 0.0028746 0)
(306.822 0.00373548 0)
(324.073 0.00754843 0)
(390.266 0.70452 0)
(3.91601 3.69326e-06 0)
(11.83 5.66041e-06 0)
(19.9331 9.58867e-06 0)
(28.3294 1.69198e-05 0)
(37.1277 2.52579e-05 0)
(46.4416 3.12956e-05 0)
(56.3887 3.25675e-05 0)
(67.081 3.45302e-05 0)
(78.6108 4.47519e-05 0)
(91.0189 6.35602e-05 0)
(104.262 8.6652e-05 0)
(118.182 0.000118139 0)
(132.516 0.000160364 0)
(146.977 0.000213046 0)
(161.296 0.000277188 0)
(175.35 0.000356822 0)
(189.103 0.000436941 0)
(202.518 0.000524536 0)
(215.547 0.000632917 0)
(228.212 0.000753944 0)
(240.552 0.000929442 0)
(252.645 0.00120748 0)
(264.594 0.00154958 0)
(276.52 0.00197632 0)
(288.679 0.00248337 0)
(301.355 0.00331822 0)
(315.152 0.00421189 0)
(332.425 0.00932815 0)
(400.479 0.759986 0)
(3.90899 7.17228e-06 0)
(11.8071 8.72219e-06 0)
(19.8918 8.43167e-06 0)
(28.266 1.33656e-05 0)
(37.0379 2.22571e-05 0)
(46.32 3.23355e-05 0)
(56.2271 4.01979e-05 0)
(66.8707 4.24945e-05 0)
(78.3408 4.63821e-05 0)
(90.6795 5.99748e-05 0)
(103.841 8.34601e-05 0)
(117.671 0.000112091 0)
(131.913 0.000150108 0)
(146.267 0.000200509 0)
(160.486 0.000261996 0)
(174.419 0.000336426 0)
(188.043 0.000428422 0)
(201.317 0.000520588 0)
(214.196 0.000620532 0)
(226.664 0.00074411 0)
(238.772 0.000883118 0)
(250.576 0.00108488 0)
(262.176 0.00140316 0)
(273.698 0.00179491 0)
(285.281 0.00228471 0)
(297.155 0.00287189 0)
(309.592 0.00382432 0)
(323.216 0.00476068 0)
(340.568 0.0114559 0)
(410.382 0.819209 0)
(3.90246 9.71398e-06 0)
(11.7859 1.61551e-05 0)
(19.8533 1.24913e-05 0)
(28.2073 1.19685e-05 0)
(36.9549 1.80814e-05 0)
(46.2078 2.87629e-05 0)
(56.0797 4.12351e-05 0)
(66.6791 5.0914e-05 0)
(78.096 5.47194e-05 0)
(90.3703 6.11528e-05 0)
(103.46 7.88368e-05 0)
(117.208 0.000107804 0)
(131.361 0.000142769 0)
(145.626 0.000188077 0)
(159.743 0.000247227 0)
(173.578 0.000318258 0)
(187.083 0.000404228 0)
(200.229 0.00051013 0)
(212.969 0.000615616 0)
(225.288 0.000729408 0)
(237.197 0.000870398 0)
(248.768 0.00103008 0)
(260.075 0.00126178 0)
(271.245 0.00162606 0)
(282.418 0.00207471 0)
(293.709 0.00263676 0)
(305.331 0.00331579 0)
(317.561 0.0044021 0)
(331.044 0.00540159 0)
(348.532 0.0139887 0)
(420.121 0.882191 0)
(3.89639 1.01645e-05 0)
(11.7662 2.18124e-05 0)
(19.8177 2.19991e-05 0)
(28.1528 1.70087e-05 0)
(36.8782 1.65045e-05 0)
(46.1042 2.40465e-05 0)
(55.9438 3.72527e-05 0)
(66.5044 5.23733e-05 0)
(77.8728 6.38655e-05 0)
(90.0899 6.97103e-05 0)
(103.112 7.93814e-05 0)
(116.786 0.000101905 0)
(130.86 0.000136982 0)
(145.04 0.00017889 0)
(159.072 0.000232156 0)
(172.807 0.000301071 0)
(186.214 0.000382793 0)
(199.244 0.000481578 0)
(211.859 0.000602776 0)
(224.04 0.000723378 0)
(235.798 0.000852945 0)
(247.169 0.00101378 0)
(258.24 0.00119721 0)
(269.114 0.00146334 0)
(279.93 0.00188032 0)
(290.807 0.00239396 0)
(301.838 0.0030387 0)
(313.238 0.00382323 0)
(325.287 0.00506194 0)
(338.663 0.00614513 0)
(356.348 0.0170127 0)
(429.702 0.949043 0)
(3.89074 1.43292e-05 0)
(11.7479 2.2781e-05 0)
(19.7845 2.93017e-05 0)
(28.1022 2.85233e-05 0)
(36.8068 2.23806e-05 0)
(46.0084 2.24887e-05 0)
(55.8182 3.21207e-05 0)
(66.3433 4.8185e-05 0)
(77.6693 6.55994e-05 0)
(89.8342 7.94406e-05 0)
(102.796 8.79722e-05 0)
(116.401 0.000101591 0)
(130.402 0.000129693 0)
(144.507 0.000171499 0)
(158.457 0.000220996 0)
(172.109 0.000283108 0)
(185.418 0.000362797 0)
(198.353 0.000456346 0)
(210.854 0.000569406 0)
(222.911 0.000708086 0)
(234.532 0.000845612 0)
(245.75 0.00099306 0)
(256.619 0.00117663 0)
(267.251 0.00138744 0)
(277.768 0.00169333 0)
(288.284 0.00217043 0)
(298.896 0.00275824 0)
(309.697 0.00349779 0)
(320.903 0.00440344 0)
(332.797 0.00581625 0)
(346.097 0.00701333 0)
(364.044 0.0206375 0)
(438.844 1.02021 0)
(3.88545 2.78464e-05 0)
(11.7309 3.08261e-05 0)
(19.7537 3.07001e-05 0)
(28.0551 3.74369e-05 0)
(36.7405 3.57012e-05 0)
(45.9192 2.9091e-05 0)
(55.7021 3.00128e-05 0)
(66.1944 4.22006e-05 0)
(77.4817 6.11354e-05 0)
(89.6011 8.12114e-05 0)
(102.508 9.81224e-05 0)
(116.052 0.000109991 0)
(129.985 0.00012823 0)
(144.019 0.000162593 0)
(157.898 0.000211741 0)
(171.468 0.000269622 0)
(184.695 0.000341503 0)
(197.535 0.000433187 0)
(209.944 0.000539937 0)
(221.889 0.000668955 0)
(233.388 0.000827194 0)
(244.467 0.000984092 0)
(255.181 0.001152 0)
(265.608 0.00136172 0)
(275.878 0.00160434 0)
(286.092 0.00195587 0)
(296.341 0.00250149 0)
(306.718 0.00317414 0)
(317.315 0.00402234 0)
(328.35 0.00506704 0)
(340.114 0.00667915 0)
(353.368 0.0080289 0)
(371.648 0.0250527 0)
(447.438 1.09628 0)
(3.88044 2.55815e-05 0)
(11.7149 6.35668e-05 0)
(19.725 4.02846e-05 0)
(28.0114 3.95999e-05 0)
(36.6789 4.6032e-05 0)
(45.8365 4.38519e-05 0)
(55.5942 3.72848e-05 0)
(66.0568 3.91265e-05 0)
(77.3083 5.40118e-05 0)
(89.3861 7.6395e-05 0)
(102.245 9.97877e-05 0)
(115.734 0.000120376 0)
(129.607 0.000136189 0)
(143.575 0.000159666 0)
(157.386 0.000200904 0)
(170.887 0.00025803 0)
(184.033 0.000325246 0)
(196.793 0.000408102 0)
(209.109 0.000513223 0)
(220.963 0.000634734 0)
(232.351 0.000781853 0)
(243.31 0.000962113 0)
(253.883 0.00114101 0)
(264.152 0.00133242 0)
(274.212 0.00157246 0)
(284.176 0.00185173 0)
(294.119 0.00225555 0)
(304.13 0.00287945 0)
(314.297 0.0036492 0)
(324.715 0.00462191 0)
(335.601 0.00582636 0)
(347.258 0.00766719 0)
(360.498 0.00922299 0)
(379.188 0.0304256 0)
(455.785 1.17695 0)
(3.87568 2.27464e-05 0)
(11.6998 5.93036e-05 0)
(19.6981 8.08635e-05 0)
(27.9706 4.98797e-05 0)
(36.6217 4.92451e-05 0)
(45.7595 5.54541e-05 0)
(55.494 5.35498e-05 0)
(65.9289 4.70492e-05 0)
(77.148 5.03946e-05 0)
(89.1874 6.84359e-05 0)
(102.003 9.45925e-05 0)
(115.444 0.000121751 0)
(129.261 0.000146597 0)
(143.172 0.000166895 0)
(156.92 0.000196236 0)
(170.354 0.000245069 0)
(183.431 0.00031113 0)
(196.112 0.000388788 0)
(208.35 0.000483837 0)
(220.114 0.000604006 0)
(231.412 0.000742165 0)
(242.26 0.000909781 0)
(252.713 0.00111494 0)
(262.837 0.0013192 0)
(272.737 0.0015377 0)
(282.488 0.00181248 0)
(292.178 0.00213391 0)
(301.879 0.00259777 0)
(311.677 0.00331111 0)
(321.659 0.004192 0)
(331.919 0.00530756 0)
(342.676 0.0066958 0)
(354.246 0.00880018 0)
(367.506 0.0106354 0)
(386.693 0.0369555 0)
(464.107 1.26142 0)
(3.87089 2.47026e-05 0)
(11.6854 5.29932e-05 0)
(19.6727 7.77526e-05 0)
(27.9325 9.79085e-05 0)
(36.5683 5.99731e-05 0)
(45.688 5.94319e-05 0)
(55.4007 6.57015e-05 0)
(65.8101 6.58008e-05 0)
(76.999 5.8835e-05 0)
(89.0037 6.41444e-05 0)
(101.779 8.5751e-05 0)
(115.176 0.00011615 0)
(128.946 0.000147512 0)
(142.803 0.000177092 0)
(156.495 0.000202402 0)
(169.867 0.000238363 0)
(182.878 0.000295673 0)
(195.492 0.000371655 0)
(207.654 0.000460956 0)
(219.341 0.000569732 0)
(230.55 0.000706827 0)
(241.308 0.000863862 0)
(251.651 0.00105475 0)
(261.654 0.00128812 0)
(271.407 0.00152155 0)
(280.994 0.00177132 0)
(290.469 0.0020859 0)
(299.912 0.00245595 0)
(309.398 0.00298872 0)
(319.006 0.00380433 0)
(328.825 0.00481248 0)
(338.946 0.00609194 0)
(349.593 0.00769185 0)
(361.097 0.0101013 0)
(374.411 0.0123154 0)
(394.194 0.0449228 0)
(472.455 1.34905 0)
(3.86707 1.53351e-05 0)
(11.6709 5.70946e-05 0)
(19.6485 6.98804e-05 0)
(27.8964 9.72521e-05 0)
(36.5184 0.000114274 0)
(45.6214 7.08136e-05 0)
(55.3141 6.96698e-05 0)
(65.6996 7.64952e-05 0)
(76.8606 8.01273e-05 0)
(88.8329 7.29847e-05 0)
(101.572 8.08419e-05 0)
(114.928 0.000106473 0)
(128.655 0.00014149 0)
(142.466 0.000177373 0)
(156.107 0.000212132 0)
(169.423 0.000243061 0)
(182.373 0.000286563 0)
(194.922 0.000353368 0)
(207.019 0.000440426 0)
(218.631 0.000542802 0)
(229.765 0.000667159 0)
(240.435 0.000823441 0)
(250.688 0.00100178 0)
(260.58 0.00121923 0)
(270.21 0.00148493 0)
(279.649 0.00175171 0)
(288.956 0.0020372 0)
(298.182 0.00239757 0)
(307.406 0.00282364 0)
(316.699 0.00343545 0)
(326.14 0.00436806 0)
(335.813 0.00552205 0)
(345.812 0.0069897 0)
(356.367 0.00883373 0)
(367.826 0.0115986 0)
(381.233 0.0143247 0)
(401.732 0.0547118 0)
(480.873 1.43911 0)
(3.87275 1.10468e-05 0)
(11.6594 3.34648e-05 0)
(19.6241 7.39671e-05 0)
(27.8621 8.90742e-05 0)
(36.4711 0.000118744 0)
(45.5591 0.000127642 0)
(55.2334 8.12445e-05 0)
(65.5969 7.86078e-05 0)
(76.7318 9.02536e-05 0)
(88.6742 9.62647e-05 0)
(101.38 8.99685e-05 0)
(114.699 0.000100874 0)
(128.386 0.000130906 0)
(142.156 0.000170881 0)
(155.752 0.000211603 0)
(169.018 0.000252025 0)
(181.912 0.000289392 0)
(194.402 0.000341429 0)
(206.435 0.000418951 0)
(217.983 0.000518379 0)
(229.044 0.000635494 0)
(239.64 0.000777498 0)
(249.805 0.000955548 0)
(259.606 0.00115817 0)
(269.123 0.00140611 0)
(278.438 0.00170855 0)
(287.595 0.00201348 0)
(296.652 0.0023399 0)
(305.655 0.00275281 0)
(314.683 0.00324358 0)
(323.805 0.00394616 0)
(333.096 0.00501253 0)
(342.64 0.00633375 0)
(352.535 0.00801772 0)
(363.013 0.0101436 0)
(374.447 0.0133253 0)
(387.991 0.0167424 0)
(409.372 0.0668118 0)
(489.395 1.53044 0)
(4.78876 3.70943e-05 0)
(11.6764 -1.69612e-05 0)
(19.6048 4.42229e-05 0)
(27.8274 9.18188e-05 0)
(36.4263 0.000110625 0)
(45.5 0.000140321 0)
(55.1579 0.000136297 0)
(65.5012 9.22217e-05 0)
(76.6122 8.61271e-05 0)
(88.5266 0.000106953 0)
(101.201 0.000115046 0)
(114.486 0.000110181 0)
(128.137 0.000124581 0)
(141.868 0.000159326 0)
(155.425 0.000204556 0)
(168.647 0.000250498 0)
(181.491 0.000297207 0)
(193.926 0.000341994 0)
(205.901 0.000403647 0)
(217.387 0.00049333 0)
(228.385 0.00060673 0)
(238.909 0.000740547 0)
(249 0.000902513 0)
(258.712 0.00110536 0)
(268.137 0.00133584 0)
(277.339 0.00161853 0)
(286.371 0.0019627 0)
(295.276 0.00231135 0)
(304.107 0.00268495 0)
(312.911 0.00315815 0)
(321.764 0.0037234 0)
(330.733 0.00453022 0)
(339.891 0.00574958 0)
(349.323 0.00726267 0)
(359.127 0.00919554 0)
(369.544 0.0116476 0)
(380.976 0.0153218 0)
(394.704 0.0196754 0)
(417.184 0.0818979 0)
(498.052 1.6216 0)
(3.91369 5.40044e-05 0)
(14.4823 8.85567e-05 0)
(19.6327 -0.000113785 0)
(27.8001 5.49603e-05 0)
(36.381 0.000110645 0)
(45.444 0.000132492 0)
(55.0863 0.000158991 0)
(65.4117 0.000142166 0)
(76.5007 0.000101769 0)
(88.3894 9.78985e-05 0)
(101.034 0.00013038 0)
(114.288 0.00013668 0)
(127.905 0.000133936 0)
(141.602 0.000152212 0)
(155.122 0.000191974 0)
(168.305 0.000242841 0)
(181.105 0.00029447 0)
(193.491 0.000348222 0)
(205.413 0.00040148 0)
(216.842 0.000474099 0)
(227.778 0.000577565 0)
(238.24 0.00070679 0)
(248.259 0.000859548 0)
(257.897 0.00104431 0)
(267.233 0.00127565 0)
(276.342 0.00153778 0)
(285.26 0.00186005 0)
(294.039 0.00225166 0)
(302.716 0.00265027 0)
(311.346 0.00307815 0)
(319.972 0.00362074 0)
(328.668 0.00427185 0)
(337.501 0.00519837 0)
(346.542 0.00659288 0)
(355.874 0.00832615 0)
(365.601 0.0105459 0)
(375.974 0.0133765 0)
(387.426 0.0176362 0)
(401.393 0.0232685 0)
(425.227 0.100875 0)
(506.854 1.71066 0)
(3.93547 6.42727e-05 0)
(11.8712 0.000154722 0)
(24.4439 0.000137648 0)
(27.8383 -0.00027499 0)
(36.3452 6.62797e-05 0)
(45.3874 0.00012826 0)
(55.0185 0.000153008 0)
(65.3268 0.000169494 0)
(76.3963 0.000140551 0)
(88.2614 0.000100276 0)
(100.879 0.000118724 0)
(114.104 0.000158602 0)
(127.69 0.000161626 0)
(141.355 0.00016147 0)
(154.842 0.00018396 0)
(167.989 0.000229108 0)
(180.749 0.000286128 0)
(193.093 0.000344124 0)
(204.967 0.000405674 0)
(216.344 0.000468663 0)
(227.223 0.000553896 0)
(237.624 0.000672982 0)
(247.581 0.000820143 0)
(257.146 0.000994524 0)
(266.407 0.00120538 0)
(275.427 0.00146917 0)
(284.251 0.00176735 0)
(292.916 0.00213484 0)
(301.466 0.00258063 0)
(309.94 0.00303638 0)
(318.389 0.00352646 0)
(326.856 0.00414862 0)
(335.412 0.00489891 0)
(344.123 0.00596292 0)
(353.06 0.00755805 0)
(362.306 0.00954426 0)
(371.97 0.0120951 0)
(382.313 0.0153663 0)
(393.811 0.0203257 0)
(408.081 0.0277485 0)
(433.56 0.124988 0)
(515.785 1.79537 0)
(4.2694 7.26987e-05 0)
(11.9489 0.000125609 0)
(20.1077 0.000276897 0)
(34.7752 0.000205933 0)
(36.3927 -0.000516661 0)
(45.3428 7.75212e-05 0)
(54.9499 0.000143095 0)
(65.2463 0.000166685 0)
(76.2973 0.000172582 0)
(88.1416 0.000133448 0)
(100.735 0.000104257 0)
(113.931 0.000152851 0)
(127.49 0.00018926 0)
(141.124 0.000190167 0)
(154.581 0.000192948 0)
(167.696 0.000220115 0)
(180.421 0.000271142 0)
(192.726 0.000334889 0)
(204.557 0.000399945 0)
(215.887 0.000470351 0)
(226.715 0.000544512 0)
(237.059 0.00064426 0)
(246.956 0.000781065 0)
(256.459 0.000948645 0)
(265.647 0.00114784 0)
(274.591 0.0013885 0)
(283.326 0.00168909 0)
(291.896 0.00202842 0)
(300.331 0.00244742 0)
(308.677 0.00295484 0)
(316.969 0.0034763 0)
(325.255 0.00403832 0)
(333.579 0.0047516 0)
(342.01 0.00561607 0)
(350.613 0.00683801 0)
(359.458 0.00866304 0)
(368.631 0.01094 0)
(378.244 0.0138738 0)
(388.573 0.01766 0)
(400.145 0.0234597 0)
(414.79 0.0333722 0)
(442.236 0.155977 0)
(524.767 1.87359 0)
(4.09707 8.15157e-05 0)
(12.954 0.000115637 0)
(20.264 0.000128784 0)
(28.6897 0.00045017 0)
(45.5898 0.000301857 0)
(45.398 -0.000850585 0)
(54.8959 8.78625e-05 0)
(65.1649 0.000149507 0)
(76.2035 0.00017106 0)
(88.028 0.000161971 0)
(100.599 0.000135486 0)
(113.77 0.000124813 0)
(127.302 0.000190804 0)
(140.91 0.000223087 0)
(154.337 0.00022247 0)
(167.422 0.000228591 0)
(180.116 0.000261058 0)
(192.387 0.000318564 0)
(204.18 0.000389685 0)
(215.468 0.000462716 0)
(226.249 0.000543205 0)
(236.543 0.000630246 0)
(246.383 0.000746587 0)
(255.825 0.000903608 0)
(264.95 0.0010946 0)
(273.822 0.00132209 0)
(282.481 0.00159666 0)
(290.96 0.0019393 0)
(299.3 0.00232564 0)
(307.531 0.00280359 0)
(315.693 0.00338117 0)
(323.82 0.00397738 0)
(331.961 0.00462213 0)
(340.157 0.0054403 0)
(348.476 0.00643648 0)
(356.983 0.00783992 0)
(365.748 0.00992865 0)
(374.858 0.0125405 0)
(384.433 0.015918 0)
(394.767 0.020309 0)
(406.444 0.0271244 0)
(421.546 0.0404541 0)
(451.309 0.196176 0)
(533.625 1.9441 0)
(3.8825 7.17207e-05 0)
(12.3976 0.000208308 0)
(21.9509 0.000110008 0)
(28.9428 0.00010854 0)
(37.699 0.000683434 0)
(56.9957 0.000435552 0)
(54.9564 -0.0012937 0)
(65.101 9.73543e-05 0)
(76.1085 0.000142622 0)
(87.9203 0.000164899 0)
(100.471 0.00015644 0)
(113.62 0.000149666 0)
(127.126 0.000164768 0)
(140.708 0.000231335 0)
(154.111 0.000258091 0)
(167.167 0.00025872 0)
(179.831 0.000268793 0)
(192.072 0.000307271 0)
(203.832 0.000371947 0)
(215.082 0.000451246 0)
(225.823 0.00053332 0)
(236.069 0.000625357 0)
(245.859 0.000727228 0)
(255.244 0.000862635 0)
(264.308 0.00104278 0)
(273.116 0.00126047 0)
(281.702 0.00152014 0)
(290.105 0.00183345 0)
(298.355 0.00222392 0)
(306.488 0.00266389 0)
(314.535 0.0032092 0)
(322.532 0.00386724 0)
(330.512 0.00454896 0)
(338.522 0.00528862 0)
(346.603 0.00622724 0)
(354.821 0.00737529 0)
(363.244 0.00898742 0)
(371.94 0.0113788 0)
(380.999 0.0143768 0)
(390.548 0.01827 0)
(400.904 0.0233752 0)
(412.723 0.0314277 0)
(428.38 0.0494929 0)
(460.823 0.249056 0)
(542.056 2.00197 0)
(3.85091 5.6165e-05 0)
(11.7242 0.00017254 0)
(20.9391 0.000322459 0)
(31.3322 6.63728e-05 0)
(38.0651 6.32172e-05 0)
(47.2256 0.000988582 0)
(69.0799 0.000610679 0)
(65.1633 -0.00186455 0)
(76.0338 0.000105511 0)
(87.8112 0.000135854 0)
(100.349 0.000153419 0)
(113.477 0.000166402 0)
(126.962 0.000171597 0)
(140.52 0.000215668 0)
(153.898 0.000276765 0)
(166.929 0.000296566 0)
(179.566 0.000299216 0)
(191.778 0.000313993 0)
(203.508 0.000359425 0)
(214.726 0.000432208 0)
(225.429 0.000520613 0)
(235.635 0.000612783 0)
(245.378 0.000718105 0)
(254.712 0.0008371 0)
(263.719 0.0009945 0)
(272.465 0.00120095 0)
(280.988 0.00144894 0)
(289.317 0.00174538 0)
(297.49 0.0021029 0)
(305.533 0.002548 0)
(313.481 0.00304927 0)
(321.362 0.00367115 0)
(329.21 0.00442085 0)
(337.058 0.0052008 0)
(344.95 0.00604967 0)
(352.928 0.00712659 0)
(361.058 0.00844976 0)
(369.406 0.0103021 0)
(378.043 0.0130411 0)
(387.06 0.0164853 0)
(396.598 0.0209799 0)
(406.996 0.0269342 0)
(418.999 0.0365079 0)
(435.321 0.061183 0)
(470.792 0.317877 0)
(549.671 2.04639 0)
(3.82338 2.55968e-05 0)
(11.6119 0.000131276 0)
(19.7523 0.000246144 0)
(29.8044 0.000472584 0)
(41.1867 -1.04383e-05 0)
(47.7195 -1.20491e-05 0)
(57.363 0.00138097 0)
(81.8515 0.000832772 0)
(76.0935 -0.00257919 0)
(87.7252 0.000108433 0)
(100.226 0.000135079 0)
(113.342 0.000155583 0)
(126.806 0.000194761 0)
(140.343 0.000209904 0)
(153.698 0.000279385 0)
(166.706 0.000323145 0)
(179.318 0.000338397 0)
(191.503 0.000344283 0)
(203.206 0.000364916 0)
(214.395 0.000417969 0)
(225.065 0.000500059 0)
(235.235 0.000598642 0)
(244.937 0.000702401 0)
(254.224 0.000823051 0)
(263.178 0.000961919 0)
(271.868 0.00114441 0)
(280.328 0.00138073 0)
(288.594 0.00166328 0)
(296.693 0.0020017 0)
(304.659 0.00240975 0)
(312.517 0.00291707 0)
(320.298 0.00348867 0)
(328.029 0.00419831 0)
(335.743 0.00505234 0)
(343.471 0.0059444 0)
(351.257 0.00691882 0)
(359.143 0.00815468 0)
(367.194 0.00967981 0)
(375.478 0.0118088 0)
(384.065 0.0149478 0)
(393.053 0.0189088 0)
(402.592 0.0241072 0)
(413.056 0.0310786 0)
(425.292 0.0425433 0)
(442.411 0.076451 0)
(481.171 0.407927 0)
(556.171 2.07764 0)
(3.81873 1.22489e-05 0)
(11.5182 6.13613e-05 0)
(19.5289 0.000168932 0)
(28.0557 0.000331349 0)
(39.0877 0.000665746 0)
(51.6097 -0.000133088 0)
(57.9964 -0.000119866 0)
(68.1937 0.00187828 0)
(95.1624 0.0011 0)
(87.7764 -0.00344259 0)
(100.129 0.000119987 0)
(113.205 0.000141167 0)
(126.658 0.000182282 0)
(140.175 0.000233936 0)
(153.51 0.000271084 0)
(166.495 0.000331694 0)
(179.084 0.000371276 0)
(191.246 0.00038429 0)
(202.923 0.000394377 0)
(214.085 0.000421936 0)
(224.728 0.000483899 0)
(234.865 0.000576444 0)
(244.53 0.00068664 0)
(253.776 0.000803765 0)
(262.683 0.000942166 0)
(271.32 0.00110386 0)
(279.723 0.00131489 0)
(287.927 0.0015852 0)
(295.962 0.00190714 0)
(303.853 0.00229343 0)
(311.633 0.0027594 0)
(319.323 0.0033374 0)
(326.954 0.00398924 0)
(334.55 0.00479905 0)
(342.144 0.00577249 0)
(349.764 0.0067929 0)
(357.455 0.00791202 0)
(365.259 0.00933036 0)
(373.24 0.0110885 0)
(381.468 0.0135363 0)
(390.015 0.0171365 0)
(398.984 0.0216975 0)
(408.541 0.0277233 0)
(419.097 0.0359234 0)
(431.623 0.0497671 0)
(449.735 0.0965813 0)
(491.796 0.526976 0)
(560.747 2.09955 0)
(3.81751 -2.0971e-05 0)
(11.4991 3.10279e-05 0)
(19.3491 7.90736e-05 0)
(27.6975 0.000203428 0)
(36.7301 0.000435503 0)
(48.8871 0.000912239 0)
(62.6859 -0.000313088 0)
(68.9708 -0.00026166 0)
(79.7701 0.00249838 0)
(108.625 0.00140072 0)
(100.165 -0.00444026 0)
(113.097 0.000135824 0)
(126.508 0.00016067 0)
(140.015 0.000231111 0)
(153.331 0.000282853 0)
(166.298 0.000336179 0)
(178.864 0.000380299 0)
(191.003 0.00042073 0)
(202.658 0.000434761 0)
(213.795 0.000450165 0)
(224.412 0.000485972 0)
(234.521 0.000558339 0)
(244.154 0.000662732 0)
(253.362 0.000786163 0)
(262.228 0.000918756 0)
(270.817 0.00107755 0)
(279.168 0.00126536 0)
(287.314 0.00150892 0)
(295.286 0.00181788 0)
(303.113 0.00218488 0)
(310.818 0.0026257 0)
(318.43 0.00315788 0)
(325.969 0.00381672 0)
(333.464 0.00456037 0)
(340.939 0.00548433 0)
(348.424 0.006594 0)
(355.947 0.00776127 0)
(363.553 0.00904667 0)
(371.283 0.0106751 0)
(379.204 0.0127023 0)
(387.385 0.0155179 0)
(395.901 0.0196509 0)
(404.863 0.0249107 0)
(414.454 0.0319145 0)
(425.132 0.0416124 0)
(438.017 0.0585105 0)
(457.396 0.123304 0)
(502.301 0.679894 0)
(563.432 2.11889 0)
(3.81626 -5.82871e-05 0)
(11.4923 -4.81857e-05 0)
(19.3063 3.5598e-05 0)
(27.4161 9.89145e-05 0)
(36.2172 0.000237892 0)
(45.8744 0.000563791 0)
(59.295 0.00122394 0)
(74.452 -0.000557629 0)
(80.6856 -0.000440337 0)
(92.0801 0.00324895 0)
(121.803 0.00171736 0)
(113.113 -0.00553739 0)
(126.391 0.000166772 0)
(139.854 0.000207831 0)
(153.162 0.000281317 0)
(166.109 0.000337199 0)
(178.657 0.0003854 0)
(190.775 0.000432079 0)
(202.408 0.000473548 0)
(213.523 0.000490387 0)
(224.115 0.000512246 0)
(234.199 0.000558051 0)
(243.805 0.000642496 0)
(252.981 0.000760428 0)
(261.808 0.000899082 0)