/*--------------------------------*- C++ -*----------------------------------*\
| =========                 |                                                 |
| \\      /  F ield         | OpenFOAM: The Open Source CFD Toolbox           |
|  \\    /   O peration     | Version:  v2012                                 |
|   \\  /    A nd           | Website:  www.openfoam.com                      |
|    \\/     M anipulation  |                                                 |
\*---------------------------------------------------------------------------*/
FoamFile
{
    version     2.0;
    format      ascii;
    class       volScalarField;
    location    "13200";
    object      up;
}
// * * * * * * * * * * * * * * * * * * * * * * * * * * * * * * * * * * * * * //

dimensions      [0 0 0 0 0 0 0];


internalField   nonuniform List<scalar> 
31383
(
0.426
0.208741
1.23282
0.204883
0.630324
2.07054
0.202014
0.618651
1.06163
2.92742
0.199832
0.609958
1.04193
1.5083
3.80502
0.198004
0.603347
1.02723
1.4802
1.97626
4.72951
0.196425
0.597807
1.01605
1.45923
1.93929
2.47175
5.71829
0.19508
0.593021
1.00668
1.44328
1.91167
2.4253
3.00113
6.76898
0.19393
0.588938
0.998579
1.42989
1.89063
2.39053
2.94446
3.56979
7.88218
0.192903
0.585452
0.991676
1.41833
1.87298
2.36405
2.90196
3.50244
4.17989
9.04946
0.191966
0.582335
0.985775
1.40847
1.85775
2.34183
2.8696
3.45164
4.10285
4.83324
10.157
0.191087
0.579498
0.980505
1.40004
1.84476
2.32264
2.84244
3.41296
4.0434
4.74473
5.52072
11.3421
0.190268
0.576831
0.975701
1.39251
1.83364
2.30627
2.81897
3.38047
3.99812
4.67654
5.42045
6.22515
12.894
0.189502
0.574351
0.971193
1.38565
1.82372
2.29228
2.79895
3.3524
3.96
4.62504
5.34464
6.11669
6.9334
14.3844
0.188803
0.572024
0.966995
1.37922
1.81468
2.27979
2.78185
3.32846
3.92677
4.5815
5.28746
6.03548
6.81906
7.6311
16.0214
0.188171
0.569911
0.963064
1.37322
1.80621
2.26841
2.76657
3.30798
3.89904
4.5425
5.23898
5.97321
6.73402
7.51348
8.32301
18.2539
0.187604
0.567992
0.959491
1.36762
1.79831
2.25774
2.75267
3.28971
3.87501
4.51149
5.1963
5.92062
6.66795
7.4266
8.19581
9.0078
20.2606
0.187091
0.566275
0.956253
1.36251
1.79092
2.24781
2.73962
3.27306
3.85356
4.4839
5.16062
5.8759
6.61274
7.35908
8.10317
8.87834
9.6709
21.7124
0.186635
0.564718
0.953342
1.35789
1.7842
2.23852
2.7275
3.25734
3.83404
4.45904
5.13005
5.83572
6.56548
7.3029
8.03117
8.78508
9.53684
10.3136
22.3686
0.186224
0.563335
0.950714
1.35374
1.77811
2.23007
2.71615
3.24297
3.81508
4.43683
5.10174
5.80259
6.52316
7.25387
7.97291
8.71192
9.44181
10.174
10.9358
22.9775
0.185856
0.562087
0.948376
1.34999
1.77265
2.22241
2.70583
3.22941
3.7987
4.41545
5.07735
5.77213
6.48777
7.20986
7.92348
8.65067
9.36757
10.0778
10.7897
11.5369
23.7195
0.185525
0.560974
0.946268
1.34666
1.76771
2.21554
2.69648
3.21707
3.7828
4.39629
5.05414
5.74536
6.45643
7.17307
7.87903
8.59877
9.30572
10.0028
10.6928
11.3834
12.1175
24.3776
0.185229
0.559975
0.944381
1.34365
1.76332
2.20932
2.68808
3.20589
3.76831
4.37799
5.03182
5.72028
6.42699
7.14064
7.84219
8.5523
9.25382
9.94056
10.617
11.2858
11.9545
12.6786
25.0191
0.184962
0.559076
0.942687
1.34095
1.75936
2.20381
2.6805
3.19586
3.75511
4.36139
5.01144
5.69565
6.40061
7.10951
7.80926
8.51318
9.20713
9.8882
10.5542
11.2095
11.8563
12.5032
13.2211
25.6699
0.18472
0.558267
0.94117
1.33854
1.75581
2.19882
2.67376
3.18678
3.74345
4.34586
4.99281
5.67362
6.37463
7.08243
7.77777
8.47845
9.16758
9.84103
10.5013
11.1463
11.7794
12.4041
13.0289
13.7463
26.3508
0.184498
0.557536
0.939804
1.33637
1.75263
2.19437
2.66766
3.17872
3.73279
4.33276
4.97565
5.65332
6.35118
7.05546
7.75017
8.44561
9.13282
9.80084
10.4537
11.0931
11.7157
12.3266
12.929
13.5521
14.2713
27.079
0.184292
0.556858
0.938568
1.33442
1.74978
2.19036
2.66223
3.17144
3.72333
4.32038
4.96071
5.63519
6.32964
7.03091
7.72315
8.41619
9.09998
9.76589
10.4129
11.0453
11.6621
12.2625
12.8508
13.4493
14.0607
14.7845
27.8666
0.184101
0.556234
0.937422
1.33265
1.74721
2.18677
2.65733
3.16494
3.71478
4.3096
4.94672
5.61841
6.31048
7.00847
7.6982
8.38802
9.07072
9.73286
10.3776
11.004
11.6142
12.2086
12.7863
13.3684
13.9561
14.5557
15.2906
28.7238
0.183927
0.55566
0.936368
1.33102
1.74487
2.18353
2.65294
3.15908
3.70715
4.29979
4.93482
5.60329
6.29254
6.98858
7.67562
8.36197
9.0424
9.70339
10.3446
10.9684
11.5727
12.1604
12.7322
13.3016
13.8743
14.4483
15.0423
15.7933
29.665
0.183769
0.555129
0.935398
1.32951
1.74273
2.1806
2.64899
3.15383
3.70028
4.29095
4.92365
5.59004
6.2768
6.96998
7.65557
8.33814
9.01647
9.67498
10.3149
10.9354
11.5368
12.1188
12.6838
13.2456
13.8069
14.3645
14.9314
15.5227
16.2946
30.7217
0.183624
0.554646
0.934496
1.32812
1.74074
2.1779
2.64541
3.14911
3.69411
4.28302
4.91383
5.57782
6.26235
6.95366
7.63679
8.31695
8.99263
9.64876
10.2865
10.9057
11.5038
12.0828
12.642
13.1959
13.7504
14.296
14.8458
15.4078
15.9971
16.7972
31.9814
0.183495
0.554209
0.933684
1.32684
1.73891
2.1754
2.64211
3.14483
3.68856
4.27596
4.90498
5.5672
6.24954
6.93879
7.62025
8.2971
8.97134
9.62485
10.2601
10.8772
11.474
12.0497
12.606
13.1524
13.7007
14.2386
14.776
15.3192
15.8786
16.4675
17.3026
33.6351
0.183379
0.553818
0.932943
1.32569
1.73723
2.1731
2.63907
3.14089
3.68352
4.26956
4.897
5.55748
6.23812
6.92544
7.60541
8.27975
8.95158
9.60344
10.2362
10.8507
11.4456
12.02
12.5728
13.1156
13.6573
14.1874
14.7171
15.2477
15.7864
16.3432
16.9355
17.8145
35.8367
0.183275
0.553469
0.93228
1.32463
1.7357
2.17098
2.63625
3.13723
3.6789
4.2638
4.88976
5.54867
6.22766
6.91334
7.59176
8.26372
8.93406
9.58352
10.2149
10.8268
11.4192
11.9916
12.5431
13.0817
13.6197
14.1434
14.6644
15.1871
15.7122
16.2484
16.804
17.402
18.3355
38.7051
0.183178
0.553152
0.931692
1.32368
1.73431
2.16905
2.63366
3.13386
3.6746
4.25843
4.88318
5.54083
6.2183
6.90239
7.57935
8.24943
8.91794
9.56585
10.1948
10.8053
11.3953
11.9654
12.5149
13.0507
13.5859
14.1049
14.6195
15.1337
15.6507
16.1716
16.7061
17.2633
17.8685
18.8694
42.4199
0.183088
0.552859
0.93115
1.32283
1.73306
2.16731
2.63131
3.13077
3.67064
4.2535
4.87718
5.53363
6.20993
6.8928
7.56841
8.23649
8.90372
9.54963
10.1771
10.7853
11.3739
11.9415
12.4888
13.0218
13.5555
14.0702
14.5808
15.0873
15.5962
16.1077
16.6263
17.1602
17.7211
18.3377
19.4204
46.6637
0.182997
0.552584
0.930656
1.32207
1.73194
2.16573
2.62916
3.12795
3.66701
4.24893
4.87163
5.52706
6.20241
6.8839
7.55872
8.22489
8.89079
9.53525
10.1609
10.7675
11.3539
11.9202
12.465
12.9949
13.5259
14.0397
14.5454
15.0481
15.5486
16.0519
16.5609
17.0785
17.6128
18.1779
18.8098
19.9892
51.8996
0.182919
0.552306
0.93019
1.32136
1.73093
2.16433
2.62724
3.12539
3.66371
4.24471
4.86649
5.52091
6.19529
6.87602
7.54968
8.21447
8.87904
9.52215
10.1464
10.7512
11.3361
11.9002
12.4437
12.9706
13.4995
14.0105
14.5138
15.0124
15.5076
16.0031
16.5026
17.0108
17.5276
18.0649
18.6371
19.2865
20.5867
58.5279
0.183161
0.552068
0.929723
1.3207
1.73
2.16305
2.62552
3.12309
3.66069
4.2409
4.86178
5.51528
6.18878
6.86864
7.54157
8.20502
8.86856
9.5104
10.1332
10.7367
11.3197
11.8824
12.4238
12.9486
13.4751
13.9835
14.4844
14.9799
15.4713
15.9614
16.4525
16.9506
17.4571
17.9751
18.517
19.0979
19.771
21.2382
67.1552
0.204534
0.552804
0.929319
1.32002
1.72913
2.16187
2.62397
3.12103
3.65797
4.23744
4.85745
5.5102
6.18276
6.86187
7.53424
8.19645
8.85911
9.49973
10.1214
10.7234
11.3051
11.866
12.4061
12.9282
13.4532
13.9587
14.4568
14.9497
15.4386
15.9239
16.4099
16.8985
17.3946
17.9019
18.4235
18.9696
19.5618
20.2654
21.9416
78.7652
0.18559
0.619312
0.930565
1.31946
1.72824
2.16078
2.62252
3.11916
3.65555
4.23431
4.85345
5.50542
6.17717
6.85557
7.5272
8.18862
8.85044
9.49009
10.1105
10.7115
11.2918
11.8514
12.3898
12.9101
13.4327
13.9368
14.4319
14.9219
15.408
15.8906
16.3712
16.8541
17.3412
17.8371
18.3466
18.8714
19.4247
20.0315
20.7717
22.7138
94.9857
0.18629
0.563539
1.04671
1.32125
1.72749
2.15966
2.62118
3.11743
3.65336
4.23147
4.85
5.50101
6.17221
6.84972
7.52082
8.1812
8.84247
9.4814
10.1009
10.7007
11.2799
11.8381
12.3752
12.8932
13.4147
13.9162
14.4097
14.8967
15.3798
15.859
16.3376
16.8149
17.2952
17.782
18.2796
18.7906
19.3203
19.8843
20.5081
21.295
23.5774
118.566
0.19403
0.56621
0.955693
1.49132
1.72989
2.15872
2.61982
3.11583
3.65132
4.22899
4.84688
5.49715
6.1676
6.84454
7.51513
8.17447
8.8351
9.47332
10.0921
10.691
11.2691
11.8261
12.3619
12.8784
13.3975
13.8974
14.389
14.8738
15.3537
15.8304
16.3054
16.7799
17.255
17.7342
18.2213
18.721
19.2363
19.7729
20.3469
20.9927
21.8413
24.563
154.065
0.189578
0.589374
0.961369
1.36549
1.95835
2.1618
2.61866
3.11418
3.64942
4.22659
4.84395
5.49378
6.16344
6.83973
7.50964
8.16828
8.82828
9.4659
10.084
10.682
11.2593
11.8153
12.3498
12.8645
13.3828
13.8805
14.37
14.8524
15.331
15.8037
16.2755
16.747
17.2184
17.692
18.1723
18.6604
19.1625
19.6833
20.2287
20.8158
21.4877
22.4132
25.7132
208.144
0.18412
0.574279
0.999939
1.37497
1.79723
2.45295
2.62254
3.11281
3.64747
4.22442
4.84133
5.49053
6.15961
6.83529
7.5049
8.16246
8.82193
9.459
10.0765
10.6738
11.2503
11.8054
12.339
12.8519
13.3689
13.865
14.3531
14.8338
15.3088
15.7807
16.249
16.7171
17.1845
17.6549
18.1282
18.609
19.0996
19.6059
20.1338
20.6886
21.2939
21.9971
23.0211
27.0903
287.496
0.183109
0.556573
0.971102
1.42928
1.81116
2.25581
2.97979
3.11761
3.64586
4.22215
4.83879
5.48763
6.1563
6.83135
7.50023
8.15734
8.81621
9.45256
10.0695
10.6664
11.2421
11.7965
12.329
12.8412
13.3564
13.8515
14.3375
14.8162
15.2894
15.7581
16.2244
16.6893
17.1548
17.6209
18.0906
18.5645
19.0461
19.5401
20.0526
20.5884
21.1557
21.7803
22.5226
23.673
28.7854
393.323
0.182288
0.552702
0.938751
1.38413
1.88177
2.2748
2.7466
3.54153
3.65175
4.22029
4.83631
5.48487
6.15311
6.82785
7.49638
8.15263
8.81096
9.44677
10.0632
10.6593
11.2345
11.7883
12.3201
12.8308
13.3454
13.8389
14.323
14.8003
15.2715
15.7383
16.2019
16.664
17.1262
17.5888
18.0549
18.5246
18.9995
19.4849
19.9834
20.5028
21.0474
21.6299
22.2775
23.0682
24.3647
30.9301
542.011
0.182113
0.54971
0.930564
1.33508
1.81804
2.3624
2.77118
3.27468
4.13582
4.22748
4.83423
5.48216
6.15029
6.8246
7.49263
8.14829
8.80623
9.44147
10.0573
10.6528
11.2275
11.7806
12.312
12.8217
13.3355
13.8271
14.3105
14.7859
15.2555
15.7202
16.1817
16.6418
17.1009
17.5601
18.0218
18.4875
18.9578
19.4356
19.9242
20.4291
20.9568
21.5139
22.1129
22.7898
23.639
25.1966
33.698
806.825
0.182048
0.548938
0.924456
1.32144
1.75039
2.27799
2.87659
3.30491
3.84383
4.74001
4.84276
5.47975
6.14725
6.8214
7.48933
8.14442
8.80176
9.43649
10.0519
10.6469
11.221
11.7736
12.3043
12.8134
13.3261
13.8172
14.299
14.7727
15.2408
15.7039
16.1628
16.6206
17.0768
17.5341
17.9923
18.4539
18.9206
19.3926
19.8735
20.3668
20.8783
21.4161
21.9864
22.6069
23.319
24.2418
26.1486
37.2624
1195.97
0.182001
0.54859
0.922643
1.31149
1.73031
2.18992
2.76954
3.42793
3.87898
4.4542
5.32454
5.49001
6.14467
6.81819
7.4861
8.14071
8.79792
9.43205
10.0468
10.6414
11.2149
11.767
12.2973
12.8053
13.3174
13.8074
14.2883
14.7611
15.2274
15.6884
16.1462
16.6012
17.0552
17.5094
17.9647
18.4234
18.8857
19.3538
19.8288
20.3135
20.814
21.334
21.8816
22.4692
23.1145
23.8685
24.8858
27.2661
42.3575
1625.25
0.18193
0.548373
0.921737
1.3083
1.71593
2.16253
2.65907
3.29706
4.01433
4.49297
5.10043
5.87567
6.15663
6.81563
7.48285
8.13739
8.79416
9.428
10.0423
10.6364
11.2094
11.761
12.2906
12.7981
13.3098
13.7988
14.2788
14.7503
15.2149
15.6754
16.1304
16.5837
17.0359
17.4871
17.9399
18.3949
18.8532
19.3183
19.788
20.2675
20.7581
21.2649
21.7944
22.3565
22.9638
23.6376
24.4437
25.5841
28.6095
50.2165
1992.2
0.181862
0.548084
0.921214
1.30663
1.7111
2.14312
2.62349
3.16277
3.86145
4.6244
5.14018
5.77173
6.39231
6.82921
7.48018
8.13402
8.79074
9.4243
10.0382
10.6318
11.2044
11.7553
12.2845
12.7915
13.3022
13.7912
14.2702
14.7408
15.2044
15.6627
16.1166
16.5682
17.0178
17.4666
17.9176
18.3693
18.8252
19.2843
19.7507
20.2251
20.7088
21.2057
21.7202
22.2612
22.8412
23.4701
24.1802
25.0508
26.3189
30.2621
61.15
2362.93
0.181814
0.547797
0.920563
1.30569
1.70849
2.13639
2.59858
3.11834
3.70529
4.45738
5.23953
5.8093
6.45316
6.87854
7.49553
8.13103
8.78729
9.42077
10.0343
10.6276
11.1997
11.7502
12.279
12.785
13.2957
13.7837
14.2617
14.7317
15.1943
15.6515
16.1043
16.5535
17.002
17.4488
17.8964
18.3462
18.798
19.2543
19.7169
20.185
20.6644
21.1532
21.6576
22.1833
22.7392
23.3362
23.9928
24.747
25.697
27.2088
32.3442
77.585
2680.64
0.181773
0.547597
0.919918
1.30458
1.70704
2.13269
2.58971
3.08774
3.65149
4.2877
5.0729
5.8442
6.48661
7.13081
7.33871
8.147
8.78435
9.41726
10.0307
10.6237
11.1954
11.7454
12.2737
12.7794
13.289
13.7767
14.2542
14.7232
15.1851
15.6414
16.0924
16.5407
16.9871
17.4318
17.8773
18.3244
18.774
19.2267
19.6846
20.1503
20.6237
21.1066
21.6031
22.1164
22.6547
23.2263
23.8457
24.5351
25.3423
26.3921
28.255
35.0341
104.47
2953.07
0.181733
0.547438
0.919465
1.30347
1.70538
2.13066
2.58479
3.07641
3.61539
4.22508
4.90632
5.69426
6.43237
7.16019
7.79316
7.77755
8.80114
9.41414
10.0272
10.6199
11.1915
11.7411
12.2689
12.774
13.2833
13.7705
14.2473
14.7156
15.1771
15.6322
16.0821
16.5286
16.9734
17.4165
17.86
18.3047
18.7506
19.2017
19.6566
20.1181
20.586
21.0649
21.5544
22.0591
22.5821
23.1341
23.7252
24.3721
25.1001
25.9724
27.1516
29.5037
38.5872
153.044
3348
0.181697
0.547285
0.919135
1.30268
1.70371
2.12838
2.5821
3.07012
3.60149
4.18432
4.8361
5.55175
6.31215
7.00366
7.81646
8.44443
8.20036
9.43168
10.024
10.6164
11.1877
11.7371
12.2645
12.7691
13.278
13.7644
14.241
14.7082
15.1689
15.6234
16.0726
16.5182
16.9615
17.4026
17.8441
18.2866
18.7309
19.1782
19.6297
20.0869
20.5529
21.0248
21.5096
22.0079
22.522
23.0571
23.6256
24.2383
24.9165
25.6932
26.6463
27.9602
31.0391
43.3228
251.756
4020.98
0.181668
0.547159
0.918822
1.30213
1.70255
2.12607
2.57908
3.06692
3.59385
4.16808
4.79276
5.47619
6.21119
6.92199
7.55908
8.47031
9.07928
8.61183
10.0421
10.6131
11.184
11.7333
12.2604
12.7647
13.2726
13.7587
14.2349
14.7014
15.1614
15.615
16.0638
16.5083
16.9507
17.3903
17.8305
18.2709
18.7122
19.1577
19.606
20.0595
20.5209
20.9895
21.4685
21.961
22.4662
22.992
23.5434
24.1303
24.7688
25.4844
26.3206
27.3746
28.9403
32.98
49.5096
483.421
5296.56
0.181646
0.547053
0.918555
1.30163
1.70173
2.12444
2.57607
3.06315
3.58992
4.15896
4.77435
5.43356
6.13335
6.87248
7.51969
8.09979
9.10319
9.68719
9.01606
10.6318
11.1807
11.7296
12.2565
12.7605
13.2682
13.7534
14.2287
14.6957
15.1546
15.6082
16.0559
16.4995
16.9402
17.3788
17.8173
18.2561
18.696
19.1383
19.5838
20.0348
20.4929
20.9575
21.4307
21.9177
22.4179
22.9326
23.4717
24.0403
24.6491
25.3203
26.0815
26.9882
28.1699
30.1118
35.4989
59.8285
1088.57
8593.27
0.181606
0.546983
0.918355
1.30119
1.701
2.12336
2.57396
3.05938
3.58549
4.15406
4.76376
5.41309
6.09442
6.7951
7.52581
8.10196
8.61024
9.71487
10.2701
9.41668
11.1997
11.7263
12.2528
12.7565
13.2638
13.749
14.2238
14.69
15.1484
15.6007
16.0483
16.491
16.9312
17.3687
17.8053
18.2425
18.6799
19.1198
19.5643
20.0114
20.4659
20.9279
21.3966
21.878
22.3718
22.881
23.4097
23.962
24.5507
25.1861
25.8938
26.7125
27.7077
29.0313
31.533
38.8645
77.0838
2344.73
97961.7
0.180607
0.546859
0.918225
1.30088
1.70038
2.12238
2.57258
3.0568
3.58088
4.1488
4.75811
5.40115
6.07264
6.76227
7.45016
8.15874
8.66351
9.15563
10.3081
10.8256
9.81688
11.7451
12.2495
12.7529
13.2598
13.7446
14.2186
14.6847
15.1426
15.5943
16.0406
16.4826
16.9219
17.3587
17.7943
18.2301
18.6658
19.1039
19.5451
19.991
20.4423
20.9002
21.3651
21.8413
22.3297
22.8324
23.3529
23.8962
24.4669
25.0776
25.7456
26.4979
27.385
28.4942
30.041
33.3201
43.5027
108.372
3799.89
12549.2
0.159667
0.543852
0.918009
1.30068
1.69993
2.12155
2.57135
3.05501
3.5777
4.14334
4.75185
5.3948
6.06
6.73986
7.42535
8.0908
8.79159
9.21384
9.67446
10.8782
11.3516
10.2191
12.268
12.7495
13.256
13.7402
14.2142
14.6789
15.1367
15.5879
16.0337
16.4754
16.9138
17.3505
17.7847
18.2188
18.6531
19.0893
19.5293
19.9718
20.42
20.8752
21.3375
21.8084
22.292
22.7885
23.302
23.8359
24.3943
24.9868
25.6245
26.3303
27.1394
28.1092
29.3628
31.2742
35.649
49.9141
172.175
5515.98
10296.4
0.053254
0.480989
0.91293
1.30036
1.69965
2.12096
2.57028
3.05343
3.5755
4.13952
4.74562
5.38808
6.0533
6.72697
7.4031
8.07183
8.73208
9.39465
9.77019
10.1752
11.4248
11.852
10.6235
12.7675
13.2521
13.7365
14.2098
14.6745
15.1319
15.5819
16.0272
16.4683
16.9059
17.3416
17.7756
18.209
18.6421
19.0769
19.5141
19.9553
20.4006
20.8516
21.31
21.778
22.2567
22.7485
23.2555
23.7807
24.3304
24.9072
25.5229
26.1945
26.9455
27.8217
28.8996
30.2988
32.7761
38.786
58.7043
329.041
10041.6
14383.8
-0.0802484
0.168049
0.807202
1.29311
1.69923
2.1206
2.56953
3.05212
3.57356
4.13695
4.74106
5.38119
6.0462
6.72018
7.39033
8.04934
8.72362
9.34853
9.99027
10.2932
10.6664
11.9479
12.3453
11.044
13.2696
13.733
14.2057
14.6701
15.1265
15.577
16.0211
16.4618
16.8994
17.3342
17.7665
18.1988
18.6311
19.0647
19.5011
19.9393
20.3824
20.8313
21.2859
21.7505
22.2238
22.7109
23.2124
23.73
24.2699
24.8367
25.4371
26.0824
26.7926
27.5998
28.5575
29.7707
31.4512
34.6786
43.1381
76.0912
827.208
91504.3
24900.2
-0.103849
-0.237789
0.288061
1.14288
1.68968
2.12005
2.56908
3.05121
3.57198
4.13465
4.73824
5.37611
6.03871
6.71267
7.38363
8.03633
8.70232
9.35142
9.9476
10.5584
10.7992
11.1477
12.4464
12.8129
11.4684
13.7501
14.2028
14.6665
15.122
15.5716
16.0155
16.4555
16.8919
17.3261
17.7589
18.1903
18.6223
19.0542
19.4884
19.9249
20.3657
20.8119
21.2642
21.7247
22.1953
22.6774
23.1735
23.6842
24.2167
24.7724
25.3602
25.9859
26.666
27.4241
28.2988
29.3622
30.7268
32.8458
37.1877
49.2565
108.327
2562
20001.6
46236.4
-0.112205
-0.310755
-0.403254
0.416138
1.49253
2.10802
2.56843
3.05066
3.57089
4.13284
4.73582
5.37315
6.03354
6.7048
7.37625
8.02905
8.68954
9.33141
9.95906
10.5286
11.1032
11.289
11.617
12.9432
13.2649
11.8869
14.2193
14.6621
15.1183
15.5672
16.0105
16.4498
16.8862
17.3191
17.7505
18.1816
18.6126
19.0442
19.4766
19.9125
20.3504
20.7944
21.2446
21.7025
22.1686
22.6454
23.137
23.6433
24.1665
24.715
25.2908
25.9023
26.5579
27.2784
28.0937
29.0552
30.2524
31.8387
34.5792
40.6272
57.7059
181.306
7620.57
20307.5
81416.6
-0.116627
-0.33662
-0.52126
-0.587632
0.555016
1.86075
2.55364
3.04988
3.57023
4.13152
4.73371
5.37048
6.03019
6.69983
7.36826
8.02132
8.68245
9.31897
9.94067
10.546
11.0859
11.6251
11.7603
12.0753
13.4201
13.7027
12.3196
14.6785
15.114
15.5624
16.0062
16.4448
16.8799
17.3127
17.7441
18.1738
18.6037
19.0342
19.4661
19.9002
20.3374
20.7792
21.227
21.6807
22.1447
22.6177
23.1042
23.6039
24.1228
24.6625
25.2263
25.8256
26.4644
27.1588
27.9279
28.8148
29.882
31.234
33.2099
36.8292
45.5069
72.7884
389.335
25554.3
30351.8
174415
-0.1191
-0.350192
-0.564669
-0.738696
-0.81539
0.707226
2.2523
3.03207
3.56933
4.1308
4.7323
5.3682
6.02724
6.69614
7.3634
8.01322
8.67494
9.31235
9.92922
10.5296
11.1114
11.6208
12.1225
12.2348
12.5405
13.8852
14.1273
12.7526
15.1302
15.5591
16.0013
16.4396
16.8747
17.306
17.7359
18.1657
18.5955
19.025
19.4558
19.8893
20.3254
20.7644
21.21
21.6629
22.1223
22.5918
23.0738
23.5691
24.0814
24.613
25.1706
25.7568
26.381
27.0531
27.791
28.6229
29.5988
30.8011
32.3613
34.8977
39.8825
52.468
103.435
1196.57
36166.9
56081.9
124111
-0.120261
-0.357831
-0.587536
-0.79967
-0.966474
-1.16575
0.876001
2.6718
3.54813
4.12972
4.73149
5.36668
6.02483
6.69307
7.35968
8.00785
8.66711
9.30516
9.92293
10.519
11.0974
11.654
12.1328
12.6162
12.6918
12.9917
14.3378
14.5417
13.1866
15.575
15.9974
16.4353
16.8687
17.3
17.7299
18.1586
18.5871
19.0166
19.4462
19.8785
20.3131
20.7519
21.1955
21.6448
22.1021
22.5688
23.0457
23.5368
24.0437
24.5687
25.1175
25.6937
26.3049
26.9612
27.6735
28.4658
29.372
30.4588
31.816
33.757
37.0699
44.1968
62.1506
174.535
4457.73
30318.9
70357.7
70351.9
-0.122368
-0.361507
-0.60046
-0.83206
-1.04499
-1.20794
-2.24718
1.06446
3.12383
4.10482
4.73027
5.36578
6.02318
6.69039
7.3564
8.00439
8.66176
9.29746
9.91576
10.5131
11.0877
11.6428
12.1736
12.6277
13.0919
13.1388
13.4387
14.7803
14.9462
13.6241
16.0135
16.4309
16.8643
17.2946
17.7237
18.1525
18.58
19.0079
19.4374
19.8685
20.3027
20.7399
21.182
21.6294
22.0848
22.5469
23.0206
23.5071
24.0091
24.529
25.0694
25.6374
26.2363
26.8759
27.5687
28.331
29.1877
30.1881
31.4172
32.9968
35.4726
40.0003
50.4052
81.6263
389.961
17463.1
32011.4
67865.8
55751.6
-0.12455
-0.367929
-0.606743
-0.850468
-1.08718
-1.30375
-1.46494
-1.80604
1.27637
3.61082
4.70131
5.36451
6.02231
6.68869
7.35377
8.00117
8.6582
9.29231
9.90814
10.5063
11.082
11.6341
12.1656
12.671
13.1196
13.552
13.5772
13.8817
15.2166
15.3414
14.0659
16.4473
16.8604
17.2902
17.7182
18.1461
18.5728
18.9996
19.4284
19.8586
20.2922
20.7289
21.1703
21.616
22.0672
22.5282
22.999
23.4818
23.9786
24.4913
25.0252
25.5853
26.1747
26.8009
27.4758
28.2117
29.0323
29.9705
31.091
32.4728
34.4535
37.68
44.1359
59.2713
123.731
1299.06
153342
47709.8
98707.7
55113.8
-0.126375
-0.374566
-0.617581
-0.859504
-1.11133
-1.35604
-1.57756
-1.73528
-1.01967
1.51529
4.13324
5.33103
6.02093
6.68783
7.35225
7.99886
8.65515
9.28842
9.90318
10.4986
11.0753
11.6287
12.1577
12.6651
13.1701
13.5902
14.0006
14.0089
14.322
15.645
15.7295
14.5117
16.8771
17.2861
17.7135
18.1396
18.5662
18.9921
19.4199
19.85
20.2818
20.7171
21.1578
21.6025
22.0529
22.5112
22.9776
23.4571
23.9507
24.4584
24.9864
25.5369
26.1178
26.7333
27.3912
28.1057
28.896
29.788
30.8307
32.1018
33.7426
36.2541
40.664
50.1451
74.0059
236.265
5626.4
40973.9
79469
174110
57235.5
-0.128066
-0.380137
-0.628799
-0.874943
-1.12328
-1.38595
-1.6399
-1.86307
-2.00924
-0.696375
1.78507
4.68557
5.98273
6.68662
7.35129
7.99721
8.65266
9.28565
9.89958
10.4936
11.068
11.6221
12.1531
12.6584
13.1668
13.6458
14.0497
14.439
14.4346
14.7605
16.0656
16.1127
14.9606
17.3037
17.7087
18.1348
18.5602
18.986
19.4128
19.8411
20.2728
20.7079
21.1453
21.5893
22.0385
22.4948
22.9604
23.4359
23.9233
24.4271
24.9502
25.495
26.0666
26.6696
27.3142
28.0119
28.7752
29.6314
30.6127
31.786
33.2131
35.2958
38.5873
44.8981
58.8457
107.34
646.465
37658
57732.9
137680
126433
56822.8
-0.12975
-0.385286
-0.638219
-0.890942
-1.14356
-1.40072
-1.67433
-1.93412
-2.14666
-2.27623
-0.485178
2.08751
5.25763
6.64312
7.34997
7.99637
8.65083
9.28304
9.89682
10.4904
11.0636
11.6152
12.1472
12.6543
13.1592
13.6454
14.1101
14.4986
14.8685
14.8542
15.198
16.4811
16.4901
15.4139
17.7264
18.1299
18.5545
18.9799
19.4056
19.8328
20.2635
20.6976
21.1347
21.578
22.0253
22.4805
22.9436
23.4158
23.9011
24.4002
24.9175
25.4551
26.0188
26.6143
27.2467
27.9261
28.6691
29.492
30.4289
31.524
32.8501
34.6038
37.2373
41.7705
51.0922
72.3973
192.718
2954.01
49405.8
166225
247487
157089
51269.3
-0.131354
-0.390403
-0.646915
-0.904393
-1.16459
-1.42585
-1.69037
-1.96825
-2.22223
-2.40854
-2.53947
-0.327154
2.42164
5.83516
7.30125
7.99509
8.65015
9.28153
9.89441
10.4877
11.0605
11.6113
12.1404
12.6491
13.1548
13.6409
14.1125
14.5645
14.9385
15.2893
15.2701
15.6337
16.8907
16.8655
15.8719
18.1483
18.5495
18.973
19.3985
19.8253
20.2548
20.6877
21.1237
21.5657
22.0125
22.4665
22.9279
23.3976
23.88
24.3753
24.8886
25.4204
25.9754
26.5622
27.183
27.8498
28.5748
29.3705
30.2668
31.3044
32.5477
34.0791
36.2934
39.7865
46.3348
60.1094
103.93
494.135
22094.9
94859.5
262350
195227
232492
44648.9
-0.132815
-0.395269
-0.655554
-0.916802
-1.18228
-1.45196
-1.71937
-1.98037
-2.24656
-2.48173
-2.64054
-2.82302
-0.201508
2.78031
6.40714
7.94099
8.64889
9.28084
9.89295
10.4854
11.0577
11.6085
12.1365
12.6427
13.1498
13.6372
14.1096
14.5696
15.0106
15.3707
15.7029
15.6826
16.0696
17.2955
17.2395
16.3336
18.57
18.9686
19.3929
19.8185
20.2469
20.6786
21.1143
21.5551
22.0014
22.4525
22.9128
23.3815
23.8609
24.3532
24.8607
25.3886
25.9365
26.5153
27.1262
27.7791
28.4862
29.2629
30.1267
31.114
32.2831
33.673
35.5982
38.4399
43.316
53.0434
74.4669
185.505
2153.32
60275.4
262480
262367
141767
359791
38127
-0.134134
-0.399701
-0.663768
-0.929123
-1.19862
-1.47389
-1.74941
-2.00947
-2.24663
-2.48798
-2.70443
-2.85238
-3.16449
-0.0976151
3.15232
6.96323
8.58801
9.27955
9.89227
10.484
11.0555
11.6057
12.1341
12.6389
13.144
13.6321
14.1069
14.5682
15.0188
15.4483
15.7953
16.1095
16.092
16.5059
17.6964
17.6132
16.8009
18.9898
19.3875
19.8128
20.2398
20.6701
21.1046
21.5441
21.989
22.4396
22.8989
23.3661
23.8434
24.3333
24.837
25.358
25.9024
26.4724
27.0758
27.7159
28.4086
29.1635
30.0012
30.9498
32.052
33.3707
35.0616
37.4763
41.3107
48.4497
62.8201
108.688
482.959
18738.6
166172
263014
206964
134666
305286
35817.7
-0.135316
-0.4037
-0.671244
-0.940836
-1.21482
-1.4941
-1.77426
-2.03966
-2.27031
-2.47144
-2.69089
-2.89926
-3.05806
-3.638
-0.00903098
3.52037
7.50023
9.21348
9.89119
10.4834
11.0541
11.6036
12.1315
12.6365
13.1401
13.6273
14.1024
14.5662
15.0186
15.4596
15.8787
16.2136
16.5109
16.4989
16.9424
18.0938
17.9893
17.2737
19.4108
19.8072
20.2328
20.6626
21.0957
21.5339
21.9773
22.4273
22.8838
23.351
23.8265
24.3137
24.8145
25.3322
25.8714
26.4341
27.0294
27.6606
28.3378
29.0753
29.8885
30.8038
31.8572
33.1072
34.6307
36.7527
39.9133
45.3622
56.0282
79.8811
202.477
2274.92
100092
156918
5.70014e+12
150291
129132
157978
40191.7
-0.136379
-0.407283
-0.677988
-0.951493
-1.2302
-1.51405
-1.79688
-2.06352
-2.2958
-2.48716
-2.65847
-2.86668
-3.07874
-3.27085
-4.42145
0.0684843
3.87196
8.01231
9.81975
10.4823
11.0536
11.6023
12.1295
12.6342
13.1372
13.6234
14.0968
14.5618
15.0167
15.4614
15.8931
16.3033
16.6264
16.9081
16.9056
17.3793
18.4873
18.3685
17.7507
19.8332
20.2279
20.6552
21.0877
21.5244
21.9663
22.4149
22.8718
23.3359
23.8101
24.295
24.7938
25.3081
25.8417
26.4007
26.9854
27.6089
28.2739
28.9952
29.7869
30.6728
31.6848
32.8728
34.2723
36.1857
38.8911
43.2529
51.3478
67.0552
121.955
574.155
18382.5
239546
196779
310008
158739
224300
134492
42541.7
-0.137361
-0.410511
-0.684028
-0.961102
-1.2442
-1.53295
-1.81904
-2.0848
-2.31422
-2.50599
-2.66643
-2.82004
-3.02584
-3.25264
-3.50614
-6.26083
0.137747
4.19852
8.51686
10.4063
11.0525
11.6019
12.1283
12.6323
13.1351
13.6207
14.0929
14.5563
15.0128
15.4601
15.8967
16.3215
16.723
17.0342
17.3003
17.3119
17.8177
18.8779
18.7528
18.2329
20.2573
20.6491
21.0798
21.5149
21.9563
22.4042
22.8584
23.3218
23.7947
24.2779
24.7743
25.2859
25.8164
26.3689
26.9472
27.5619
28.2164
28.9241
29.6963
30.556
31.5309
32.6649
33.9991
35.7244
38.1101
41.7393
48.0858
60.2223
89.6029
249.69
3224.43
160793
276976
310653
185506
230886
1.06756e+06
148656
43230.9
-0.138282
-0.413471
-0.68946
-0.969709
-1.25682
-1.55014
-1.8402
-2.10563
-2.33065
-2.51802
-2.67924
-2.82025
-2.9651
-3.17622
-3.42898
-3.78314
-19.6162
0.200988
4.49723
8.99846
10.9732
11.601
12.1279
12.6312
13.1334
13.6187
14.0908
14.5535
15.0075
15.4565
15.8966
16.3264
16.7446
17.1366
17.4382
17.6911
17.7171
18.2568
19.2653
19.1462
18.7202
20.6845
21.0744
21.5074
21.9471
22.3932
22.8468
23.3084
23.7792
24.2623
24.7564
25.2662
25.7925
26.3409
26.914
27.5189
28.1652
28.8587
29.615
30.453
31.3962
32.4824
33.76
35.3417
37.4898
40.6105
45.7509
55.27
73.4861
148.333
863.041
25766.1
5.7005e+12
5.70041e+12
225604
719308
5.69999e+12
263544
140666
43815.2
-0.139201
-0.41627
-0.694454
-0.977455
-1.26812
-1.56563
-1.85925
-2.12588
-2.34724
-2.52909
-2.68565
-2.8277
-2.95778
-3.10036
-3.3246
-3.61686
-4.1361
-5.43767
0.259776
4.76822
9.46449
11.5194
12.1272
12.6308
13.1322
13.617
14.0889
14.5512
15.0055
15.4513
15.8939
16.3276
16.7516
17.1629
17.5454
17.8384
18.0792
18.1248
18.6966
19.6521
19.5477
19.2111
21.1146
21.5017
21.9391
22.3835
22.8351
23.2947
23.7657
24.2453
24.739
25.2461
25.7701
26.3144
26.8823
27.4805
28.1189
28.7997
29.5428
30.3585
31.2746
32.3217
33.5492
35.0165
36.9857
39.7357
44.046
51.6877
65.8237
106.493
354.085
6173.13
163665
309740
232409
1.01945e+06
203213
222132
1.19087e+06
134002
45202.8
-0.140146
-0.419055
-0.699157
-0.984551
-1.27826
-1.57944
-1.87634
-2.144
-2.36406
-2.54113
-2.69209
-2.82894
-2.9596
-3.08477
-3.23249
-3.47731
-3.92493
-4.62748
-3.79574
0.315089
5.01585
9.91774
12.0453
12.6303
13.1319
13.6154
14.0868
14.5494
15.0031
15.4489
15.8899
16.3261
16.7548
17.1725
17.5777
17.9519
18.2347
18.4665
18.5349
19.1389
20.0369
19.9616
19.7079
21.5501
21.9318
22.3748
22.8245
23.2831
23.7509
24.2305
24.7215
25.2265
25.7486
26.2897
26.8538
27.4469
28.0752
28.7484
29.4762
30.2749
31.1659
32.1775
33.3581
34.7355
36.565
39.0395
42.7496
49.0397
60.5412
85.6317
200.829
1658.75
44436.6
5.70053e+12
226150
312896
207396
1.13494e+06
161305
1.3378e+06
126294
47988.1
-0.141102
-0.421881
-0.703825
-0.991226
-1.28757
-1.59187
-1.89147
-2.15996
-2.37911
-2.55453
-2.70029
-2.83138
-2.95624
-3.08079
-3.20659
-3.366
-3.64156
-4.31081
-5.3996
-3.00691
0.368178
5.24339
10.362
12.5502
13.1315
13.6155
14.0857
14.5473
15.0011
15.4474
15.887
16.3218
16.7532
17.1768
17.5901
17.9894
18.3554
18.6291
18.8545
18.9462
19.5817
20.4202
20.3869
20.2153
21.992
22.3671
22.815
23.2716
23.7384
24.2155
24.7039
25.2071
25.7276
26.2662
26.8277
27.4159
28.0373
28.7007
29.4162
30.199
31.0671
32.0503
33.1878
34.5108
36.2069
38.4702
41.7387
47.0307
56.4996
73.6166
137.883
612.37
10728.1
263614
232160
329154
252120
258857
280168
170374
582305
102099
50978.6
-0.142113
-0.42477
-0.708568
-0.997838
-1.29631
-1.6033
-1.90508
-2.17408
-2.39227
-2.56642
-2.71065
-2.83632
-2.95487
-3.07267
-3.19616
-3.3287
-3.50575
-3.82569
-4.57707
-6.908
-2.5101
0.419666
5.45525
10.8009
13.0469
13.6153
14.0859
14.5468
14.9996
15.4455
15.8857
16.32
16.7487
17.1764
17.5952
18.0038
18.3983
18.755
19.022
19.2431
19.3609
20.0262
20.8017
20.8185
20.7348
22.4328
22.8077
23.2612
23.7257
24.2004
24.6874
25.1889
25.707
26.2436
26.8018
27.3861
28.0025
28.6584
29.3639
30.1302
30.9792
31.9365
33.0361
34.3143
35.8989
37.9942
40.9286
45.4943
53.4079
67.491
106.661
318.26
4852.71
123659
324699
313592
367227
266294
5.70028e+12
407507
156918
5.69961e+12
78070.6
54709.7
-0.143225
-0.427822
-0.713395
-1.00455
-1.30496
-1.6141
-1.91772
-2.18683
-2.40394
-2.57686
-2.72047
-2.84398
-2.95655
-3.06713
-3.18302
-3.31046
-3.45479
-3.65903
-4.04219
-4.9385
-12.481
-2.15301
0.470282
5.65551
11.2388
13.5347
14.0857
14.546
14.9985
15.444
15.8839
16.3182
16.7472
17.1726
17.5964
18.0115
18.4149
18.8045
19.1522
19.4135
19.6356
19.7795
20.472
21.1848
21.2537
21.2659
22.8664
23.2543
23.7142
24.1877
24.673
25.1717
25.6879
26.2217
26.7771
27.3571
27.9697