/*--------------------------------*- C++ -*----------------------------------*\
| =========                 |                                                 |
| \\      /  F ield         | OpenFOAM: The Open Source CFD Toolbox           |
|  \\    /   O peration     | Version:  v2012                                 |
|   \\  /    A nd           | Website:  www.openfoam.com                      |
|    \\/     M anipulation  |                                                 |
\*---------------------------------------------------------------------------*/
FoamFile
{
    version     2.0;
    format      ascii;
    class       volScalarField;
    location    "13200";
    object      wallHeatFlux;
}
// * * * * * * * * * * * * * * * * * * * * * * * * * * * * * * * * * * * * * //

dimensions      [1 0 -3 0 0 0 0];


internalField   uniform 0;

boundaryField
{
    base
    {
        type            calculated;
        value           nonuniform List<scalar> 
317
(
14766.3
15824.6
15723.9
15471.9
15270.3
15018.3
14816.7
14665.5
14514.3
14363.1
14211.9
14111.1
14010.4
13909.6
13808.8
13758.4
13657.6
13607.2
13556.8
13506.4
13456
13405.6
13355.2
13304.8
13254.4
13254.4
13204
13204
13153.6
13153.6
13103.2
13103.2
13103.2
13052.8
13052.8
13002.4
13002.4
13002.4
12952
15455.5
12847.9
12919.5
13826.8
13395.3
12895.5
12880.8
12802.3
12811.4
12816.9
12818.9
12771.1
12774.3
12776.4
12777.6
12778.6
12779.5
12780.1
12780.3
12780.5
12680.1
11120.2
6893.42
11472.4
11573.3
12076.4
12780.4
13736.2
14490.9
15145
15748.4
16301.9
16754.8
17207.8
17560.2
17862.3
18164.6
18416.6
18618.5
18820
18921.6
19023.4
19124.2
19125.5
19177.3
19177.7
19179.4
19130.6
19081.7
19083.5
19035
18986.8
18938.8
18891
18843.5
18846.7
18850.3
18854.4
18808.5
18813.7
18870.2
18877.1
18885.2
18894.9
18906.3
18970.6
18986.9
19058.7
19134.7
19218
19256.6
19358.7
19422.9
19603.9
19748.2
19948
20259.2
20173.2
19291.9
19200.9
19604.3
19473.6
19323.1
19233.4
19260.3
19297.8
19377.4
19486
19556.8
19658.9
19780.7
19850.8
20003.5
20124.3
20258.9
20383.1
20542.9
20694.7
20854.6
21013.6
21157.3
21352.4
21504.2
21713
21870.3
22071.9
22223.7
22426.1
22628.7
22831.1
23079.7
23331.7
23583.7
23785.2
24046.1
24299.1
24541.7
24792.9
25058.6
25362.2
25716.7
26017.7
26269.6
26608.9
26924.1
27182.6
27531.1
27979.2
28377.5
28751.2
29108.4
29522.5
29821.2
30169.7
30506.3
30856.3
31106.5
31399
31794.9
31951.4
32314.4
32625.6
32867.3
33256.4
33374
33692.6
33956.4
34166.6
34322
34319.9
34821.6
34991.5
34744.7
35051.7
35102.9
35051.7
35205.2
34744.7
34847
34600
34062.9
33414.3
32851.4
32493.2
32058.8
32156.9
31720.7
30781.6
30577.9
30104.3
29934.7
29576.5
29423
29046
29092.6
28693.9
28315.2
28246.9
27996.4
27754.8
27847.2
27611.9
27631.1
27282.8
27376.1
27069.1
27217.6
27218
27113.2
26900.8
26956.9
27018
27171.5
27269.9
26852.4
26966.8
27120.3
26966.8
27427.3
27222.6
27427.3
27465
27416.4
27376.1
27611.6
27514.1
28869.9
27766.7
29299.6
28772.1
28258.5
29537.4
30227.2
28428.2
29421.5
30918.8
28930.7
29074.9
30313
30366.9
30171.2
29183.3
29604.9
28625.5
29299.3
30410.4
29167.3
31380.4
28564.4
28502.6
29590.9
29439.8
31327.4
28950.4
31385.6
31058.3
30171.2
32531.1
30524.8
31628.2
31525.3
32074.9
31976.5
31445.7
31444
31822.2
32010.6
32210.7
31137
29361.1
31822.6
32058.4
30033.5
29852.4
29123.1
29128.8
31443.3
29833.9
32037.9
30052.2
32017.2
30990.7
31136.6
31678
31669.9
31079.2
30768.7
29300.9
29854.3
30166.4
29494.8
30214.6
29668.6
28809.4
29108.4
30402.2
30037.8
-12318.3
)
;
    }
    frontAndBack
    {
        type            empty;
    }
    inlet
    {
        type            calculated;
        value           uniform 0;
    }
    outlet
    {
        type            calculated;
        value           uniform 0;
    }
    top
    {
        type            calculated;
        value           uniform 0;
    }
}


// ************************************************************************* //
