/*--------------------------------*- C++ -*----------------------------------*\
| =========                 |                                                 |
| \\      /  F ield         | OpenFOAM: The Open Source CFD Toolbox           |
|  \\    /   O peration     | Version:  v2012                                 |
|   \\  /    A nd           | Website:  www.openfoam.com                      |
|    \\/     M anipulation  |                                                 |
\*---------------------------------------------------------------------------*/
FoamFile
{
    version     2.0;
    format      ascii;
    class       volVectorField;
    location    "13200";
    object      wallShearStress;
}
// * * * * * * * * * * * * * * * * * * * * * * * * * * * * * * * * * * * * * //

dimensions      [1 -1 -2 0 0 0 0];


internalField   uniform (0 0 0);

boundaryField
{
    base
    {
        type            calculated;
        value           nonuniform List<vector> 
317
(
(-172.921 -0.322159 0)
(-173.07 -0.000269871 0)
(-166.917 -9.91339e-05 0)
(-162.344 4.68594e-05 0)
(-158.878 -1.46008e-05 0)
(-156.019 -0.00011333 0)
(-153.59 -8.26665e-05 0)
(-151.522 -5.47676e-05 0)
(-149.746 -1.65705e-05 0)
(-148.179 -2.21398e-05 0)
(-146.795 -4.42049e-05 0)
(-145.539 -4.89368e-05 0)
(-144.406 -5.58836e-05 0)
(-143.373 -5.60751e-05 0)
(-142.435 -3.99465e-05 0)
(-141.584 -2.6614e-05 0)
(-140.82 -9.8004e-06 0)
(-140.122 1.16283e-06 0)
(-139.494 3.50079e-06 0)
(-138.919 -1.87509e-06 0)
(-138.398 -2.96562e-06 0)
(-137.924 -2.98352e-05 0)
(-137.494 -0.000109791 0)
(-137.102 -0.000184697 0)
(-136.745 -0.00020729 0)
(-136.415 -0.000174102 0)
(-136.111 -0.000125705 0)
(-135.829 -0.000106315 0)
(-135.568 -0.000173715 0)
(-135.324 -0.000334218 0)
(-135.098 -0.000451449 0)
(-134.888 -0.000472146 0)
(-134.693 -0.000664284 0)
(-134.51 -0.00128813 0)
(-134.336 -0.00118351 0)
(-134.171 -0.00105264 0)
(-134.006 -0.0011427 0)
(-133.873 -0.000707304 0)
(-134.07 -0.000259994 0)
(-164.534 -0.00172334 0)
(-133.361 -0.00268375 0)
(-133.816 -0.0028104 0)
(-145.342 -0.00323986 2.87787e-26)
(-140.147 -0.00383957 -4.79382e-26)
(-133.302 -0.0033646 -2.19084e-26)
(-132.581 -0.00259387 0)
(-131.857 -0.00118807 0)
(-131.791 -0.000564008 0)
(-131.804 0.00096492 0)
(-131.782 0.00268221 0)
(-131.728 0.00430319 0)
(-131.699 0.00581023 0)
(-131.672 0.00695996 -1.23074e-27)
(-131.638 0.00799412 0)
(-131.595 0.00884881 0)
(-131.561 0.00961053 0)
(-131.529 0.0100894 0)
(-131.501 0.0103055 0)
(-131.457 0.00979639 0)
(-129.942 0.00881159 0)
(-98.993 -0.00992265 0)
(-9.83763 -0.0471658 0)
(14.343 0.0162601 2.58886e-27)
(22.613 -0.00505246 1.03475e-28)
(25.1703 -0.00159139 0)
(26.3593 -0.00284957 0)
(26.7959 -0.00293699 5.2491e-29)
(26.8372 -0.00394444 0)
(27.3609 -0.001963 0)
(27.9694 -0.00156412 0)
(28.4695 -0.00281303 0)
(28.9465 -0.0021536 0)
(29.4515 -0.00150463 0)
(29.9457 -0.000679334 0)
(30.3984 -3.74735e-05 -2.29893e-29)
(30.8074 0.000776534 -7.88582e-29)
(31.1722 0.00155938 0)
(31.5003 0.0053396 0)
(31.8046 0.00642359 0)
(32.0985 0.00495178 0)
(32.4038 0.00755268 -5.65269e-28)
(32.7293 0.00829798 0)
(33.0746 0.00714792 0)
(33.4556 0.00966253 -8.53592e-28)
(33.8893 0.0109162 0)
(34.3398 0.00844366 -1.71935e-27)
(34.7948 0.00838989 7.97936e-28)
(35.2354 0.00859704 8.79397e-28)
(35.6519 0.00860185 -8.84553e-28)
(36.0388 0.00843654 0)
(36.393 0.00800141 -1.65389e-27)
(36.7121 0.0073531 6.21096e-28)
(37.0074 0.00665958 5.49561e-28)
(37.2808 0.00585029 0)
(37.5104 0.00479029 -1.17186e-27)
(37.6894 0.00352097 -1.32969e-27)
(37.8159 0.00255786 0)
(37.94 0.000612917 1.71296e-28)
(38.0042 0.000702154 -6.88514e-29)
(37.9793 2.51967e-05 7.93865e-29)
(37.9295 -0.000572886 0)
(37.8396 -0.00123038 -7.79539e-28)
(37.6963 -0.00245703 0)
(37.5026 -0.00282222 1.99583e-27)
(37.2581 -0.00314345 8.78742e-28)
(36.9748 -0.00352348 -9.65893e-28)
(36.6453 -0.00346129 -2.69428e-29)
(36.2564 -0.00348038 -8.26305e-28)
(35.7789 -0.00280686 -1.56795e-27)
(35.2072 -0.00238242 3.15822e-27)
(34.515 -0.00156392 -1.58245e-27)
(33.6943 -0.000108527 -1.35535e-26)
(32.7128 0.00197395 0)
(31.4324 0.00574412 1.42327e-27)
(29.7179 0.0114821 -1.52332e-25)
(26.9145 0.0201305 0)
(23.3793 0.0126207 -2.59901e-25)
(12.0707 0.126693 0)
(10.2714 4.47004 1.24892e-20)
(19.7959 8.8024 1.01871e-21)
(23.1071 10.2564 4.79994e-21)
(26.002 11.5547 1.23663e-26)
(28.144 12.5106 4.50626e-26)
(29.7775 13.2401 0)
(31.1165 13.8386 2.64398e-21)
(32.188 14.3166 -2.35394e-21)
(33.1191 14.7316 0)
(33.9199 15.0886 0)
(34.6436 15.4121 0)
(35.2979 15.7033 -1.71645e-21)
(35.8878 15.9647 2.34672e-28)
(36.4256 16.2053 8.00631e-22)
(36.9235 16.4264 -2.52935e-26)
(37.4058 16.6432 3.02776e-21)
(37.8326 16.8285 2.90957e-21)
(38.2109 16.9999 0)
(38.6051 17.175 -1.33786e-21)
(38.9715 17.3382 2.53482e-21)
(39.2586 17.4652 1.77672e-27)
(39.5361 17.591 -1.34514e-21)
(39.8068 17.7103 2.23356e-26)
(40.0425 17.8145 3.61366e-21)
(40.2528 17.9069 2.3266e-21)
(40.4463 17.9947 -1.14792e-21)
(40.5981 18.0622 -1.23216e-28)
(40.715 18.1138 -1.20208e-21)
(40.8151 18.1593 2.19543e-21)
(40.8863 18.1907 2.41284e-21)
(40.9814 18.2298 3.79701e-21)
(41.0687 18.2706 0)
(41.113 18.2892 -3.74131e-21)
(41.1146 18.2927 -1.86831e-26)
(41.0808 18.2755 -5.38743e-21)
(41.0028 18.2458 -2.19507e-21)
(40.9123 18.1968 0)
(40.7429 18.1253 3.2985e-21)
(40.5573 18.045 -1.80467e-21)
(40.3844 17.9669 -3.28675e-21)
(40.1978 17.8803 2.63936e-21)
(39.996 17.7944 0)
(39.7092 17.6602 0)
(39.257 17.487 -1.45807e-26)
(38.9694 17.3149 8.58169e-21)
(38.4602 17.1081 3.72361e-26)
(37.8586 16.8364 -1.0393e-27)
(37.3348 16.6086 -3.01078e-21)
(36.7707 16.3528 -1.87014e-27)
(36.1677 16.0932 6.59047e-21)
(35.3447 15.7206 -2.85788e-21)
(34.4351 15.3107 2.93699e-26)
(33.515 14.9085 -4.12898e-21)
(32.3485 14.3876 -2.69111e-21)
(31.0809 13.8212 1.04211e-20)
(29.7087 13.2139 -5.08722e-21)
(28.2601 12.568 0)
(26.5132 11.8051 0)
(24.7064 10.9872 8.45298e-21)
(22.82 10.1549 5.12432e-21)
(20.609 9.18384 0)
(18.3954 8.18195 -4.72283e-21)
(15.9805 7.09574 2.76498e-22)
(13.3641 5.93678 0)
(10.6476 4.72596 0)
(7.66661 3.40192 0)
(4.56356 2.00204 -2.61813e-26)
(1.22177 0.673296 2.5747e-26)
(-2.17175 -1.03676 2.29351e-26)
(-5.80331 -2.59488 5.62446e-21)
(-9.57406 -4.26864 -8.28429e-21)
(-13.6793 -6.10208 6.08056e-27)
(-17.8407 -7.94952 -2.34467e-21)
(-21.8752 -9.72736 3.89751e-27)
(-26.3796 -11.7698 1.30234e-20)
(-30.8506 -13.7151 4.74497e-28)
(-35.2726 -15.733 9.28444e-27)
(-40.0369 -17.8451 -1.02283e-26)
(-44.2499 -19.708 0)
(-49.0046 -21.7421 2.39517e-20)
(-53.2354 -23.7724 1.57258e-20)
(-57.0076 -25.3539 0)
(-60.2958 -26.8752 -1.10323e-21)
(-63.7416 -28.3868 -7.09491e-27)
(-67.4464 -30.0277 0)
(-71.098 -31.6653 2.60046e-21)
(-75.8472 -33.7048 2.77782e-20)
(-79.2791 -35.3008 8.90879e-28)
(-81.3396 -36.2457 6.1839e-27)
(-84.826 -37.7682 1.92744e-27)
(-88.1493 -39.2488 -1.097e-26)
(-91.5996 -40.7183 -1.817e-20)
(-94.7492 -42.2118 -1.0376e-20)
(-98.4853 -43.8404 -8.11835e-27)
(-101.749 -45.2773 5.72284e-27)
(-105.674 -47.1255 2.7975e-20)
(-108.226 -48.0736 0)
(-111.126 -49.5944 3.86951e-20)
(-114.389 -50.9209 0)
(-117.303 -52.2236 -3.37347e-21)
(-120.403 -53.6058 0)
(-123.824 -55.1293 0)
(-126.746 -56.3405 -2.64693e-27)
(-129.989 -57.9598 -4.86235e-28)
(-131.861 -58.6735 1.46612e-20)
(-135.152 -60.1505 -7.58735e-27)
(-136.796 -60.8965 0)
(-139.947 -62.3245 6.19125e-21)
(-142.623 -63.4851 -8.15178e-21)
(-144.537 -64.3499 -2.2929e-20)
(-146.6 -65.2612 -7.22893e-21)
(-148.914 -66.3331 5.41169e-21)
(-151.439 -67.4105 -3.25957e-20)
(-154.357 -68.7115 -2.53083e-27)
(-156.855 -69.7493 3.90922e-27)
(-156.726 -69.8433 4.59206e-20)
(-159.569 -71.0363 0)
(-161.85 -72.0408 0)
(-163.253 -72.6711 1.25073e-20)
(-167.175 -74.4367 2.88458e-30)
(-168.184 -74.8731 9.64088e-21)
(-170.857 -76.0493 -1.55144e-27)
(-172.672 -76.921 2.87879e-20)
(-174.201 -77.5483 -1.06078e-20)
(-175.737 -78.2335 5.50616e-28)
(-178.128 -79.3187 5.28339e-21)
(-179.841 -80.0167 -3.36276e-20)
(-189.839 -84.5282 -6.36812e-21)
(-185.203 -82.4255 0)
(-195.993 -87.2412 -1.1948e-20)
(-193.379 -86.1317 -1.90992e-20)
(-192.385 -85.6317 0)
(-201.062 -89.4884 0)
(-206.989 -92.2684 0)
(-198.508 -88.3483 0)
(-204.595 -90.9401 -2.18143e-20)
(-214.492 -95.5322 -5.65276e-20)
(-202.455 -90.0609 3.63271e-20)
(-203.547 -90.6293 1.79198e-21)
(-213.361 -95.016 9.30356e-20)
(-215.074 -95.7612 -6.36233e-20)
(-211.695 -94.2169 5.53293e-20)
(-207.182 -92.2749 8.99779e-21)
(-209.613 -93.1909 -5.20536e-20)
(-204.694 -91.1397 0)
(-210.192 -93.5723 0)
(-216.93 -96.6044 2.03966e-26)
(-209.428 -93.2308 3.53816e-20)
(-221.806 -98.7255 -3.82587e-21)
(-206.278 -91.9936 0)
(-207.004 -92.1462 3.12616e-20)
(-211.65 -94.2244 0)
(-214.795 -95.632 2.4727e-20)
(-228.753 -101.802 -1.9053e-20)
(-214.654 -95.543 1.25625e-20)
(-231.111 -102.902 0)
(-234.909 -104.58 -6.00274e-20)
(-223.762 -99.6403 2.44797e-26)
(-232.061 -103.316 3.96821e-26)
(-230.773 -102.738 0)
(-236.201 -105.142 0)
(-241.695 -107.623 0)
(-240.153 -106.897 5.21152e-26)
(-238.781 -106.312 1.10255e-19)
(-239.339 -106.59 0)
(-240.074 -106.831 -4.53788e-20)
(-241.977 -107.784 -1.11196e-20)
(-244.798 -108.925 1.07607e-19)
(-241.844 -107.709 0)
(-237.913 -105.876 0)
(-223.559 -99.537 0)
(-239.818 -106.796 1.67917e-20)
(-243.898 -108.598 5.02922e-20)
(-226.528 -100.71 0)
(-222.383 -99.2105 0)
(-217.746 -96.786 4.8473e-20)
(-219.66 -97.9091 0)
(-237.341 -105.38 0)
(-223.24 -99.7296 -8.6979e-20)
(-239.804 -106.778 0)
(-227.343 -101.183 4.32273e-21)
(-238.268 -106.122 -5.4733e-20)
(-235.449 -104.88 -6.06475e-20)
(-236.408 -104.879 -9.94892e-20)
(-234.305 -104.699 0)
(-233.632 -103.611 2.2368e-20)
(-233.594 -104.35 6.63574e-20)
(-231.349 -102.704 -2.58963e-20)
(-216.905 -96.607 0)
(-219.642 -97.7852 0)
(-223.032 -98.9163 0)
(-218.547 -97.5101 0)
(-223.037 -99.2319 0)
(-219.29 -97.7019 0)
(-216.319 -96.3026 0)
(-215.802 -96.0299 -2.47709e-20)
(-223.982 -99.5179 -2.8372e-20)
(-221.315 -98.615 5.16639e-20)
(-225.985 -100.585 0)
)
;
    }
    frontAndBack
    {
        type            empty;
    }
    inlet
    {
        type            calculated;
        value           uniform (0 0 0);
    }
    outlet
    {
        type            calculated;
        value           uniform (0 0 0);
    }
    top
    {
        type            calculated;
        value           uniform (0 0 0);
    }
}


// ************************************************************************* //
