/*--------------------------------*- C++ -*----------------------------------*\
| =========                 |                                                 |
| \\      /  F ield         | OpenFOAM: The Open Source CFD Toolbox           |
|  \\    /   O peration     | Version:  v2012                                 |
|   \\  /    A nd           | Website:  www.openfoam.com                      |
|    \\/     M anipulation  |                                                 |
\*---------------------------------------------------------------------------*/
FoamFile
{
    version     2.0;
    format      ascii;
    class       volScalarField;
    location    "13200";
    object      xx;
}
// * * * * * * * * * * * * * * * * * * * * * * * * * * * * * * * * * * * * * //

dimensions      [0 0 0 0 0 0 0];


internalField   nonuniform List<scalar> 
31383
(
7.72968e-07
7.79778e-07
7.74488e-07
7.23558e-07
1.45452e-06
1.53722e-06
6.83755e-07
1.33767e-06
1.71344e-05
7.2724e-06
6.5461e-07
1.25428e-06
1.56396e-05
0.000133005
3.20009e-05
6.30914e-07
1.19342e-06
1.45666e-05
0.000121316
0.000640682
0.000112424
6.10976e-07
1.14403e-06
1.3785e-05
0.000112913
0.000584337
0.00229498
0.000333022
5.94356e-07
1.10279e-06
1.31516e-05
0.000106794
0.000543778
0.0020939
0.00675346
0.000874488
5.80423e-07
1.0685e-06
1.26253e-05
0.000101833
0.000514233
0.00194884
0.00616816
0.0172206
0.00210516
5.68189e-07
1.0398e-06
1.21886e-05
9.77134e-05
0.000490267
0.00184309
0.00574447
0.0157612
0.0391435
0.004748
5.57203e-07
1.01482e-06
1.18235e-05
9.4295e-05
0.000470372
0.00175726
0.00543511
0.0146989
0.0359533
0.0804854
0.0101704
5.47039e-07
9.92375e-07
1.15076e-05
9.14375e-05
0.00045386
0.00168598
0.00518373
0.0139212
0.0336114
0.0743078
0.150942
0.0208573
5.37694e-07
9.71674e-07
1.12238e-05
8.89662e-05
0.000440056
0.00162681
0.00497474
0.0132879
0.0318896
0.0697182
0.140284
0.260109
0.0410569
5.29052e-07
9.52674e-07
1.09626e-05
8.67479e-05
0.000428118
0.00157732
0.00480122
0.0127605
0.0304825
0.0663263
0.132235
0.243535
0.415651
0.07756
5.21277e-07
9.35143e-07
1.07233e-05
8.47054e-05
0.000417407
0.00153452
0.00465597
0.0123221
0.0293074
0.0635396
0.126249
0.230787
0.39207
0.622837
0.140337
5.14312e-07
9.19452e-07
1.05028e-05
8.28353e-05
0.000407544
0.00149613
0.00453031
0.0119547
0.0283296
0.0612019
0.121301
0.221243
0.373556
0.591577
0.87605
0.242049
5.08118e-07
9.05446e-07
1.03063e-05
8.11122e-05
0.000398517
0.00146078
0.00441757
0.0116366
0.0275083
0.0592541
0.117126
0.213298
0.359618
0.56646
0.840922
1.17844
0.398168
5.02567e-07
8.92976e-07
1.01312e-05
7.9577e-05
0.000390201
0.00142843
0.00431373
0.0113511
0.026796
0.057613
0.113643
0.206554
0.347927
0.547458
0.811055
1.13559
1.55135
0.622934
4.97672e-07
8.81863e-07
9.9752e-06
7.82098e-05
0.00038279
0.00139863
0.00421871
0.0110879
0.0261565
0.056186
0.110695
0.20092
0.337945
0.53142
0.788458
1.09757
1.49918
2.00891
0.924093
4.93286e-07
8.72039e-07
9.83687e-06
7.69922e-05
0.000376194
0.00137206
0.00413114
0.0108471
0.0255654
0.0549039
0.108122
0.196126
0.329589
0.517648
0.768215
1.06851
1.4507
1.946
2.56236
1.29639
4.8939e-07
8.63303e-07
9.71431e-06
7.59123e-05
0.000370315
0.00134842
0.00405313
0.0106252
0.0250249
0.0537158
0.10581
0.191929
0.322457
0.506088
0.750179
1.04382
1.41366
1.8848
2.48932
3.22689
1.68336
4.85909e-07
8.55541e-07
9.60588e-06
7.49556e-05
0.000365104
0.00132736
0.00398366
0.0104273
0.0245261
0.0526299
0.10366
0.188157
0.316183
0.496208
0.734997
1.02256
1.38244
1.83833
2.4138
3.14474
4.01811
2.12951
4.82808e-07
8.4861e-07
9.50947e-06
7.41088e-05
0.000360488
0.00130868
0.00392174
0.0102508
0.0240811
0.0516255
0.101695
0.184635
0.31055
0.487481
0.722014
1.00466
1.35581
1.79919
2.35593
3.05219
3.92891
4.95158
2.64575
4.80023e-07
8.42438e-07
9.42348e-06
7.33562e-05
0.000356401
0.00129212
0.00386682
0.0100937
0.023684
0.0507283
0.0998727
0.181412
0.305273
0.479647
0.710527
0.989476
1.33324
1.76572
2.30748
2.98098
3.81643
4.85786
6.04137
3.23961
4.77511e-07
8.36921e-07
9.34703e-06
7.26858e-05
0.000352768
0.00127748
0.00381817
0.00995411
0.0233301
0.0499252
0.0982421
0.178417
0.300434
0.472295
0.700194
0.975907
1.31407
1.73726
2.2658
2.92114
3.72968
4.72268
5.93983
7.29478
3.91292
4.75209e-07
8.31937e-07
9.27875e-06
7.20889e-05
0.000349534
0.00126446
0.00377505
0.00983044
0.0230156
0.0492103
0.0967796
0.175733
0.295933
0.465536
0.690504
0.96361
1.29699
1.71309
2.23036
2.86975
3.65642
4.61795
5.78076
7.15733
8.69789
4.66365
4.73083e-07
8.27371e-07
9.21714e-06
7.15561e-05
0.000346652
0.00125285
0.00373677
0.00972087
0.0227368
0.0485737
0.095477
0.173321
0.291889
0.459258
0.681569
0.952112
1.28149
1.69171
2.20013
2.82606
3.59378
4.52936
5.656
6.97523
8.54712
10.2896
5.4861
4.71128e-07
8.23157e-07
9.16058e-06
7.10751e-05
0.000344082
0.00124252
0.00370262
0.00962346
0.0224895
0.048009
0.0943141
0.171173
0.288247
0.4536
0.673277
0.941607
1.26712
1.67214
2.17356
2.78852
3.54032
4.45336
5.55076
6.83154
8.33583
10.1446
12.1011
6.36184
4.69341e-07
8.19297e-07
9.10863e-06
7.06339e-05
0.00034176
0.00123329
0.0036722
0.00953658
0.0222697
0.047508
0.0932813
0.169247
0.285005
0.448497
0.665804
0.93182
1.25379
1.65411
2.14931
2.75558
3.49442
4.38843
5.46007
6.71001
8.16742
9.90153
11.9757
14.1547
7.24688
4.6772e-07
8.15765e-07
9.06091e-06
7.02281e-05
0.00033963
0.00122497
0.00364506
0.00945921
0.0220734
0.0470619
0.0923648
0.167539
0.282091
0.443948
0.659053
0.922985
1.24156
1.63735
2.12672
2.7258
3.45389
4.33341
5.3827
6.60554
8.02448
9.7051
11.6985
14.0692
16.4735
8.06359
4.66247e-07
8.12568e-07
9.01738e-06
6.98556e-05
0.000337671
0.00121733
0.00362054
0.0093901
0.0218985
0.0466636
0.0915481
0.166017
0.279505
0.439852
0.653022
0.91504
1.2304
1.62188
2.10586
2.69803
3.41732
4.28425
5.3169
6.51616
7.9016
9.53771
11.4706
13.7564
16.4568
19.0808
8.76672
4.64933e-07
8.09678e-07
8.97798e-06
6.95165e-05
0.000335874
0.00121031
0.00359806
0.00932767
0.0217422
0.0463082
0.0908178
0.16466
0.277194
0.436223
0.647597
0.907898
1.22035
1.60791
2.08656
2.67224
3.38355
4.23977
5.25878
6.43992
7.79628
9.39368
11.2754
13.4934
16.1086
19.1737
21.9998
9.59482
4.6376e-07
8.07097e-07
8.94252e-06
6.92095e-05
0.000334235
0.00120386
0.00357738
0.00927043
0.021601
0.045991
0.0901653
0.163447
0.275136
0.43297
0.642782
0.901543
1.2114
1.59524
2.06912
2.64845
3.35219
4.19885
5.20561
6.37234
7.70645
9.27015
11.1072
13.2668
15.8067
18.7916
22.2576
25.2517
10.9582
4.62701e-07
8.04797e-07
8.91084e-06
6.89325e-05
0.000332751
0.00119798
0.00355841
0.00921776
0.0214716
0.0457036
0.0895826
0.162361
0.27329
0.430069
0.638463
0.895858
1.20333
1.58398
2.05346
2.62709
3.3229
4.16098
5.15661
6.31099
7.62687
9.16466
10.9628
13.0708
15.5444
18.4476
21.8475
25.7495
28.8547
11.9934
4.61724e-07
8.02721e-07
8.88263e-06
6.86851e-05
0.000331415
0.00119265
0.00354107
0.00916939
0.0213524
0.04544
0.089055
0.161391
0.271638
0.427467
0.634609
0.890742
1.19612
1.57379
2.03929
2.60777
3.2969
4.12574
5.11167
6.25461
7.55457
9.07122
10.8394
12.9025
15.317
18.1455
21.4583
25.3215
29.693
32.8189
12.2945
4.60817e-07
8.00809e-07
8.85712e-06
6.84649e-05
0.000330221
0.00118787
0.00352542
0.0091253
0.021243
0.0451979
0.0885704
0.160511
0.27016
0.425136
0.631144
0.886182
1.18972
1.56476
2.02669
2.59044
3.27344
4.09428
5.06993
6.20242
7.48817
8.98637
10.7299
12.7585
15.1215
17.8827
21.1118
24.8853
29.2644
34.1336
37.1463
12.2946
4.59893e-07
7.9903e-07
8.83357e-06
6.82658e-05
0.000329157
0.00118356
0.00351128
0.00908536
0.021143
0.0449749
0.0881241
0.159703
0.268818
0.423047
0.628044
0.88211
1.184
1.55668
2.01546
2.5749
3.25239
4.06603
5.03232
6.15447
7.42682
8.90846
10.6306
12.6308
14.9539
17.6559
20.8088
24.4898
28.7811
33.7316
39.1173
41.8229
11.9576
4.59108e-07
7.97213e-07
8.81176e-06
6.80824e-05
0.000328196
0.00117975
0.00349866
0.00904932
0.0210527
0.0447717
0.0877144
0.158958
0.267586
0.421152
0.625259
0.87846
1.17879
1.54945
2.00539
2.56111
3.23327
4.04041
4.99832
6.11116
7.3704
8.83651
10.5395
12.5148
14.8052
17.4616
20.5469
24.1421
28.3325
33.2036
38.7824
44.6903
46.7147
11.2612
4.61494e-07
7.95701e-07
8.78941e-06
6.79125e-05
0.00032731
0.00117629
0.00348738
0.00901716
0.0209711
0.0445877
0.0873405
0.158275
0.266448
0.419408
0.622736
0.875175
1.17418
1.54295
1.99632
2.54869
3.21627
4.01729
4.96799
6.07216
7.31957
8.77046
10.4555
12.4087
14.6705
17.289
20.322
23.8402
27.9346
32.6981
38.2169
44.4827
50.8949
51.5925
10.2048
7.50021e-07
7.95997e-07
8.77104e-06
6.77375e-05
0.000326489
0.00117312
0.0034772
0.00898839
0.0208981
0.0444211
0.0870008
0.15765
0.265402
0.417797
0.62041
0.872195
1.17005
1.5371
1.98823
2.53758
3.20108
3.99693
4.94067
6.03705
7.27372
8.71085
10.3783
12.3107
14.5469
17.1324
20.1221
23.5806
27.588
32.245
37.6525
43.8924
50.8993
57.7686
56.4636
8.81953
4.87961e-07
3.30149e-06
8.73419e-06
6.7595e-05
0.000325643
0.00117017
0.0034678
0.0089624
0.0208328
0.0442723
0.0866933
0.157081
0.264447
0.416316
0.618263
0.869475
1.16626
1.53184
1.98084
2.5275
3.18746
3.97853
4.91657
6.00557
7.2325
8.65722
10.3087
12.2208
14.4329
16.989
19.9406
23.3498
27.2893
31.8485
37.1397
43.2682
50.3064
58.1045
65.3388
61.2873
7.18538
4.96047e-07
1.00914e-06
5.01207e-05
6.72842e-05
0.000324959
0.00116713
0.00345911
0.00893838
0.0207739
0.0441391
0.0864182
0.156567
0.26358
0.414962
0.616291
0.866902
1.16279
1.52711
1.97429
2.51849
3.17534
3.96202
4.89455
5.97748
7.19547
8.60893
10.2461
12.1398
14.3284
16.8568
19.7746
23.1401
27.0236
31.5059
36.6876
42.6912
49.6262
57.543
66.169
73.6185
65.996
5.43876
5.88701e-07
1.08898e-06
1.24976e-05
0.000377776
0.000323439
0.00116467
0.00345017
0.00891621
0.0207195
0.0440189
0.0861723
0.156107
0.262794
0.413735
0.614483
0.864587
1.15956
1.52269
1.96843
2.51053
3.16437
3.94729
4.875
5.95212
7.16238
8.56557
10.1898
12.067
14.2344
16.7356
19.6216
22.9484
26.7818
31.2006
36.296
42.1784
48.9811
56.8139
65.6902
75.163
82.6005
70.4938
3.76714
5.34637e-07
1.75329e-06
1.41954e-05
9.78971e-05
0.00176278
0.00115916
0.00344292
0.00889335
0.0206691
0.0439076
0.0859501
0.155695
0.262091
0.412622
0.612843
0.86248
1.15661
1.51863
1.96296
2.50299
3.1545
3.93389
4.85713
5.92934
7.13254
8.52677
10.1391
12.0012
14.1498
16.6267
19.4814
22.7714
26.5604
30.9224
35.9455
41.7319
48.4025
56.1009
64.9278
74.8427
85.1499
92.2514
74.6567
2.36973
4.73108e-07
1.42095e-06
2.69721e-05
0.000112708
0.000469758
0.00617082
0.00342643
0.00887488
0.0206169
0.0438046
0.0857447
0.155322
0.261462
0.411625
0.611352
0.860505
1.15389
1.51492
1.95788
2.4963
3.14537
3.9218
4.84125
5.90883
7.10574
8.49178
10.0938
11.9423
14.0734
16.5287
19.3553
22.6095
26.3566
30.6678
35.6268
41.332
47.896
55.4512
64.1484
74.0724
85.0962
96.1842
102.498
78.4064
1.38191
4.62486e-07
1.02189e-06
2.0357e-05
0.000215735
0.000548921
0.00166808
0.0178802
0.00883181
0.0205748
0.0436974
0.0855545
0.154978
0.26089
0.410734
0.610023
0.858775
1.15145
1.51146
1.95321
2.49014
3.137
3.91104
4.82671
5.8904
7.08162
8.46039
10.0529
11.8895
14.0049
16.4402
19.242
22.464
26.1695
30.4329
35.3343
40.9666
47.4404
54.8797
63.4257
73.2334
84.3581
96.5464
108.302
113.222
81.7415
0.803112
4.52808e-07
9.7188e-07
1.2728e-05
0.000159691
0.00104996
0.00197754
0.0048939
0.0451655
0.0204737
0.0436113
0.0853575
0.154658
0.260362
0.409922
0.608835
0.857221
1.14921
1.50841
1.94898
2.48427
3.12945
3.9009
4.81376
5.87378
7.05988
8.43205
10.0162
11.8419
13.9436
16.3608
19.1396
22.3331
26.0019
30.2181
35.0641
40.6318
47.0239
54.363
62.7838
72.4372
83.4739
95.9009
109.285
121.511
124.036
84.8464
0.518016
4.51003e-07
7.90889e-07
1.17539e-05
9.77332e-05
0.000766814
0.00378604
0.00582671
0.0125164
0.101968
0.0433963
0.0851989
0.154328
0.259872
0.409168
0.607748
0.85582
1.14729
1.50561
1.94511
2.47905
3.12245
3.89156
4.80209
5.85868
7.0403
8.40652
9.98298
11.799
13.8882
16.2895
19.0477
22.2147
25.8511
30.0251
34.8174
40.3223
46.6412
53.8891
62.2011
71.7223
82.607
94.9967
108.82
123.392
135.787
133.363
88.3659
0.398889
4.5035e-07
7.78416e-07
8.63763e-06
8.93042e-05
0.000463702
0.00273607
0.0112141
0.0147983
0.0287096
0.207281
0.0847834
0.154065
0.259364
0.408471
0.606739
0.854532
1.14546
1.50308
1.94162
2.47435
3.11597
3.88312
4.79077
5.84473
7.02246
8.38355
9.95324
11.7604
13.8385
16.2255
18.9653
22.1089
25.715
29.8517
34.5959
40.0392
46.2872
53.4531
61.6648
71.0684
81.8179
94.0693
107.936
123.236
138.932
151.051
141.594
93.0129
0.360477
4.49888e-07
7.76592e-07
8.48079e-06
6.60861e-05
0.000420299
0.00163649
0.00803854
0.0288103
0.033367
0.0599422
0.379442
0.153336
0.258959
0.407747
0.605806
0.853323
1.1439
1.50081
1.93835
2.47001
3.11012
3.87526
4.78051
5.83189
7.00605
8.36258
9.92617
11.7257
13.7935
16.1676
18.8911
22.0137
25.5927
29.6948
34.3968
39.7855
45.9636
53.0499
61.1695
70.4629
81.0892
93.2073
106.965
122.432
139.259
155.937
167.161
149.038
94.6877
0.353046
4.49178e-07
7.75473e-07
8.43859e-06
6.48475e-05
0.000316097
0.00147206
0.0047481
0.0205391
0.0659365
0.0681703
0.114798
0.62777
0.257794
0.407174
0.60483
0.852251
1.14233
1.49878
1.93558
2.46611
3.10469
3.86812
4.77101
5.81999
6.99087
8.34325
9.90173
11.6941
13.7529
16.1154
18.8241
21.9279
25.483
29.5542
34.2169
39.5573
45.6732
52.6799
60.7105
69.903
80.4108
92.4024
106.039
121.448
138.624
156.989
174.398
183.895
155.746
88.373
0.355205
4.48497e-07
7.73856e-07
8.41538e-06
6.44062e-05
0.000309903
0.00112871
0.00423848
0.011947
0.0469035
0.135648
0.127822
0.202743
0.950384
0.405467
0.604065
0.851098
1.14096
1.49689
1.93299
2.46262
3.10013
3.86154
4.76266
5.80916
6.97685
8.32548
9.87911
11.6655
13.7163
16.0683
18.7636
21.8506
25.3841
29.4281
34.055
39.3506
45.412
52.3486
60.2899
69.3827
79.7799
91.6465
105.157
120.47
137.672
156.65
176.501
194.25
200.915
161.51
78.3627
0.359134
4.48018e-07
7.72307e-07
8.38626e-06
6.41702e-05
0.00030736
0.00110565
0.00332762
0.0106096
0.0268884
0.096712
0.25094
0.221352
0.332369
1.33969
0.601741
0.850188
1.13947
1.49514
1.93061
2.45946
3.09588
3.85578
4.75487
5.79906
6.96407
8.30896
9.85818
11.6391
13.6829
16.0257
18.709
21.7804
25.295
29.3142
33.9101
39.1657
45.1758
52.0504
59.9122
68.9047
79.1921
90.9401
104.323
119.519
136.669
155.801
176.636
197.834
215.342
215.267
165.954
64.8989
0.362766
4.47612e-07
7.71238e-07
8.35789e-06
6.38907e-05
0.000306018
0.00109538
0.00325749
0.00856235
0.0239145
0.0552018
0.180338
0.418586
0.356549
0.510342
1.78812
0.847509
1.13836
1.49323
1.92836
2.45645
3.09188
3.85063
4.74782
5.78986
6.9524
8.29399
9.83888
11.6146
13.6521
15.987
18.6597
21.7174
25.2141
29.2114
33.7796
38.9993
44.964
51.7807
59.5725
68.4763
78.6513
90.2787
103.537
118.607
135.663
154.814
175.992
198.687
220.967
237.429
226.858
168.916
48.7566
0.366121
4.47213e-07
7.70354e-07
8.33835e-06
6.36146e-05
0.000304477
0.00109001
0.00322456
0.00837873
0.0198332
0.0494436
0.104562
0.305005
0.637233
0.539177
0.741642
2.29062
1.13497
1.4918
1.92608
2.45355
3.08831
3.84571
4.74152
5.78168
6.94176
8.2802
9.82129
11.5921
13.6236
15.9511
18.6147
21.6603
25.1412
29.1185
33.6613
38.8493
44.7736
51.5389
59.2653
68.0907
78.1667
89.6702
102.798
117.74
134.68
153.776
175.082
198.393
222.87
245.806
260.132
236.345
171.048
31.8898
0.369047
4.46851e-07
7.69496e-07
8.32365e-06
6.34243e-05
0.000302945
0.00108394
0.00320748
0.00828941
0.0194077
0.0420441
0.0944936
0.183707
0.473127
0.901875
0.773407
1.02231
2.84454
1.48761
1.92422
2.45075
3.08475
3.84131
4.73576
5.77426
6.93215
8.26767
9.80513
11.5715
13.5974
15.9181
18.5733
21.6083
25.0753
29.0343
33.5544
38.7138
44.6019
51.3211
58.9892
67.7413
77.7295
89.1229
102.116
116.919
133.733
152.733
174.05
197.65
223.13
249.201
272.153
282.914
244.125
173.947
17.2962
0.371382
4.4656e-07
7.68723e-07
8.31012e-06
6.32877e-05
0.000301891
0.0010779
0.00318842
0.00824342
0.0191953
0.0411589
0.082227
0.167611
0.300928
0.684918
1.20978
1.04832
1.35903
3.44943
1.91901
2.44847
3.08116
3.83736
4.7304
5.76755
6.92357
8.25643
9.79056
11.5527
13.5734
15.8875
18.5348
21.5605
25.0154
28.9588
33.4579
38.591
44.4468
51.1253
58.7416
67.4278
77.3335
88.629
101.5
116.158
132.829
151.713
172.971
196.681
222.683
250.29
277.613
299.669
301.661
250.083
177.406
7.55086
0.372897
4.46351e-07
7.6811e-07
8.29801e-06
6.31634e-05
0.00030115
0.00107374
0.0031693
0.00819226
0.0190867
0.040709
0.0805649
0.148984
0.277163
0.462932
0.942464
1.56233
1.38085
1.77277
4.1064
2.44229
3.07828
3.83272
4.72552
5.76096
6.9156
8.24622
9.77725
11.5355
13.5514
15.8595
18.4993
21.5159
24.9598
28.889
33.3704
38.4804
44.3059
50.9478
58.518
67.1454
76.9778
88.1825
100.946
115.471
131.987
150.73
171.892
195.605
221.865
250.321
279.904
307.935
327.856
315.66
253.488
164.594
2.81266
0.373661
4.45958e-07
7.67641e-07
8.28896e-06
6.3056e-05
0.00030049
0.00107086
0.00315618
0.00814116
0.0189665
0.0404804
0.07971
0.146157
0.251062
0.430027
0.674828
1.25093
1.96497
1.78837
2.27983
4.81816
3.07118
3.82936
4.72004
5.75493
6.90813
8.23688
9.76531
11.5201
13.5314
15.8341
18.4671
21.4749
24.9082
28.8252
33.2906
38.3799
44.1792
50.7872
58.3157
66.8911
76.6583
87.7804
100.442
114.85
131.223
149.805
170.835
194.493
220.846
249.773
280.664
311.923
339.848
355.991
325.615
253.572
138.312
1.0698
0.37377
4.36342e-07
7.66877e-07
8.28213e-06
6.29772e-05
0.000299918
0.00106832
0.00314724
0.00810596
0.0188458
0.0402279
0.0792781
0.14469
0.24667
0.395863
0.631358
0.940954
1.61668
2.37146
2.28121
2.89393
5.58959
3.8206
4.71585
5.74852
6.90112
8.22806
9.75428
11.5061
13.5133
15.8109
18.4375
21.4373
24.8609
28.7658
33.217
38.2883
44.0641
50.6417
58.1322
66.661
76.3694
87.4182
99.9897
114.287
130.534
148.965
169.832
193.377
219.738
248.899
280.559
313.749
346.169
372.847
380.128
331.875
251.509
103.875
0.539868
0.373607
2.68562e-07
7.5585e-07
8.27262e-06
6.292e-05
0.000299509
0.00106615
0.00313937
0.00808216
0.0187629
0.0399738
0.0788016
0.143953
0.244382
0.38956
0.58891
0.882123
1.2521
2.03318
2.85857
2.87543
3.62777
6.42834
4.70493
5.74358
6.89376
8.21974
9.74387
11.4931
13.497
15.7898
18.4105
21.4031
24.8176
28.711
33.1485
38.2034
43.9587
50.5101
57.9664
66.4521
76.1079
87.092
99.5824
113.779
129.905
148.202
168.915
192.306
218.591
247.855
279.951
314.321
349.512
382.326
406.204
397.351
334.459
251.825
66.1299
0.397378
0.373171
5.14614e-09
5.34755e-07
8.21018e-06
6.28443e-05
0.000299224
0.00106459
0.00313268
0.00806138
0.0187074
0.0397996
0.0783204
0.143141
0.24324
0.386263
0.580384
0.832754
1.17638
1.63108
2.49932
3.46225
3.58579
4.48246
7.34603
5.72931
6.8881
8.21106
9.73416
11.481
13.482
15.7708
18.3861
21.3719
24.7779
28.6609
33.0855
38.1248
43.8614
50.3896
57.8156
66.2629
75.8712
86.7962
99.2142
113.322
129.338
147.506
168.083
191.32
217.47
246.721
279.06
314.151
351.091
387.771
419.849
438.898
408.421
333.377
252.506
33.572
0.36268
0.37254
1.04587e-07
1.07391e-07
6.51614e-06
6.23997e-05
0.000298854
0.00106355
0.00312798
0.00804378
0.0186592
0.0396838
0.0779906
0.142316
0.241973
0.384626
0.575932
0.822177
1.11648
1.53739
2.0783
3.07503
4.18948
4.42696
5.44426
8.33877
6.87034
8.20436
9.72384
11.4695
13.4677
15.7533
18.3639
21.3434
24.7419
28.6152
33.0279
38.0525
43.7714
50.2782
57.678
66.0918
75.6563
86.5275
98.8805
112.908
128.828
146.878
167.319
190.417
216.426
245.579
277.999
313.534
351.589
390.783
428.158
457.95
464.001
413.616
328.923
213.934
12.9674
0.354791
0.372116
8.52214e-08
1.36413e-05
2.16128e-06
4.98921e-05
0.000296746
0.00106222
0.00312484
0.0080315
0.0186182
0.0395834
0.0777729
0.141752
0.240693
0.382815
0.573743
0.816847
1.10296
1.46449
1.97402
2.62293
3.7752
5.04568
5.40479
6.55641
9.46998
8.18276
9.71597
11.4573
13.4543
15.7365
18.3434
21.3178
24.7093
28.5737
32.9754
37.986
43.6881
50.1747
57.5511
65.935
75.4612
86.2842
98.5771
112.533
128.366
146.312
166.628
189.589
215.466
244.5
276.884
312.644
351.426
392.272
433.165
470.071
495.504
480.479
412.903
323.866
161.22
4.1331
0.353102
0.371894
1.02343e-07
4.01546e-06
0.00032056
1.68973e-05
0.000237251
0.00105473
0.00312096
0.00802348
0.0185897
0.0394981
0.0775839
0.141384
0.239812
0.380978
0.571316
0.8142
1.09612
1.44734
1.89085
2.49914
3.28223
4.60635
6.03825
6.49624
7.83787
10.8097
9.68967
11.4482
13.4402
15.7209
18.3241
21.2941
24.6795
28.536
32.9272
37.9258
43.612
50.0796
57.4329
65.7899
75.2835
86.0633
98.303
112.193
127.946
145.799
166.003
188.835
214.577
243.499
275.807
311.627
350.838
392.805
436.072
477.804
512.617
527.584
488.86
406.661
321.34
101.267
1.32208
0.352625
0.371759
1.17315e-07
3.90399e-06
8.25416e-05
0.00248994
8.01081e-05
0.000843285
0.00309925
0.00801358
0.0185715
0.0394391
0.0774246
0.141062
0.239244
0.379715
0.568843
0.811312
1.09274
1.43857
1.86912
2.40788
3.13306
4.06905
5.56993
7.16609
7.74745
9.30979
12.3449
11.4162
13.4293
15.7045
18.3059
21.2717
24.6519
28.5015
32.8837
37.8702
43.5425
49.9924
57.324
65.6549
75.118
85.8615
98.0532
111.883
127.566
145.331
165.437
188.155
213.768
242.564
274.793
310.607
350.021
392.699
437.627
482.688
523.992
554.52
549.025
489.087
396.314
289.466
48.9544
0.568763
0.352472
0.371655
1.35902e-07
4.2973e-06
7.93089e-05
0.000672003
0.0111133
0.000283882
0.0024815
0.00795966
0.0185493
0.0394017
0.0773155
0.140792
0.238749
0.378912
0.567165
0.808374
1.0891
1.43452
1.85831
2.38104
3.03002
3.8901
4.99001
6.63961
8.41066
9.18472
10.9962
14.134
13.3906
15.6916
18.2868
21.2506
24.6262
28.4701
32.8444
37.8203
43.4795
49.9126
57.2242
65.5304
74.9647
85.6744
97.8243
111.603
127.219
144.908
164.923
187.535
213.034
241.708
273.833
309.621
349.138
392.231
438.268
485.702
531.577
570.683
591.089
560.223
481.4
387.245
221.507
17.3917
0.38777
0.352421
0.371564
1.51069e-07
5.52003e-06
8.72277e-05
0.000631693
0.00358768
0.0361116
0.000836082
0.00639854
0.0184319
0.0393568
0.0772464
0.140608
0.238331
0.378207
0.566094
0.806386
1.08548
1.43012
1.85335
2.36795
2.99707
3.77268
4.7821
6.02538
7.86224
9.83278
10.8321
12.9237
16.2165
15.6448
18.2717
21.2282
24.6015
28.4399
32.8077
37.775
43.422
49.8401
57.133
65.417
74.8232
85.4997
97.6118
111.345
126.904
144.522
164.452
186.971
212.364
240.928
272.948
308.674
348.251
391.599
438.342
487.428
536.628
581.887
616.381
615.517
561.093
467.582
381.423
141.241
4.94915
0.34812
0.352401
0.371513
1.65952e-07
6.75437e-06
0.000112606
0.000691962
0.00314808
0.0141101
0.0955544
0.00217225
0.0149303
0.0391314
0.0771634
0.140492
0.238047
0.377607
0.565146
0.805064
1.08294
1.42563
1.84784
2.36208
2.98129
3.7323
4.64968
5.80665
7.20837
9.26366
11.4547
12.7166
15.1225
18.6099
18.2151
21.2107
24.5756
28.4117
32.7733
37.7329
43.3698
49.7744
57.05
65.3127
74.6934
85.3389
97.4154
111.106
126.615
144.17
164.025
186.455
211.753
240.213
272.139
307.788
347.366
390.898
438.125
488.323
539.895
589.706
632.342
655.121
627.953
551.544
452.112
323.895
68.252
1.39977
0.340097
0.35238
0.371497
1.81739e-07
7.66316e-06
0.000138548
0.000901554
0.00340354
0.0122159
0.0445691
0.218034
0.00516392
0.0320871
0.0767811
0.140354
0.237872
0.377207
0.56434
0.803857
1.08143
1.4225
1.84229
2.35547
2.97385
3.7134
4.60138
5.6656
6.95563
8.57002
10.8665
13.3017
14.8688
17.6254
21.3362
21.1426
24.5555
28.3815
32.7403
37.6932
43.3216
49.7147
56.9748
65.2178
74.5752
85.1916
97.2333
110.884
126.347
143.848
163.636
185.986
211.193
239.561
271.393
306.972
346.52
390.156
437.748
488.745
541.978
595.11
643.868
681.18
680.465
627.944
533.217
438.91
232.33
23.3423
0.552154
0.338603
0.35236
0.37147
1.96972e-07
8.60761e-06
0.000157342
0.00111899
0.00455089
0.0131484
0.0390736
0.119392
0.441806
0.0114806
0.0640611
0.139786
0.237662
0.37696
0.563807
0.802834
1.08002
1.42037
1.83849
2.34833
2.9658
3.70401
4.57779
5.61138
6.79795
8.2795
10.1332
12.6961
15.4027
17.3227
20.4701
24.4308
24.4734
28.3584
32.7058
37.6555
43.2757
49.6596
56.9066
65.1324
74.467
85.0569
97.0664
110.678
126.097
143.549
163.279
185.558
210.681
238.96
270.708
306.216
345.735
389.421
437.253
488.872
543.336
598.872
652.178
697.576
719.656
692.077
615.122
511.222
402.481
132.717
6.1039
0.370908
0.338349
0.352361
0.37143
2.11802e-07
9.58582e-06
0.000177157
0.00127625
0.00579666
0.0176832
0.0421011
0.107166
0.279388
0.808253
0.024176
0.1192
0.236919
0.37666
0.563484
0.802159
1.07887
1.41876
1.8359
2.34341
2.95738
3.69352
4.56725
5.58264
6.73735
8.10288
9.80073
11.9239
14.7812
17.79
20.1176
23.6975
27.9398
28.26
32.6789
37.6155
43.2325
49.6072
56.8436
65.0543
74.3697
84.9347
96.9137
110.49
125.865
143.269
162.945
185.165
210.215
238.411
270.076
305.515
344.995
388.717
436.716
488.777
544.214
601.564
658.244
709.749
748.353
743.538
689.118
591.661
492.169
302.222
53.9354
1.54415
0.335631
0.338313
0.352367
0.371369
2.27107e-07
1.05462e-05
0.000197819
0.00144006
0.0066784
0.0226153
0.0562377
0.115771
0.257683
0.579471
1.35312
0.0485133
0.207042
0.375801
0.563086
0.801746
1.07799
1.41723
1.83394
2.34064
2.95178
3.68403
4.55555
5.57042
6.70806
8.03171
9.603
11.5452
13.9713
17.1541
20.5007
23.2958
27.3539
31.9173
32.5616
37.5846
43.1867
49.5573
56.7835
64.9828
74.2812
84.824
96.7752
110.317
125.654
143.01
162.634
184.797
209.786
237.91
269.495
304.866
344.311
388.046
436.175
488.567
544.733
603.533
662.799
718.933
765.91
783.921
751.991
671.357
564.119
460.505
184.506
15.0712
0.552472
0.329387
0.338321
0.352378
0.371305
2.41398e-07
1.15374e-05
0.000218187
0.0016114
0.00758894
0.0261056
0.0713852
0.152299
0.278766
0.548647
1.07657
2.10234
0.092847
0.336606
0.562175
0.80125
1.07756
1.41629
1.8321
2.33826
2.94829
3.6783
4.54336
5.55785
6.69436
7.99738
9.51957
11.3238
13.542
16.3081
19.8514
23.5763
26.9067
31.4913
36.4248
37.4445
43.1512
49.5049
56.7267
64.914
74.1992
84.7234
96.6499
110.161
125.46
142.772
162.347
184.454
209.385
237.449
268.966
304.266
343.663
387.407
435.632
488.295
545.024
604.942
666.302
726.024
779.227
814.233
803.688
743.743
641.851
539.701
347.953
81.1311
3.4456
0.36061
0.328384
0.338336
0.35238
0.371251
2.54846e-07
1.24268e-05
0.000239367
0.00178481
0.00855515
0.0296914
0.082155
0.190408
0.358476
0.592781
1.04234
1.81665
3.07382
0.168961
0.515011
0.800325
1.077
1.41575
1.83102
2.33621
2.94522
3.67411
4.53615
5.54362
6.67932
7.98131
9.47924
11.2263
13.2942
15.8241
18.9718
22.9139
27.0638
31.0041
36.1674
41.5319
42.9848
49.4642
56.6668
64.8499
74.1219
84.6308
96.5359
110.02
125.284
142.556
162.081
184.135
209.008
237.014
268.475
303.717
343.067
386.8
435.103
487.979
545.174
605.975
668.976
731.64
789.719
836.776
845.629
806.282
718.962
609.324
497.47
213.876
23.5022
0.891471
0.326975
0.328245
0.338345
0.352376
0.371212
2.67466e-07
1.32625e-05
0.000258315
0.00197484
0.00951611
0.0334987
0.0931536
0.217564
0.43866
0.741006
1.12197
1.7898
2.8314
4.28118
0.291174
0.74737
1.07683
1.41497
1.8303
2.33483
2.94267
3.67015
4.53215
5.53471
6.66478
7.96372
9.46036
11.179
13.1802
15.5469
18.4287
22.0033
26.388
31.0171
35.6488
41.4474
47.3184
49.2671
56.62
64.7812
74.0478
84.543
96.4311
109.891
125.125
142.36
161.841
183.843
208.659
236.606
268.012
303.207
342.512
386.232
434.581
487.639
545.213
606.752
671.07
736.068
798.183
851.713
878.837
859.151
790.276
682.375
579.235
368.005
93.849
5.12778
0.410683
0.321618
0.328234
0.338352
0.352374
0.371199
2.79131e-07
1.40514e-05
0.000276129
0.00214337
0.0105306
0.0372361
0.104749
0.24502
0.495632
0.884224
1.36156
1.91705
2.82652
4.1442
5.73785
0.473973
1.0376
1.41429
1.82946
2.33401
2.94107
3.66717
4.52778
5.53012
6.65524
7.94703
9.43981
11.1565
13.1249
15.4143
18.1193
21.3979
25.4499
30.3256
35.4957
40.9084
47.4045
53.8738
56.388
64.7275
73.9701
84.4591
96.3315
109.773
124.982
142.182
161.623
183.576
208.339
236.229
267.577
302.724
341.998
385.703
434.084
487.272
545.174
607.321
672.75
739.643
804.999
863.959
904.821
902.991
853.03
756.705
645.403
511.314
217.688
26.2998
1.15642
0.329352
0.320846
0.328236
0.338362
0.352372
0.371118
2.89589e-07
1.4782e-05
0.000292957
0.00230201
0.0114307
0.0410733
0.115986
0.273576
0.552445
0.985524
1.58475
2.2645
3.01255
4.17873
5.77708
7.45841
0.729309
1.38855
1.82714
2.33293
2.94012
3.66509
4.52427
5.52521
6.6492
7.93625
9.42081
11.1325
13.0982
15.3492
17.9652
21.0531
24.7788
29.3634
34.786
40.5676
46.8585
54.1216
61.2996
64.4553
73.9089
84.3704
96.2376
109.661
124.849
142.021
161.425
183.335
208.047
235.88
267.171
302.266
341.506
385.203
433.615
486.911
545.063
607.742
674.092
742.596
810.607
873.958
925.858
939.348
907.228
826.196
712.744
609.954
360.856
88.9763
5.39235
0.443428
0.316886
0.320748
0.328241
0.338369
0.352379
0.371004
2.98712e-07
1.54244e-05
0.000308545
0.00245234
0.0122775
0.0444833
0.12726
0.300831
0.610462
1.08508
1.74239
2.57903
3.47939
4.43432
5.87147
7.75499
9.45983
1.06555
1.79185
2.32782
2.93853
3.66417
4.52209
5.52116
6.64384
7.92928
9.40839
11.1107
13.07
15.3174
17.8887
20.8746
24.3964
28.6246
33.8036
39.8347
46.3088
53.583
61.6922
69.7106
73.5907
84.3005
96.1368
109.555
124.724
141.873
161.247
183.116
207.782
235.563
266.798
301.841
341.039
384.723
433.167
486.556
544.917
608.014
675.175
745.028
815.312
882.299
940.409
969.357
953.639
889.468
782.766
671.235
499.217
196.709
22.5529
1.14142
0.329242
0.315152
0.320738
0.32825
0.33839
0.35238
0.370879
3.06096e-07
1.59445e-05
0.00032221
0.00259181
0.0130797
0.0476876
0.137281
0.327573
0.664885
1.18487
1.89548
2.80179
3.89302
5.03029
6.2079
7.9333
10.1081
11.7603
1.48815
2.26775
2.92948
3.66226
4.52083
5.51895
6.63938
7.9232
9.40052
11.0967
13.045
15.2842
17.8507
20.7848
24.1898
28.202
32.9957
38.8355
45.5469
52.8055
61.1767
70.2228
79.236
83.9321
96.0576
109.442
124.604
141.734
161.082
182.919
207.544
235.275
266.459
301.447
340.603
384.262
432.729
486.204
544.751
608.208
676.023
747.057
819.25
889.372
952.351
993.729
993.041
945.351
850.395
735.452
625.006
326.079
70.0381
4.26901
0.42904
0.312701
0.314934
0.320737
0.328267
0.338409
0.352368
0.37075
3.11656e-07
1.6297e-05
0.00033319
0.00271332
0.0138238
0.0507158
0.146657
0.351257
0.717128
1.27701
2.04656
3.01643
4.18801
5.55003
6.94335
8.36369
10.3991
12.8736
14.379
2.00096
2.82637
3.64692
4.51877
5.51715
6.63666
7.91808
9.39351
11.0876
13.029
15.2556
17.8112
20.7391
24.0844
27.9644
32.5311
37.9589
44.5342
52.0057
60.1539
69.7431
79.8338
90.0207
95.6331
109.353
124.476
141.6
160.927
182.739
207.328
235.017
266.15
301.09
340.195
383.83
432.299
485.847
544.562
608.332
676.706
748.716
822.585
895.358
962.574
1014.02
1026.74
994.183
912.955
797.63
689.693
458.561
155.556
15.3481
0.903263
0.322726
0.310528
0.314906
0.320746
0.328286
0.338423
0.352353
0.370619