/*--------------------------------*- C++ -*----------------------------------*\
| =========                 |                                                 |
| \\      /  F ield         | OpenFOAM: The Open Source CFD Toolbox           |
|  \\    /   O peration     | Version:  v2012                                 |
|   \\  /    A nd           | Website:  www.openfoam.com                      |
|    \\/     M anipulation  |                                                 |
\*---------------------------------------------------------------------------*/
FoamFile
{
    version     2.0;
    format      ascii;
    class       volScalarField;
    location    "13200";
    object      yp;
}
// * * * * * * * * * * * * * * * * * * * * * * * * * * * * * * * * * * * * * //

dimensions      [0 0 0 0 0 0 0];


internalField   nonuniform List<scalar> 
31383
(
0.102431
0.208939
0.319914
0.205075
0.631386
0.536748
0.202199
0.619678
1.06462
0.761413
0.200013
0.610952
1.0448
1.51446
1.00054
0.198181
0.604315
1.03001
1.4865
1.98686
1.25469
0.196598
0.598748
1.01875
1.46495
1.94973
2.48765
1.52283
0.195249
0.59394
1.0093
1.44881
1.92149
2.44036
3.02042
1.81268
0.194096
0.589842
1.00114
1.43528
1.90017
2.40513
2.96319
3.5861
2.13022
0.193066
0.586339
0.99419
1.42359
1.88246
2.37841
2.92018
3.51839
4.18645
2.48728
0.192128
0.58321
0.988241
1.41362
1.86681
2.35583
2.88745
3.46798
4.10107
4.78914
2.92477
0.191246
0.580356
0.982932
1.4051
1.85362
2.33619
2.85994
3.42931
4.04365
4.69678
5.37253
3.43723
0.190426
0.577679
0.978089
1.39748
1.84235
2.31956
2.83624
3.39679
3.99945
4.63448
5.28434
5.93041
3.90692
0.189656
0.575185
0.973551
1.39055
1.83227
2.30543
2.81588
3.36857
3.96241
4.58587
5.22329
5.84153
6.44346
4.45516
0.188957
0.572851
0.969317
1.38404
1.82311
2.29263
2.7986
3.34456
3.93052
4.54511
5.16851
5.7765
6.35445
6.9176
5.02798
0.188323
0.570727
0.965361
1.37799
1.81451
2.28106
2.78309
3.32407
3.90261
4.51469
5.12569
5.72508
6.29022
6.8247
7.37037
5.39482
0.187755
0.568804
0.961758
1.37232
1.80651
2.27022
2.76891
3.30569
3.8791
4.47941
5.09251
5.68207
6.23992
6.76045
7.2715
7.81679
5.79387
0.187241
0.567076
0.958498
1.36717
1.79903
2.26013
2.75575
3.28898
3.85796
4.45345
5.05675
5.64477
6.19885
6.71008
7.20387
7.70774
8.24991
6.29161
0.186783
0.565516
0.955569
1.36249
1.79229
2.25076
2.74339
3.27344
3.83882
4.43034
5.02909
5.61412
6.16077
6.66844
7.15139
7.63889
8.1331
8.66803
6.96647
0.186371
0.564129
0.952924
1.3583
1.78604
2.24218
2.73194
3.25873
3.82435
4.40896
5.00707
5.58423
6.13012
6.63263
7.10866
7.58513
8.06288
8.54209
9.08026
7.64287
0.186002
0.562876
0.950571
1.35451
1.78051
2.23436
2.72144
3.24509
3.8041
4.39198
4.98197
5.56143
6.10128
6.60074
7.07258
7.54026
8.00811
8.47092
8.941
9.49332
8.37273
0.185671
0.561756
0.948448
1.35114
1.7755
2.22739
2.71201
3.23274
3.78844
4.37054
4.96127
5.53632
6.07774
6.57437
7.04137
7.50244
7.96268
8.41467
8.86671
9.33693
9.91482
9.17501
0.185375
0.56075
0.946552
1.34816
1.77106
2.22108
2.70349
3.22152
3.77426
4.3533
4.94147
5.51518
6.05412
6.55025
7.01364
7.46944
7.92336
8.36799
8.80917
9.25862
9.73699
10.3529
10.0301
0.185107
0.559848
0.944842
1.34539
1.76709
2.21548
2.6958
3.21145
3.76144
4.33754
4.92312
5.49641
6.03316
6.52798
6.98959
7.44065
7.8889
8.32752
8.76073
9.19838
9.65383
10.1512
10.8182
10.9357
0.184865
0.559037
0.943313
1.34295
1.76346
2.21042
2.68896
3.20231
3.74979
4.32508
4.90642
5.4766
6.01446
6.5078
6.96756
7.41554
7.85908
8.29277
8.71937
9.14823
9.59018
10.0617
10.5961
11.3249
11.897
0.184642
0.558302
0.941935
1.34076
1.76022
2.20593
2.68282
3.19422
3.73929
4.31044
4.8928
5.45966
5.99584
6.48852
6.94733
7.39291
7.833
8.26243
8.68357
9.10511
9.53748
9.99349
10.4972
11.0878
11.8867
12.9238
0.184435
0.557623
0.940688
1.33878
1.75733
2.20183
2.6773
3.1869
3.72999
4.29895
4.87765
5.44438
5.97855
6.4711
6.92848
7.37172
7.80937
8.23553
8.65262
9.068
9.49216
9.93745
10.4233
10.9771
11.6262
12.5043
14.0295
0.184245
0.556996
0.939542
1.337
1.75473
2.19818
2.67232
3.18036
3.72157
4.28851
4.86639
5.43035
5.96343
6.45453
6.91059
7.35188
7.78746
8.21172
8.62502
9.03623
9.45316
9.88944
10.3622
10.8955
11.5035
12.207
13.1744
15.241
0.184069
0.556418
0.938476
1.33535
1.75237
2.1949
2.66787
3.17447
3.71402
4.27911
4.8542
5.41859
5.94973
6.44018
6.89445
7.33352
7.76729
8.18952
8.60038
9.00778
9.41994
9.84828
10.3103
10.8284
11.4137
12.0707
12.8312
13.9016
16.6078
0.18391
0.555886
0.937492
1.33382
1.75019
2.19193
2.66386
3.16921
3.70724
4.27081
4.84433
5.40648
5.93736
6.4265
6.87978
7.31691
7.74827
8.16899
8.57797
8.98211
9.39048
9.81239
10.2656
10.7711
11.3404
11.9726
12.6793
13.5025
14.6923
18.2071
0.183766
0.555403
0.936594
1.33242
1.74818
2.18918
2.66023
3.16443
3.70117
4.26325
4.83537
5.39692
5.92662
6.41439
6.86646
7.30173
7.73113
8.14992
8.5571
8.9588
9.3637
9.78127
10.227
10.7217
11.2778
11.8925
12.5713
13.332
14.2261
15.5535
20.06
0.183636
0.554963
0.935775
1.33114
1.74633
2.18664
2.65689
3.16012
3.69566
4.25645
4.82725
5.38709
5.91652
6.40373
6.85445
7.28805
7.7157
8.13266
8.53774
8.93754
9.33926
9.75305
10.1927
10.6796
11.2237
11.8244
12.4835
13.2135
14.0328
15.0065
16.4945
21.8125
0.183521
0.554571
0.935029
1.32996
1.74463
2.1843
2.65378
3.15616
3.69069
4.25034
4.81999
5.3788
5.90698
6.39389
6.84352
7.27555
7.70147
8.11709
8.52027
8.91784
9.31695
9.72733
10.1624
10.6419
11.1773
11.766
12.4097
13.1175
13.9026
14.7872
15.8488
17.5242
22.9199
0.183416
0.554218
0.934362
1.32889
1.74307
2.18217
2.65093
3.15246
3.68612
4.24477
4.81349
5.37144
5.89884
6.38479
6.83386
7.2643
7.68864
8.10274
8.50433
8.89967
9.29673
9.70364
10.1348
10.6084
11.1367
11.7157
12.3468
13.0373
13.7979
14.6421
15.5983
16.7594
18.6547
24.16
0.183319
0.5539
0.933762
1.32794
1.74166
2.1802
2.64831
3.14908
3.68187
4.23967
4.80759
5.36469
5.89155
6.37692
6.82499
7.25416
7.67725
8.08992
8.49009
8.88341
9.27786
9.68218
10.1091
10.5783
11.1001
11.6719
12.292
12.9684
13.7097
14.5276
15.4365
16.4704
17.7452
19.8997
25.8595
0.183229
0.553606
0.933222
1.32708
1.74039
2.17843
2.64592
3.14596
3.67796
4.23493
4.80212
5.35868
5.88481
6.36963
6.81701
7.24513
7.66675
8.07832
8.47689
8.86857
9.26079
9.66236
10.0857
10.5502
11.0668
11.6325
12.2441
12.9093
13.6345
14.4317
15.3107
16.2901
17.409
18.8132
21.2774
27.9395
0.183137
0.553331
0.932722
1.3263
1.73926
2.17682
2.64376
3.14312
3.67435
4.23056
4.79702
5.35304
5.87866
6.3632
6.80974
7.23668
7.65719
8.06778
8.46503
8.85513
9.24524
9.64425
10.0645
10.5246
11.037
11.5963
12.2015
12.8569
13.5703
14.3494
15.2054
16.1504
17.2069
18.4213
19.9734
22.8141
30.3103
0.183059
0.553052
0.932276
1.32558
1.73823
2.17539
2.6418
3.14054
3.67108
4.2266
4.79235
5.34785
5.87318
6.35718
6.80323
7.2292
7.64879
8.05816
8.45422
8.8429
9.23144
9.62808
10.0454
10.5013
11.0088
11.5634
12.1627
12.8104
13.514
14.2794
15.1163
16.0349
17.0523
18.1918
19.5115
21.2377
24.5599
33.008
0.183299
0.552816
0.931782
1.32493
1.73728
2.1741
2.64005
3.13823
3.6681
4.22294
4.78807
5.34305
5.86813
6.35188
6.79731
7.22238
7.64101
8.04949
8.44453
8.83179
9.21896
9.6135
10.0278
10.4802
10.9833
11.5332
12.127
12.7687
13.4634
14.2178
15.0398
15.9374
16.9255
18.0207
19.2506
20.6888
22.6173
26.5727
36.0771
0.204714
0.553527
0.931383
1.32424
1.7364
2.1729
2.63847
3.13615
3.66542
4.21958
4.78416
5.33854
5.86319
6.34675
6.79184
7.21624
7.63399
8.04166
8.43565
8.82177
9.20745
9.60013
10.0119
10.4611
10.9604
11.5059
12.0945
12.7303
13.4179
14.1633
14.9725
15.8544
16.8191
17.8809
19.0592
20.3905
21.9622
24.1281
28.8906
39.5605
0.185727
24.4537
0.93253
1.32367
1.7355
2.17178
2.637
3.13426
3.66301
4.21659
4.78083
5.33456
5.85884
6.34199
6.7868
7.21042
7.62765
8.03463
8.42793
8.81281
9.19702
9.58802
9.99733
10.4435
10.9397
11.4811
12.065
12.6951
13.3761
14.1138
14.9134
15.7816
16.7279
17.7641
18.905
20.1756
21.6177
23.3403
25.7898
31.5496
43.4782
0.186429
2.30605
33.4051
1.32519
1.73475
2.17064
2.63563
3.1325
3.66082
4.21394
4.77733
5.33113
5.85477
6.33775
6.78211
7.20533
7.62176
8.02809
8.42068
8.80467
9.18741
9.57713
9.98443
10.4279
10.9205
11.4585
12.0379
12.663
13.3379
14.0689
14.859
15.7166
16.6486
17.6639
18.7762
20.0051
21.3759
22.939
24.8355
27.6226
34.5971
47.7952
0.194186
3.85246
3.2401
39.5742
1.73657
2.1697
2.63423
3.13087
3.65879
4.21144
4.77441
5.32771
5.85114
6.33368
6.7777
7.2004
7.61644
8.02228
8.41395
8.79701
9.17886
9.56701
9.97247
10.4135
10.9038
11.4384
12.0134
12.6341
13.3035
14.0274
14.8104
15.6582
16.5777
17.5774
18.6676
19.8628
21.1851
22.6652
24.3666
26.4627
29.6516
38.0888
52.3404
0.189724
7.60188
5.44636
3.87142
43.8411
2.17167
2.63308
3.12922
3.65691
4.2092
4.7718
5.32446
5.84787
6.33014
6.77375
7.19578
7.61137
8.0168
8.40789
8.79058
9.17109
9.55814
9.96196
10.4007
10.8881
11.4198
11.9916
12.6079
13.2717
13.9902
14.766
15.6052
16.5147
17.501
18.5724
19.7433
21.0289
22.453
24.0534
25.9095
28.2383
31.9126
42.0885
56.7162
0.184257
6.27498
10.851
6.54074
4.41794
46.7526
2.63502
3.12784
3.65525
4.20707
4.76933
5.32182
5.8448
6.32686
6.77003
7.19181
7.60683
8.01167
8.40236
8.78426
9.16426
9.55007
9.9522
10.3892
10.8742
11.4034
11.9715
12.5837
13.2438
13.9556
14.725
15.5565
16.4573
17.4318
18.4893
19.6395
20.8969
22.2798
23.8148
25.5494
27.5777
30.1803
34.4416
46.6377
60.2644
0.183244
3.5096
8.94841
13.0811
7.34806
4.80091
48.6198
3.12951
3.65339
4.20492
4.76707
5.31924
5.842
6.32392
6.76691
7.18792
7.6025
8.00714
8.39718
8.7783
9.15789
9.54249
9.94364
10.3782
10.8616
11.3879
11.9536
12.5622
13.2179
13.9253
14.6886
15.5126
16.4036
17.3686
18.4131
19.5473
20.7829
22.1339
23.6215
25.2788
27.1616
29.3892
32.3149
37.2893
51.7237
62.3243
0.182422
2.96993
5.00022
10.7835
14.6217
7.8994
5.18001
49.5056
3.65448
4.2031
4.76486
5.3169
5.83949
6.32119
6.76375
7.18443
7.59864
8.00267
8.39233
8.77322
9.15176
9.53575
9.93558
10.3688
10.8499
11.3741
11.9374
12.5427
13.1946
13.8973
14.6552
15.4732
16.3562
17.3117
18.3451
19.4652
20.6823
22.0076
23.4602
25.0625
26.8555
28.9037
31.361
34.6712
40.5783
57.2028
60.202
0.182248
1.05526
4.22854
6.04677
12.0604
15.6832
8.35493
5.48839
49.3411
4.20328
4.76273
5.31444
5.83701
6.31854
6.76112
7.18127
7.59482
7.99865
8.38791
8.7682
9.14614
9.52951
9.92789
10.36
10.8393
11.362
11.9224
12.5251
13.1735
13.8719
14.6248
15.4363
16.3127
17.2595
18.2836
19.3916
20.593
21.8982
23.3223
24.8841
26.612
28.5527
30.7893
33.5109
37.2847
44.4735
62.6467
50.422
0.182185
0.88407
1.60862
5.13426
6.79955
12.9322
16.3857
8.64566
5.81393
47.9159
4.76193
5.31248
5.8346
6.31623
6.75839
7.17842
7.59173
7.99502
8.38375
8.76349
9.14106
9.52353
9.92129
10.3518
10.8299
11.3504
11.9088
12.5092
13.1542
13.8489
14.5977
15.4039
16.2739
17.2124
18.2269
19.324
20.5113
21.8001
23.201
24.7315
26.4137
28.2792
30.3863
32.8342
35.865
40.1981
49.0542
67.4822
40.3193
0.182138
0.597813
1.36588
2.05117
5.87414
7.35995
13.5445
16.7859
8.90501
6.15667
45.6348
5.31038
5.83276
6.31391
6.75611
7.17583
7.58851
7.9917
8.38028
8.75926
9.13629
9.51815
9.91502
10.3446
10.8213
11.3405
11.8969
12.4944
13.137
13.8286
14.5727
15.3745
16.2387
17.1703
18.1764
19.2624
20.4379
21.711
23.0933
24.5982
26.2426
28.0552
30.0753
32.3661
35.0571
38.4534
43.4633
54.3221
71.931
34.2128
0.182067
0.570647
0.989958
1.79042
2.53479
6.45786
7.79616
13.916
16.91
9.05278
6.43083
42.7044
5.82922
6.31189
6.75371
7.17315
7.58588
7.98861
8.37672
8.75538
9.13202
9.51313
9.90935
10.3377
10.813
11.3311
11.8857
12.4813
13.1216
13.8092
14.5505
15.3478
16.2061
17.1322
18.13
19.2076
20.3719
21.6304
22.9966
24.4788
26.0949
27.8658
29.8223
32.0101
34.5088
37.4814
41.3113
47.1424
60.306
76.8253
31.8036
0.181999
0.590342
0.953086
1.37957
2.19211
2.98599
6.85905
8.14729
14.0986
16.7281
9.17242
6.68059
39.5513
6.30721
6.75164
7.17055
7.58312
7.98558
8.37358
8.75182
9.12764
9.50867
9.90378
10.3312
10.8058
11.322
11.8754
12.4691
13.107
13.7925
14.5299
15.3232
16.1773
17.0975
18.0879
19.1573
20.3108
21.5589
22.9089
24.3726
25.9647
27.7022
29.6115
31.7263
34.0992
36.8363
40.134
44.4821
51.3802
67.0564
82.1237
30.3542
0.181951
0.574779
0.975774
1.34028
1.78284
2.58989
3.38014
7.20773
8.53874
14.1052
16.2904
9.15205
6.97741
36.5694
6.74542
7.16853
7.58049
7.9828
8.37051
8.74842
9.12386
9.5043
9.89885
10.3256
10.7986
11.3141
11.8662
12.4582
13.0941
13.777
14.5113
15.3014
16.1505
17.0654
18.0504
19.1115
20.2569
21.4933
22.8292
24.2784
25.8481
27.5593
29.4292
31.4873
33.7751
36.3613
39.3681
43.046
48.0213
56.4254
74.6147
87.2948
30.1667
0.18191
0.55425
0.955019
1.36238
1.74521
2.20366
3.00978
3.7935
7.59304
8.8395
13.9774
15.5982
9.1465
7.17408
33.895
7.16086
7.57823
7.98017
8.36774
8.74539
9.1205
9.50029
9.89428
10.3202
10.7925
11.3066
11.8576
12.4483
13.0822
13.763
14.4949
15.2812
16.1266
17.0369
18.0162
19.0706
20.2072
21.434
22.7591
24.1907
25.7435
27.4311
29.2693
31.284
33.506
35.9884
38.8124
42.1302
46.2588
51.9965
62.4461
82.9056
91.7624
30.8225
0.181869
0.552881
0.928518
1.34079
1.76391
2.16809
2.65351
3.4516
4.27921
7.96819
9.12426
13.6667
14.951
9.06494
7.42147
31.5625
7.56934
7.97794
8.36478
8.74268
9.11709
9.49677
9.89008
10.3151
10.7865
11.2996
11.8494
12.4388
13.0709
13.7498
14.4795
15.2633
16.1052
17.011
17.9851
19.0335
20.1637
21.3801
22.6936
24.1124
25.6493
27.3147
29.1272
31.1055
33.2793
35.6844
38.3829
41.4756
45.156
49.8214
56.486
69.4719
91.499
94.6023
30.5577
0.181833
0.553129
0.927981
1.31397
1.74227
2.18554
2.63434
3.13185
4.0043
4.79769
8.17252
9.31123
13.2946
14.2571
8.98215
7.63292
29.564
7.96763
8.36265
8.73954
9.11423
9.49316
9.88616
10.3104
10.7809
11.2933
11.8416
12.4302
13.061
13.7381
14.4654
15.2465
16.0852
16.9876
17.957
18.9998
20.1226
21.3318
22.636
24.0435
25.563
27.2124
29.0007
30.9476
33.0785
35.4269
38.0344
40.9781
44.3807
48.4825
53.7935
61.6664
77.5009
99.4755
94.1577
28.5518
0.181803
0.550573
0.928724
1.31412
1.71657
2.16587
2.65274
3.12857
3.67877
4.56842
5.26413
8.44657
9.36445
12.8489
13.6499
8.86792
7.8941
27.8417
8.35103
8.73729
9.11112
9.48972
9.8824
10.3061
10.7761
11.2875
11.8348
12.4222
13.0517
13.7274
14.4525
15.2312
16.067
16.9659
17.9309
18.9686
20.0859
21.287
22.5826
23.9799
25.4872
27.1187
28.8868
30.8072
32.9049
35.2027
37.7405
40.5758
43.7972
47.5575
52.1565
58.25
67.8482
86.541
106.408
86.4253
24.2726
0.181782
0.549123
0.925985
1.31701
1.71849
2.14112
2.6304
3.1684
3.65163
4.23754
5.07131
5.77642
8.64916
9.37306
12.3815
13.117
8.93403
8.18344
26.374
8.72388
9.10887
9.4867
9.87877
10.3021
10.7712
11.2821
11.8288
12.4143
13.0429
13.7166
14.4402
15.2171
16.0509
16.9466
17.9078
18.9408
20.0518
21.2472
22.5348
23.9217
25.4168
27.0336
28.7848
30.6818
32.7475
35.0086
37.4904
40.2411
43.3321
46.8671
51.043
56.2396
63.289
75.2796
96.6133
112.976
67.4789
16.7218
0.181742
0.548768
0.923535
1.31374
1.72278
2.14482
2.61185
3.14177
3.69358
4.20246
4.77877
5.55316
6.24385
8.74881
9.4241
11.9905
12.6831
9.03395
8.48605
25.0876
9.09332
9.48415
9.8754
10.2984
10.7669
11.2767
11.8225
12.4072
13.0346
13.7074
14.429
15.2042
16.0355
16.9284
17.8869
18.9157
20.0225
21.2119
22.4905
23.8698
25.3547
26.9571
28.6923
30.5695
32.6095
34.8339
37.2699
39.9583
42.9473
46.3267
50.2268
54.8868
60.8005
69.0768
84.0459
107.621
118.331
48.6341
1.63675
0.180752
0.54813
0.922254
1.30964
1.71802
2.15182
2.60906
3.11856
3.66372
4.21742
4.74628
5.31387
6.05519
6.67357
8.86656
9.50916
11.6854
12.4053
9.1909
8.78567
23.9716
9.46729
9.87283
10.2946
10.7627
11.2719
11.8172
12.4007
13.0269
13.6985
14.4192
15.1926
16.0221
16.9123
17.8677
18.8929
19.9951
21.1791
22.4522
23.8216
25.2972
26.8885
28.6089
30.4689
32.4856
34.6802
37.0775
39.7083
42.6221
45.8816
49.5877
53.9104
59.1472
65.9234
75.9417
94.1804
118.766
119.667
39.3021
14.2468
0.16015
0.545375
0.922219
1.30877
1.71452
2.1466
2.60814
3.10595
3.62809
4.19618
4.7593
5.29453
5.84942
6.52601
7.06501
9.03393
9.57262
11.4648
12.2234
9.36402
9.11677
23.0849
9.85486
10.2918
10.7585
11.2676
11.8119
12.3953
13.0201
13.6905
14.4098
15.1812
16.009
16.8964
17.8496
18.8722
19.9703
21.1494
22.4155
23.7788
25.2458
26.8259
28.5317
30.3768
32.3732
34.5422
36.905
39.4911
42.3408
45.506
49.0697
53.153
57.9646
63.8948
71.7245
84.2188
105.639
128.099
114.924
31.9214
19.348
0.0591905
0.484014
0.916788
1.30826
1.71292
2.14258
2.60346
3.09529
3.61817
4.15869
4.7405
5.31207
5.83186
6.3421
6.9448
7.43586
9.17584
9.66038
11.3293
12.0646
9.58849
9.48116
22.3528
10.2734
10.7556
11.2629
11.8071
12.3895
13.0133
13.6831
14.401
15.171
15.997
16.8827
17.833
18.8523
19.9468
21.1214
22.3832
23.7389
25.198
26.77
28.4649
30.294
32.2729
34.4179
36.7509
39.2991
42.0935
45.1855
48.6378
52.5449
57.0657
62.4588
69.2153
78.4463
94.0754
118.169
134.803
100.464
19.8665
15.4246
0.0749654
0.194999
0.815487
1.30163
1.71256
2.14069
2.59863
3.09076
3.61473
4.1601
4.70757
5.28963
5.84777
6.31199
6.76521
7.31221
7.82339
9.32991
9.79168
11.2458
11.9959
9.85639
9.89522
21.7493
10.7363
11.2594
11.8023
12.3842
13.0077
13.6757
14.3929
15.1614
15.9852
16.8691
17.8181
18.835
19.9261
21.0967
22.3528
23.7036
25.1557
26.7179
28.4028
30.2187
32.1828
34.3073
36.614
39.1293
41.8799
44.907
48.2664
52.0397
56.345
61.3744
67.4634
75.2271
86.5078
105.584
131.129
139.822
73.2697
2.43978
9.92875
0.101909
0.209369
0.353228
1.16012
1.7045
2.14009
2.59679
3.08685
3.61024
4.1593
4.7121
5.27073
5.82412
6.32623
6.74889
7.17426
7.71
8.17925
9.52949
9.9313
11.241
11.948
10.1796
10.3488
21.2362
11.2389
11.798
12.3785
13.002
13.6695
14.3854
15.1526
15.9754
16.8575
17.8032
18.8179
19.9056
21.0733
22.3259
23.6716
25.1172
26.6719
28.3462
30.151
32.099
34.2061
36.4899
38.976
41.687
44.6634
47.9479
51.6133
55.7531
60.5169
66.148
73.0645
82.1218
96.2538
118.722
143.004
139.602
44.3746
12.456
5.9616
0.111041
0.300962
0.3209
0.534533
1.52323
2.13063
2.59635
3.08443
3.60588
4.15497
4.71895
5.26977
5.80697
6.30751
6.76416
7.17185
7.59046
8.10208
8.54407
9.71449
10.1289
11.2831
11.9865
10.5725
10.8352
20.8064
11.7764
12.375
12.9956
13.663
14.378
15.1442
15.965
16.8462
17.7906
18.8025
19.8878
21.0519
22.3013
23.6413
25.0824
26.63
28.2947
30.088
32.0239
34.1163
36.3793
38.8373
41.518
44.446
47.6699
51.2449
55.2569
59.8214
65.1225
71.4619
79.3811
90.2865
107.831
133.134
152.022
127.895
24.8996
13.6804
3.77563
0.115714
0.330956
0.49522
0.403869
0.740697
1.90887
2.58358
3.08374
3.60243
4.14942
4.71145
5.27087
5.80027
6.27759
6.74634
7.18719
7.57676
7.98331
8.47311
8.89473
9.94362
10.3405
11.381
12.1409
11.0288
11.362
20.4459
12.3518
12.9919
13.657
14.3708
15.1361
15.9563
16.8354
17.7774
18.788
19.8711
21.0325
22.2781
23.6146
25.0494
26.5908
28.2479
30.0331
31.9552
34.0328
36.2783
38.7152
41.3625
44.2532
47.4279
50.9281
54.8322
59.2343
64.2914
70.2223
77.4174
86.6089
100.157
121.326
147.784
157.452
101.095
10.0925
10.2082
1.96566
0.11834
0.345713
0.549536
0.685988
0.447409
0.975077
2.32212
3.06863
3.60205
4.14857
4.70923
5.26669
5.79832
6.27877
6.72845
7.16929
7.59012
7.97236
8.3701
8.83454
9.24177
10.2097
10.6047
11.5809
12.3904
11.5198
11.9266
20.1862
12.967
13.6519
14.3642
15.1288
15.9475
16.826
17.7672
18.7751
19.8552
21.0141
22.2569
23.5892
25.0192
26.5562
28.2064
29.9808
31.8943
33.958
36.1871
38.6028
41.225
44.0833
47.208
50.6491
54.4649
58.7411
63.5982
69.2233
75.902
84.1316
95.1329
112.001
136.564
160.421
156.479
62.2112
8.45726
6.16245
3.08101
0.119647
0.354181
0.575627
0.769627
0.87392
0.427186
1.24085
2.76789
3.58626
4.14629
4.70568
5.26059
5.79172
6.28608
6.72939
7.15424
7.57329
7.99311
8.3597
8.74408
9.19206
9.60248
10.4815
10.9323
11.8836
12.7099
12.0593
12.5316
19.9891
13.6255
14.3592
15.121
15.9403
16.8169
17.7561
18.7625
19.8412
20.9969
22.2369
23.5662
24.9926
26.5232
28.1673
29.9356
31.8385
33.8896
36.1054
38.5017
41.1005
43.9289
47.0155
50.4038
54.1456
58.313
63.0143
68.3961
74.6976
82.276
91.8241
105.432
125.953
152.705
169.284
141.481
33.0559
11.4169
5.47945
6.06296
0.121799
0.35853
0.591258
0.80853
0.992039
1.05509
0.273907
1.54249
3.25015
4.13187
4.70705
5.25857
5.78998
6.28133
6.73115
7.1501
7.56063
7.97879
8.38042
8.73371
9.11146
9.55987
9.96833
10.8198
11.3041
12.2285
13.1198
12.6457
13.1847
19.9185
14.3305
15.116
15.9317
16.8084
17.7462
18.7503
19.8272
20.9816
22.2182
23.5445
24.9665
26.4931
28.1314
29.8928
31.7863
33.8289
36.0311
38.4108
40.9881
43.7885
46.8425
50.1833
53.8641
57.9465
62.5175
67.706
73.7072
80.8105
89.4762
100.923
117.825
141.968
167.825
173.359
107.47
14.8471
12.0952
6.33682
8.53508
0.124026
0.365464
0.599256
0.831527
1.04566
1.21441
1.2199
0.382059
1.8839
3.76313
4.68987
5.2599
5.78585
6.27689
6.73014
7.15276
7.56566
7.96452
8.37361
8.75244
9.11
9.49379
9.93053
10.3711
11.2093
11.7196
12.6541
13.5873
13.2751
13.8884
19.9672
15.0848
15.9255
16.7988
17.7366
18.7395
19.8146
20.9671
22.2015
23.5249
24.9428
26.4645
28.0973
29.8524
31.7413
33.772
35.9616
38.326
40.885
43.6638
46.6871
49.9874
53.6128
57.6209
62.0858
67.1223
72.8829
79.6124
87.6755
97.766
111.908
132.498
159.369
179.546
166.428
62.2252
2.34594
9.05702
4.86008
9.63155
0.125895
0.372273
0.610774
0.843945
1.07692
1.28423
1.42776
1.35022
0.687221
2.26909
4.30002
5.24426
5.78816
6.27708
6.72515
7.14816
7.56532
7.9712
8.36224
8.74812
9.13582
9.48748
9.88144
10.3367
10.8259
11.6427
12.2022
13.1447
14.1227
13.9529
14.6362
20.1571
15.8919
16.7922
17.7263
18.7298
19.8028
20.9537
22.1857
23.5055
24.9216
26.4398
28.0675
29.8166
31.697
33.7198
35.9011
38.2516
40.7921
43.5489
46.5439
49.8128
53.3898
57.3319
61.7111
66.6194
72.1892
78.6233
86.2148
95.4521
107.635
125.126
149.456
176.202
186.295
139.051
29.855
10.4198
6.06619
3.07376
10.3459
0.127618
0.377948
0.622524
0.861083
1.09388
1.32277
1.51455
1.61159
1.42266
0.930028
2.69732
4.84297
5.77356
6.27542
6.72205
7.14753
7.56353
7.97123
8.35993
8.73745
9.12357
9.50494
9.87456
10.2892
10.7925
11.317
12.1286
12.7262
13.6922
14.7206
14.679
15.4469
20.4521
16.7551
17.7197
18.7184
19.7915
20.9397
22.1698
23.4883
24.9005
26.4143
28.0407
29.7841
31.6582
33.6733
35.8423
38.1822
40.7114
43.4479
46.4163
49.651
53.1886
57.0795
61.3821
66.1792
71.5953
77.7896
85.0211
93.6569
104.485
119.559
140.794
167.971
189.529
183.348
92.2744
8.322
8.35667
3.90613
4.72212
11.6243
0.129326
0.383211
0.632731
0.878021
1.11624
1.34345
1.55536
1.71391
1.73594
1.42167
1.1332
3.16625
5.3734
6.26426
6.72502
7.14571
7.56172
7.96933
8.36133
8.7374
9.10601
9.50062
9.88401
10.288
10.7431
11.2873
11.8412
12.6532
13.2987
14.2953
15.3882
15.4585
16.3139
20.8727
17.6796
18.7112
19.7798
20.9271
22.1555
23.472
24.8816
26.3925
28.014
29.7521
31.6213
33.6291
35.7899
38.1198
40.6334
43.3532
46.3013
49.5087
53.0093
56.8478
61.085
65.796
71.0775
77.0838
84.0153
92.199
102.155
115.337
133.867
158.87
185.837
197.541
159.179
42.131
9.05747
3.24543
2.42423
4.23998
14.3709
0.130949
0.38848
0.641842
0.892326
1.13834
1.36995
1.57502
1.74908
1.84882
1.77965
1.35496
1.30945
3.66244
5.87456
6.7147
7.14611
7.56164
7.96769
8.35908
8.74112
9.109
9.48947
9.87971
10.3018
10.7434
11.2418
11.8147
12.4003
13.2222
13.9224
14.9638
16.1108
16.2917
17.2461
21.4218
18.6672
19.7719
20.9154
22.1427
23.4565
24.8638
26.372
27.9902
29.7246
31.5877
33.5888
35.7419
38.0626
40.5635
43.2682
46.1953
49.3778
52.8487
56.6431
60.8245
65.4533
70.622
76.4699
83.1679
90.9793
100.306
112.156
128.461
150.787
178.411
199.923
196.001
109.646
11.9677
5.62098
2.29487
3.42847
3.19593
18.4077
0.132428
0.393457
0.650844
0.905349
1.15697
1.39582
1.60243
1.75824
1.86756
1.89656
1.7475
1.24572
1.47174
4.16701
6.33713
7.13727
7.56315
7.96779
8.35867
8.73931
9.11652
9.48918
9.87748
10.2919
10.7609
11.2419
11.7784
12.3771
12.9977
13.8505
14.5984
15.6944
16.8974
17.181
18.2423
22.0899
19.722
20.9059
22.128
23.4416
24.8467
26.3524
27.9664
29.6971
31.5547
33.5525
35.698
38.0084
40.4992
43.1896
46.1021
49.2597
52.703
56.459
60.5882
65.152
70.2287
75.9322
82.4327
89.9511
98.8094
109.681
124.217
144.137
170.159
196.781
208.448
171.172
52.1842
7.50222
2.29477
2.56014
5.26708
2.30381
24.0474
0.133762
0.398003
0.659278
0.918222
1.17373
1.41783
1.62814
1.77899
1.85993
1.89803
1.86688
1.66643
1.11344
1.63048
4.65493
6.7717
7.55485
7.96932
8.35944
8.73851
9.11465
9.49331
9.88034
10.2894
10.7496
11.2588
11.7784
12.3496
12.9813
13.6442
14.524
15.3302
16.4888
17.7513
18.1317
19.3169
22.8862
20.851
22.1185
23.4252
24.8303
26.3338
27.9452
29.6725
31.5262
33.5178
35.6563
37.9587
40.4399
43.117
46.014
49.156
52.5686
56.2941
60.3746
64.8797
69.8739
75.4668
81.7974
89.0654
97.5653
107.759
120.891
138.755
162.552
190.612
210.981
205.654
116.52
13.4055
3.51517
2.56002
3.62066
6.18569
3.0289
28.5579
0.134959
0.402078
0.667043
0.930284
1.19013
1.43607
1.64895
1.79865
1.86963
1.87478
1.85724
1.79155
1.56794
0.963897
1.7942
5.10774
7.18349
7.96685
8.36154
8.7402
9.11455
9.49335
9.88279
10.2977
10.7479
11.2525
11.7945
12.3544
12.958
13.6362
14.3369
15.2465
16.1254
17.3519
18.6826
19.1551
20.4648
23.7944
22.0565
23.415
24.8137
26.316
27.9247
29.6492
31.4994
33.4853
35.6204
37.9134
40.3856
43.0524
45.9349
49.0574
52.4468
56.1438
60.1844
64.6319
69.5577
75.0509
81.2417
88.3022
96.4884
106.173
118.281
134.433
156.067
183.302
208.868
219.03
175.169
52.2118
4.71971
4.27793
0
5.56226
7.19638
6.52967
28.3883
0.136035
0.405755
0.674019
0.941821
1.20492
1.45379
1.6648
1.81238
1.87859
1.8739
1.82855
1.78321
1.7018
1.46766
0.788921
1.9675
5.52142
7.59673
8.36381
8.74275
9.11539
9.49324
9.88199
10.2994
10.7568
11.2504
11.7937
12.3698
12.9643
13.6144
14.3286
15.0744
16.0331
16.9777
18.2875
19.6777
20.2484
21.6941
24.8239
23.3439
24.8013
26.2977
27.9051
29.6268
31.474
33.4558
35.583
37.8721
40.3357
42.993
45.862
48.9681
52.339
56.0046
60.017
64.4143
69.2757
74.6817
80.7525
87.6389
95.5648
104.852
116.154
130.945
150.666
176.203
204.328
222.327
211.444
112.788
14.9238
2.68898
3.82368
2.70395
5.87489
4.6219
8.55653
29.914
0.13703
0.409377
0.68027
0.95227
1.21951
1.47039
1.68008
1.82229
1.88214
1.87483
1.8243
1.75732
1.70346
1.61512
1.36995
0.555371
2.15517
5.90808
8.02848
8.75287
9.119
9.49418
9.8827
10.2993
10.7592
11.256
11.7871
12.3643
12.982
13.616
14.3138
15.0681
15.8682
16.8745
17.8997
19.2962
20.7449
21.417
23.0077
25.9695
24.7192
26.2854
27.8852
29.6066
31.4494
33.4263
35.551
37.8331
40.2889
42.9368
45.7949
48.8861
52.2368
55.881
59.8616
64.2183
69.023
74.3499
80.3151
87.0542
94.7662
103.73
114.448
128.11
146.215
169.851
198.101
221.748
228.139
169.57
44.2773
3.28871
2.70358
2.70378
5.041
4.50596
1.08337
8.63594
32.8324
0.137965
0.412383
0.686328
0.961156
1.2333
1.4866
1.6957
1.83133
1.88389
1.87009
1.82068
1.75449
1.68602
1.63007
1.53686
1.2739
0.177255
2.35989
6.28787
8.47662
9.13616
9.49687
9.88444
10.2998
10.7598
11.26
11.7899
12.3572
12.9766
13.6361
14.3215
15.0602
15.8648
16.7193
17.7778
18.8875
20.3783
21.8858
22.6716
24.4129
27.2353
26.1871
27.8704
29.5835
31.4259
33.3997
35.5187
37.7961
40.2464
42.8834
45.7313
48.8081
52.144
55.766
59.717
64.042
68.7936
74.0577
79.9264
86.5307
94.0577
102.756
113.021
125.803
142.549
164.426
191.681
218.543
233.343
210.674
94.7129
13.083
0
0
4.15369
1.45029
0
4.89584
10.1809
36.1308
0.138894
0.414957
0.691535
0.9698
1.2445
1.50171
1.7111
1.84076
1.88543
1.86516
1.81362
1.75196
1.68698
1.62312
1.56747
1.46562
1.17323
0.64126
2.58506
6.67984
8.94011
9.52244
9.88703
10.3021
10.7612
11.2613
11.7978
12.3646
12.9744
13.6336
14.3351
15.071
15.8574
16.7186
17.6316
18.7474
19.9523
21.5344
23.1068
24.0174
25.9107
28.6269
27.7552
29.5673
31.4006
33.3739
35.4893
37.7626
40.2042
42.8368
45.6728
48.7387
52.0582
55.662
59.5882
63.88
68.5862
73.7947
79.5775
86.0733
93.4347
101.901
111.794
123.883
139.484
159.846
185.669
214.167
234.369
233.121
152.74
30.9896
3.82321
2.70345
4.03837
1.02545
5.72703
5.82917
1.2087
11.922
39.0611
0.139847
0.418128
0.695917
0.976505
1.25463
1.51403
1.72467
1.85119
1.88824
1.862
1.80647
1.74552
1.68779
1.63003
1.57069
1.51326
1.36394
1.05978
0.923664
2.8349
7.09839
9.42735
9.91901
10.3049
10.7621
11.2634
11.7987
12.3718
12.9817
13.6314
14.332
15.0874
15.8701
16.7153
17.6336
18.6037
19.7895
21.0951
22.7768
24.4147
25.4622
27.5036
30.1412
29.4278
31.3845
33.3461
35.4613
37.7288
40.1677
42.7905
45.6196
48.6747
51.9795
55.5657
59.4686
63.729
68.402
73.5521
79.269
85.6631
92.8851
101.151
110.742
122.251
136.917
155.929
180.246
208.806
233.165
243.316
198.885
68.4553
10.0773
0
4.1532
3.34655
5.62328
1.14399
8.95517
1.20035
14.1103
41.0365
0.14081
0.421007
0.700764
0.982412
1.26336
1.52516
1.73546
1.86016
1.89222
1.86074
1.80179
1.73962
1.68446
1.63517
1.58383
1.52739
1.46405
1.2587
0.920913
1.17441
3.11036
7.55826
9.9449
10.3408
10.7652
11.2649
11.8008
12.3732
12.9859
13.637
14.3349
15.0857
15.8896
16.7273
17.6332
18.6062
19.6465
20.9124
22.324
24.1102
25.8155
27.0152
29.1981
31.7748
31.2114
33.3283
35.4309
37.698
40.1301
42.7483
45.5711
48.616
51.9071
55.4768
59.3571
63.5913
68.2297
73.3351
78.9902
85.298
92.4024
100.487
109.82
120.884
134.751
152.615
175.492
203.283
230.28
246.335
229.875
122.122
26.1632
2.85528
4.03807
3.18543
4.63346
5.02623
5.16985
9.4587
3.0764
19.4694
43.0831
0.141827
0.423609
0.705651
0.989827
1.2717
1.5349
1.74537
1.8668
1.89583
1.8605
1.80002
1.73647
1.68137
1.63564
1.5936
1.54687
1.49008
1.41756
1.20584
0.731894
1.41858
3.417
8.06927
10.5008
10.8021
11.2679
11.8028
12.3751
12.9879
13.6448
14.3408
15.0875
15.8916
16.7478
17.6476
18.6118
19.6496
20.7659
22.1194
23.6433
25.5389
27.3138
28.6864
31.0113
33.5329
33.1259
35.4098
37.6647
40.0965
42.7097
45.5247
48.5605
51.8408
55.3947
59.2564
63.4661
68.0717
73.1347
78.7323
84.9708
91.9688
99.9003
109.014
119.714
132.911
149.814
171.386
198.133
226.556
246.884
247.363
171.524
35.8652
4.9451
2.85524
3.34629
3.18546
4.89398
0
3.96519
11.4571
0
28.4014
44.7734
0.142943
0.42703
0.710584
0.996832
1.28137
1.54532
1.75372
1.87319
1.89829
1.86057
1.79834
1.73536
1.68045
1.63589
1.59798
1.56155
1.51664
1.45532
1.36871
1.14004
0.41282
1.66891
3.75897
8.63946
11.0992
11.3075
11.807
12.3784
12.9909
13.6469
14.3488
15.0966
15.8934
16.752
17.667
18.6262
19.6572
20.7651
21.9642
23.4124
25.0545
27.0665
28.9168
30.4821
32.9527
35.412
35.1931
37.6398
40.0602
42.6708
45.4783
48.5076
51.7773
55.3188
59.1633
63.3524
67.9273
72.954
78.5038
84.6655
91.5723
99.3788
108.304
118.699
131.347
147.394
167.849
193.431
222.345
246.043
256.11
210.882
75.9809
8.07426
0
1.02527
4.63312
3.55369
1.20821
3.75388
5.60772
12.963
4.40507
40.2746
45.6253
0.144066
0.430511
0.716268
1.00339
1.29065
1.55701
1.76418
1.87969
1.90113
1.86068