/*--------------------------------*- C++ -*----------------------------------*\
| =========                 |                                                 |
| \\      /  F ield         | OpenFOAM: The Open Source CFD Toolbox           |
|  \\    /   O peration     | Version:  v2012                                 |
|   \\  /    A nd           | Website:  www.openfoam.com                      |
|    \\/     M anipulation  |                                                 |
\*---------------------------------------------------------------------------*/
FoamFile
{
    version     2.0;
    format      ascii;
    class       volScalarField;
    location    "13200";
    object      yPlus;
}
// * * * * * * * * * * * * * * * * * * * * * * * * * * * * * * * * * * * * * //

dimensions      [0 0 0 0 0 0 0];


internalField   uniform 0;

boundaryField
{
    base
    {
        type            calculated;
        value           nonuniform List<scalar> 
317
(
0.208693
0.208628
0.204772
0.201906
0.199727
0.197901
0.196325
0.194981
0.193833
0.192806
0.191871
0.190994
0.190176
0.18941
0.188712
0.188081
0.187514
0.187002
0.186547
0.186136
0.185769
0.185438
0.185143
0.184876
0.184635
0.184413
0.184207
0.184017
0.183843
0.183684
0.18354
0.183411
0.183296
0.183192
0.183095
0.183005
0.182914
0.182836
0.183078
0.20442
0.185503
0.186202
0.193933
0.189486
0.184035
0.183024
0.182205
0.18203
0.181966
0.18192
0.181849
0.181781
0.181733
0.181692
0.181652
0.181616
0.181586
0.181565
0.181525
0.180532
0.159794
0.056119
0.0775047
0.102798
0.111535
0.116074
0.118615
0.119842
0.121964
0.124162
0.126003
0.127704
0.129395
0.131004
0.132469
0.133792
0.134978
0.136044
0.13703
0.137955
0.138877
0.139824
0.140782
0.141795
0.142908
0.144029
0.145143
0.146212
0.147216
0.148144
0.148993
0.149758
0.150464
0.151115
0.151667
0.152106
0.15243
0.152738
0.15292
0.152908
0.152832
0.152663
0.152368
0.151953
0.151411
0.150765
0.149982
0.149039
0.147854
0.146419
0.144631
0.142466
0.139847
0.136466
0.13207
0.125062
0.116735
0.0848888
0.0801197
0.109978
0.118586
0.126774
0.132861
0.137594
0.141536
0.144922
0.147766
0.149819
0.151453
0.153167
0.154742
0.155956
0.15733
0.158166
0.159357
0.160967
0.161878
0.163063
0.16409
0.164433
0.164758
0.16535
0.166231
0.167087
0.167522
0.167122
0.167459
0.167739
0.168073
0.16917
0.169412
0.169575
0.169666
0.168902
0.168883
0.169831
0.169632
0.168344
0.168148
0.16793
0.167873
0.165548
0.162386
0.164958
0.167233
0.166318
0.165302
0.164203
0.159341
0.157525
0.158853
0.156339
0.153523
0.149704
0.146291
0.141996
0.136719
0.129628
0.121489
0.115021
0.10744
0.100565
0.0918119
0.0765448
0.058327
0.0304893
0.0401825
0.0654979
0.0825549
0.10604
0.123799
0.131297
0.144668
0.156892
0.168342
0.179922
0.189762
0.200301
0.219454
0.227796
0.224563
0.231686
0.239165
0.25804
0.267426
0.268913
0.285717
0.298421
0.292543
0.2858
0.291766
0.298498
0.29822
0.31987
0.324708
0.314917
0.342597
0.341438
0.323861
0.352962
0.365046
0.363382
0.366956
0.363137
0.36635
0.363947
0.368369
0.37182
0.367462
0.379366
0.391537
0.396263
0.392169
0.392987
0.405728
0.409512
0.412166
0.41795
0.42002
0.424124
0.447251
0.449937
0.432272
0.456363
0.459152
0.415
0.372398
0.484618
0.591454
0.590487
0.492347
0.418011
0.409644
0.393977
0.535564
0.608891
0.589123
0.510535
0.513029
0.529255
0.422034
0.402279
0.398087
0.403933
0.544921
0.62674
0.526085
0.401777
0.402771
0.51497
0.519113
0.447995
0.434006
0.538687
0.56396
0.575903
0.566417
0.425728
0.544137
0.550407
0.575565
0.573922
0.457559
0.458197
0.550197
0.553545
0.550179
0.54586
0.418888
0.548576
0.55354
0.422332
0.418929
0.438353
0.463689
0.4588
0.533071
0.5746
0.45097
0.553186
0.550912
0.437411
0.551513
0.551472
0.437253
0.435683
0.534042
0.636778
0.543186
0.538548
0.544756
0.427847
0.425362
0.537332
0.569107
0.566254
0.550822
)
;
    }
    frontAndBack
    {
        type            empty;
    }
    inlet
    {
        type            calculated;
        value           uniform 0;
    }
    outlet
    {
        type            calculated;
        value           uniform 0;
    }
    top
    {
        type            calculated;
        value           uniform 0;
    }
}


// ************************************************************************* //
