# Wall heat-flux
# Time        	patch         	min           	max           	integral      
3000          	base	-1.290023e+04	3.211419e+04	3.872784e+02
