# p  FACE_DATA 212
# x  y  z  p
-0.809577 0 0.035 5437.82
-0.807489 0 0.035 4016.34
-0.805219 0 0.035 3427.58
-0.802746 0 0.035 3188.09
-0.800052 0 0.035 2971.83
-0.797114 0 0.035 2880.51
-0.793909 0 0.035 2850.84
-0.790405 0 0.035 2843
-0.786574 0 0.035 2844.76
-0.782377 0 0.035 2847.67
-0.777777 0 0.035 2848.21
-0.772724 0 0.035 2848
-0.767167 0 0.035 2847.1
-0.761044 0 0.035 2842.23
-0.754285 0 0.035 2836.83
-0.746806 0 0.035 2834.49
-0.738515 0 0.035 2830.78
-0.729297 0 0.035 2824.4
-0.719017 0 0.035 2818.46
-0.707518 0 0.035 2813.55
-0.694609 0 0.035 2808.89
-0.680056 0 0.035 2804.44
-0.663575 0 0.035 2799.6
-0.644813 0 0.035 2795.27
-0.624813 0 0.035 2790.7
-0.605117 0 0.035 2785.35
-0.586017 0 0.035 2780.8
-0.567487 0 0.035 2777.86
-0.549504 0 0.035 2775.36
-0.532047 0 0.035 2771.87
-0.515094 0 0.035 2768.89
-0.498626 0 0.035 2767.92
-0.482623 0 0.035 2768.28
-0.467067 0 0.035 2766.54
-0.451943 0 0.035 2762.72
-0.437233 0 0.035 2758.17
-0.422924 0 0.035 2755.25
-0.409002 0 0.035 2754.89
-0.395453 0 0.035 2757.5
-0.382267 0 0.035 2758.87
-0.369432 0 0.035 2758.41
-0.356936 0 0.035 2755.26
-0.344773 0 0.035 2751.26
-0.332933 0 0.035 2747.55
-0.321409 0 0.035 2745.56
-0.310192 0 0.035 2745.32
-0.299278 0 0.035 2747.51
-0.288661 0 0.035 2750.77
-0.278335 0 0.035 2753.39
-0.268297 0 0.035 2754.72
-0.258541 0 0.035 2754.95
-0.249066 0 0.035 2752.98
-0.239868 0 0.035 2749.34
-0.230945 0 0.035 2745.33
-0.222294 0 0.035 2741.46
-0.213914 0 0.035 2738.11
-0.205804 0 0.035 2735.62
-0.197961 0 0.035 2734.26
-0.190386 0 0.035 2733.86
-0.183077 0 0.035 2734.61
-0.176032 0 0.035 2736.38
-0.169252 0 0.035 2738.73
-0.162736 0 0.035 2741.31
-0.156483 0 0.035 2743.97
-0.150493 0 0.035 2746.4
-0.144764 0 0.035 2748.45
-0.139298 0 0.035 2750
-0.134091 0 0.035 2751
-0.129093 0 0.035 2751.52
-0.124253 0 0.035 2751.68
-0.119563 0 0.035 2751.48
-0.115017 0 0.035 2750.87
-0.110611 0 0.035 2749.87
-0.106339 0 0.035 2748.47
-0.102196 0 0.035 2746.76
-0.0981766 0 0.035 2744.84
-0.094276 0 0.035 2742.84
-0.0904897 0 0.035 2740.79
-0.086813 0 0.035 2738.79
-0.0832415 0 0.035 2736.88
-0.0797709 0 0.035 2735.07
-0.0763968 0 0.035 2733.37
-0.0731154 0 0.035 2731.81
-0.0699225 0 0.035 2730.4
-0.0668143 0 0.035 2729.15
-0.0637871 0 0.035 2728.06
-0.0608371 0 0.035 2727.12
-0.0579609 0 0.035 2726.33
-0.0551548 0 0.035 2725.67
-0.0524156 0 0.035 2725.13
-0.0497398 0 0.035 2724.7
-0.0471243 0 0.035 2724.36
-0.0445659 0 0.035 2724.1
-0.0420615 0 0.035 2723.9
-0.0396081 0 0.035 2723.78
-0.0372026 0 0.035 2723.72
-0.0348422 0 0.035 2723.73
-0.032524 0 0.035 2723.76
-0.0302452 0 0.035 2723.91
-0.028003 0 0.035 2723.93
-0.0257948 0 0.035 2725.81
-0.0236178 0 0.035 2822.87
-0.0214695 0 0.035 4269.14
-0.0193471 0 0.035 6713.38
-0.0172482 0 0.035 8326.58
-0.0151702 0 0.035 9383.49
-0.0131106 0 0.035 10208.6
-0.0110667 0 0.035 10907.1
-0.00903637 0 0.035 11527.9
-0.00701697 0 0.035 12067.6
-0.00500605 0 0.035 12497.6
-0.00300121 0 0.035 13005
-0.001 0 0.035 13244.4
0.000866025 0.0005 0.035 13929.4
0.0025844 0.00149211 0.035 14801
0.0042763 0.00246893 0.035 16263.2
0.00594322 0.00343132 0.035 17983.7
0.00758636 0.00437998 0.035 20133.5
0.00920737 0.00531588 0.035 22713.4
0.0108073 0.00623962 0.035 25795.8
0.0123876 0.00715197 0.035 29431
0.0139495 0.00805371 0.035 33751.2
0.0154937 0.00894529 0.035 38930.6
0.017022 0.00982768 0.035 44958.2
0.0185348 0.0107011 0.035 51639.8
0.0200339 0.0115665 0.035 59170.4
0.0215202 0.0124247 0.035 67660.6
0.0229941 0.0132756 0.035 76882.8
0.0244573 0.0141204 0.035 86562.8
0.0259099 0.0149591 0.035 96449
0.0273538 0.0157927 0.035 105888
0.0287897 0.0166217 0.035 113909
0.0302178 0.0174463 0.035 119638
0.0316401 0.0182674 0.035 123343
0.0330561 0.0190849 0.035 124432
0.0344679 0.0199001 0.035 123640
0.0358755 0.0207127 0.035 121302
0.0372803 0.0215238 0.035 117926
0.0386833 0.0223338 0.035 114930
0.0400841 0.0231425 0.035 112444
0.041485 0.0239514 0.035 110427
0.0428849 0.0247596 0.035 108724
0.0442867 0.025569 0.035 107198
0.0456908 0.0263796 0.035 105767
0.0470966 0.0271912 0.035 104683
0.0485064 0.0280052 0.035 103953
0.0499192 0.0288209 0.035 103418
0.0513378 0.0296399 0.035 102981
0.0527619 0.0304621 0.035 102576
0.0541923 0.031288 0.035 102077
0.0556307 0.0321184 0.035 101578
0.057076 0.0329529 0.035 101159
0.0585312 0.033793 0.035 100922
0.0599949 0.034638 0.035 100893
0.0614698 0.0354896 0.035 100996
0.062957 0.0363482 0.035 101166
0.064455 0.0372131 0.035 101306
0.0659672 0.0380862 0.035 101352
0.0674915 0.0389663 0.035 101403
0.0690319 0.0398556 0.035 101606
0.0705882 0.0407541 0.035 101908
0.0721604 0.0416619 0.035 102193
0.0737453 0.0425769 0.035 102215
0.0753344 0.0434943 0.035 102121
0.0769309 0.0444161 0.035 101847
0.0785326 0.0453408 0.035 101494
0.0801411 0.0462695 0.035 101180
0.0817575 0.0472026 0.035 101023
0.0833785 0.0481386 0.035 100878
0.0850077 0.0490792 0.035 100915
0.0866416 0.0500226 0.035 101071
0.0882842 0.0509709 0.035 101376
0.0899348 0.0519239 0.035 101790
0.0915911 0.0528801 0.035 102249
0.0932563 0.0538416 0.035 102727
0.0949268 0.054806 0.035 102918
0.0966067 0.0557759 0.035 102984
0.0982939 0.05675 0.035 102891
0.0999887 0.0577286 0.035 102732
0.101694 0.0587128 0.035 102491
0.103404 0.0597003 0.035 102336
0.105124 0.0606937 0.035 102156
0.106851 0.0616907 0.035 101999
0.108589 0.0626936 0.035 101949
0.110336 0.0637025 0.035 101884
0.11209 0.0647152 0.035 101842
0.113855 0.0657342 0.035 101840
0.115626 0.0667569 0.035 101794
0.117409 0.0677863 0.035 102060
0.119202 0.0688211 0.035 102197
0.121003 0.069861 0.035 102165
0.122816 0.0709077 0.035 102307
0.124635 0.0719584 0.035 102553
0.126467 0.0730161 0.035 102548
0.128308 0.0740787 0.035 102520
0.13016 0.0751479 0.035 102285
0.132024 0.0762243 0.035 102188
0.133897 0.0773051 0.035 101935
0.135782 0.0783935 0.035 101841
0.137675 0.0794865 0.035 101665
0.139581 0.0805871 0.035 101849
0.1415 0.081695 0.035 101895
0.143428 0.0828082 0.035 101895
0.145371 0.0839295 0.035 101994
0.147321 0.0850557 0.035 102216
0.149285 0.08619 0.035 102804
0.151261 0.0873308 0.035 102930
0.153249 0.0884787 0.035 102646
0.155253 0.0896352 0.035 102857
0.157264 0.0907968 0.035 102782
0.159292 0.0919673 0.035 102873
0.161329 0.093143 0.035 102473
