# wallHeatFlux  FACE_DATA 212
# x  y  z  wallHeatFlux
-0.809577 0 0.035 -1.09884e+06
-0.807489 0 0.035 -212051
-0.805219 0 0.035 -121126
-0.802746 0 0.035 -89332.1
-0.800052 0 0.035 -76646.2
-0.797114 0 0.035 -81688.7
-0.793909 0 0.035 -88164.4
-0.790405 0 0.035 -91720.7
-0.786574 0 0.035 -93631.5
-0.782377 0 0.035 -94746.2
-0.777777 0 0.035 -94905.4
-0.772724 0 0.035 -94427.7
-0.767167 0 0.035 -93790.7
-0.761044 0 0.035 -92676.1
-0.754285 0 0.035 -91349.1
-0.746806 0 0.035 -90287.5
-0.738515 0 0.035 -89172.9
-0.729297 0 0.035 -87739.7
-0.719017 0 0.035 -86359.7
-0.707518 0 0.035 -85085.8
-0.694609 0 0.035 -83865
-0.680056 0 0.035 -82591.1
-0.663575 0 0.035 -81264.1
-0.644813 0 0.035 -79990.2
-0.624813 0 0.035 -78750.3
-0.605117 0 0.035 -77492.8
-0.586017 0 0.035 -76486.3
-0.567487 0 0.035 -75638.4
-0.549504 0 0.035 -74841.5
-0.532047 0 0.035 -73993
-0.515094 0 0.035 -73302.2
-0.498626 0 0.035 -72825.3
-0.482623 0 0.035 -72452.9
-0.467067 0 0.035 -71922.9
-0.451943 0 0.035 -71392.2
-0.437233 0 0.035 -70861.4
-0.422924 0 0.035 -70436.8
-0.409002 0 0.035 -70118.3
-0.395453 0 0.035 -69906
-0.382267 0 0.035 -69640.7
-0.369432 0 0.035 -69376.2
-0.356936 0 0.035 -69003.7
-0.344773 0 0.035 -68686.2
-0.332933 0 0.035 -68366.8
-0.321409 0 0.035 -68102.5
-0.310192 0 0.035 -67890.2
-0.299278 0 0.035 -67784.1
-0.288661 0 0.035 -67676.9
-0.278335 0 0.035 -67573
-0.268297 0 0.035 -67464.7
-0.258541 0 0.035 -67307.8
-0.249066 0 0.035 -67094.4
-0.239868 0 0.035 -66882.1
-0.230945 0 0.035 -66615.5
-0.222294 0 0.035 -66404.5
-0.213914 0 0.035 -66192.3
-0.205804 0 0.035 -66033.1
-0.197961 0 0.035 -65874
-0.190386 0 0.035 -65766.5
-0.183077 0 0.035 -65715
-0.176032 0 0.035 -65662
-0.169252 0 0.035 -65609
-0.162736 0 0.035 -65607.5
-0.156483 0 0.035 -65611.1
-0.150493 0 0.035 -65607.6
-0.144764 0 0.035 -65554.6
-0.139298 0 0.035 -65550.6
-0.134091 0 0.035 -65514
-0.129093 0 0.035 -65439.9
-0.124253 0 0.035 -65393.4
-0.119563 0 0.035 -65340.4
-0.115017 0 0.035 -65287.3
-0.110611 0 0.035 -65181.1
-0.106339 0 0.035 -65075
-0.102196 0 0.035 -65021.9
-0.0981766 0 0.035 -64915.7
-0.094276 0 0.035 -64809.6
-0.0904897 0 0.035 -64703.4
-0.086813 0 0.035 -64597.2
-0.0832415 0 0.035 -64544.2
-0.0797709 0 0.035 -64438
-0.0763968 0 0.035 -64331.8
-0.0731154 0 0.035 -64278.8
-0.0699225 0 0.035 -64172.6
-0.0668143 0 0.035 -64119.5
-0.0637871 0 0.035 -64066.5
-0.0608371 0 0.035 -64013.4
-0.0579609 0 0.035 -63960.3
-0.0551548 0 0.035 -63907.2
-0.0524156 0 0.035 -63854.1
-0.0497398 0 0.035 -63801.1
-0.0471243 0 0.035 -63801.1
-0.0445659 0 0.035 -63748
-0.0420615 0 0.035 -63748
-0.0396081 0 0.035 -63694.9
-0.0372026 0 0.035 -63641.8
-0.0348422 0 0.035 -63641.8
-0.032524 0 0.035 -63641.8
-0.0302452 0 0.035 -63641.8
-0.028003 0 0.035 -63641.8
-0.0257948 0 0.035 -63641.8
-0.0236178 0 0.035 -62049.4
-0.0214695 0 0.035 -69109
-0.0193471 0 0.035 -92039.1
-0.0172482 0 0.035 -118366
-0.0151702 0 0.035 -134821
-0.0131106 0 0.035 -149471
-0.0110667 0 0.035 -160458
-0.00903637 0 0.035 -170331
-0.00701697 0 0.035 -176647
-0.00500605 0 0.035 -181796
-0.00300121 0 0.035 -188431
-0.001 0 0.035 -189280
0.000866025 0.0005 0.035 -234620
0.0025844 0.00149211 0.035 -280343
0.0042763 0.00246893 0.035 -325268
0.00594322 0.00343132 0.035 -376060
0.00758636 0.00437998 0.035 -435740
0.00920737 0.00531588 0.035 -503235
0.0108073 0.00623962 0.035 -577299
0.0123876 0.00715197 0.035 -653997
0.0139495 0.00805371 0.035 -774140
0.0154937 0.00894529 0.035 -907461
0.017022 0.00982768 0.035 -1.04905e+06
0.0185348 0.0107011 0.035 -1.19999e+06
0.0200339 0.0115665 0.035 -1.37094e+06
0.0215202 0.0124247 0.035 -1.58421e+06
0.0229941 0.0132756 0.035 -1.80637e+06
0.0244573 0.0141204 0.035 -2.04126e+06
0.0259099 0.0149591 0.035 -2.2846e+06
0.0273538 0.0157927 0.035 -2.48842e+06
0.0287897 0.0166217 0.035 -2.66545e+06
0.0302178 0.0174463 0.035 -2.787e+06
0.0316401 0.0182674 0.035 -2.8353e+06
0.0330561 0.0190849 0.035 -2.78594e+06
0.0344679 0.0199001 0.035 -2.67215e+06
0.0358755 0.0207127 0.035 -2.60259e+06
0.0372803 0.0215238 0.035 -2.4839e+06
0.0386833 0.0223338 0.035 -2.36521e+06
0.0400841 0.0231425 0.035 -2.24744e+06
0.041485 0.0239514 0.035 -2.17174e+06
0.0428849 0.0247596 0.035 -2.1086e+06
0.0442867 0.025569 0.035 -2.03867e+06
0.0456908 0.0263796 0.035 -1.93908e+06
0.0470966 0.0271912 0.035 -1.88157e+06
0.0485064 0.0280052 0.035 -1.83608e+06
0.0499192 0.0288209 0.035 -1.80757e+06
0.0513378 0.0296399 0.035 -1.75309e+06
0.0527619 0.0304621 0.035 -1.72953e+06
0.0541923 0.031288 0.035 -1.70528e+06
0.0556307 0.0321184 0.035 -1.66242e+06
0.057076 0.0329529 0.035 -1.61694e+06
0.0585312 0.033793 0.035 -1.60013e+06
0.0599949 0.034638 0.035 -1.58514e+06
0.0614698 0.0354896 0.035 -1.56583e+06
0.062957 0.0363482 0.035 -1.5572e+06
0.064455 0.0372131 0.035 -1.56279e+06
0.0659672 0.0380862 0.035 -1.52597e+06
0.0674915 0.0389663 0.035 -1.53631e+06
0.0690319 0.0398556 0.035 -1.52357e+06
0.0705882 0.0407541 0.035 -1.51192e+06
0.0721604 0.0416619 0.035 -1.47287e+06
0.0737453 0.0425769 0.035 -1.47702e+06
0.0753344 0.0434943 0.035 -1.47481e+06
0.0769309 0.0444161 0.035 -1.46333e+06
0.0785326 0.0453408 0.035 -1.42749e+06
0.0801411 0.0462695 0.035 -1.40868e+06
0.0817575 0.0472026 0.035 -1.41718e+06
0.0833785 0.0481386 0.035 -1.37882e+06
0.0850077 0.0490792 0.035 -1.38977e+06
0.0866416 0.0500226 0.035 -1.35685e+06
0.0882842 0.0509709 0.035 -1.35664e+06
0.0899348 0.0519239 0.035 -1.35116e+06
0.0915911 0.0528801 0.035 -1.33795e+06
0.0932563 0.0538416 0.035 -1.35147e+06
0.0949268 0.054806 0.035 -1.34132e+06
0.0966067 0.0557759 0.035 -1.35396e+06
0.0982939 0.05675 0.035 -1.33806e+06
0.0999887 0.0577286 0.035 -1.32955e+06
0.101694 0.0587128 0.035 -1.34347e+06
0.103404 0.0597003 0.035 -1.29312e+06
0.105124 0.0606937 0.035 -1.29289e+06
0.106851 0.0616907 0.035 -1.26507e+06
0.108589 0.0626936 0.035 -1.26472e+06
0.110336 0.0637025 0.035 -1.28895e+06
0.11209 0.0647152 0.035 -1.2616e+06
0.113855 0.0657342 0.035 -1.27408e+06
0.115626 0.0667569 0.035 -1.22938e+06
0.117409 0.0677863 0.035 -1.35235e+06
0.119202 0.0688211 0.035 -1.36947e+06
0.121003 0.069861 0.035 -1.2224e+06
0.122816 0.0709077 0.035 -1.21877e+06
0.124635 0.0719584 0.035 -1.31591e+06
0.126467 0.0730161 0.035 -1.32029e+06
0.128308 0.0740787 0.035 -1.24133e+06
0.13016 0.0751479 0.035 -1.23431e+06
0.132024 0.0762243 0.035 -1.18382e+06
0.133897 0.0773051 0.035 -1.18425e+06
0.135782 0.0783935 0.035 -1.19565e+06
0.137675 0.0794865 0.035 -1.16581e+06
0.139581 0.0805871 0.035 -1.26868e+06
0.1415 0.081695 0.035 -1.29383e+06
0.143428 0.0828082 0.035 -1.21773e+06
0.145371 0.0839295 0.035 -1.13093e+06
0.147321 0.0850557 0.035 -1.14771e+06
0.149285 0.08619 0.035 -1.38848e+06
0.151261 0.0873308 0.035 -1.41298e+06
0.153249 0.0884787 0.035 -1.15035e+06
0.155253 0.0896352 0.035 -1.16968e+06
0.157264 0.0907968 0.035 -1.15879e+06
0.159292 0.0919673 0.035 -1.13245e+06
0.161329 0.093143 0.035 -1.13366e+06
