# Wall heat-flux
# Time        	patch         	min           	max           	integral      
1900          	base	-1.251226e+04	3.239085e+04	3.678580e+02
