# Wall heat-flux
# Time        	patch         	min           	max           	integral      
4100          	base	-3.051764e+06	-5.721831e+04	-9.459190e+03
