# Wall heat-flux
# Time        	patch         	min           	max           	integral      
4500          	base	-2.937368e+06	-4.973510e+04	-2.905985e+02
