# p  FACE_DATA 398
# x  y  z  p
-0.7975 -7.61524e-06 0 1136.76
-0.79239 -7.61524e-06 0 893.845
-0.787056 -7.61524e-06 0 735.008
-0.781492 -7.61524e-06 0 707.091
-0.775691 -7.61524e-06 0 673.887
-0.769649 -7.61524e-06 0 652.913
-0.763361 -7.61524e-06 0 641.498
-0.756822 -7.61524e-06 0 632.882
-0.750025 -7.61524e-06 0 625.711
-0.742968 -7.61524e-06 0 619.145
-0.735648 -7.61524e-06 0 613.629
-0.72806 -7.61524e-06 0 607.744
-0.720203 -7.61524e-06 0 604.564
-0.712075 -7.61524e-06 0 602.942
-0.703676 -7.61524e-06 0 603.442
-0.695006 -7.61524e-06 0 605.068
-0.686065 -7.61524e-06 0 606.859
-0.676855 -7.61524e-06 0 608.323
-0.667379 -7.61524e-06 0 609.271
-0.657641 -7.61524e-06 0 609.817
-0.647644 -7.61524e-06 0 610.151
-0.637398 -7.61524e-06 0 610.164
-0.626906 -7.61524e-06 0 609.744
-0.616179 -7.61524e-06 0 609.218
-0.605225 -7.61524e-06 0 608.369
-0.594054 -7.61524e-06 0 607.359
-0.582677 -7.61524e-06 0 606.426
-0.57111 -7.61524e-06 0 605.622
-0.559364 -7.61524e-06 0 604.564
-0.547454 -7.61524e-06 0 603.307
-0.535396 -7.61524e-06 0 602.095
-0.523205 -7.61524e-06 0 601.101
-0.510901 -7.61524e-06 0 600.066
-0.498499 -7.61524e-06 0 599.036
-0.486021 -7.61524e-06 0 598.172
-0.473482 -7.61524e-06 0 597.609
-0.460905 -7.61524e-06 0 596.754
-0.448307 -7.61524e-06 0 595.572
-0.435709 -7.61524e-06 0 594.389
-0.42313 -7.61524e-06 0 593.593
-0.41059 -7.61524e-06 0 593.718
-0.39811 -7.61524e-06 0 593.684
-0.385706 -7.61524e-06 0 593.098
-0.373398 -7.61524e-06 0 591.992
-0.361205 -7.61524e-06 0 590.9
-0.349142 -7.61524e-06 0 590.168
-0.337226 -7.61524e-06 0 590.007
-0.325475 -7.61524e-06 0 590.442
-0.313901 -7.61524e-06 0 590.682
-0.30252 -7.61524e-06 0 590.454
-0.291343 -7.61524e-06 0 589.696
-0.280381 -7.61524e-06 0 588.364
-0.269647 -7.61524e-06 0 587.113
-0.259148 -7.61524e-06 0 586.188
-0.248893 -7.61524e-06 0 585.753
-0.23889 -7.61524e-06 0 585.975
-0.229143 -7.61524e-06 0 586.665
-0.219659 -7.61524e-06 0 587.556
-0.210441 -7.61524e-06 0 588.268
-0.201491 -7.61524e-06 0 588.622
-0.192812 -7.61524e-06 0 588.691
-0.184405 -7.61524e-06 0 588.494
-0.176269 -7.61524e-06 0 587.93
-0.168404 -7.61524e-06 0 587.212
-0.160809 -7.61524e-06 0 586.364
-0.15348 -7.61524e-06 0 585.359
-0.146415 -7.61524e-06 0 584.451
-0.13961 -7.61524e-06 0 583.706
-0.133063 -7.61524e-06 0 583.148
-0.126767 -7.61524e-06 0 582.793
-0.120717 -7.61524e-06 0 582.623
-0.11491 -7.61524e-06 0 582.622
-0.109339 -7.61524e-06 0 582.935
-0.103997 -7.61524e-06 0 583.227
-0.0988804 -7.61524e-06 0 583.647
-0.0939809 -7.61524e-06 0 584.149
-0.0892928 -7.61524e-06 0 584.683
-0.0848096 -7.61524e-06 0 585.199
-0.0805248 -7.61524e-06 0 585.644
-0.0764317 -7.61524e-06 0 586.014
-0.0725237 -7.61524e-06 0 586.323
-0.0687943 -7.61524e-06 0 586.583
-0.065237 -7.61524e-06 0 586.794
-0.0618454 -7.61524e-06 0 586.954
-0.058613 -7.61524e-06 0 587.081
-0.0555337 -7.61524e-06 0 587.18
-0.0526013 -7.61524e-06 0 587.254
-0.0498099 -7.61524e-06 0 587.306
-0.0471536 -7.61524e-06 0 587.333
-0.0446266 -7.61524e-06 0 587.339
-0.0422235 -7.61524e-06 0 587.33
-0.0399389 -7.61524e-06 0 587.319
-0.0377676 -7.61524e-06 0 587.289
-0.0357044 -7.61524e-06 0 587.251
-0.0337445 -7.61524e-06 0 587.186
-0.0318832 -7.61524e-06 0 587.149
-0.0301159 -7.61524e-06 0 587.072
-0.0284383 -7.61524e-06 0 587.007
-0.0268462 -7.61524e-06 0 586.897
-0.0253353 -7.61524e-06 0 586.853
-0.023902 -7.61524e-06 0 587.057
-0.0225425 -7.61524e-06 0 599.192
-0.0212532 -7.61524e-06 0 718.655
-0.0200306 -7.61524e-06 0 1006.93
-0.0188715 -7.61524e-06 0 1204.86
-0.0177727 -7.61524e-06 0 1313.92
-0.0167313 -7.61524e-06 0 1393.62
-0.0157444 -7.61524e-06 0 1456.6
-0.0148093 -7.61524e-06 0 1509.98
-0.0139232 -7.61524e-06 0 1556.09
-0.0130838 -7.61524e-06 0 1596.08
-0.0122887 -7.61524e-06 0 1630.7
-0.0115355 -7.61524e-06 0 1661.16
-0.0108223 -7.61524e-06 0 1688.32
-0.0101469 -7.61524e-06 0 1713.04
-0.00950727 -7.61524e-06 0 1735.7
-0.00890169 -7.61524e-06 0 1756.29
-0.00832834 -7.61524e-06 0 1774.99
-0.00778557 -7.61524e-06 0 1791.67
-0.00727176 -7.61524e-06 0 1806.1
-0.00678541 -7.61524e-06 0 1818.16
-0.00632507 -7.61524e-06 0 1827.89
-0.00588937 -7.61524e-06 0 1835.4
-0.00547703 -7.61524e-06 0 1840.86
-0.00508681 -7.61524e-06 0 1844.88
-0.00471753 -7.61524e-06 0 1847.94
-0.0043681 -7.61524e-06 0 1850.29
-0.00403746 -7.61524e-06 0 1852.44
-0.00372461 -7.61524e-06 0 1854.78
-0.0034286 -7.61524e-06 0 1857.74
-0.00314855 -7.61524e-06 0 1861.69
-0.00288361 -7.61524e-06 0 1867.12
-0.00263295 -7.61524e-06 0 1874.41
-0.00239582 -7.61524e-06 0 1883.76
-0.00217149 -7.61524e-06 0 1895.71
-0.00195929 -7.61524e-06 0 1910.08
-0.00175856 -7.61524e-06 0 1927.82
-0.00156869 -7.61524e-06 0 1947.41
-0.00138908 -7.61524e-06 0 1969.99
-0.00121921 -7.61524e-06 0 1993.9
-0.00105853 -7.61524e-06 0 2018.85
-0.000906546 -7.61524e-06 0 2043.8
-0.000762803 -7.61524e-06 0 2067.74
-0.000626849 -7.61524e-06 0 2089
-0.000498266 -7.61524e-06 0 2105.8
-0.000376656 -7.61524e-06 0 2116.62
-0.000261642 -7.61524e-06 0 2120.85
-0.00015287 -7.61524e-06 0 2120.8
-5e-05 -7.61524e-06 0 2124.29
4.14596e-05 2.03453e-05 0 2079.63
0.000125379 7.69412e-05 0 2084.15
0.000211356 0.000134924 0 2074.79
0.000299438 0.000194328 0 2063.5
0.000389678 0.000255186 0 2050.54
0.000482128 0.000317535 0 2037.25
0.000576841 0.000381409 0 2024.24
0.000673871 0.000446848 0 2012.01
0.000773276 0.000513887 0 2001.02
0.000875112 0.000582565 0 1991.68
0.000979439 0.000652924 0 1984.38
0.00108632 0.000725003 0 1979.25
0.00119581 0.000798843 0 1976.26
0.00130797 0.000874487 0 1976.41
0.00142287 0.000951979 0 1979.49
0.00154058 0.00103136 0 1985.02
0.00166117 0.00111268 0 1992.96
0.00178469 0.00119599 0 2003.61
0.00191123 0.00128133 0 2016.79
0.00204085 0.00136875 0 2032.51
0.00217364 0.0014583 0 2050.65
0.00230966 0.00155003 0 2071.17
0.00244899 0.001644 0 2094.01
0.00259171 0.00174025 0 2119.23
0.00273791 0.00183885 0 2146.74
0.00288767 0.00193985 0 2176.73
0.00304108 0.0020433 0 2209.1
0.0031982 0.00214927 0 2244.04
0.00335915 0.00225781 0 2281.62
0.003524 0.002369 0 2321.96
0.00369286 0.00248287 0 2365.24
0.00386582 0.00259951 0 2411.64
0.00404297 0.00271899 0 2461.37
0.00422442 0.00284136 0 2514.68
0.00441026 0.00296669 0 2571.81
0.0046006 0.00309506 0 2633.06
0.00479556 0.00322653 0 2698.74
0.00499523 0.00336119 0 2769.13
0.00519972 0.00349911 0 2844.64
0.00540916 0.00364036 0 2925.63
0.00562366 0.00378501 0 3012.56
0.00584334 0.00393316 0 3105.82
0.00606831 0.00408489 0 3206.03
0.00629871 0.00424027 0 3313.66
0.00653466 0.0043994 0 3429.48
0.00677629 0.00456236 0 3554.12
0.00702374 0.00472923 0 3688.48
0.00727714 0.00490013 0 3833.49
0.00753663 0.00507513 0 3990.26
0.00780234 0.00525433 0 4160.09
0.00807444 0.00543783 0 4344.33
0.00835306 0.00562573 0 4544.45
0.00863835 0.00581814 0 4762.24
0.00893047 0.00601514 0 4999.2
0.00922958 0.00621687 0 5257.33
0.00953584 0.00642341 0 5539.23
0.00984939 0.00663489 0 5847.74
0.0101705 0.00685141 0 6186.97
0.0104992 0.00707309 0 6560.04
0.0108357 0.00730005 0 6971.85
0.0111802 0.00753241 0 7422.98
0.011533 0.0077703 0 7919.88
0.0118941 0.00801384 0 8466.93
0.0122638 0.00826316 0 9070.82
0.0126422 0.00851837 0 9737.47
0.0130296 0.00877964 0 10474.3
0.0134262 0.00904708 0 11293.5
0.0138321 0.00932084 0 12198.4
0.0142476 0.00960107 0 13190.6
0.0146729 0.00988792 0 14262.3
0.0151082 0.0101815 0 15407.2
0.0155538 0.0104819 0 16602.9
0.0160098 0.0107895 0 17822.5
0.0164766 0.0111042 0 19015
0.0169542 0.0114263 0 20096.2
0.0174429 0.011756 0 20977.4
0.0179431 0.0120934 0 21557.4
0.018455 0.0124386 0 21776.4
0.0189789 0.0127918 0 21435.5
0.0195149 0.0131533 0 20723
0.0200633 0.0135232 0 19909.8
0.0206245 0.0139016 0 19111.2
0.0211986 0.0142888 0 18373
0.0217861 0.014685 0 17717.8
0.022387 0.0150903 0 17181.3
0.0230018 0.0155049 0 16756.4
0.0236307 0.0159291 0 16452.5
0.0242741 0.0163629 0 16263.7
0.0249322 0.0168068 0 16152.8
0.0256053 0.0172608 0 16057.1
0.0262939 0.0177251 0 15952.4
0.0269981 0.0182 0 15886.4
0.0277183 0.0186857 0 15897.7
0.0284548 0.0191825 0 15928
0.029208 0.0196904 0 15896.7
0.0299782 0.0202098 0 15828.4
0.0307658 0.0207409 0 15784.9
0.031571 0.021284 0 15812.8
0.0323942 0.0218393 0 15813
0.033236 0.0224069 0 15747.9
0.0340965 0.0229872 0 15652.2
0.0349762 0.0235805 0 15590.8
0.0358753 0.0241869 0 15582.4
0.0367944 0.0248067 0 15556.8
0.0377338 0.0254403 0 15467.8
0.0386938 0.0260877 0 15372.2
0.039675 0.0267494 0 15315.7
0.0406776 0.0274256 0 15323.1
0.0417021 0.0281165 0 15372.3
0.0427488 0.0288225 0 15368.8
0.0438183 0.0295437 0 15308.2
0.0449109 0.0302805 0 15225.8
0.046027 0.0310332 0 15150.3
0.0471671 0.0318021 0 15099.7
0.0483315 0.0325874 0 15073.7
0.0495209 0.0333895 0 15049.3
0.0507354 0.0342086 0 15008
0.0519756 0.035045 0 14948.3
0.053242 0.0358991 0 14888.4
0.054535 0.036771 0 14843.8
0.0558549 0.0376613 0 14809.2
0.0572024 0.03857 0 14775.7
0.0585778 0.0394976 0 14736.7
0.0599816 0.0404443 0 14697
0.0614142 0.0414105 0 14674.1
0.0628761 0.0423964 0 14664.2
0.0643678 0.0434024 0 14658.6
0.0658897 0.0444287 0 14641.4
0.0674422 0.0454758 0 14605.7
0.069026 0.0465439 0 14558.9
0.0706413 0.0476333 0 14511.6
0.0722886 0.0487443 0 14480.8
0.0739685 0.0498771 0 14467
0.0756813 0.0510323 0 14468.1
0.0774275 0.05221 0 14468
0.0792077 0.0534105 0 14454.3
0.0810221 0.0546342 0 14438.9
0.0828712 0.0558812 0 14425.6
0.0847556 0.0571521 0 14415.2
0.0866757 0.058447 0 14395.7
0.0886318 0.0597661 0 14362.8
0.0906244 0.06111 0 14330.5
0.0926539 0.0624787 0 14309.2
0.0947207 0.0638726 0 14296.8
0.0968252 0.0652919 0 14294
0.0989682 0.066737 0 14307
0.101149 0.068208 0 14330.4
0.103369 0.0697052 0 14345.6
0.105629 0.0712289 0 14322.4
0.107928 0.0727794 0 14285.8
0.110267 0.0743568 0 14218.8
0.112646 0.0759614 0 14165.4
0.115066 0.0775934 0 14124.2
0.117527 0.079253 0 14122.4
0.120029 0.0809404 0 14151.7
0.122572 0.0826558 0 14194.8
0.125158 0.0843994 0 14203.6
0.127785 0.0861713 0 14177.3
0.130454 0.0879717 0 14122.1
0.133167 0.0898008 0 14097.8
0.135921 0.0916586 0 14091.9
0.138719 0.0935453 0 14109.6
0.141559 0.095461 0 14095.9
0.144443 0.0974057 0 14078.6
0.14737 0.0993798 0 14069.6
0.15034 0.101383 0 14073
0.153354 0.103415 0 14098.1
0.156411 0.105477 0 14095.7
0.159511 0.107568 0 14051
0.162655 0.109688 0 14035.9
0.165842 0.111837 0 14051.6
0.169073 0.114016 0 14079.9
0.172346 0.116223 0 14125.3
0.175663 0.118461 0 14112.2
0.179022 0.120727 0 14074
0.182425 0.123021 0 14093
0.18587 0.125344 0 14126.5
0.189357 0.127696 0 14143.5
0.192886 0.130076 0 14130.1
0.196457 0.132484 0 14080.8
0.200069 0.13492 0 14072.6
0.203722 0.137384 0 14118.6
0.207416 0.139875 0 14171.2
0.21115 0.142393 0 14182.9
0.214924 0.144938 0 14152.5
0.218736 0.147509 0 14086.2
0.222587 0.150107 0 14072.6
0.226476 0.152729 0 14101.9
0.230403 0.155377 0 14133.6
0.234366 0.15805 0 14120
0.238366 0.160748 0 14053.7
0.242401 0.163469 0 13978.3
0.24647 0.166214 0 13995.7
0.250573 0.168981 0 14041.2
0.25471 0.17177 0 14082.5
0.258878 0.174582 0 14062.5
0.263078 0.177414 0 14001.3
0.267309 0.180266 0 13897.6
0.271568 0.183139 0 13876.5
0.275856 0.186031 0 13894.2
0.280172 0.188942 0 13928.9
0.284514 0.19187 0 13921.1
0.288881 0.194815 0 13908.2
0.293272 0.197777 0 13867.1
0.297687 0.200754 0 13824.7
0.302124 0.203746 0 13867.5
0.306581 0.206752 0 13935.4
0.311058 0.209772 0 13988.1
0.315554 0.212804 0 13991.1
0.320067 0.215847 0 13898.6
0.324595 0.218901 0 13810.1
0.329138 0.221965 0 13685.9
0.333695 0.225038 0 13596.7
0.338264 0.228119 0 13548.4
0.342843 0.231208 0 13533
0.347432 0.234302 0 13536.3
0.352029 0.237402 0 13549
0.356632 0.240507 0 13579.9
0.361241 0.243616 0 13630.5
0.365854 0.246727 0 13680.2
0.370469 0.249839 0 13722.2
0.375085 0.252953 0 13740.5
0.379702 0.256066 0 13725.1
0.384317 0.259178 0 13703.4
0.388929 0.262289 0 13688.2
0.393537 0.265396 0 13735.6
0.398139 0.2685 0 13785.1
0.402734 0.271598 0 13829
0.407321 0.274692 0 13845.7
0.411898 0.277779 0 13799.9
0.416464 0.280858 0 13697.5
0.421017 0.283929 0 13582.8
0.425557 0.286991 0 13488.3
0.430082 0.290042 0 13436
0.434591 0.293083 0 13391.6
0.439082 0.296112 0 13420
0.443555 0.299128 0 13438.3
0.448008 0.302131 0 13510.3
0.45244 0.30512 0 13540.1
0.456849 0.308094 0 13537.7
0.461235 0.311052 0 13562.6
0.465596 0.313993 0 13574.5
0.469932 0.316917 0 13600.7
0.474241 0.319823 0 13597
0.478523 0.322711 0 13608.7
0.482776 0.325579 0 13647
0.486999 0.328427 0 13662.6
0.491191 0.331254 0 13669.1
0.495353 0.334061 0 13789.9
