# wallHeatFlux  FACE_DATA 398
# x  y  z  wallHeatFlux
-0.7975 -7.61524e-06 0 -177986
-0.79239 -7.61524e-06 0 -35259.9
-0.787056 -7.61524e-06 0 -21449
-0.781492 -7.61524e-06 0 -17060.8
-0.775691 -7.61524e-06 0 -14367.9
-0.769649 -7.61524e-06 0 -12660.2
-0.763361 -7.61524e-06 0 -11529
-0.756822 -7.61524e-06 0 -10704.8
-0.750025 -7.61524e-06 0 -10087.9
-0.742968 -7.61524e-06 0 -9609.58
-0.735648 -7.61524e-06 0 -9295.6
-0.72806 -7.61524e-06 0 -9141.01
-0.720203 -7.61524e-06 0 -9300.78
-0.712075 -7.61524e-06 0 -9770.18
-0.703676 -7.61524e-06 0 -10432.2
-0.695006 -7.61524e-06 0 -11121.6
-0.686065 -7.61524e-06 0 -11689.2
-0.676855 -7.61524e-06 0 -12123.9
-0.667379 -7.61524e-06 0 -12430.8
-0.657641 -7.61524e-06 0 -12641.8
-0.647644 -7.61524e-06 0 -12777.6
-0.637398 -7.61524e-06 0 -12854.4
-0.626906 -7.61524e-06 0 -12888.9
-0.616179 -7.61524e-06 0 -12895.4
-0.605225 -7.61524e-06 0 -12870.1
-0.594054 -7.61524e-06 0 -12822.8
-0.582677 -7.61524e-06 0 -12774.7
-0.57111 -7.61524e-06 0 -12726.2
-0.559364 -7.61524e-06 0 -12666.7
-0.547454 -7.61524e-06 0 -12601.1
-0.535396 -7.61524e-06 0 -12535.2
-0.523205 -7.61524e-06 0 -12478.9
-0.510901 -7.61524e-06 0 -12422.7
-0.498499 -7.61524e-06 0 -12365.4
-0.486021 -7.61524e-06 0 -12323.8
-0.473482 -7.61524e-06 0 -12292.5
-0.460905 -7.61524e-06 0 -12255
-0.448307 -7.61524e-06 0 -12212
-0.435709 -7.61524e-06 0 -12168.4
-0.42313 -7.61524e-06 0 -12140.3
-0.41059 -7.61524e-06 0 -12138.7
-0.39811 -7.61524e-06 0 -12142.1
-0.385706 -7.61524e-06 0 -12134.1
-0.373398 -7.61524e-06 0 -12104.7
-0.361205 -7.61524e-06 0 -12074.9
-0.349142 -7.61524e-06 0 -12055.4
-0.337226 -7.61524e-06 0 -12051.9
-0.325475 -7.61524e-06 0 -12075.1
-0.313901 -7.61524e-06 0 -12103.5
-0.30252 -7.61524e-06 0 -12110.3
-0.291343 -7.61524e-06 0 -12106.5
-0.280381 -7.61524e-06 0 -12070.6
-0.269647 -7.61524e-06 0 -12029.1
-0.259148 -7.61524e-06 0 -11998.4
-0.248893 -7.61524e-06 0 -11978.9
-0.23889 -7.61524e-06 0 -11986.3
-0.229143 -7.61524e-06 0 -12015
-0.219659 -7.61524e-06 0 -12054.8
-0.210441 -7.61524e-06 0 -12099.9
-0.201491 -7.61524e-06 0 -12129.8
-0.192812 -7.61524e-06 0 -12153.7
-0.184405 -7.61524e-06 0 -12157.4
-0.176269 -7.61524e-06 0 -12149.9
-0.168404 -7.61524e-06 0 -12132.1
-0.160809 -7.61524e-06 0 -12109.1
-0.15348 -7.61524e-06 0 -12070.9
-0.146415 -7.61524e-06 0 -12032.9
-0.13961 -7.61524e-06 0 -11999.8
-0.133063 -7.61524e-06 0 -11972.7
-0.126767 -7.61524e-06 0 -11951.1
-0.120717 -7.61524e-06 0 -11935.1
-0.11491 -7.61524e-06 0 -11929.9
-0.109339 -7.61524e-06 0 -11935.6
-0.103997 -7.61524e-06 0 -11946.5
-0.0988804 -7.61524e-06 0 -11953.1
-0.0939809 -7.61524e-06 0 -11969.7
-0.0892928 -7.61524e-06 0 -11992
-0.0848096 -7.61524e-06 0 -12019.8
-0.0805248 -7.61524e-06 0 -12042.3
-0.0764317 -7.61524e-06 0 -12064.9
-0.0725237 -7.61524e-06 0 -12087.5
-0.0687943 -7.61524e-06 0 -12105
-0.065237 -7.61524e-06 0 -12116.9
-0.0618454 -7.61524e-06 0 -12129.2
-0.058613 -7.61524e-06 0 -12141.2
-0.0555337 -7.61524e-06 0 -12153.5
-0.0526013 -7.61524e-06 0 -12165.7
-0.0498099 -7.61524e-06 0 -12172.6
-0.0471536 -7.61524e-06 0 -12179.5
-0.0446266 -7.61524e-06 0 -12186.4
-0.0422235 -7.61524e-06 0 -12187.9
-0.0399389 -7.61524e-06 0 -12189.5
-0.0377676 -7.61524e-06 0 -12196.3
-0.0357044 -7.61524e-06 0 -12198
-0.0337445 -7.61524e-06 0 -12194.1
-0.0318832 -7.61524e-06 0 -12195.7
-0.0301159 -7.61524e-06 0 -12191.8
-0.0284383 -7.61524e-06 0 -12193.4
-0.0268462 -7.61524e-06 0 -12189.6
-0.0253353 -7.61524e-06 0 -12191.1
-0.023902 -7.61524e-06 0 -12203.4
-0.0225425 -7.61524e-06 0 -12773.4
-0.0212532 -7.61524e-06 0 -16525.9
-0.0200306 -7.61524e-06 0 -19731.5
-0.0188715 -7.61524e-06 0 -17098.9
-0.0177727 -7.61524e-06 0 -15560.7
-0.0167313 -7.61524e-06 0 -15890.3
-0.0157444 -7.61524e-06 0 -17052.2
-0.0148093 -7.61524e-06 0 -18010.1
-0.0139232 -7.61524e-06 0 -18749.2
-0.0130838 -7.61524e-06 0 -19385.1
-0.0122887 -7.61524e-06 0 -19936.9
-0.0115355 -7.61524e-06 0 -20401.8
-0.0108223 -7.61524e-06 0 -20797.5
-0.0101469 -7.61524e-06 0 -21134.4
-0.00950727 -7.61524e-06 0 -21434.1
-0.00890169 -7.61524e-06 0 -21658.8
-0.00832834 -7.61524e-06 0 -21781.7
-0.00778557 -7.61524e-06 0 -21835
-0.00727176 -7.61524e-06 0 -21840.4
-0.00678541 -7.61524e-06 0 -21775.9
-0.00632507 -7.61524e-06 0 -21647.7
-0.00588937 -7.61524e-06 0 -21525
-0.00547703 -7.61524e-06 0 -21462.2
-0.00508681 -7.61524e-06 0 -21491.7
-0.00471753 -7.61524e-06 0 -21651.6
-0.0043681 -7.61524e-06 0 -21974.3
-0.00403746 -7.61524e-06 0 -22482.1
-0.00372461 -7.61524e-06 0 -23148.8
-0.0034286 -7.61524e-06 0 -23969.4
-0.00314855 -7.61524e-06 0 -24917.7
-0.00288361 -7.61524e-06 0 -25968.6
-0.00263295 -7.61524e-06 0 -27100.8
-0.00239582 -7.61524e-06 0 -28289.9
-0.00217149 -7.61524e-06 0 -29510.3
-0.00195929 -7.61524e-06 0 -30716.5
-0.00175856 -7.61524e-06 0 -31895.4
-0.00156869 -7.61524e-06 0 -32964
-0.00138908 -7.61524e-06 0 -33960.6
-0.00121921 -7.61524e-06 0 -34825.2
-0.00105853 -7.61524e-06 0 -35584.7
-0.000906546 -7.61524e-06 0 -35946.9
-0.000762803 -7.61524e-06 0 -35873.6
-0.000626849 -7.61524e-06 0 -35241.9
-0.000498266 -7.61524e-06 0 -33880.7
-0.000376656 -7.61524e-06 0 -31595
-0.000261642 -7.61524e-06 0 -28171.4
-0.00015287 -7.61524e-06 0 -23245.9
-5e-05 -7.61524e-06 0 -15803.7
4.14596e-05 2.03453e-05 0 -14810.7
0.000125379 7.69412e-05 0 -18495
0.000211356 0.000134924 0 -20793.8
0.000299438 0.000194328 0 -22646.1
0.000389678 0.000255186 0 -24264.7
0.000482128 0.000317535 0 -25726.7
0.000576841 0.000381409 0 -27071.3
0.000673871 0.000446848 0 -28299.4
0.000773276 0.000513887 0 -29421.4
0.000875112 0.000582565 0 -30437.8
0.000979439 0.000652924 0 -31358.2
0.00108632 0.000725003 0 -32200.4
0.00119581 0.000798843 0 -32946.7
0.00130797 0.000874487 0 -33665.4
0.00142287 0.000951979 0 -34339.8
0.00154058 0.00103136 0 -34974.3
0.00166117 0.00111268 0 -35571.4
0.00178469 0.00119599 0 -36163.1
0.00191123 0.00128133 0 -36754.7
0.00204085 0.00136875 0 -37345.8
0.00217364 0.0014583 0 -37947.1
0.00230966 0.00155003 0 -38559.3
0.00244899 0.001644 0 -39191.7
0.00259171 0.00174025 0 -39851.3
0.00273791 0.00183885 0 -40538.3
0.00288767 0.00193985 0 -41262.3
0.00304108 0.0020433 0 -42020.7
0.0031982 0.00214927 0 -42815.3
0.00335915 0.00225781 0 -43662.8
0.003524 0.002369 0 -44563.8
0.00369286 0.00248287 0 -45512.9
0.00386582 0.00259951 0 -46523.3
0.00404297 0.00271899 0 -47603.1
0.00422442 0.00284136 0 -48744.5
0.00441026 0.00296669 0 -49967.4
0.0046006 0.00309506 0 -51275
0.00479556 0.00322653 0 -52664.1
0.00499523 0.00336119 0 -54158.6
0.00519972 0.00349911 0 -55747.4
0.00540916 0.00364036 0 -57458.5
0.00562366 0.00378501 0 -59281.1
0.00584334 0.00393316 0 -61236.7
0.00606831 0.00408489 0 -63340.9
0.00629871 0.00424027 0 -65588.7
0.00653466 0.0043994 0 -68017.1
0.00677629 0.00456236 0 -70628.5
0.00702374 0.00472923 0 -73440
0.00727714 0.00490013 0 -76487.7
0.00753663 0.00507513 0 -79780.3
0.00780234 0.00525433 0 -83368.7
0.00807444 0.00543783 0 -87262.3
0.00835306 0.00562573 0 -91504.9
0.00863835 0.00581814 0 -96138
0.00893047 0.00601514 0 -101156
0.00922958 0.00621687 0 -106582
0.00953584 0.00642341 0 -112446
0.00984939 0.00663489 0 -118791
0.0101705 0.00685141 0 -125586
0.0104992 0.00707309 0 -132883
0.0108357 0.00730005 0 -140656
0.0111802 0.00753241 0 -148852
0.011533 0.0077703 0 -157518
0.0118941 0.00801384 0 -166888
0.0122638 0.00826316 0 -177083
0.0126422 0.00851837 0 -188003
0.0130296 0.00877964 0 -200001
0.0134262 0.00904708 0 -213299
0.0138321 0.00932084 0 -227865
0.0142476 0.00960107 0 -243504
0.0146729 0.00988792 0 -260882
0.0151082 0.0101815 0 -279461
0.0155538 0.0104819 0 -299242
0.0160098 0.0107895 0 -320471
0.0164766 0.0111042 0 -341937
0.0169542 0.0114263 0 -363887
0.0174429 0.011756 0 -383026
0.0179431 0.0120934 0 -401570
0.018455 0.0124386 0 -414138
0.0189789 0.0127918 0 -411280
0.0195149 0.0131533 0 -395819
0.0200633 0.0135232 0 -377231
0.0206245 0.0139016 0 -356452
0.0211986 0.0142888 0 -333365
0.0217861 0.014685 0 -312068
0.022387 0.0150903 0 -291867
0.0230018 0.0155049 0 -274896
0.0236307 0.0159291 0 -262098
0.0242741 0.0163629 0 -252002
0.0249322 0.0168068 0 -244753
0.0256053 0.0172608 0 -237982
0.0262939 0.0177251 0 -231562
0.0269981 0.0182 0 -225383
0.0277183 0.0186857 0 -223620
0.0284548 0.0191825 0 -223137
0.029208 0.0196904 0 -221266
0.0299782 0.0202098 0 -216475
0.0307658 0.0207409 0 -212381
0.031571 0.021284 0 -211278
0.0323942 0.0218393 0 -210991
0.033236 0.0224069 0 -208615
0.0340965 0.0229872 0 -204511
0.0349762 0.0235805 0 -199821
0.0358753 0.0241869 0 -197824
0.0367944 0.0248067 0 -196425
0.0377338 0.0254403 0 -193817
0.0386938 0.0260877 0 -191065
0.039675 0.0267494 0 -188827
0.0406776 0.0274256 0 -188818
0.0417021 0.0281165 0 -190209
0.0427488 0.0288225 0 -189980
0.0438183 0.0295437 0 -188475
0.0449109 0.0302805 0 -185965
0.046027 0.0310332 0 -183298
0.0471671 0.0318021 0 -181489
0.0483315 0.0325874 0 -180762
0.0495209 0.0333895 0 -180081
0.0507354 0.0342086 0 -179079
0.0519756 0.035045 0 -177313
0.053242 0.0358991 0 -175741
0.054535 0.036771 0 -174559
0.0558549 0.0376613 0 -174050
0.0572024 0.03857 0 -173987
0.0585778 0.0394976 0 -173552
0.0599816 0.0404443 0 -172901
0.0614142 0.0414105 0 -172562
0.0628761 0.0423964 0 -172711
0.0643678 0.0434024 0 -172884
0.0658897 0.0444287 0 -173090
0.0674422 0.0454758 0 -172859
0.069026 0.0465439 0 -172189
0.0706413 0.0476333 0 -171524
0.0722886 0.0487443 0 -171558
0.0739685 0.0498771 0 -172051
0.0756813 0.0510323 0 -172931
0.0774275 0.05221 0 -173956
0.0792077 0.0534105 0 -174623
0.0810221 0.0546342 0 -175150
0.0828712 0.0558812 0 -175789
0.0847556 0.0571521 0 -176423
0.0866757 0.058447 0 -176868
0.0886318 0.0597661 0 -177007
0.0906244 0.06111 0 -176930
0.0926539 0.0624787 0 -177175
0.0947207 0.0638726 0 -177757
0.0968252 0.0652919 0 -178488
0.0989682 0.066737 0 -177642
0.101149 0.068208 0 -178389
0.103369 0.0697052 0 -178269
0.105629 0.0712289 0 -180994
0.107928 0.0727794 0 -178682
0.110267 0.0743568 0 -178807
0.112646 0.0759614 0 -175939
0.115066 0.0775934 0 -177929
0.117527 0.079253 0 -175178
0.120029 0.0809404 0 -176264
0.122572 0.0826558 0 -176883
0.125158 0.0843994 0 -177222
0.127785 0.0861713 0 -177833
0.130454 0.0879717 0 -176803
0.133167 0.0898008 0 -175858
0.135921 0.0916586 0 -175179
0.138719 0.0935453 0 -174854
0.141559 0.095461 0 -175543
0.144443 0.0974057 0 -171934
0.14737 0.0993798 0 -169707
0.15034 0.101383 0 -170812
0.153354 0.103415 0 -170869
0.156411 0.105477 0 -170163
0.159511 0.107568 0 -172097
0.162655 0.109688 0 -169021
0.165842 0.111837 0 -170000
0.169073 0.114016 0 -175264
0.172346 0.116223 0 -170184
0.175663 0.118461 0 -169115
0.179022 0.120727 0 -175326
0.182425 0.123021 0 -168727
0.18587 0.125344 0 -167304
0.189357 0.127696 0 -168716
0.192886 0.130076 0 -169096
0.196457 0.132484 0 -171055
0.200069 0.13492 0 -169615
0.203722 0.137384 0 -165946
0.207416 0.139875 0 -166892
0.21115 0.142393 0 -168968
0.214924 0.144938 0 -167396
0.218736 0.147509 0 -167264
0.222587 0.150107 0 -163693
0.226476 0.152729 0 -164774
0.230403 0.155377 0 -165771
0.234366 0.15805 0 -165378
0.238366 0.160748 0 -162306
0.242401 0.163469 0 -164584
0.24647 0.166214 0 -163606
0.250573 0.168981 0 -161950
0.25471 0.17177 0 -162547
0.258878 0.174582 0 -164473
0.263078 0.177414 0 -162754
0.267309 0.180266 0 -169564
0.271568 0.183139 0 -158123
0.275856 0.186031 0 -159637
0.280172 0.188942 0 -160989
0.284514 0.19187 0 -169513
0.288881 0.194815 0 -163032
0.293272 0.197777 0 -159258
0.297687 0.200754 0 -167292
0.302124 0.203746 0 -160195
0.306581 0.206752 0 -162240
0.311058 0.209772 0 -163359
0.315554 0.212804 0 -165547
0.320067 0.215847 0 -173350
0.324595 0.218901 0 -161334
0.329138 0.221965 0 -158855
0.333695 0.225038 0 -156259
0.338264 0.228119 0 -154413
0.342843 0.231208 0 -153979
0.347432 0.234302 0 -151666
0.352029 0.237402 0 -153311
0.356632 0.240507 0 -150918
0.361241 0.243616 0 -149112
0.365854 0.246727 0 -150579
0.370469 0.249839 0 -154880
0.375085 0.252953 0 -157188
0.379702 0.256066 0 -152983
0.384317 0.259178 0 -152734
0.388929 0.262289 0 -150637
0.393537 0.265396 0 -150256
0.398139 0.2685 0 -153632
0.402734 0.271598 0 -157271
0.407321 0.274692 0 -158033
0.411898 0.277779 0 -159361
0.416464 0.280858 0 -157817
0.421017 0.283929 0 -155036
0.425557 0.286991 0 -154688
0.430082 0.290042 0 -150684
0.434591 0.293083 0 -151918
0.439082 0.296112 0 -139511
0.443555 0.299128 0 -146734
0.448008 0.302131 0 -144850
0.45244 0.30512 0 -144470
0.456849 0.308094 0 -157768
0.461235 0.311052 0 -150588
0.465596 0.313993 0 -148734
0.469932 0.316917 0 -141629
0.474241 0.319823 0 -141126
0.478523 0.322711 0 -141565
0.482776 0.325579 0 -141028
0.486999 0.328427 0 -143659
0.491191 0.331254 0 -157228
0.495353 0.334061 0 -139310
