# y+ ()       
# Time        	patch         	min           	max           	average       
0             	base	1.543910e-03	1.890808e-03	1.736268e-03
