# y+ ()       
# Time        	patch         	min           	max           	average       
8800          	base	2.514331e-07	4.327501e-02	4.102763e-03
