/*--------------------------------*- C++ -*----------------------------------*\
| =========                 |                                                 |
| \\      /  F ield         | OpenFOAM: The Open Source CFD Toolbox           |
|  \\    /   O peration     | Version:  v2012                                 |
|   \\  /    A nd           | Website:  www.openfoam.com                      |
|    \\/     M anipulation  |                                                 |
\*---------------------------------------------------------------------------*/
FoamFile
{
    version     2.0;
    format      ascii;
    class       volScalarField;
    location    "1";
    object      nuTilda;
}
// * * * * * * * * * * * * * * * * * * * * * * * * * * * * * * * * * * * * * //

dimensions      [0 2 -1 0 0 0 0];


internalField   uniform 5.9e-05;

boundaryField
{
    intPatch
    {
        type            zeroGradient;
    }
    wing
    {
        type            boundaryCorrectedFixedValue;
        value           uniform 0;
    }
    symm
    {
        type            symmetry;
    }
    farfield
    {
        type            inletOutlet;
        inletValue      uniform 5.9e-05;
        value           uniform 5.9e-05;
    }
}


// ************************************************************************* //
