/*--------------------------------*- C++ -*----------------------------------*\
| =========                 |                                                 |
| \\      /  F ield         | OpenFOAM: The Open Source CFD Toolbox           |
|  \\    /   O peration     | Version:  v2012                                 |
|   \\  /    A nd           | Website:  www.openfoam.com                      |
|    \\/     M anipulation  |                                                 |
\*---------------------------------------------------------------------------*/
FoamFile
{
    version     2.0;
    format      ascii;
    class       volScalarField;
    location    "1";
    object      V;
}
// * * * * * * * * * * * * * * * * * * * * * * * * * * * * * * * * * * * * * //

dimensions      [0 3 0 0 0 0 0];


internalField   nonuniform List<scalar> 
294912
(
0.722181
0.487903
0.717266
0.619949
0.326949
0.487273
0.421748
0.71224
0.618413
0.52829
0.219586
0.327758
0.281534
0.486192
0.422598
0.36174
0.709986
0.616605
0.528737
0.445996
0.149031
0.220577
0.18729
0.328037
0.282903
0.240838
0.487112
0.422887
0.363358
0.307258
0.71035
0.616932
0.528781
0.447512
0.37242
0.102895
0.149761
0.125589
0.221087
0.188455
0.159005
0.329478
0.283685
0.242417
0.20423
0.489807
0.42468
0.364322
0.309192
0.25803
0.711032
0.619229
0.530417
0.448559
0.37443
0.30717
0.0726175
0.103286
0.085616
0.150101
0.126364
0.105564
0.222154
0.18912
0.160176
0.134046
0.331857
0.2853
0.243365
0.205816
0.171383
0.492224
0.427771
0.366361
0.310429
0.260006
0.213951
0.71204
0.621518
0.533479
0.450755
0.375951
0.309316
0.249968
0.0525244
0.0727226
0.0596829
0.103372
0.0860279
0.071184
0.150635
0.126752
0.106299
0.0882737
0.223582
0.190154
0.160837
0.135135
0.111998
0.333698
0.287571
0.24487
0.206755
0.172861
0.142119
0.494426
0.430436
0.369308
0.31239
0.26129
0.215814
0.174978
0.713414
0.623794
0.536327
0.453964
0.378281
0.310994
0.252035
0.200522
0.0389512
0.0524301
0.0426782
0.0725952
0.0598232
0.0490839
0.103464
0.08615
0.0715704
0.0589836
0.151201
0.127241
0.106653
0.0889324
0.0732849
0.224421
0.191405
0.161712
0.13572
0.112966
0.0926009
0.335074
0.289262
0.246799
0.208034
0.173712
0.143434
0.116333
0.496511
0.432743
0.371739
0.314962
0.263038
0.217029
0.176646
0.141028
0.715198
0.62613
0.538946
0.456815
0.381319
0.313238
0.253686
0.202397
0.158498
0.0295682
0.0387367
0.031323
0.0521578
0.042637
0.0347346
0.0723916
0.0597488
0.0492256
0.0402899
0.103438
0.0862422
0.0716816
0.0593249
0.048605
0.151237
0.127705
0.107034
0.089224
0.0738531
0.060304
0.22474
0.192093
0.162688
0.136401
0.113453
0.0934333
0.0756742
0.336085
0.29047
0.248142
0.20956
0.174745
0.144172
0.117466
0.0939147
0.498557
0.434809
0.373741
0.316981
0.265177
0.218525
0.177731
0.142467
0.111975
0.717391
0.628553
0.541423
0.459337
0.383938
0.315965
0.255734
0.203912
0.160118
0.123484
0.022911
0.0292918
0.0235583
0.0383842
0.0311756
0.0252464
0.051783
0.0424377
0.03472
0.0282496
0.0720204
0.0595922
0.0491708
0.0404194
0.0329405
0.10298
0.0862078
0.0717344
0.0594098
0.0488958
0.0397637
0.150805
0.127694
0.107351
0.0894892
0.0740806
0.0607831
0.0491198
0.224626
0.192295
0.163137
0.137101
0.113956
0.0938275
0.0763731
0.0610646
0.336823
0.29129
0.249007
0.210528
0.175904
0.144987
0.118085
0.0948649
0.0747382
0.500648
0.436713
0.375428
0.318549
0.266775
0.220257
0.178984
0.143405
0.113172
0.0876079
0.720001
0.631095
0.543787
0.461591
0.386182
0.318276
0.2581
0.205709
0.161452
0.124839
0.0950155
0.0180576
0.0226133
0.0181045
0.0289073
0.0233563
0.0188206
0.0379297
0.0309094
0.0251421
0.0203538
0.0512447
0.0421437
0.0345647
0.0282479
0.0229148
0.0713162
0.0592828
0.0490295
0.0403708
0.0330525
0.0267781
0.102139
0.085798
0.0716588
0.0594182
0.0489536
0.0400057
0.0322501
0.14997
0.127261
0.107241
0.089665
0.0742488
0.0609555
0.0495153
0.0395617
0.224171
0.192098
0.163143
0.137322
0.114428
0.0941893
0.0766866
0.0616394
0.0486241
0.337364
0.291823
0.249489
0.21104
0.176551
0.145846
0.118717
0.0953747
0.0755146
0.0586345
0.50284
0.438542
0.376892
0.31977
0.26792
0.221489
0.180367
0.144433
0.113959
0.0885793
0.0676513
0.723018
0.633772
0.546116
0.463632
0.388102
0.32019
0.260078
0.207722
0.162985
0.125972
0.0961192
0.072558
0.0144261
0.0177631
0.0141662
0.0222295
0.0178823
0.0143485
0.0284325
0.0230633
0.01867
0.01505
0.0373323
0.0305539
0.0249345
0.020278
0.0163844
0.0504547
0.0417081
0.0343219
0.0281215
0.0229185
0.0185069
0.0703156
0.0586887
0.0487503
0.0402355
0.0330054
0.0268717
0.0216121
0.100969
0.0850546
0.0712563
0.0593015
0.0489271
0.0400414
0.0324481
0.0258999
0.148816
0.12648
0.106761
0.0894637
0.0743159
0.0610509
0.0496439
0.0398828
0.0314802
0.223447
0.191587
0.162789
0.137149
0.114474
0.0944889
0.0769414
0.0618864
0.0490895
0.0382
0.337822
0.292149
0.249695
0.211193
0.176767
0.146243
0.119345
0.0958628
0.0759262
0.0592545
0.0453965
0.505178
0.440354
0.378238
0.320752
0.268729
0.222288
0.181301
0.145531
0.114792
0.0892229
0.0684187
0.0517744
0.726436
0.636602
0.548429
0.465558
0.389779
0.32178
0.261688
0.209385
0.164666
0.127249
0.0970507
0.0734339
0.0555411
0.0116451
0.0141494
0.0112453
0.0173996
0.0139445
0.0111473
0.0217689
0.0175896
0.0141807
0.0113888
0.0278405
0.022694
0.0184429
0.0149364
0.012028
0.0365486
0.0300781
0.0246488
0.0201128
0.0163278
0.0131475
0.0494432
0.0410606
0.0339561
0.0279159
0.0228137
0.0185125
0.0148601
0.0690607
0.0578428
0.0482279
0.0399769
0.0328766
0.0268271
0.0216892
0.0172956
0.0995318
0.0840336
0.0705682
0.0589025
0.0487832
0.0399932
0.032468
0.0260594
0.0205753
0.147403
0.125424
0.105983
0.088945
0.0740546
0.0610445
0.0496915
0.0399784
0.0317374
0.024737
0.22255
0.190842
0.16216
0.136654
0.114166
0.0944174
0.0771216
0.0620656
0.0492814
0.0385667
0.0296222
0.338242
0.292356
0.249717
0.211094
0.17667
0.146257
0.119571
0.0963214
0.0763022
0.0595815
0.0458795
0.0347924
0.507705
0.4422
0.379512
0.321609
0.269311
0.222788
0.181855
0.146236
0.115658
0.0898868
0.0689305
0.0523668
0.0396009
0.730188
0.639576
0.550747
0.467378
0.391283
0.323122
0.262995
0.21073
0.166049
0.128623
0.0980889
0.0741837
0.0562275
0.0433578
0.00947339
0.0113936
0.00902708
0.0138168
0.0110364
0.00879313
0.0169727
0.0136674
0.0109791
0.00878845
0.0212158
0.0172335
0.0139546
0.0112609
0.00904093
0.0271127
0.0222283
0.0181513
0.0147584
0.011941
0.00959226
0.0356053
0.0294482
0.0242621
0.0198801
0.0161952
0.0131048
0.0105019
0.0482452
0.0402285
0.0334126
0.0276036
0.0226378
0.0184252
0.0148659
0.0118461
0.0676018
0.0567878
0.0474943
0.0395125
0.0326389
0.0267077
0.0216484
0.0173576
0.0137087
0.0978773
0.0827895
0.0696486
0.0582615
0.0483986
0.0398383
0.0324098
0.0260696
0.0207023
0.0161573
0.145806
0.124149
0.104969
0.0881712
0.0735204
0.060757
0.0496422
0.0399964
0.031808
0.0249384
0.0191948
0.221554
0.189928
0.161338
0.135929
0.113589
0.0940409
0.0769844
0.062168
0.0494067
0.0387153
0.0299066
0.0227182
0.338703
0.292499
0.249609
0.21084
0.176353
0.146
0.119468
0.0964385
0.0766353
0.0598666
0.0461334
0.0351598
0.02656
0.510425
0.444116
0.380777
0.322378
0.269767
0.223076
0.182136
0.146618
0.116193
0.0905589
0.0694509
0.0527639
0.0400518
0.0307224
0.734243
0.64268
0.553097
0.469149
0.39266
0.32428
0.264068
0.211796
0.167157
0.129753
0.0991975
0.0750132
0.0568219
0.0439011
0.0353837
0.00775055
0.00924978
0.00730812
0.0110965
0.00883692
0.00701949
0.0134328
0.0107831
0.00863439
0.00689084
0.0164743
0.013339
0.0107659
0.00866008
0.00693404
0.0205641
0.016802
0.0136762
0.0110849
0.00894268
0.00716829
0.026269
0.0216507
0.0177796
0.0145258
0.0118002
0.00952548
0.00762303
0.0345264
0.0286859
0.0237481
0.0195625
0.0160046
0.0129981
0.0104691
0.00833827
0.0468942
0.0392429
0.0327165
0.0271443
0.0223713
0.0182757
0.0147932
0.011851
0.00936394
0.0659775
0.0555616
0.0465884
0.0388725
0.0322288
0.0264939
0.0215409
0.0173214
0.0137578
0.0107515
0.0960748
0.081365
0.068541
0.05743
0.0478112
0.0394808
0.0322579
0.0260096
0.0207063
0.0162563
0.0125361
0.144103
0.122714
0.103782
0.0872032
0.0727743
0.06024
0.049357
0.039927
0.0318094
0.0249906
0.0193498
0.0147227
0.220528
0.188925
0.160372
0.135046
0.112818
0.0934345
0.0765896
0.0620052
0.0494607
0.0388028
0.0300182
0.0229326
0.0173052
0.339265
0.292639
0.249458
0.210478
0.175907
0.14556
0.119129
0.0962764
0.0766872
0.0601078
0.0463488
0.0353502
0.0268356
0.0204268
0.513359
0.446114
0.382069
0.323131
0.270142
0.223245
0.182236
0.146762
0.116457
0.0909622
0.0699698
0.0531641
0.040355
0.0310671
0.0247148
0.738531
0.64589
0.555486
0.470904
0.393961
0.325312
0.264963
0.212661
0.168029
0.130659
0.100104
0.0758866
0.0574742
0.0443674
0.0358268
0.0309835
0.00636706
0.00755501
0.00595409
0.00898891
0.00713898
0.00565527
0.0107578
0.00861097
0.00687495
0.00547165
0.0129933
0.0104887
0.00844007
0.00676952
0.00540675
0.0159031
0.0129525
0.0105111
0.00849498
0.00683533
0.00546825
0.0198279
0.0162899
0.0133363
0.0108657
0.00880486
0.0070925
0.005669
0.0253281
0.020978
0.0173165
0.014227
0.0116138
0.00941376
0.00757129
0.00602821
0.0333377
0.027813
0.0231252
0.0191404
0.0157433
0.0128423
0.0103832
0.00831287
0.00657205
0.0454276
0.0381316
0.0318944
0.0265583
0.021983
0.0180502
0.0146678
0.0117918
0.00936809
0.00733118
0.0642382
0.0542007
0.0455409
0.0380905
0.0316733
0.0261372
0.0213537
0.0172279
0.0137266
0.0107891
0.00833642
0.0941788
0.0798169
0.0672953
0.0564439
0.0470652
0.0389559
0.0319381
0.0258697
0.0206505
0.0162568
0.0126115
0.00961273
0.142361
0.121191
0.102465
0.0860949
0.0718728
0.0595462
0.0488803
0.0396633
0.0317351
0.0249833
0.0193865
0.0148392
0.011192
0.219554
0.187883
0.159335
0.134055
0.111921
0.0926734
0.0760034
0.0616274
0.0492975
0.0388271
0.0300784
0.0230142
0.0174641
0.0132
0.339976
0.292826
0.24929
0.210088
0.175379
0.145006
0.11864
0.0959198
0.0765086
0.0601218
0.046522
0.0355095
0.0269759
0.0206329
0.0161176
0.516479
0.448214
0.383411
0.323904
0.270504
0.223351
0.182228
0.146753
0.116517
0.0911442
0.0702659
0.0535526
0.040656
0.0312947
0.0249882
0.0211466
0.742975
0.649202
0.557928
0.472671
0.395231
0.32625
0.265734
0.213359
0.168725
0.131369
0.100825
0.0765978
0.0581489
0.0448726
0.0362047
0.0313748
0.0295226
0.00524585
0.00619796
0.0048736
0.00732872
0.00580617
0.00458813
0.0086943
0.00694086
0.0055268
0.00438768
0.010376
0.00835211
0.00670209
0.00536122
0.00427204
0.0125001
0.0101498
0.00821299
0.00661974
0.00531361
0.00424293
0.0152712
0.0125073
0.0102094
0.00829609
0.00670701
0.00539207
0.00430475
0.0190233
0.0157094
0.0129307
0.0105963
0.00863163
0.00698433
0.00561026
0.0044654
0.0243105
0.0202266
0.0167755
0.0138534
0.011373
0.00926428
0.00748275
0.00598802
0.00473689
0.0320681
0.0268505
0.0224118
0.0186285
0.0153961
0.0126278
0.0102564
0.00824419
0.00655216
0.00513512
0.0438781
0.0369259
0.0309706
0.0258697
0.0214914
0.0177248
0.0144795
0.011688
0.00931988
0.00733411
0.00567876
0.0624352
0.0527453
0.0443885
0.0371942
0.0310013
0.0256605
0.0210494
0.0170683
0.0136477
0.0107629
0.00836479
0.00638871
0.0922585
0.0781908
0.0659458
0.0553472
0.0461978
0.0382989
0.0314803
0.0255929
0.020528
0.0162075
0.0126095
0.00966906
0.00729476
0.14066
0.119625
0.10108
0.0848917
0.0708555
0.0587282
0.0482598
0.039242
0.0315031
0.0249127
0.0193749
0.0148642
0.0112774
0.0084787
0.218711
0.186869
0.158271
0.133011
0.110944
0.0918091
0.0752909
0.0610947
0.0489586
0.0386762
0.0300848
0.0230541
0.0175212
0.0133168
0.0102233
0.340875
0.293105
0.249168
0.209693
0.174834
0.144397
0.118058
0.0954346
0.0761659
0.0599488
0.0465104
0.0356296
0.0270884
0.0207346
0.0162752
0.0133506
0.519755
0.450442
0.384833
0.32472
0.270889
0.223452
0.18217
0.146648
0.11645
0.0911591
0.070383
0.0537648
0.0409393
0.0315183
0.0251672
0.0213837
0.0195815
0.747475
0.652555
0.560433
0.474483
0.39651
0.327166
0.266419
0.213945
0.169274
0.131923
0.101386
0.0771561
0.0586877
0.0453871
0.0366041
0.0316927
0.0299024
0.0303573
0.00433106
0.00510092
0.00400295
0.00600353
0.00474574
0.00374189
0.00707516
0.00563449
0.00447577
0.00354516
0.0083663
0.00671626
0.00537558
0.00428961
0.00341077
0.00995447
0.00805896
0.00650324
0.00522845
0.0041873
0.0033376
0.0119629
0.00976781
0.00795013
0.00644365
0.00519775
0.00417114
0.00332603
0.0145908
0.012013
0.00986017
0.00805943
0.00655125
0.00529204
0.00424582
0.00337812
0.0181659
0.0150731
0.0124698
0.0102738
0.0084177
0.00684732
0.00552533
0.00441979
0.00349827
0.0232379
0.0194126
0.0161708
0.0134169
0.0110715
0.00907052
0.00736322
0.00591806
0.00470554
0.00369337
0.030744
0.0258213
0.0216264
0.0180436
0.0149758
0.0123434
0.0100815
0.00814172
0.00649738
0.00511937
0.00397267
0.0422863
0.0356526
0.0299709
0.0251001
0.0209163
0.017315
0.0142096
0.0115327
0.00923522
0.00729516
0.00568042
0.00434889
0.0606221
0.0512362
0.0431598
0.0362141
0.0302386
0.025089
0.0206471
0.0168135
0.0135147
0.0106978
0.0083429
0.00640928
0.00484107
0.0903755
0.0765374
0.0645402
0.0541742
0.0452393
0.0375472
0.0309154
0.025203
0.0202947
0.0161036
0.0125673
0.00966496
0.00733538
0.00549683
0.139071
0.118087
0.0996627
0.0836357
0.0697712
0.0578195
0.0475365
0.0387048
0.0311435
0.0247149
0.0193117
0.0148505
0.011293
0.00854005
0.00646526
0.21806
0.185941
0.157238
0.131958
0.109938
0.0908897
0.0744996
0.0604563
0.0484911
0.0383842
0.0299523
0.0230489
0.0175452
0.0133563
0.0103093
0.00819803
0.341995
0.293534
0.249126
0.20935
0.174304
0.143786
0.117435
0.094876
0.0757193
0.0596417
0.0463485
0.0356023
0.0271667
0.0208126
0.0163503
0.0134816
0.0118508
0.523148
0.45276
0.386364
0.325633
0.271331
0.223577
0.182108
0.146503
0.116302
0.0910611
0.0703651
0.05383
0.0410798
0.0317202
0.0253346
0.0215321
0.0198099
0.0195883
0.751911
0.655915
0.562972
0.476359
0.397839
0.328088
0.267079
0.21446
0.169725
0.132353
0.101817
0.0775836
0.0590999
0.0457849
0.0369917
0.0320179
0.0301961
0.0307608
0.0328647
0.00358108
0.00420766
0.00329613
0.00493512
0.00389339
0.0030638
0.00578699
0.00459843
0.00364486
0.00288105
0.00679553
0.00544161
0.004345
0.0034595
0.00274522
0.00800832
0.00646533
0.00520359
0.00417372
0.00333561
0.00265415
0.00950059
0.00773416
0.00627704
0.00507499
0.00408492
0.00327239
0.00260627
0.0113912
0.00935035
0.00765272
0.00623898
0.00506071
0.00408123
0.00327052
0.00260095
0.0138738
0.0114795
0.00947144
0.00778448
0.00636504
0.00516987
0.00416769
0.00333242
0.00263873
0.0172711
0.0143938
0.011964
0.00990654
0.00816078
0.00667726
0.00541695
0.00435317
0.00346277
0.00272164
0.0221306
0.0185533
0.0155162
0.0129287
0.0107189
0.00882764
0.00720783
0.00582279
0.00465035
0.00366881
0.00285321
0.0293944
0.0247468
0.0207872
0.0174013
0.0144968
0.0119997
0.00984999
0.00800029
0.00641546
0.00507598
0.00396014
0.00303961
0.0406948
0.0343419
0.028918
0.0242691
0.0202764
0.0168374
0.0138709
0.0113113
0.00910895
0.00722695
0.00564935
0.00434927
0.00329135
0.0588426
0.049711
0.0418882
0.0351767
0.0294088
0.0244464
0.020168
0.0164796
0.013305
0.010589
0.00828981
0.00639096
0.0048552
0.00363372
0.0885915
0.0749083
0.0631061
0.0529567
0.044228
0.0367241
0.030273
0.0247285
0.0199697
0.0159112
0.0124813
0.00962949
0.00733006
0.00552504
0.00414144
0.137675
0.116625
0.0982706
0.0823659
0.0686518
0.0568612
0.0467453
0.0380824
0.0306885
0.0244157
0.0191487
0.0147956
0.0112783
0.00854893
0.00650906
0.00503968
0.217667
0.185168
0.156277
0.130941
0.108935
0.0899547
0.0736649
0.0597569
0.0479414
0.0379901
0.0297058
0.0229337
0.0175316
0.013368
0.0103354
0.00826591
0.00695465
0.343352
0.294127
0.249213
0.209097
0.173832
0.143196
0.116821
0.0942861
0.0752134
0.0592458
0.0460815
0.0354553
0.0271284
0.0208593
0.0164035
0.0135416
0.0119727
0.0113536
0.526564
0.45517
0.387998
0.326651
0.271868
0.22377
0.182078
0.146356
0.116117
0.0908952
0.0702522
0.0537852
0.0410994
0.0318021
0.0254741
0.0216644
0.0199518
0.0198362
0.0207442
0.756159
0.659207
0.565572
0.478313
0.399254
0.329064
0.267757
0.214944
0.170116
0.132698
0.102146
0.0778991
0.0593992
0.0460678
0.0372676
0.0323166
0.0304776
0.0310606
0.0333259
0.0364185
0.00296397
0.00347658
0.00271914
0.00406697
0.00320294
0.00251604
0.00475122
0.00376792
0.00298071
0.00235174
0.00554983
0.00443402
0.0035328
0.00280714
0.0022235
0.00649299
0.00522827
0.00419767
0.00335951
0.00267966
0.00212879
0.00762659
0.00619069
0.00501074
0.00404146
0.00324647
0.00259638
0.00206538
0.00902212
0.00738338
0.00602561
0.00489985
0.0039661
0.00319321
0.00255591
0.00203152
0.0107943
0.00890516
0.00732694
0.00600664
0.00490086
0.00397438
0.00320061
0.00255799
0.00202602
0.0131323
0.0109161
0.00905114
0.00747784
0.00614814
0.00502321
0.00407184
0.00327146
0.00260321
0.00204841
0.0163548
0.0136837
0.0114233
0.00950313
0.0078677
0.00647255
0.00528203
0.00426764
0.00341055
0.00269402
0.00209939
0.0210098
0.0176644
0.0148243
0.0124006
0.010325
0.00854349
0.00701293
0.00569874
0.00457501
0.00362549
0.00283398
0.00218097
0.0280505
0.0236503
0.0199115
0.0167153
0.0139717
0.0116087
0.00957079
0.00781352
0.00630219
0.00501092
0.00392605
0.00302934
0.00229809
0.0391413
0.0330251
0.0278332
0.0233967
0.0195875
0.0163081
0.0134783
0.0110349
0.00892989
0.0071257
0.00559505
0.0043243
0.00329064
0.00246348
0.0571607
0.048209
0.0406019
0.0341045
0.028537
0.0237515
0.0196317
0.0160843
0.013032
0.0104196
0.00820241
0.00634838
0.00483966
0.00364262
0.00271331
0.086996
0.073348
0.0616961
0.0517224
0.043182
0.0358588
0.0295772
0.0241894
0.0195776
0.0156467
0.0123262
0.00955935
0.00730024
0.00551886
0.00416036
0.00315532
0.136543
0.115313
0.096943
0.0811176
0.0675275
0.0558821
0.0459172
0.0374091
0.0301681
0.0240412
0.0189043
0.0146622
0.0112301
0.0085337
0.00651236
0.00507181
0.00409786
0.217592
0.184598
0.15545
0.129998
0.107971
0.0890324
0.0728274
0.0590265
0.047341
0.0375266
0.0293792
0.0227291
0.017432
0.0133488
0.0103397
0.00828503
0.00701404
0.00633379
0.344948
0.294915
0.249464
0.20897
0.173454
0.14267
0.116232
0.0937079
0.0746855
0.0588029
0.0457423
0.0352234
0.0269929
0.0208103
0.0164271
0.0135802
0.0120298
0.0114823
0.0115961
0.529942
0.45763
0.38976
0.327808
0.27254
0.224062
0.182113
0.146241
0.115933
0.090698
0.0700841
0.0536605
0.0410259
0.0317807
0.0255066
0.0217639
0.0200697
0.0199871
0.0210339
0.0226311
0.760078
0.662369
0.56818
0.480389
0.400781
0.330143
0.268485
0.21544
0.170475
0.132985
0.102395
0.0781225
0.0596034
0.046249
0.0374389
0.0324989
0.0307188
0.0313339
0.0336586
0.03696
0.0404034
0.00245498
0.00287577
0.0022462
0.00335773
0.00264024
0.00207082
0.00391152
0.00309653
0.00244541
0.0019262
0.00455102
0.00362852
0.00288537
0.00228849
0.00180972
0.00529527
0.00425356
0.00340748
0.00272159
0.00216698
0.0017189
0.00617281
0.00499697
0.00403428
0.00324655
0.00260292
0.00207842
0.00165142
0.00722715
0.00589703
0.00479916
0.0038928
0.00314446
0.00252765
0.00202083
0.00160518
0.00852641
0.00701294
0.00575358
0.00470454
0.00383009
0.003101
0.00249456
0.00199259
0.00157829
0.0101816
0.00843945
0.00697887
0.00575157
0.00471895
0.00384933
0.00311727
0.00250364
0.00199269
0.00156939
0.012378
0.0103324
0.00860671
0.00714574
0.00590572
0.00485202
0.00395641
0.00319632
0.00255567
0.00202088
0.00157769
0.0154334
0.0129551
0.0108575
0.00907172
0.00754568
0.006239
0.00511946
0.00416098
0.00334339
0.00265325
0.00207786
0.00160312
0.0198992
0.0167627
0.0141083
0.0118426
0.00989892
0.00822623
0.00678484
0.00554323
0.00447671
0.00356618
0.0028002
0.00216582
0.0016475
0.0267448
0.022553
0.0190167
0.0160012
0.013412
0.0111811
0.00925405
0.00758866
0.00615278
0.00492126
0.00387489
0.00300244
0.00228969
0.00171669
0.0376719
0.0317339
0.0267437
0.0224998
0.0188671
0.0157408
0.0130444
0.0107155
0.00870715
0.00698304
0.00551475
0.00428134
0.00327072
0.00246168
0.00182801
0.055637
0.0467742
0.039332
0.0330234
0.0276377
0.0230221
0.0190564
0.0156429
0.0127108
0.0102001
0.00806776
0.00627879
0.00480557
0.00362931
0.00271829
0.00203192
0.0856425
0.0719295
0.0603429
0.0505061
0.0421282
0.0349712
0.0288489
0.0236106
0.0191355
0.0153282
0.0121139
0.00943552
0.00724342
0.00549385
0.00415315
0.00316811
0.00247419
0.135761
0.114207
0.0957406
0.0799329
0.06643
0.0549037
0.0450753
0.0367098
0.0296078
0.0236141
0.0186006
0.0144654
0.0111215
0.00849198
0.00649704
0.00507243
0.00412359
0.00354207
0.217897
0.184286
0.154806
0.129179
0.107084
0.0881531
0.072006
0.0582972
0.0467208
0.0370237
0.0289971
0.0224608
0.0172622
0.0132614
0.0103178
0.00828415
0.00703049
0.00639286
0.00617817
0.346795
0.295936
0.249913
0.209008
0.17321
0.142243
0.115707
0.0931585
0.0741631
0.0583429
0.0453624
0.0349322
0.0267873
0.0206826
0.016369
0.0135888
0.0120638
0.0115446
0.0117445
0.0123282
0.533181
0.4601
0.391632
0.329143
0.273366
0.224492
0.18225
0.146184
0.115774
0.090499
0.0698831
0.0534833
0.0408831
0.031677
0.0254477
0.0217604
0.0201451
0.0201081
0.021214
0.0229796
0.024847
0.76351
0.665316
0.570777
0.482552
0.402476
0.331358
0.269318
0.215993
0.170846
0.133245
0.102593
0.0782802
0.0597273
0.0463443
0.0375114
0.0325733
0.0308342
0.0315515
0.0339463
0.037345
0.0410354
0.0442101
0.00203442
0.00238083
0.00185739
0.00277576
0.00217962
0.00170727
0.0032268
0.00255047
0.00201104
0.00158177
0.00374315
0.00297882
0.00236465
0.00187246
0.0014785
0.00433732
0.00347647
0.00277932
0.0022158
0.00176139
0.00139526
0.00502737
0.00405944
0.00326966
0.00262575
0.00210145
0.00167553
0.00132981
0.00583984
0.00475165
0.00385678
0.003121
0.00251607
0.00201938
0.00161265
0.00128003
0.00681578
0.0055892
0.00457253
0.00372925
0.00302949
0.00244877
0.00196772
0.00157077
0.00124404
0.0080204
0.0066284
0.0054657
0.00449286
0.00367806
0.00299514
0.00242292
0.00194502
0.00154819
0.00122013
0.00956178
0.00796037
0.0066142
0.00547866
0.0045188
0.00370671
0.00301945
0.0024386
0.00195046
0.0015436
0.0012069
0.0116235
0.00973735
0.00814563
0.00679435
0.00564307
0.00466046
0.00382147
0.00310566
0.00249697
0.00198391
0.00155632
0.00120346
0.0145238
0.0122204
0.0102764
0.00862015
0.00720141
0.00598231
0.00493375
0.00403227
0.00325954
0.00260071
0.00204621
0.00158638
0.00121004
0.0188214
0.0158654
0.0133811
0.0112654
0.00944908
0.00788327
0.00653037
0.00536128
0.00435349
0.00348889
0.00275388
0.00213948
0.00163554
0.00122896
0.0255112
0.0214811
0.0181206
0.0152708
0.0128301
0.0107265
0.00890782
0.00733363
0.00597334
0.00480309
0.00380439
0.00296247
0.00226869
0.00170949
0.0012683
0.0363347
0.0305012
0.0256688
0.0215992
0.0181282
0.0151486
0.0125813
0.0103635
0.0084504
0.00680551
0.00540202
0.00421837
0.00323713
0.00244565
0.00182552
0.00135192
0.0543325
0.0454565
0.0381161
0.0319545
0.0267328
0.022275
0.0184527
0.0151714
0.0123532
0.00994233
0.00789347
0.00617266
0.00475075
0.00360191
0.00270685
0.00203434
0.00154746
0.0846201
0.0706965
0.0590973
0.0493443
0.0410936
0.0340807
0.0281052
0.0230073
0.0186616
0.0149704
0.0118594
0.00926776
0.007145
0.00544767
0.00413165
0.00316094
0.00248292
0.00203637
0.135392
0.113374
0.0947071
0.0788563
0.0653884
0.0539545
0.0442414
0.0359999
0.0290268
0.0231548
0.0182557
0.0142222
0.010964
0.00840296
0.0064606
0.00505754
0.00412322
0.00356612
0.00328039
0.218645
0.184292
0.154387
0.128523
0.106316
0.0873486
0.0712289
0.0575869
0.0460997
0.0365073
0.0285833
0.0221486
0.0170413
0.013118
0.0102392
0.00825931
0.00702961
0.00641218
0.00624496
0.00634483
0.34892
0.297192
0.250602
0.209263
0.17313
0.141943
0.115276
0.092667
0.0736697
0.0578877
0.0449663
0.0346054
0.0265327
0.0204959
0.0162433
0.0135238
0.0120655
0.0115827
0.0118228
0.0125072
0.0133099
0.536195
0.462523
0.393608
0.330629
0.274394
0.225092
0.182522
0.146226
0.11567
0.0903216
0.0696768
0.0532775
0.0406933
0.031512
0.0253128
0.0216667
0.0201156
0.0201802
0.0213523
0.0231988
0.0252589
0.0269901
0.766332
0.667939
0.573314
0.484834
0.404331
0.33276
0.270297
0.216648
0.17126
0.133513
0.102765
0.0783873
0.0597875
0.0463646
0.037499
0.0325492
0.0308313
0.0316236
0.034161
0.0376692
0.0414878
0.044945
0.0472417
0.0016865
0.00197222
0.001537
0.00229684
0.00180145
0.00140938
0.00266579
0.0021041
0.00165688
0.00130153
0.00308548
0.00245143
0.00194299
0.00153632
0.00121149
0.00356417
0.00285116
0.00227523
0.00181097
0.00143748
0.00113725
0.0041135
0.00331387
0.00266343
0.00213487
0.00170578
0.00135822
0.00107681
0.00475007
0.00385481
0.00312114
0.00252013
0.0020279
0.00162522
0.00129644
0.00102829
0.00549859
0.0044961
0.00366822
0.00298431
0.0024193
0.00195241
0.0015671
0.00125014
0.00098991
0.00639788
0.00527167
0.00433452
0.00355378
0.00290273
0.00235963
0.00190663
0.00152966
0.00121748
0.000959902
0.00751111
0.00623513
0.00516644
0.00426859
0.00351298
0.00287659
0.00234051
0.00188934
0.00151132
0.00119684
0.000936904
0.00894441
0.00747482
0.00623847
0.00519241
0.00430447
0.00354962
0.0029077
0.00236215
0.00189985
0.00151085
0.00118694
0.000919668
0.0108814
0.00914056
0.00767506
0.00642943
0.005365
0.00445272
0.00367029
0.00299958
0.0024261
0.00193821
0.00152768
0.00118693
0.000907704
0.013644
0.0114924
0.00968943
0.00815611
0.00684092
0.00570774
0.00472963
0.00388527
0.00315825
0.00253505
0.00200539
0.00156187
0.00119701
0.000901683
0.0178074
0.0149903
0.0126556
0.0106785
0.00898401
0.00752157
0.00625547
0.00515837
0.00420934
0.00339193
0.00269356
0.00210356
0.0016151
0.00121943
0.000905337
0.0243867
0.0204584
0.0172401
0.0145396
0.012236
0.0102543
0.00854048
0.00705553
0.00576999
0.00466116
0.00371179
0.00290771
0.00223766
0.00169294
0.00126215
0.000929847
0.0351861
0.0293649
0.0246397
0.0207093
0.017385
0.0145436
0.0120974
0.00998846
0.00816749
0.00660128
0.00526232
0.00413053
0.00318798
0.00241927
0.00181248
0.00134897
0.00100706
0.0533108
0.044301
0.0369862
0.0309304
0.0258419
0.0215241
0.0178376
0.0146782
0.0119708
0.00965598
0.00768939
0.00603635
0.00466767
0.00355864
0.00268463
0.00202433
0.00154803
0.0012209
0.0839961
0.0697122
0.0580001
0.0482675
0.0401019
0.0332101
0.0273627
0.0223928
0.0181681
0.014588
0.0115745
0.00906689
0.00701278
0.00536977
0.004094
0.00314255
0.0024761
0.00204368
0.00178741
0.135539
0.112873
0.0938959
0.0779202
0.0644432
0.053057
0.043434
0.0353003
0.0284395
0.0226802
0.0178859
0.0139462
0.0107699
0.00827577
0.0063866
0.00502502
0.00411031
0.00356695
0.00330611
0.00322909
0.219918
0.184679
0.15426
0.128082
0.105692
0.0866514
0.070522
0.0569148
0.0454986
0.035989
0.0281574
0.0218105
0.016785
0.0129327
0.010114
0.00818681
0.00700607
0.00641414
0.00627137
0.00642385
0.00669539
0.351354
0.29871
0.251544
0.209757
0.173269
0.141811
0.114965
0.0922618
0.0732303
0.0574559
0.0445739
0.0342636
0.026248
0.0202647
0.016066
0.0133976
0.0119963
0.0115848
0.0118706
0.0126062
0.0135228
0.0143101
0.538974
0.464846
0.395641
0.332308
0.27563
0.225899
0.182962
0.146394
0.11565
0.0901911
0.0694877
0.0530634
0.0404774
0.0313027
0.0251186
0.0214994
0.0199951
0.020137
0.0214299
0.0233664
0.0255261
0.0274731
0.0286762
0.768421
0.670167
0.575742
0.487188
0.406377
0.334365
0.271459
0.21743
0.171761
0.133814
0.102935
0.0784652
0.0598032
0.0463234
0.0374147
0.0324371
0.0307215
0.0315581
0.0342083
0.0379028
0.0418631
0.045468
0.0480631
0.0489015
0.00139846
0.00163443
0.00127262
0.00190187
0.00149012
0.00116459
0.0022047
0.00173808
0.00136705
0.00107265
0.00254744
0.00202103
0.00159967
0.00126326
0.000995016
0.00293582
0.00234438
0.00186785
0.00148456
0.00117684
0.000929973
0.00337744
0.00271533
0.00217813
0.00174283
0.00139053
0.00110583
0.000875831
0.00388273
0.00314339
0.00253939
0.00204623
0.00164378
0.00131558
0.00104836
0.000830928
0.00446698
0.00364272
0.00296434
0.00240613
0.0019467
0.00156863
0.00125767
0.00100259
0.000793645
0.0051533
0.00423388
0.00347147
0.00283894
0.00231376
0.00187763
0.00151537
0.00121495
0.000966838
0.000762479
0.00597898
0.00494856
0.0040887
0.00336929
0.00276655
0.00226123
0.00183749
0.00148234
0.00118569
0.000939383
0.000736054
0.00700551
0.00583853
0.00485995
0.00403509
0.00333789
0.00274771
0.00224806
0.00182519
0.00146811
0.00116831
0.000918943
0.000713181
0.00833883
0.00698996
0.00585719
0.00489718
0.00407948
0.0033812
0.00278445
0.00227477
0.00184028
0.00147159
0.00116165
0.000904283
0.000693154
0.0101649
0.00855123
0.00720208
0.00605669
0.00507598
0.00423267
0.00350629
0.00288061
0.002343
0.00188297
0.00149229
0.00116486
0.000894936
0.000675886
0.0128154
0.0107842
0.00910614
0.00768684
0.0064704
0.00542037
0.00451133
0.00372368
0.00304245
0.00245581
0.00195442
0.00153032
0.00117811
0.000891543
0.000662966
0.0168789
0.014159
0.0119452
0.0100925
0.0085111
0.00714776
0.00596577
0.00493932
0.00404862
0.00327872
0.00261806
0.00205685
0.00158744
0.00120357
0.000897673
0.000659803
0.0234142
0.0195148
0.0163964
0.0138187
0.0116399
0.00977246
0.00815912
0.00676072
0.00554836
0.00450064
0.00360075
0.00283591
0.00219526
0.00166887
0.00124909
0.00092454
0.000681621
0.034268
0.0283626
0.0236812
0.0198536
0.0166531
0.0139343
0.0116048
0.00959758
0.0078665
0.00637681
0.00510192
0.00402184
0.00311985
0.00238131
0.00179163
0.00133822
0.00100391
0.000767688
0.0526499
0.0433558
0.0359809
0.0299724
0.0249835
0.0207854
0.0172203
0.0141764
0.0115731
0.00935041
0.00746334
0.00587672
0.00456159
0.00349418
0.00265038
0.0020062
0.00153909
0.00122063
0.00101791
0.0838671
0.0690387
0.0570973
0.0473067
0.0391807
0.032374
0.0266378
0.0217811
0.0176673
0.0141904
0.0112701
0.00884198
0.00685517
0.00526614
0.00403173
0.00311132
0.00246031
0.00203776
0.00179469
0.00167664
0.1363
0.112787
0.0933697
0.077177
0.0636208
0.0522418
0.0426749
0.0346246
0.0278616
0.022202
0.0175036
0.0136507
0.0105507
0.00811959
0.00628242
0.00496217
0.00408169
0.00355601
0.00331054
0.0032591
0.00330931
0.22186
0.1855
0.154463
0.127906
0.105272
0.0860908
0.0699064
0.056307
0.044932
0.035488
0.0277317
0.0214605
0.0165077
0.0127181
0.00995429
0.00807569
0.00693819
0.00639218
0.00627814
0.00646027
0.00679035
0.00709998
0.354246
0.300534
0.252762
0.210521
0.173649
0.14188
0.114813
0.0919652
0.0728645
0.0570713
0.0442012
0.0339235
0.0259494
0.020008
0.0158504
0.013223
0.0118667
0.011512
0.0118778
0.0126705
0.0136488
0.0145607
0.0151036
0.54154
0.467059
0.39772
0.33414
0.277094
0.22694
0.183601
0.146714
0.115738
0.0901274
0.0693327
0.0528585
0.0402504
0.0310642
0.0248815
0.0212737
0.0197979
0.0199924
0.0213813
0.023466
0.0257333
0.0277919
0.0292202
0.0295256
0.769696
0.67191
0.577998
0.489603
0.408598
0.336191
0.272834
0.218386
0.172378
0.134184
0.103128
0.0785402
0.0597851
0.0462354
0.0372673
0.032247
0.030515
0.0313708
0.0341025
0.0379457
0.0421319