# p  FACE_DATA 398
# x  y  z  p
-0.7975 -7.61524e-06 0 1136.76
-0.79239 -7.61524e-06 0 893.856
-0.787056 -7.61524e-06 0 735.068
-0.781492 -7.61524e-06 0 706.288
-0.775691 -7.61524e-06 0 671.876
-0.769649 -7.61524e-06 0 650.04
-0.763361 -7.61524e-06 0 637.638
-0.756822 -7.61524e-06 0 628.117
-0.750025 -7.61524e-06 0 620.686
-0.742968 -7.61524e-06 0 614.206
-0.735648 -7.61524e-06 0 608.992
-0.72806 -7.61524e-06 0 604.49
-0.720203 -7.61524e-06 0 600.866
-0.712075 -7.61524e-06 0 598.22
-0.703676 -7.61524e-06 0 596.852
-0.695006 -7.61524e-06 0 596.529
-0.686065 -7.61524e-06 0 597.016
-0.676855 -7.61524e-06 0 597.791
-0.667379 -7.61524e-06 0 598.46
-0.657641 -7.61524e-06 0 599.115
-0.647644 -7.61524e-06 0 599.765
-0.637398 -7.61524e-06 0 600.003
-0.626906 -7.61524e-06 0 599.601
-0.616179 -7.61524e-06 0 599.03
-0.605225 -7.61524e-06 0 598.628
-0.594054 -7.61524e-06 0 598.236
-0.582677 -7.61524e-06 0 597.519
-0.57111 -7.61524e-06 0 596.659
-0.559364 -7.61524e-06 0 596.009
-0.547454 -7.61524e-06 0 595.642
-0.535396 -7.61524e-06 0 595.119
-0.523205 -7.61524e-06 0 594.433
-0.510901 -7.61524e-06 0 593.824
-0.498499 -7.61524e-06 0 593.41
-0.486021 -7.61524e-06 0 592.934
-0.473482 -7.61524e-06 0 592.41
-0.460905 -7.61524e-06 0 592.062
-0.448307 -7.61524e-06 0 591.984
-0.435709 -7.61524e-06 0 591.979
-0.42313 -7.61524e-06 0 591.896
-0.41059 -7.61524e-06 0 591.521
-0.39811 -7.61524e-06 0 591.29
-0.385706 -7.61524e-06 0 591.231
-0.373398 -7.61524e-06 0 591.487
-0.361205 -7.61524e-06 0 591.774
-0.349142 -7.61524e-06 0 591.907
-0.337226 -7.61524e-06 0 591.505
-0.325475 -7.61524e-06 0 590.798
-0.313901 -7.61524e-06 0 590.351
-0.30252 -7.61524e-06 0 590.186
-0.291343 -7.61524e-06 0 590.549
-0.280381 -7.61524e-06 0 591.382
-0.269647 -7.61524e-06 0 592.253
-0.259148 -7.61524e-06 0 592.837
-0.248893 -7.61524e-06 0 593.063
-0.23889 -7.61524e-06 0 592.73
-0.229143 -7.61524e-06 0 591.643
-0.219659 -7.61524e-06 0 590.366
-0.210441 -7.61524e-06 0 589.257
-0.201491 -7.61524e-06 0 588.355
-0.192812 -7.61524e-06 0 588.112
-0.184405 -7.61524e-06 0 588.074
-0.176269 -7.61524e-06 0 588.394
-0.168404 -7.61524e-06 0 589.091
-0.160809 -7.61524e-06 0 590.205
-0.15348 -7.61524e-06 0 591.256
-0.146415 -7.61524e-06 0 592.209
-0.13961 -7.61524e-06 0 592.957
-0.133063 -7.61524e-06 0 593.5
-0.126767 -7.61524e-06 0 593.774
-0.120717 -7.61524e-06 0 593.881
-0.11491 -7.61524e-06 0 593.673
-0.109339 -7.61524e-06 0 593.359
-0.103997 -7.61524e-06 0 593.018
-0.0988804 -7.61524e-06 0 592.358
-0.0939809 -7.61524e-06 0 591.613
-0.0892928 -7.61524e-06 0 590.814
-0.0848096 -7.61524e-06 0 589.983
-0.0805248 -7.61524e-06 0 589.185
-0.0764317 -7.61524e-06 0 588.449
-0.0725237 -7.61524e-06 0 587.776
-0.0687943 -7.61524e-06 0 587.18
-0.065237 -7.61524e-06 0 586.671
-0.0618454 -7.61524e-06 0 586.219
-0.058613 -7.61524e-06 0 585.819
-0.0555337 -7.61524e-06 0 585.471
-0.0526013 -7.61524e-06 0 585.185
-0.0498099 -7.61524e-06 0 584.962
-0.0471536 -7.61524e-06 0 584.806
-0.0446266 -7.61524e-06 0 584.702
-0.0422235 -7.61524e-06 0 584.643
-0.0399389 -7.61524e-06 0 584.608
-0.0377676 -7.61524e-06 0 584.601
-0.0357044 -7.61524e-06 0 584.59
-0.0337445 -7.61524e-06 0 584.672
-0.0318832 -7.61524e-06 0 584.688
-0.0301159 -7.61524e-06 0 584.834
-0.0284383 -7.61524e-06 0 584.887
-0.0268462 -7.61524e-06 0 585.047
-0.0253353 -7.61524e-06 0 585.203
-0.023902 -7.61524e-06 0 585.305
-0.0225425 -7.61524e-06 0 585.52
-0.0212532 -7.61524e-06 0 585.609
-0.0200306 -7.61524e-06 0 585.824
-0.0188715 -7.61524e-06 0 585.922
-0.0177727 -7.61524e-06 0 586.136
-0.0167313 -7.61524e-06 0 586.343
-0.0157444 -7.61524e-06 0 587.369
-0.0148093 -7.61524e-06 0 590.18
-0.0139232 -7.61524e-06 0 597.576
-0.0130838 -7.61524e-06 0 611.918
-0.0122887 -7.61524e-06 0 634.675
-0.0115355 -7.61524e-06 0 666.225
-0.0108223 -7.61524e-06 0 705.802
-0.0101469 -7.61524e-06 0 751.089
-0.00950727 -7.61524e-06 0 798.419
-0.00890169 -7.61524e-06 0 843.98
-0.00832834 -7.61524e-06 0 885.372
-0.00778557 -7.61524e-06 0 922.085
-0.00727176 -7.61524e-06 0 955.142
-0.00678541 -7.61524e-06 0 985.743
-0.00632507 -7.61524e-06 0 1014.77
-0.00588937 -7.61524e-06 0 1042.22
-0.00547703 -7.61524e-06 0 1067.98
-0.00508681 -7.61524e-06 0 1092.13
-0.00471753 -7.61524e-06 0 1114.78
-0.0043681 -7.61524e-06 0 1136.04
-0.00403746 -7.61524e-06 0 1156.01
-0.00372461 -7.61524e-06 0 1174.84
-0.0034286 -7.61524e-06 0 1192.59
-0.00314855 -7.61524e-06 0 1209.27
-0.00288361 -7.61524e-06 0 1224.85
-0.00263295 -7.61524e-06 0 1239.4
-0.00239582 -7.61524e-06 0 1252.73
-0.00217149 -7.61524e-06 0 1264.71
-0.00195929 -7.61524e-06 0 1275.04
-0.00175856 -7.61524e-06 0 1284.23
-0.00156869 -7.61524e-06 0 1292.61
-0.00138908 -7.61524e-06 0 1300.63
-0.00121921 -7.61524e-06 0 1308.68
-0.00105853 -7.61524e-06 0 1317.13
-0.000906546 -7.61524e-06 0 1326.31
-0.000762803 -7.61524e-06 0 1337.85
-0.000626849 -7.61524e-06 0 1351.71
-0.000498266 -7.61524e-06 0 1368.88
-0.000376656 -7.61524e-06 0 1385.08
-0.000261642 -7.61524e-06 0 1401.61
-0.00015287 -7.61524e-06 0 1416.48
-5e-05 -7.61524e-06 0 1433.27
4.14596e-05 2.03453e-05 0 1385.65
0.000125379 7.69412e-05 0 1400.66
0.000211356 0.000134924 0 1399.8
0.000299438 0.000194328 0 1399.75
0.000389678 0.000255186 0 1402.75
0.000482128 0.000317535 0 1409.77
0.000576841 0.000381409 0 1420.61
0.000673871 0.000446848 0 1436.18
0.000773276 0.000513887 0 1456.14
0.000875112 0.000582565 0 1480.31
0.000979439 0.000652924 0 1508.65
0.00108632 0.000725003 0 1541.15
0.00119581 0.000798843 0 1577.82
0.00130797 0.000874487 0 1618.7
0.00142287 0.000951979 0 1664.15
0.00154058 0.00103136 0 1714.25
0.00166117 0.00111268 0 1769.64
0.00178469 0.00119599 0 1830.55
0.00191123 0.00128133 0 1897.7
0.00204085 0.00136875 0 1971.59
0.00217364 0.0014583 0 2052.95
0.00230966 0.00155003 0 2142.83
0.00244899 0.001644 0 2242.69
0.00259171 0.00174025 0 2355.02
0.00273791 0.00183885 0 2482.25
0.00288767 0.00193985 0 2626.9
0.00304108 0.0020433 0 2791.33
0.0031982 0.00214927 0 2977.83
0.00335915 0.00225781 0 3186.69
0.003524 0.002369 0 3420.89
0.00369286 0.00248287 0 3680.25
0.00386582 0.00259951 0 3964.69
0.00404297 0.00271899 0 4277.01
0.00422442 0.00284136 0 4622.34
0.00441026 0.00296669 0 5004.9
0.0046006 0.00309506 0 5429.83
0.00479556 0.00322653 0 5907.39
0.00499523 0.00336119 0 6447.82
0.00519972 0.00349911 0 7071.2
0.00540916 0.00364036 0 7789.7
0.00562366 0.00378501 0 8610.55
0.00584334 0.00393316 0 9571.39
0.00606831 0.00408489 0 10669.3
0.00629871 0.00424027 0 11918.1
0.00653466 0.0043994 0 13315.4
0.00677629 0.00456236 0 14830
0.00702374 0.00472923 0 16443.8
0.00727714 0.00490013 0 18051.8
0.00753663 0.00507513 0 19428.7
0.00780234 0.00525433 0 20532.9
0.00807444 0.00543783 0 21176.9
0.00835306 0.00562573 0 21184.3
0.00863835 0.00581814 0 20872.1
0.00893047 0.00601514 0 20269.7
0.00922958 0.00621687 0 19503.2
0.00953584 0.00642341 0 18702.2
0.00984939 0.00663489 0 17948.4
0.0101705 0.00685141 0 17286.2
0.0104992 0.00707309 0 16758.2
0.0108357 0.00730005 0 16350.7
0.0111802 0.00753241 0 16067.9
0.011533 0.0077703 0 15895.7
0.0118941 0.00801384 0 15795.1
0.0122638 0.00826316 0 15770.6
0.0126422 0.00851837 0 15814.8
0.0130296 0.00877964 0 15845.3
0.0134262 0.00904708 0 15843.8
0.0138321 0.00932084 0 15850.9
0.0142476 0.00960107 0 15875.5
0.0146729 0.00988792 0 15878.1
0.0151082 0.0101815 0 15853.8
0.0155538 0.0104819 0 15847.3
0.0160098 0.0107895 0 15873.2
0.0164766 0.0111042 0 15916.1
0.0169542 0.0114263 0 15893.6
0.0174429 0.011756 0 15875.6
0.0179431 0.0120934 0 15852.4
0.018455 0.0124386 0 15894.8
0.0189789 0.0127918 0 15937.1
0.0195149 0.0131533 0 15899.3
0.0200633 0.0135232 0 15853.6
0.0206245 0.0139016 0 15813.5
0.0211986 0.0142888 0 15805.2
0.0217861 0.014685 0 15801.6
0.022387 0.0150903 0 15784.5
0.0230018 0.0155049 0 15735.6
0.0236307 0.0159291 0 15666.5
0.0242741 0.0163629 0 15595.1
0.0249322 0.0168068 0 15537.3
0.0256053 0.0172608 0 15486.9
0.0262939 0.0177251 0 15444.8
0.0269981 0.0182 0 15410.3
0.0277183 0.0186857 0 15399
0.0284548 0.0191825 0 15318.2
0.029208 0.0196904 0 15304.2
0.0299782 0.0202098 0 15286.5
0.0307658 0.0207409 0 15237.5
0.031571 0.021284 0 15164.6
0.0323942 0.0218393 0 15129.5
0.033236 0.0224069 0 15070.9
0.0340965 0.0229872 0 15074.2
0.0349762 0.0235805 0 15038.3
0.0358753 0.0241869 0 14997.1
0.0367944 0.0248067 0 15021.7
0.0377338 0.0254403 0 15002.3
0.0386938 0.0260877 0 14960.7
0.039675 0.0267494 0 14924.1
0.0406776 0.0274256 0 14896.4
0.0417021 0.0281165 0 14891.8
0.0427488 0.0288225 0 14880.1
0.0438183 0.0295437 0 14892.7
0.0449109 0.0302805 0 14880.1
0.046027 0.0310332 0 14894.3
0.0471671 0.0318021 0 14891
0.0483315 0.0325874 0 14796.5
0.0495209 0.0333895 0 14727.2
0.0507354 0.0342086 0 14681.9
0.0519756 0.035045 0 14680.5
0.053242 0.0358991 0 14663.1
0.054535 0.036771 0 14645
0.0558549 0.0376613 0 14676.1
0.0572024 0.03857 0 14638
0.0585778 0.0394976 0 14560.8
0.0599816 0.0404443 0 14565.3
0.0614142 0.0414105 0 14530.1
0.0628761 0.0423964 0 14510.4
0.0643678 0.0434024 0 14557.9
0.0658897 0.0444287 0 14554.6
0.0674422 0.0454758 0 14545.6
0.069026 0.0465439 0 14547.4
0.0706413 0.0476333 0 14476.1
0.0722886 0.0487443 0 14349.9
0.0739685 0.0498771 0 14197.4
0.0756813 0.0510323 0 14065.5
0.0774275 0.05221 0 13922.4
0.0792077 0.0534105 0 13889
0.0810221 0.0546342 0 13835.3
0.0828712 0.0558812 0 13872.7
0.0847556 0.0571521 0 13844.5
0.0866757 0.058447 0 13857
0.0886318 0.0597661 0 13865.1
0.0906244 0.06111 0 13865.3
0.0926539 0.0624787 0 13793.2
0.0947207 0.0638726 0 13780.3
0.0968252 0.0652919 0 13767.5
0.0989682 0.066737 0 13778.5
0.101149 0.068208 0 13790.3
0.103369 0.0697052 0 13867.9
0.105629 0.0712289 0 13945.7
0.107928 0.0727794 0 13996.6
0.110267 0.0743568 0 14019.4
0.112646 0.0759614 0 14053.5
0.115066 0.0775934 0 14079.6
0.117527 0.079253 0 14101.1
0.120029 0.0809404 0 14079.6
0.122572 0.0826558 0 13941.2
0.125158 0.0843994 0 13814.4
0.127785 0.0861713 0 13784.5
0.130454 0.0879717 0 13844
0.133167 0.0898008 0 14026.8
0.135921 0.0916586 0 14239.6
0.138719 0.0935453 0 14408.4
0.141559 0.095461 0 14529.3
0.144443 0.0974057 0 14633
0.14737 0.0993798 0 14721.3
0.15034 0.101383 0 14764.1
0.153354 0.103415 0 14761.6
0.156411 0.105477 0 14765.3
0.159511 0.107568 0 14694.8
0.162655 0.109688 0 14758.8
0.165842 0.111837 0 14808.3
0.169073 0.114016 0 14737.1
0.172346 0.116223 0 14750.7
0.175663 0.118461 0 14753.5
0.179022 0.120727 0 14738.1
0.182425 0.123021 0 14753.5
0.18587 0.125344 0 14767.7
0.189357 0.127696 0 14828.2
0.192886 0.130076 0 14896.2
0.196457 0.132484 0 14977.4
0.200069 0.13492 0 15063.6
0.203722 0.137384 0 15084.5
0.207416 0.139875 0 15116.2
0.21115 0.142393 0 15125.3
0.214924 0.144938 0 15175
0.218736 0.147509 0 15194.6
0.222587 0.150107 0 15242.4
0.226476 0.152729 0 15173.3
0.230403 0.155377 0 15060.4
0.234366 0.15805 0 15069.9
0.238366 0.160748 0 15108.4
0.242401 0.163469 0 15117.7
0.24647 0.166214 0 15201.5
0.250573 0.168981 0 15185.9
0.25471 0.17177 0 15155.7
0.258878 0.174582 0 15185.2
0.263078 0.177414 0 15206.4
0.267309 0.180266 0 15255.3
0.271568 0.183139 0 15309.7
0.275856 0.186031 0 15356.4
0.280172 0.188942 0 15395.6
0.284514 0.19187 0 15379.7
0.288881 0.194815 0 15375.5
0.293272 0.197777 0 15385.5
0.297687 0.200754 0 15384.7
0.302124 0.203746 0 15419.5
0.306581 0.206752 0 15446.8
0.311058 0.209772 0 15502.1
0.315554 0.212804 0 15444.6
0.320067 0.215847 0 15395.5
0.324595 0.218901 0 15326.2
0.329138 0.221965 0 15314.6
0.333695 0.225038 0 15300.1
0.338264 0.228119 0 15286.6
0.342843 0.231208 0 15291.3
0.347432 0.234302 0 15334.1
0.352029 0.237402 0 15403.6
0.356632 0.240507 0 15448.1
0.361241 0.243616 0 15460.6
0.365854 0.246727 0 15435.7
0.370469 0.249839 0 15443.6
0.375085 0.252953 0 15363.9
0.379702 0.256066 0 15376.4
0.384317 0.259178 0 15381.1
0.388929 0.262289 0 15433.5
0.393537 0.265396 0 15478.9
0.398139 0.2685 0 15590.3
0.402734 0.271598 0 15658.5
0.407321 0.274692 0 15695.5
0.411898 0.277779 0 15702.1
0.416464 0.280858 0 15759.9
0.421017 0.283929 0 15783.9
0.425557 0.286991 0 15815
0.430082 0.290042 0 15758.4
0.434591 0.293083 0 15652.7
0.439082 0.296112 0 15739.9
0.443555 0.299128 0 15753.7
0.448008 0.302131 0 15774.1
0.45244 0.30512 0 15804.4
0.456849 0.308094 0 15742.7
0.461235 0.311052 0 15675
0.465596 0.313993 0 15645.3
0.469932 0.316917 0 15719
0.474241 0.319823 0 15693.7
0.478523 0.322711 0 15677.4
0.482776 0.325579 0 15680.7
0.486999 0.328427 0 15725
0.491191 0.331254 0 15674
0.495353 0.334061 0 15735.7
