# wallHeatFlux  FACE_DATA 398
# x  y  z  wallHeatFlux
-0.7975 -7.61524e-06 0 -177981
-0.79239 -7.61524e-06 0 -35259.9
-0.787056 -7.61524e-06 0 -21438.4
-0.781492 -7.61524e-06 0 -17119.2
-0.775691 -7.61524e-06 0 -14511.2
-0.769649 -7.61524e-06 0 -12930.9
-0.763361 -7.61524e-06 0 -11932.6
-0.756822 -7.61524e-06 0 -11236
-0.750025 -7.61524e-06 0 -10736.3
-0.742968 -7.61524e-06 0 -10370
-0.735648 -7.61524e-06 0 -10109.7
-0.72806 -7.61524e-06 0 -9928.94
-0.720203 -7.61524e-06 0 -9838.8
-0.712075 -7.61524e-06 0 -9844.8
-0.703676 -7.61524e-06 0 -9930.82
-0.695006 -7.61524e-06 0 -10113
-0.686065 -7.61524e-06 0 -10343.5
-0.676855 -7.61524e-06 0 -10563.7
-0.667379 -7.61524e-06 0 -10751.9
-0.657641 -7.61524e-06 0 -10935.2
-0.647644 -7.61524e-06 0 -11102.1
-0.637398 -7.61524e-06 0 -11220.8
-0.626906 -7.61524e-06 0 -11281.1
-0.616179 -7.61524e-06 0 -11335.1
-0.605225 -7.61524e-06 0 -11389.4
-0.594054 -7.61524e-06 0 -11432.6
-0.582677 -7.61524e-06 0 -11453.8
-0.57111 -7.61524e-06 0 -11463.8
-0.559364 -7.61524e-06 0 -11484.4
-0.547454 -7.61524e-06 0 -11515.2
-0.535396 -7.61524e-06 0 -11540.3
-0.523205 -7.61524e-06 0 -11548.4
-0.510901 -7.61524e-06 0 -11561.9
-0.498499 -7.61524e-06 0 -11574.4
-0.486021 -7.61524e-06 0 -11581.2
-0.473482 -7.61524e-06 0 -11582.1
-0.460905 -7.61524e-06 0 -11593
-0.448307 -7.61524e-06 0 -11609.2
-0.435709 -7.61524e-06 0 -11624.9
-0.42313 -7.61524e-06 0 -11634.4
-0.41059 -7.61524e-06 0 -11643.7
-0.39811 -7.61524e-06 0 -11652.5
-0.385706 -7.61524e-06 0 -11666.2
-0.373398 -7.61524e-06 0 -11690.6
-0.361205 -7.61524e-06 0 -11714.7
-0.349142 -7.61524e-06 0 -11738.3
-0.337226 -7.61524e-06 0 -11745.6
-0.325475 -7.61524e-06 0 -11747.4
-0.313901 -7.61524e-06 0 -11754.5
-0.30252 -7.61524e-06 0 -11772.1
-0.291343 -7.61524e-06 0 -11795.3
-0.280381 -7.61524e-06 0 -11829.2
-0.269647 -7.61524e-06 0 -11862.8
-0.259148 -7.61524e-06 0 -11896.5
-0.248893 -7.61524e-06 0 -11914.6
-0.23889 -7.61524e-06 0 -11922
-0.229143 -7.61524e-06 0 -11913.2
-0.219659 -7.61524e-06 0 -11899.5
-0.210441 -7.61524e-06 0 -11885.7
-0.201491 -7.61524e-06 0 -11878.2
-0.192812 -7.61524e-06 0 -11880.7
-0.184405 -7.61524e-06 0 -11884.5
-0.176269 -7.61524e-06 0 -11898.4
-0.168404 -7.61524e-06 0 -11923.5
-0.160809 -7.61524e-06 0 -11959.4
-0.15348 -7.61524e-06 0 -11990.7
-0.146415 -7.61524e-06 0 -12016.8
-0.13961 -7.61524e-06 0 -12042.6
-0.133063 -7.61524e-06 0 -12063.6
-0.126767 -7.61524e-06 0 -12079.5
-0.120717 -7.61524e-06 0 -12084.8
-0.11491 -7.61524e-06 0 -12085
-0.109339 -7.61524e-06 0 -12080
-0.103997 -7.61524e-06 0 -12080.2
-0.0988804 -7.61524e-06 0 -12070.8
-0.0939809 -7.61524e-06 0 -12055.3
-0.0892928 -7.61524e-06 0 -12040.2
-0.0848096 -7.61524e-06 0 -12019.8
-0.0805248 -7.61524e-06 0 -11999.5
-0.0764317 -7.61524e-06 0 -11984.6
-0.0725237 -7.61524e-06 0 -11969.8
-0.0687943 -7.61524e-06 0 -11955.1
-0.065237 -7.61524e-06 0 -11940.3
-0.0618454 -7.61524e-06 0 -11931.1
-0.058613 -7.61524e-06 0 -11921.7
-0.0555337 -7.61524e-06 0 -11912.6
-0.0526013 -7.61524e-06 0 -11903.3
-0.0498099 -7.61524e-06 0 -11899.4
-0.0471536 -7.61524e-06 0 -11895.6
-0.0446266 -7.61524e-06 0 -11891.7
-0.0422235 -7.61524e-06 0 -11887.9
-0.0399389 -7.61524e-06 0 -11889.4
-0.0377676 -7.61524e-06 0 -11890.8
-0.0357044 -7.61524e-06 0 -11887.2
-0.0337445 -7.61524e-06 0 -11894
-0.0318832 -7.61524e-06 0 -11890.1
-0.0301159 -7.61524e-06 0 -11897
-0.0284383 -7.61524e-06 0 -11893.1
-0.0268462 -7.61524e-06 0 -11900
-0.0253353 -7.61524e-06 0 -11906.8
-0.023902 -7.61524e-06 0 -11903
-0.0225425 -7.61524e-06 0 -11915.1
-0.0212532 -7.61524e-06 0 -11906.2
-0.0200306 -7.61524e-06 0 -11918.3
-0.0188715 -7.61524e-06 0 -11914.5
-0.0177727 -7.61524e-06 0 -11926.8
-0.0167313 -7.61524e-06 0 -11928.4
-0.0157444 -7.61524e-06 0 -11935.5
-0.0148093 -7.61524e-06 0 -11910.1
-0.0139232 -7.61524e-06 0 -11767.3
-0.0130838 -7.61524e-06 0 -11414
-0.0122887 -7.61524e-06 0 -10814.6
-0.0115355 -7.61524e-06 0 -10042.4
-0.0108223 -7.61524e-06 0 -9254.1
-0.0101469 -7.61524e-06 0 -8556.97
-0.00950727 -7.61524e-06 0 -7977.99
-0.00890169 -7.61524e-06 0 -7501.01
-0.00832834 -7.61524e-06 0 -7131.49
-0.00778557 -7.61524e-06 0 -6977.09
-0.00727176 -7.61524e-06 0 -7129.46
-0.00678541 -7.61524e-06 0 -7626.42
-0.00632507 -7.61524e-06 0 -8231.6
-0.00588937 -7.61524e-06 0 -8821.09
-0.00547703 -7.61524e-06 0 -9346.61
-0.00508681 -7.61524e-06 0 -9813.55
-0.00471753 -7.61524e-06 0 -10232.8
-0.0043681 -7.61524e-06 0 -10593.4
-0.00403746 -7.61524e-06 0 -10901.1
-0.00372461 -7.61524e-06 0 -11150.5
-0.0034286 -7.61524e-06 0 -11336.3
-0.00314855 -7.61524e-06 0 -11453.1
-0.00288361 -7.61524e-06 0 -11528.4
-0.00263295 -7.61524e-06 0 -11578.2
-0.00239582 -7.61524e-06 0 -11570.9
-0.00217149 -7.61524e-06 0 -11549.9
-0.00195929 -7.61524e-06 0 -11565
-0.00175856 -7.61524e-06 0 -11639
-0.00156869 -7.61524e-06 0 -11839.2
-0.00138908 -7.61524e-06 0 -12174.2
-0.00121921 -7.61524e-06 0 -12603.6
-0.00105853 -7.61524e-06 0 -13122.1
-0.000906546 -7.61524e-06 0 -13696.7
-0.000762803 -7.61524e-06 0 -14296.6
-0.000626849 -7.61524e-06 0 -14834.5
-0.000498266 -7.61524e-06 0 -15247.8
-0.000376656 -7.61524e-06 0 -15389
-0.000261642 -7.61524e-06 0 -14842.4
-0.00015287 -7.61524e-06 0 -13383.8
-5e-05 -7.61524e-06 0 -9865.51
4.14596e-05 2.03453e-05 0 -9492.94
0.000125379 7.69412e-05 0 -12138.5
0.000211356 0.000134924 0 -13858.9
0.000299438 0.000194328 0 -15229.8
0.000389678 0.000255186 0 -16415.6
0.000482128 0.000317535 0 -17459.7
0.000576841 0.000381409 0 -18398.1
0.000673871 0.000446848 0 -19264.1
0.000773276 0.000513887 0 -20084.5
0.000875112 0.000582565 0 -20886.4
0.000979439 0.000652924 0 -21695.5
0.00108632 0.000725003 0 -22516.2
0.00119581 0.000798843 0 -23370.7
0.00130797 0.000874487 0 -24245.9
0.00142287 0.000951979 0 -25160.8
0.00154058 0.00103136 0 -26134.7
0.00166117 0.00111268 0 -27198.2
0.00178469 0.00119599 0 -28374.3
0.00191123 0.00128133 0 -29696.7
0.00204085 0.00136875 0 -31193.4
0.00217364 0.0014583 0 -32899.5
0.00230966 0.00155003 0 -34848.7
0.00244899 0.001644 0 -37100.1
0.00259171 0.00174025 0 -39707.6
0.00273791 0.00183885 0 -42687.8
0.00288767 0.00193985 0 -46036.3
0.00304108 0.0020433 0 -49770.6
0.0031982 0.00214927 0 -53866
0.00335915 0.00225781 0 -58201.2
0.003524 0.002369 0 -62858.6
0.00369286 0.00248287 0 -67761.6
0.00386582 0.00259951 0 -72906.9
0.00404297 0.00271899 0 -78358.9
0.00422442 0.00284136 0 -84361.7
0.00441026 0.00296669 0 -91013.1
0.0046006 0.00309506 0 -98356.9
0.00479556 0.00322653 0 -106598
0.00499523 0.00336119 0 -115921
0.00519972 0.00349911 0 -126932
0.00540916 0.00364036 0 -139993
0.00562366 0.00378501 0 -154792
0.00584334 0.00393316 0 -173428
0.00606831 0.00408489 0 -193769
0.00629871 0.00424027 0 -225094
0.00653466 0.0043994 0 -257004
0.00677629 0.00456236 0 -284655
0.00702374 0.00472923 0 -323185
0.00727714 0.00490013 0 -375616
0.00753663 0.00507513 0 -430290
0.00780234 0.00525433 0 -474554
0.00807444 0.00543783 0 -478719
0.00835306 0.00562573 0 -445827
0.00863835 0.00581814 0 -415874
0.00893047 0.00601514 0 -390701
0.00922958 0.00621687 0 -372940
0.00953584 0.00642341 0 -354205
0.00984939 0.00663489 0 -328727
0.0101705 0.00685141 0 -309402
0.0104992 0.00707309 0 -294157
0.0108357 0.00730005 0 -281132
0.0111802 0.00753241 0 -271903
0.011533 0.0077703 0 -265476
0.0118941 0.00801384 0 -259974
0.0122638 0.00826316 0 -258441
0.0126422 0.00851837 0 -257859
0.0130296 0.00877964 0 -257744
0.0134262 0.00904708 0 -257190
0.0138321 0.00932084 0 -256095
0.0142476 0.00960107 0 -254719
0.0146729 0.00988792 0 -254365
0.0151082 0.0101815 0 -252079
0.0155538 0.0104819 0 -249719
0.0160098 0.0107895 0 -248752
0.0164766 0.0111042 0 -248066
0.0169542 0.0114263 0 -246837
0.0174429 0.011756 0 -243435
0.0179431 0.0120934 0 -241535
0.018455 0.0124386 0 -239627
0.0189789 0.0127918 0 -239468
0.0195149 0.0131533 0 -236399
0.0200633 0.0135232 0 -233870
0.0206245 0.0139016 0 -231457
0.0211986 0.0142888 0 -229627
0.0217861 0.014685 0 -229333
0.022387 0.0150903 0 -228325
0.0230018 0.0155049 0 -226254
0.0236307 0.0159291 0 -223984
0.0242741 0.0163629 0 -221038
0.0249322 0.0168068 0 -218360
0.0256053 0.0172608 0 -216554
0.0262939 0.0177251 0 -216010
0.0269981 0.0182 0 -215506
0.0277183 0.0186857 0 -242314
0.0284548 0.0191825 0 -237191
0.029208 0.0196904 0 -236085
0.0299782 0.0202098 0 -235488
0.0307658 0.0207409 0 -230593
0.031571 0.021284 0 -224740
0.0323942 0.0218393 0 -224941
0.033236 0.0224069 0 -221913
0.0340965 0.0229872 0 -223954
0.0349762 0.0235805 0 -222875
0.0358753 0.0241869 0 -220414
0.0367944 0.0248067 0 -222263
0.0377338 0.0254403 0 -222661
0.0386938 0.0260877 0 -222088
0.039675 0.0267494 0 -220938
0.0406776 0.0274256 0 -219813
0.0417021 0.0281165 0 -221246
0.0427488 0.0288225 0 -222955
0.0438183 0.0295437 0 -225196
0.0449109 0.0302805 0 -227287
0.046027 0.0310332 0 -231567
0.0471671 0.0318021 0 -234464
0.0483315 0.0325874 0 -230956
0.0495209 0.0333895 0 -231105
0.0507354 0.0342086 0 -231365
0.0519756 0.035045 0 -235921
0.053242 0.0358991 0 -237375
0.054535 0.036771 0 -236897
0.0558549 0.0376613 0 -239600
0.0572024 0.03857 0 -240734
0.0585778 0.0394976 0 -236510
0.0599816 0.0404443 0 -238884
0.0614142 0.0414105 0 -237585
0.0628761 0.0423964 0 -235435
0.0643678 0.0434024 0 -238882
0.0658897 0.0444287 0 -239891
0.0674422 0.0454758 0 -239706
0.069026 0.0465439 0 -241178
0.0706413 0.0476333 0 -240849
0.0722886 0.0487443 0 -239341
0.0739685 0.0498771 0 -231259
0.0756813 0.0510323 0 -224220
0.0774275 0.05221 0 -214719
0.0792077 0.0534105 0 -213971
0.0810221 0.0546342 0 -203434
0.0828712 0.0558812 0 -214421
0.0847556 0.0571521 0 -213435
0.0866757 0.058447 0 -216238
0.0886318 0.0597661 0 -215256
0.0906244 0.06111 0 -215422
0.0926539 0.0624787 0 -206453
0.0947207 0.0638726 0 -196721
0.0968252 0.0652919 0 -196324
0.0989682 0.066737 0 -197679
0.101149 0.068208 0 -207863
0.103369 0.0697052 0 -209970
0.105629 0.0712289 0 -216137
0.107928 0.0727794 0 -222628
0.110267 0.0743568 0 -219715
0.112646 0.0759614 0 -216015
0.115066 0.0775934 0 -213828
0.117527 0.079253 0 -215327
0.120029 0.0809404 0 -212640
0.122572 0.0826558 0 -193387
0.125158 0.0843994 0 -187819
0.127785 0.0861713 0 -188800
0.130454 0.0879717 0 -192705
0.133167 0.0898008 0 -199506
0.135921 0.0916586 0 -208155
0.138719 0.0935453 0 -217468
0.141559 0.095461 0 -222207
0.144443 0.0974057 0 -226218
0.14737 0.0993798 0 -221364
0.15034 0.101383 0 -229727
0.153354 0.103415 0 -231728
0.156411 0.105477 0 -226593
0.159511 0.107568 0 -233342
0.162655 0.109688 0 -225170
0.165842 0.111837 0 -229005
0.169073 0.114016 0 -228651
0.172346 0.116223 0 -224913
0.175663 0.118461 0 -213141
0.179022 0.120727 0 -228623
0.182425 0.123021 0 -223086
0.18587 0.125344 0 -220665
0.189357 0.127696 0 -221906
0.192886 0.130076 0 -219541
0.196457 0.132484 0 -227167
0.200069 0.13492 0 -228470
0.203722 0.137384 0 -230848
0.207416 0.139875 0 -229188
0.21115 0.142393 0 -227553
0.214924 0.144938 0 -230171
0.218736 0.147509 0 -222264
0.222587 0.150107 0 -231163
0.226476 0.152729 0 -229235
0.230403 0.155377 0 -224172
0.234366 0.15805 0 -222796
0.238366 0.160748 0 -225154
0.242401 0.163469 0 -219539
0.24647 0.166214 0 -224030
0.250573 0.168981 0 -232040
0.25471 0.17177 0 -230048
0.258878 0.174582 0 -221947
0.263078 0.177414 0 -229257
0.267309 0.180266 0 -247024
0.271568 0.183139 0 -232948
0.275856 0.186031 0 -238109
0.280172 0.188942 0 -237778
0.284514 0.19187 0 -252761
0.288881 0.194815 0 -244377
0.293272 0.197777 0 -240306
0.297687 0.200754 0 -252245
0.302124 0.203746 0 -224740
0.306581 0.206752 0 -224289
0.311058 0.209772 0 -237383
0.315554 0.212804 0 -235538
0.320067 0.215847 0 -252213
0.324595 0.218901 0 -235398
0.329138 0.221965 0 -235497
0.333695 0.225038 0 -228950
0.338264 0.228119 0 -221699
0.342843 0.231208 0 -231091
0.347432 0.234302 0 -229245
0.352029 0.237402 0 -248375
0.356632 0.240507 0 -237060
0.361241 0.243616 0 -225733
0.365854 0.246727 0 -225554
0.370469 0.249839 0 -236956
0.375085 0.252953 0 -233246
0.379702 0.256066 0 -226710
0.384317 0.259178 0 -235379
0.388929 0.262289 0 -238317
0.393537 0.265396 0 -234896
0.398139 0.2685 0 -239810
0.402734 0.271598 0 -244825
0.407321 0.274692 0 -240699
0.411898 0.277779 0 -241234
0.416464 0.280858 0 -241158
0.421017 0.283929 0 -244116
0.425557 0.286991 0 -235703
0.430082 0.290042 0 -276502
0.434591 0.293083 0 -275638
0.439082 0.296112 0 -238741
0.443555 0.299128 0 -255916
0.448008 0.302131 0 -281169
0.45244 0.30512 0 -248315
0.456849 0.308094 0 -267833
0.461235 0.311052 0 -259239
0.465596 0.313993 0 -268556
0.469932 0.316917 0 -251641
0.474241 0.319823 0 -232476
0.478523 0.322711 0 -224360
0.482776 0.325579 0 -231385
0.486999 0.328427 0 -234257
0.491191 0.331254 0 -267320
0.495353 0.334061 0 -243744
