# p  FACE_DATA 197
# x  y  z  p
-0.758794 0 0.025 3306.05
-0.718051 0 0.025 2916.01
-0.680507 0 0.025 2817.89
-0.645901 0 0.025 2780.18
-0.613992 0 0.025 2766.21
-0.584556 0 0.025 2760.84
-0.557391 0 0.025 2760.06
-0.532305 0 0.025 2759.22
-0.509124 0 0.025 2757.49
-0.487686 0 0.025 2755.55
-0.467842 0 0.025 2754.09
-0.449454 0 0.025 2753.37
-0.432393 0 0.025 2753.04
-0.41654 0 0.025 2752.5
-0.401786 0 0.025 2751.8
-0.388026 0 0.025 2751.06
-0.375167 0 0.025 2750.23
-0.363116 0 0.025 2749.41
-0.351791 0 0.025 2748.64
-0.341113 0 0.025 2747.9
-0.331006 0 0.025 2747.19
-0.321402 0 0.025 2746.55
-0.312233 0 0.025 2746.04
-0.303433 0 0.025 2745.67
-0.294945 0 0.025 2745.38
-0.286706 0 0.025 2745.04
-0.27866 0 0.025 2744.71
-0.270751 0 0.025 2744.42
-0.262924 0 0.025 2744.12
-0.25508 0 0.025 2743.81
-0.247306 0 0.025 2743.51
-0.239754 0 0.025 2743.22
-0.232416 0 0.025 2742.87
-0.225285 0 0.025 2742.41
-0.218356 0 0.025 2741.9
-0.211622 0 0.025 2741.39
-0.205079 0 0.025 2740.97
-0.198717 0 0.025 2740.67
-0.192534 0 0.025 2740.49
-0.186524 0 0.025 2740.43
-0.18068 0 0.025 2740.49
-0.174998 0 0.025 2740.62
-0.169472 0 0.025 2740.78
-0.164098 0 0.025 2740.88
-0.15887 0 0.025 2740.87
-0.153785 0 0.025 2740.72
-0.148838 0 0.025 2740.57
-0.144023 0 0.025 2740.31
-0.139338 0 0.025 2739.94
-0.134777 0 0.025 2739.48
-0.130336 0 0.025 2738.92
-0.126013 0 0.025 2738.28
-0.121802 0 0.025 2737.6
-0.1177 0 0.025 2736.9
-0.113704 0 0.025 2736.25
-0.109809 0 0.025 2735.66
-0.106012 0 0.025 2735.1
-0.10231 0 0.025 2734.63
-0.0986994 0 0.025 2734.22
-0.0951774 0 0.025 2733.84
-0.0917405 0 0.025 2733.5
-0.0883856 0 0.025 2733.22
-0.0851099 0 0.025 2733
-0.0819102 0 0.025 2732.85
-0.0787839 0 0.025 2732.79
-0.075728 0 0.025 2732.81
-0.0727398 0 0.025 2732.9
-0.0698168 0 0.025 2733.06
-0.0669562 0 0.025 2733.27
-0.0641556 0 0.025 2733.52
-0.0614123 0 0.025 2733.8
-0.0587239 0 0.025 2734.1
-0.056088 0 0.025 2734.41
-0.0535024 0 0.025 2734.72
-0.0509647 0 0.025 2735.01
-0.0484725 0 0.025 2735.44
-0.0460237 0 0.025 2735.19
-0.043616 0 0.025 2760.27
-0.0412474 0 0.025 3211.64
-0.0389157 0 0.025 4953.36
-0.0366188 0 0.025 6564.5
-0.0343547 0 0.025 7491.84
-0.0321212 0 0.025 8147.05
-0.0299165 0 0.025 8633.39
-0.0277386 0 0.025 9039.32
-0.0255855 0 0.025 9393.33
-0.0234553 0 0.025 9701.91
-0.0213461 0 0.025 9997.73
-0.019256 0 0.025 10265.9
-0.0171831 0 0.025 10524.3
-0.0151255 0 0.025 10763.6
-0.0130816 0 0.025 10986.2
-0.0110493 0 0.025 11186
-0.00902685 0 0.025 11344.8
-0.00701253 0 0.025 11469
-0.00500447 0 0.025 11546.7
-0.00300089 0 0.025 11735.6
-0.001 0 0.025 12939.6
0.000866025 0.0005 0.025 12471.5
0.0025844 0.00149211 0.025 12956.3
0.0042763 0.00246893 0.025 13740
0.00594322 0.00343132 0.025 14682.8
0.00758635 0.00437998 0.025 15917.6
0.00920736 0.00531588 0.025 17417.1
0.0108073 0.00623961 0.025 19202.8
0.0123876 0.00715197 0.025 21316.2
0.0139495 0.00805372 0.025 23844.7
0.0154937 0.00894529 0.025 26862.3
0.017022 0.00982767 0.025 30423
0.0185348 0.0107011 0.025 34647.2
0.0200339 0.0115666 0.025 39667.6
0.0215202 0.0124247 0.025 45504.6
0.0229941 0.0132757 0.025 52270.2
0.0244573 0.0141204 0.025 60114.5
0.0259099 0.0149591 0.025 68908.1
0.0273538 0.0157927 0.025 78623.3
0.0287896 0.0166217 0.025 89233
0.0302178 0.0174463 0.025 100531
0.0316401 0.0182674 0.025 112240
0.0330561 0.019085 0.025 124452
0.034468 0.0199001 0.025 136231
0.0358755 0.0207127 0.025 146177
0.0372803 0.0215238 0.025 151862
0.0386833 0.0223338 0.025 157179
0.0400841 0.0231425 0.025 147548
0.0414849 0.0239513 0.025 140313
0.0428849 0.0247597 0.025 133359
0.0442867 0.025569 0.025 126189
0.0456908 0.0263796 0.025 119817
0.0470965 0.0271912 0.025 114689
0.0485064 0.0280052 0.025 110659
0.0499192 0.0288209 0.025 107390
0.0513378 0.0296399 0.025 104631
0.0527619 0.0304621 0.025 102205
0.0541922 0.031288 0.025 100259
0.0556308 0.0321185 0.025 98948.4
0.0570761 0.0329529 0.025 98329.5
0.0585312 0.0337931 0.025 98138.1
0.0599948 0.034638 0.025 97860.1
0.0614698 0.0354896 0.025 97487
0.062957 0.0363482 0.025 97530.2
0.064455 0.0372131 0.025 98095.7
0.0659672 0.0380861 0.025 98806
0.0674915 0.0389662 0.025 99273.6
0.0690319 0.0398556 0.025 99358.6
0.0705882 0.0407541 0.025 99540.9
0.0721604 0.0416618 0.025 99903.1
0.0737453 0.0425769 0.025 100520
0.0753344 0.0434943 0.025 101138
0.0769309 0.0444161 0.025 101233
0.0785326 0.0453408 0.025 101238
0.0801411 0.0462695 0.025 101116
0.0817575 0.0472027 0.025 100924
0.0833785 0.0481386 0.025 100775
0.0850076 0.0490792 0.025 100680
0.0866416 0.0500226 0.025 100598
0.0882842 0.0509709 0.025 100725
0.0899348 0.0519239 0.025 100977
0.0915911 0.0528801 0.025 101291
0.0932563 0.0538415 0.025 101653
0.0949268 0.0548061 0.025 102025
0.0966067 0.0557759 0.025 102110
0.0982939 0.05675 0.025 102071
0.0999887 0.0577286 0.025 102020
0.101693 0.0587127 0.025 101819
0.103404 0.0597003 0.025 101807
0.105125 0.0606937 0.025 101750
0.106852 0.0616907 0.025 101598
0.108588 0.0626936 0.025 101947
0.110336 0.0637025 0.025 102007
0.11209 0.0647152 0.025 101828
0.113855 0.0657342 0.025 101719
0.115627 0.0667569 0.025 101384
0.117409 0.0677862 0.025 101572
0.119201 0.0688211 0.025 101674
0.121003 0.069861 0.025 101622
0.122816 0.0709077 0.025 102091
0.124635 0.0719583 0.025 102850
0.126468 0.0730161 0.025 103086
0.128308 0.0740787 0.025 103339
0.13016 0.0751478 0.025 103282
0.132024 0.0762243 0.025 103090
0.133897 0.0773051 0.025 103070
0.135782 0.0783936 0.025 102488
0.137675 0.0794865 0.025 102553
0.139581 0.0805871 0.025 102380
0.1415 0.081695 0.025 102117
0.143428 0.0828082 0.025 102446
0.145371 0.0839296 0.025 102361
0.147321 0.0850557 0.025 102481
0.149286 0.08619 0.025 102720
0.151261 0.0873308 0.025 102461
0.153249 0.0884787 0.025 102585
0.155252 0.0896351 0.025 102699
0.157265 0.0907968 0.025 102701
0.159292 0.0919672 0.025 102830
0.161329 0.093143 0.025 102826
