# wallHeatFlux  FACE_DATA 197
# x  y  z  wallHeatFlux
-0.758794 0 0.025 -238822
-0.718051 0 0.025 -80367.3
-0.680507 0 0.025 -76844.5
-0.645901 0 0.025 -75084.5
-0.613992 0 0.025 -73705.1
-0.584556 0 0.025 -72772.6
-0.557391 0 0.025 -72132.3
-0.532305 0 0.025 -71680.8
-0.509124 0 0.025 -71256.4
-0.487686 0 0.025 -70750.3
-0.467842 0 0.025 -70163.8
-0.449454 0 0.025 -69554.7
-0.432393 0 0.025 -69037.6
-0.41654 0 0.025 -68672
-0.401786 0 0.025 -68517.5
-0.388026 0 0.025 -68463.5
-0.375167 0 0.025 -68454.9
-0.363116 0 0.025 -68378.8
-0.351791 0 0.025 -68178.6
-0.341113 0 0.025 -67910.9
-0.331006 0 0.025 -67580.8
-0.321402 0 0.025 -67239.8
-0.312233 0 0.025 -66893.2
-0.303433 0 0.025 -66656.4
-0.294945 0 0.025 -66415
-0.286706 0 0.025 -66285.7
-0.27866 0 0.025 -66269.8
-0.270751 0 0.025 -66310.3
-0.262924 0 0.025 -66349.9
-0.25508 0 0.025 -66448.1
-0.247306 0 0.025 -66545.8
-0.239754 0 0.025 -66582.4
-0.232416 0 0.025 -66557.9
-0.225285 0 0.025 -66472
-0.218356 0 0.025 -66324.6
-0.211622 0 0.025 -66115.5
-0.205079 0 0.025 -65903.5
-0.198717 0 0.025 -65629.6
-0.192534 0 0.025 -65412
-0.186524 0 0.025 -65191.7
-0.18068 0 0.025 -64968.7
-0.174998 0 0.025 -64861.8
-0.169472 0 0.025 -64752.7
-0.164098 0 0.025 -64700.8
-0.15887 0 0.025 -64647
-0.153785 0 0.025 -64650.8
-0.148838 0 0.025 -64652.9
-0.144023 0 0.025 -64712.9
-0.139338 0 0.025 -64771.5
-0.134777 0 0.025 -64830.9
-0.130336 0 0.025 -64884.1
-0.126013 0 0.025 -64876.1
-0.121802 0 0.025 -64934.1
-0.1177 0 0.025 -64920.6
-0.113704 0 0.025 -64913.7
-0.109809 0 0.025 -64842.8
-0.106012 0 0.025 -64770.6
-0.10231 0 0.025 -64700
-0.0986994 0 0.025 -64680.2
-0.0951774 0 0.025 -64546.2
-0.0917405 0 0.025 -64469.3
-0.0883856 0 0.025 -64390.4
-0.0851099 0 0.025 -64251.1
-0.0819102 0 0.025 -64170.5
-0.0787839 0 0.025 -64089
-0.075728 0 0.025 -64006.9
-0.0727398 0 0.025 -63923.1
-0.0698168 0 0.025 -63838.7
-0.0669562 0 0.025 -63814
-0.0641556 0 0.025 -63788.1
-0.0614123 0 0.025 -63702
-0.0587239 0 0.025 -63674.6
-0.056088 0 0.025 -63707.6
-0.0535024 0 0.025 -63679.3
-0.0509647 0 0.025 -63650.7
-0.0484725 0 0.025 -63681
-0.0460237 0 0.025 -63651.4
-0.043616 0 0.025 -62405.4
-0.0412474 0 0.025 -52038.9
-0.0389157 0 0.025 -44581.8
-0.0366188 0 0.025 -60179.2
-0.0343547 0 0.025 -72198.6
-0.0321212 0 0.025 -80270
-0.0299165 0 0.025 -85666.1
-0.0277386 0 0.025 -90274.5
-0.0255855 0 0.025 -94398.6
-0.0234553 0 0.025 -98098.7
-0.0213461 0 0.025 -101801
-0.019256 0 0.025 -104957
-0.0171831 0 0.025 -107750
-0.0151255 0 0.025 -109932
-0.0130816 0 0.025 -111932
-0.0110493 0 0.025 -114301
-0.00902685 0 0.025 -117651
-0.00701253 0 0.025 -123023
-0.00500447 0 0.025 -132685
-0.00300089 0 0.025 -151236
-0.001 0 0.025 -177033
0.000866025 0.0005 0.025 -158116
0.0025844 0.00149211 0.025 -177600
0.0042763 0.00246893 0.025 -212079
0.00594322 0.00343132 0.025 -238589
0.00758635 0.00437998 0.025 -269455
0.00920736 0.00531588 0.025 -305004
0.0108073 0.00623961 0.025 -347125
0.0123876 0.00715197 0.025 -397010
0.0139495 0.00805372 0.025 -457083
0.0154937 0.00894529 0.025 -529560
0.017022 0.00982767 0.025 -615566
0.0185348 0.0107011 0.025 -718974
0.0200339 0.0115666 0.025 -843760
0.0215202 0.0124247 0.025 -987832
0.0229941 0.0132757 0.025 -1.15759e+06
0.0244573 0.0141204 0.025 -1.35464e+06
0.0259099 0.0149591 0.025 -1.56594e+06
0.0273538 0.0157927 0.025 -1.79771e+06
0.0287896 0.0166217 0.025 -2.04683e+06
0.0302178 0.0174463 0.025 -2.29361e+06
0.0316401 0.0182674 0.025 -2.51617e+06
0.0330561 0.019085 0.025 -2.76743e+06
0.034468 0.0199001 0.025 -3.0051e+06
0.0358755 0.0207127 0.025 -3.11935e+06
0.0372803 0.0215238 0.025 -3.22525e+06
0.0386833 0.0223338 0.025 -3.26578e+06
0.0400841 0.0231425 0.025 -3.03205e+06
0.0414849 0.0239513 0.025 -2.81907e+06
0.0428849 0.0247597 0.025 -2.62184e+06
0.0442867 0.025569 0.025 -2.44139e+06
0.0456908 0.0263796 0.025 -2.2645e+06
0.0470965 0.0271912 0.025 -2.12734e+06
0.0485064 0.0280052 0.025 -2.03301e+06
0.0499192 0.0288209 0.025 -1.92039e+06
0.0513378 0.0296399 0.025 -1.85085e+06
0.0527619 0.0304621 0.025 -1.77857e+06
0.0541922 0.031288 0.025 -1.72002e+06
0.0556308 0.0321185 0.025 -1.68576e+06
0.0570761 0.0329529 0.025 -1.65598e+06
0.0585312 0.0337931 0.025 -1.62342e+06
0.0599948 0.034638 0.025 -1.60502e+06
0.0614698 0.0354896 0.025 -1.58239e+06
0.062957 0.0363482 0.025 -1.57673e+06
0.064455 0.0372131 0.025 -1.56944e+06
0.0659672 0.0380861 0.025 -1.56357e+06
0.0674915 0.0389662 0.025 -1.5536e+06
0.0690319 0.0398556 0.025 -1.53211e+06
0.0705882 0.0407541 0.025 -1.52788e+06
0.0721604 0.0416618 0.025 -1.5336e+06
0.0737453 0.0425769 0.025 -1.52017e+06
0.0753344 0.0434943 0.025 -1.5359e+06
0.0769309 0.0444161 0.025 -1.50788e+06
0.0785326 0.0453408 0.025 -1.49447e+06
0.0801411 0.0462695 0.025 -1.4805e+06
0.0817575 0.0472027 0.025 -1.46575e+06
0.0833785 0.0481386 0.025 -1.44678e+06
0.0850076 0.0490792 0.025 -1.44576e+06
0.0866416 0.0500226 0.025 -1.4213e+06
0.0882842 0.0509709 0.025 -1.42018e+06
0.0899348 0.0519239 0.025 -1.40931e+06
0.0915911 0.0528801 0.025 -1.42789e+06
0.0932563 0.0538415 0.025 -1.40295e+06
0.0949268 0.0548061 0.025 -1.41354e+06
0.0966067 0.0557759 0.025 -1.38491e+06
0.0982939 0.05675 0.025 -1.37475e+06
0.0999887 0.0577286 0.025 -1.50634e+06
0.101693 0.0587127 0.025 -1.56444e+06
0.103404 0.0597003 0.025 -1.6376e+06
0.105125 0.0606937 0.025 -1.53863e+06
0.106852 0.0616907 0.025 -1.34019e+06
0.108588 0.0626936 0.025 -1.47328e+06
0.110336 0.0637025 0.025 -1.41325e+06
0.11209 0.0647152 0.025 -1.39295e+06
0.113855 0.0657342 0.025 -1.45322e+06
0.115627 0.0667569 0.025 -1.28612e+06
0.117409 0.0677862 0.025 -1.58113e+06
0.119201 0.0688211 0.025 -1.54428e+06
0.121003 0.069861 0.025 -1.27937e+06
0.122816 0.0709077 0.025 -1.26167e+06
0.124635 0.0719583 0.025 -1.54398e+06
0.126468 0.0730161 0.025 -1.49934e+06
0.128308 0.0740787 0.025 -1.55295e+06
0.13016 0.0751478 0.025 -1.45298e+06
0.132024 0.0762243 0.025 -1.43446e+06
0.133897 0.0773051 0.025 -1.51466e+06
0.135782 0.0783936 0.025 -1.25258e+06
0.137675 0.0794865 0.025 -1.39048e+06
0.139581 0.0805871 0.025 -1.2568e+06
0.1415 0.081695 0.025 -1.18604e+06
0.143428 0.0828082 0.025 -1.37156e+06
0.145371 0.0839296 0.025 -1.20969e+06
0.147321 0.0850557 0.025 -1.26767e+06
0.149286 0.08619 0.025 -1.39017e+06
0.151261 0.0873308 0.025 -1.19723e+06
0.153249 0.0884787 0.025 -1.33219e+06
0.155252 0.0896351 0.025 -1.38486e+06
0.157265 0.0907968 0.025 -1.38605e+06
0.159292 0.0919672 0.025 -1.44858e+06
0.161329 0.093143 0.025 -1.43055e+06
