# wallHeatFlux  FACE_DATA 448
# x  y  z  wallHeatFlux
-0.778 -3.80769e-06 0 -198882
-0.773968 -3.80769e-06 0 -40154.3
-0.769872 -3.80769e-06 0 -24476.2
-0.76571 -3.80769e-06 0 -19627.1
-0.761486 -3.80769e-06 0 -16560.4
-0.757196 -3.80769e-06 0 -14607.2
-0.752841 -3.80769e-06 0 -13270.9
-0.748422 -3.80769e-06 0 -12263.6
-0.743939 -3.80769e-06 0 -11464.9
-0.739391 -3.80769e-06 0 -10802.3
-0.73478 -3.80769e-06 0 -10249.8
-0.730104 -3.80769e-06 0 -9786.98
-0.725364 -3.80769e-06 0 -9424.76
-0.720562 -3.80769e-06 0 -9173.92
-0.715696 -3.80769e-06 0 -9024.02
-0.710769 -3.80769e-06 0 -9141.19
-0.705778 -3.80769e-06 0 -9493.81
-0.700727 -3.80769e-06 0 -10130.2
-0.695615 -3.80769e-06 0 -10895.6
-0.690443 -3.80769e-06 0 -11602.9
-0.685211 -3.80769e-06 0 -12160.9
-0.67992 -3.80769e-06 0 -12590.8
-0.674571 -3.80769e-06 0 -12908.3
-0.669166 -3.80769e-06 0 -13151
-0.663704 -3.80769e-06 0 -13340.3
-0.658187 -3.80769e-06 0 -13475.9
-0.652616 -3.80769e-06 0 -13568.5
-0.646993 -3.80769e-06 0 -13623.4
-0.641317 -3.80769e-06 0 -13646.4
-0.635592 -3.80769e-06 0 -13651.8
-0.629817 -3.80769e-06 0 -13642.6
-0.623994 -3.80769e-06 0 -13615.4
-0.618125 -3.80769e-06 0 -13573
-0.61221 -3.80769e-06 0 -13524.5
-0.606252 -3.80769e-06 0 -13470.5
-0.600253 -3.80769e-06 0 -13416.2
-0.594213 -3.80769e-06 0 -13350.9
-0.588134 -3.80769e-06 0 -13290.7
-0.582018 -3.80769e-06 0 -13230.2
-0.575867 -3.80769e-06 0 -13169.5
-0.569683 -3.80769e-06 0 -13103
-0.563467 -3.80769e-06 0 -13036.3
-0.557221 -3.80769e-06 0 -12969.6
-0.550946 -3.80769e-06 0 -12912.5
-0.544647 -3.80769e-06 0 -12856.2
-0.538323 -3.80769e-06 0 -12799.3
-0.531979 -3.80769e-06 0 -12736.7
-0.525613 -3.80769e-06 0 -12679.3
-0.51923 -3.80769e-06 0 -12626.9
-0.512832 -3.80769e-06 0 -12574.4
-0.50642 -3.80769e-06 0 -12527
-0.499995 -3.80769e-06 0 -12474.3
-0.493562 -3.80769e-06 0 -12420.8
-0.487123 -3.80769e-06 0 -12367.3
-0.480677 -3.80769e-06 0 -12324.5
-0.47423 -3.80769e-06 0 -12286.5
-0.467782 -3.80769e-06 0 -12254.3
-0.461335 -3.80769e-06 0 -12211.1
-0.454892 -3.80769e-06 0 -12166.8
-0.448455 -3.80769e-06 0 -12118.1
-0.442026 -3.80769e-06 0 -12073.4
-0.435607 -3.80769e-06 0 -12029.5
-0.429202 -3.80769e-06 0 -12001.3
-0.42281 -3.80769e-06 0 -11978.4
-0.416434 -3.80769e-06 0 -11950.2
-0.410078 -3.80769e-06 0 -11915.6
-0.403743 -3.80769e-06 0 -11870.9
-0.39743 -3.80769e-06 0 -11826
-0.391141 -3.80769e-06 0 -11785.6
-0.38488 -3.80769e-06 0 -11746
-0.378648 -3.80769e-06 0 -11716.7
-0.372446 -3.80769e-06 0 -11709
-0.366277 -3.80769e-06 0 -11690.7
-0.360142 -3.80769e-06 0 -11671.3
-0.354042 -3.80769e-06 0 -11647.4
-0.347981 -3.80769e-06 0 -11617.7
-0.341959 -3.80769e-06 0 -11572
-0.335978 -3.80769e-06 0 -11531.1
-0.33004 -3.80769e-06 0 -11490.1
-0.324146 -3.80769e-06 0 -11460.9
-0.318298 -3.80769e-06 0 -11430.7
-0.312497 -3.80769e-06 0 -11422.3
-0.306744 -3.80769e-06 0 -11419.3
-0.301041 -3.80769e-06 0 -11410.9
-0.29539 -3.80769e-06 0 -11407.5
-0.28979 -3.80769e-06 0 -11394.3
-0.284243 -3.80769e-06 0 -11380.1
-0.278752 -3.80769e-06 0 -11355.5
-0.273316 -3.80769e-06 0 -11325.7
-0.267937 -3.80769e-06 0 -11290.4
-0.262614 -3.80769e-06 0 -11249.3
-0.25735 -3.80769e-06 0 -11214.8
-0.252146 -3.80769e-06 0 -11184.7
-0.247001 -3.80769e-06 0 -11160.3
-0.241916 -3.80769e-06 0 -11141.2
-0.236893 -3.80769e-06 0 -11127.7
-0.231931 -3.80769e-06 0 -11124.6
-0.227031 -3.80769e-06 0 -11122.7
-0.222195 -3.80769e-06 0 -11125
-0.217421 -3.80769e-06 0 -11122.4
-0.212711 -3.80769e-06 0 -11119.5
-0.208064 -3.80769e-06 0 -11112.4
-0.203482 -3.80769e-06 0 -11103.7
-0.198964 -3.80769e-06 0 -11096.5
-0.19451 -3.80769e-06 0 -11078.3
-0.19012 -3.80769e-06 0 -11060.1
-0.185796 -3.80769e-06 0 -11037
-0.181535 -3.80769e-06 0 -11013.1
-0.17734 -3.80769e-06 0 -10989.3
-0.173208 -3.80769e-06 0 -10961.5
-0.169141 -3.80769e-06 0 -10937.3
-0.165138 -3.80769e-06 0 -10915.1
-0.161199 -3.80769e-06 0 -10891.7
-0.157325 -3.80769e-06 0 -10874.1
-0.153513 -3.80769e-06 0 -10856.6
-0.149765 -3.80769e-06 0 -10849.4
-0.14608 -3.80769e-06 0 -10837.8
-0.142457 -3.80769e-06 0 -10837.1
-0.138897 -3.80769e-06 0 -10829.5
-0.135398 -3.80769e-06 0 -10829.5
-0.131961 -3.80769e-06 0 -10833.5
-0.128584 -3.80769e-06 0 -10837.4
-0.125268 -3.80769e-06 0 -10842.5
-0.122011 -3.80769e-06 0 -10842.4
-0.118815 -3.80769e-06 0 -10845.9
-0.115677 -3.80769e-06 0 -10851.3
-0.112597 -3.80769e-06 0 -10850.7
-0.109574 -3.80769e-06 0 -10850.9
-0.106609 -3.80769e-06 0 -10844.6
-0.1037 -3.80769e-06 0 -10844.3
-0.100846 -3.80769e-06 0 -10838.5
-0.098048 -3.80769e-06 0 -10833.3
-0.0953042 -3.80769e-06 0 -10827.8
-0.0926143 -3.80769e-06 0 -10817.1
-0.0899773 -3.80769e-06 0 -10811.8
-0.0873927 -3.80769e-06 0 -10801.1
-0.0848599 -3.80769e-06 0 -10796.2
-0.082378 -3.80769e-06 0 -10785.6
-0.0799465 -3.80769e-06 0 -10775.3
-0.0775645 -3.80769e-06 0 -10765.1
-0.0752312 -3.80769e-06 0 -10749.3
-0.0729462 -3.80769e-06 0 -10739.2
-0.0707085 -3.80769e-06 0 -10729.1
-0.0685175 -3.80769e-06 0 -10719.1
-0.0663725 -3.80769e-06 0 -10703.6
-0.0642727 -3.80769e-06 0 -10693.7
-0.0622173 -3.80769e-06 0 -10683.9
-0.0602058 -3.80769e-06 0 -10673.9
-0.0582373 -3.80769e-06 0 -10664.2
-0.0563111 -3.80769e-06 0 -10654.4
-0.0544265 -3.80769e-06 0 -10644.7
-0.0525827 -3.80769e-06 0 -10635.1
-0.0507792 -3.80769e-06 0 -10625.6
-0.0490152 -3.80769e-06 0 -10616.1
-0.0472898 -3.80769e-06 0 -10612.1
-0.0456025 -3.80769e-06 0 -10602.6
-0.0439526 -3.80769e-06 0 -10593.2
-0.0423394 -3.80769e-06 0 -10589.2
-0.0407622 -3.80769e-06 0 -10580.1
-0.0392203 -3.80769e-06 0 -10576.4
-0.0377131 -3.80769e-06 0 -10567.3
-0.0362398 -3.80769e-06 0 -10563.7
-0.0347999 -3.80769e-06 0 -10560.2
-0.0333926 -3.80769e-06 0 -10551.4
-0.0320175 -3.80769e-06 0 -10548
-0.0306737 -3.80769e-06 0 -10544.8
-0.0293607 -3.80769e-06 0 -10541.8
-0.0280779 -3.80769e-06 0 -10538.6
-0.0268246 -3.80769e-06 0 -10530.6
-0.0256004 -3.80769e-06 0 -10527.6
-0.0244045 -3.80769e-06 0 -10525.2
-0.0232363 -3.80769e-06 0 -10523
-0.0220954 -3.80769e-06 0 -10520.6
-0.0209812 -3.80769e-06 0 -10513.6
-0.019893 -3.80769e-06 0 -10506.6
-0.0188303 -3.80769e-06 0 -10494.7
-0.0177927 -3.80769e-06 0 -10456.4
-0.0167794 -3.80769e-06 0 -10364.7
-0.0157901 -3.80769e-06 0 -10149.2
-0.0148243 -3.80769e-06 0 -9724.27
-0.0138814 -3.80769e-06 0 -9046.16
-0.0129608 -3.80769e-06 0 -8189.86
-0.0120623 -3.80769e-06 0 -7294.82
-0.0111851 -3.80769e-06 0 -6524.55
-0.0103289 -3.80769e-06 0 -6083.89
-0.00949328 -3.80769e-06 0 -6083.03
-0.00867767 -3.80769e-06 0 -6508.12
-0.00788168 -3.80769e-06 0 -7047.97
-0.00710485 -3.80769e-06 0 -7600.81
-0.00634675 -3.80769e-06 0 -8069.42
-0.00560698 -3.80769e-06 0 -8438.41
-0.0048851 -3.80769e-06 0 -8712.77
-0.00418071 -3.80769e-06 0 -8933.58
-0.00349342 -3.80769e-06 0 -9129.44
-0.00282284 -3.80769e-06 0 -9411.11
-0.00216857 -3.80769e-06 0 -9895.52
-0.00153026 -3.80769e-06 0 -10894.5
-0.00090752 -3.80769e-06 0 -11582.9
-0.0003 -3.80769e-06 0 -10890.1
0.000259937 0.000146262 2.25537e-21 -11422.1
0.000779437 0.000446185 0 -14422.9
0.00129893 0.000746101 0 -16860.4
0.00181858 0.00104611 2.2554e-21 -18652.7
0.00233835 0.00134618 -2.25541e-21 -20191.6
0.00285828 0.00164636 2.25542e-21 -21772.9
0.00337841 0.00194664 0 -23639.5
0.00389877 0.00224706 0 -25903
0.00441941 0.00254764 -2.25544e-21 -28533.4
0.00494034 0.00284839 2.25545e-21 -31521.1
0.00546162 0.00314934 -2.25546e-21 -34735.6
0.00598328 0.0034505 2.25547e-21 -38061.7
0.00650535 0.00375191 2.25547e-21 -41418.6
0.00702786 0.00405357 2.25548e-21 -44831.9
0.00755087 0.00435552 0 -48266.1
0.00807439 0.00465776 -2.25549e-21 -51719.8
0.00859847 0.00496033 2.2555e-21 -55125.2
0.00912315 0.00526324 0 -58453.4
0.00964845 0.00556651 2.25551e-21 -61693.8
0.0101744 0.00587017 0 -64868.6
0.0107011 0.00617424 0 -67994
0.0112285 0.00647873 -2.25552e-21 -71187
0.0117567 0.00678367 0 -74469
0.0122857 0.00708907 0 -77935.9
0.0128156 0.00739497 0 -81495
0.0133463 0.00770137 -2.25554e-21 -85195.8
0.0138779 0.00800831 0 -89003.2
0.0144106 0.0083158 0 -92926.2
0.0149442 0.00862387 0 -97114.2
0.0154788 0.00893253 0 -101649
0.0160145 0.00924181 0 -106548
0.0165513 0.00955172 2.25556e-21 -111910
0.0170893 0.00986231 -2.25556e-21 -117674
0.0176284 0.0101736 0 -123766
0.0181687 0.0104855 0 -129435
0.0187103 0.0107982 2.25556e-21 -148778
0.0192532 0.0111117 2.25557e-21 -162219
0.0197975 0.0114259 2.25557e-21 -166860
0.0203431 0.0117408 0 -175359
0.0208901 0.0120566 4.51114e-21 -182312
0.0214385 0.0123732 -4.51114e-21 -184474
0.0219884 0.0126907 0 -190071
0.0225398 0.0130091 4.51114e-21 -194177
0.0230928 0.0133283 0 -196998
0.0236474 0.0136485 0 -183046
0.0242037 0.0139697 0 -184583
0.0247616 0.0142918 -4.51113e-21 -188298
0.0253212 0.0146148 -4.51113e-21 -192754
0.0258825 0.0149389 -4.51114e-21 -196206
0.0264456 0.015264 0 -199852
0.0270106 0.0155902 0 -202794
0.0275774 0.0159174 -4.51112e-21 -204744
0.0281462 0.0162457 0 -205369
0.0287168 0.0165752 4.51111e-21 -205221
0.0292895 0.0169059 -4.51111e-21 -204506
0.0298642 0.0172376 0 -202811
0.0304409 0.0175706 0 -199633
0.0310198 0.0179048 4.5111e-21 -195787
0.0316007 0.0182402 4.5111e-21 -191711
0.0321839 0.0185768 -4.51107e-21 -188076
0.0327693 0.0189148 0 -185565
0.0333569 0.0192541 0 -184810
0.0339469 0.0195947 4.51106e-21 -184124
0.0345392 0.0199366 0 -182948
0.0351339 0.02028 0 -181587
0.035731 0.0206247 4.51105e-21 -179299
0.0363305 0.0209708 -4.51103e-21 -177471
0.0369326 0.0213184 4.51102e-21 -176160
0.0375373 0.0216675 0 -174685
0.0381445 0.0220181 0 -173307
0.0387543 0.0223702 0 -172365
0.0393668 0.0227238 4.51099e-21 -170197
0.0399821 0.023079 -4.51097e-21 -168748
0.0406001 0.0234358 4.51097e-21 -167090
0.041221 0.0237942 0 -165893
0.0418446 0.0241542 0 -164696
0.0424712 0.024516 4.51092e-21 -163473
0.0431006 0.0248794 -4.51094e-21 -162593
0.0437331 0.0252445 0 -161457
0.0443686 0.0256114 4.51089e-21 -160099
0.0450071 0.02598 4.51089e-21 -159290
0.0456487 0.0263505 0 -158229
0.0462935 0.0267227 0 -157691
0.0469415 0.0270968 -4.51085e-21 -156797
0.0475927 0.0274728 0 -156322
0.0482473 0.0278507 -4.51081e-21 -155575
0.0489051 0.0282305 4.51081e-21 -154516
0.0495663 0.0286122 -4.51079e-21 -153853
0.050231 0.0289959 0 -153313
0.0508991 0.0293816 -4.51077e-21 -152371
0.0515707 0.0297694 4.51073e-21 -151580
0.0522459 0.0301592 -4.51073e-21 -151193
0.0529247 0.0305511 0 -150003
0.0536071 0.0309451 0 -149547
0.0542933 0.0313412 -4.51067e-21 -148816
0.0549832 0.0317395 0 -148350
0.0556769 0.03214 0 -147927
0.0563744 0.0325427 0 -147715
0.0570758 0.0329477 -4.5106e-21 -147551
0.0577812 0.0333549 0 -147428
0.0584905 0.0337645 0 -146828
0.0592039 0.0341763 -4.51056e-21 -146854
0.0599214 0.0345905 4.51053e-21 -146078
0.060643 0.0350071 0 -145993
0.0613688 0.0354262 4.51049e-21 -145305
0.0620989 0.0358477 -4.51048e-21 -145257
0.0628332 0.0362716 4.51046e-21 -144886
0.0635719 0.0366981 0 -144473
0.0643149 0.037127 4.51041e-21 -144494
0.0650624 0.0375586 0 -143901
0.0658144 0.0379927 0 -144041
0.0665709 0.0384295 4.51035e-21 -143564
0.0673321 0.0388689 -4.51035e-21 -143420
0.0680979 0.039311 0 -143220
0.0688683 0.0397558 -4.51029e-21 -142469
0.0696435 0.0402034 4.51029e-21 -142376
0.0704236 0.0406537 0 -141688
0.0712085 0.0411069 0 -141646
0.0719983 0.0415628 0 -141061
0.0727931 0.0420217 0 -140870
0.0735929 0.0424834 0 -140705
0.0743978 0.0429481 0 -140368
0.0752078 0.0434158 0 -140352
0.076023 0.0438864 4.5101e-21 -139788
0.0768435 0.0443601 -4.51009e-21 -139827
0.0776693 0.0448369 -4.51004e-21 -139436
0.0785004 0.0453167 4.51003e-21 -139002
0.079337 0.0457997 0 -138912
0.080179 0.0462858 0 -138324
0.0810266 0.0467751 0 -137920
0.0818797 0.0472677 0 -138023
0.0827385 0.0477635 0 -137436
0.083603 0.0482626 0 -137422
0.0844733 0.0487651 4.50985e-21 -137317
0.0853495 0.0492709 -4.50983e-21 -137221
0.0862316 0.0497801 0 -137227
0.0871195 0.0502927 -4.50978e-21 -136608
0.0880135 0.0508089 0 -136529
0.0889136 0.0513285 0 -136353
0.0898198 0.0518517 0 -135793
0.0907322 0.0523785 0 -135505
0.0916509 0.0529089 0 -135079
0.0925758 0.0534429 4.50963e-21 -134849
0.0935072 0.0539806 4.50959e-21 -134535
0.094445 0.054522 0 -134375
0.0953894 0.0550672 4.50953e-21 -134076
0.0963404 0.0556162 0 -133922
0.0972979 0.0561691 0 -133571
0.0982622 0.0567258 0 -133561
0.0992333 0.0572865 0 -133502
0.100211 0.057851 0 -133156
0.101196 0.0584196 0 -132463
0.102188 0.0589922 4.50935e-21 -132689
0.103187 0.0595689 4.50932e-21 -132259
0.104193 0.0601497 -4.50928e-21 -131400
0.105206 0.0607347 0 -131841
0.106226 0.0613239 0 -131318
0.107254 0.0619172 0 -131087
0.10829 0.0625149 4.50918e-21 -130952
0.109332 0.0631169 4.50915e-21 -130830
0.110382 0.0637232 -4.50911e-21 -131005
0.11144 0.064334 -4.50908e-21 -130654
0.112506 0.0649492 4.50905e-21 -130923
0.11358 0.0655688 4.50902e-21 -130134
0.114661 0.066193 0 -130015
0.11575 0.0668218 0 -130033
0.116847 0.0674552 0 -129835
0.117952 0.0680932 0 -129614
0.119065 0.068736 0 -129554
0.120187 0.0693834 4.50884e-21 -128685
0.121316 0.0700357 0 -128897
0.122455 0.0706928 0 -128928
0.123601 0.0713548 -4.50875e-21 -127777
0.124756 0.0720217 0 -128264
0.12592 0.0726935 -4.5087e-21 -127848
0.127093 0.0733704 0 -127606
0.128274 0.0740524 0 -127134
0.129464 0.0747395 4.50859e-21 -127217
0.130663 0.0754317 0 -127093
0.131871 0.0761292 4.50853e-21 -126563
0.133088 0.0768319 4.50851e-21 -127197
0.134315 0.0775399 0 -126579
0.13555 0.0782532 4.50845e-21 -125997
0.136795 0.078972 0 -126180
0.13805 0.0796962 0 -125353
0.139314 0.080426 -4.50834e-21 -125666
0.140587 0.0811613 -4.50831e-21 -124967
0.14187 0.0819021 4.50827e-21 -124874
0.143163 0.0826487 0 -124637
0.144466 0.0834009 0 -124646
0.145779 0.0841589 0 -124709
0.147102 0.0849227 4.50815e-21 -123915
0.148435 0.0856924 4.50811e-21 -123763
0.149779 0.0864679 0 -123700
0.151133 0.0872495 4.50805e-21 -123283
0.152497 0.0880371 4.50801e-21 -123106
0.153871 0.0888307 4.50798e-21 -123752
0.155257 0.0896305 0 -122733
0.156653 0.0904364 4.50791e-21 -122326
0.15806 0.0912487 4.50787e-21 -122809
0.159478 0.0920672 0 -121907
0.160907 0.092892 0 -121698
0.162347 0.0937233 0 -121794
0.163798 0.0945611 4.50774e-21 -127925
0.16526 0.0954054 0 -122870
0.166734 0.0962563 0 -121512
0.168219 0.0971138 0 -120613
0.169716 0.097978 4.50761e-21 -120668
0.171225 0.098849 4.50758e-21 -120255
0.172745 0.0997268 4.50754e-21 -120437
0.174278 0.100611 0 -119628
0.175822 0.101503 0 -120272
0.177379 0.102402 0 -119420
0.178947 0.103308 4.50741e-21 -120171
0.180529 0.10422 4.50737e-21 -119684
0.182122 0.10514 4.50734e-21 -118745
0.183728 0.106068 0 -125419
0.185347 0.107002 -4.50727e-21 -126511
0.186979 0.107944 0 -126398
0.188623 0.108894 0 -126656
0.190281 0.109851 4.50716e-21 -126383
0.191952 0.110815 0 -126019
0.193636 0.111787 -4.5071e-21 -125158
0.195333 0.112767 -4.50707e-21 -118285
0.197044 0.113755 -4.50702e-21 -124213
0.198768 0.114751 -4.507e-21 -124076
0.200506 0.115754 -4.50696e-21 -122790
0.202258 0.116766 0 -117248
0.204024 0.117785 4.50688e-21 -122630
0.205805 0.118813 4.50686e-21 -124650
0.207599 0.119849 0 -122183
0.209408 0.120893 -4.50679e-21 -122979
0.211231 0.121946 -4.50676e-21 -122405
0.213068 0.123007 0 -121598
0.214921 0.124076 0 -121086
0.216788 0.125154 0 -120942
0.21867 0.126241 0 -115732
0.220567 0.127336 0 -120403
0.22248 0.12844 0 -114818
0.224408 0.129553 0 -114642
0.226351 0.130675 0 -113540
0.22831 0.131806 0 -113367
0.230284 0.132946 9.01282e-21 -113018
0.232275 0.134095 0 -118521
0.234282 0.135254 9.01268e-21 -120231
0.236304 0.136421 0 -120994
0.238344 0.137598 9.01253e-21 -118932
0.2404 0.138785 0 -119356
0.242472 0.139982 0 -118783
