# p  FACE_DATA 398
# x  y  z  p
-0.7975 0 0.025 4473.31
-0.79239 0 0.025 3667.75
-0.787056 0 0.025 2966.9
-0.781492 0 0.025 2827.6
-0.775691 0 0.025 2741.55
-0.769649 0 0.025 2725.58
-0.763362 0 0.025 2757.57
-0.756822 0 0.025 2782.48
-0.750025 0 0.025 2798.95
-0.742968 0 0.025 2805.1
-0.735648 0 0.025 2809.22
-0.72806 0 0.025 2810.51
-0.720203 0 0.025 2810.58
-0.712076 0 0.025 2809.88
-0.703677 0 0.025 2809.85
-0.695006 0 0.025 2809.54
-0.686065 0 0.025 2808.84
-0.676855 0 0.025 2808.6
-0.667379 0 0.025 2804.35
-0.65764 0 0.025 2801.82
-0.647644 0 0.025 2803.06
-0.637397 0 0.025 2800.49
-0.626906 0 0.025 2796.7
-0.616179 0 0.025 2797.35
-0.605224 0 0.025 2794.59
-0.594054 0 0.025 2792.86
-0.582678 0 0.025 2789.94
-0.57111 0 0.025 2788.6
-0.559364 0 0.025 2786.9
-0.547454 0 0.025 2786.8
-0.535396 0 0.025 2783.78
-0.523205 0 0.025 2781.43
-0.510901 0 0.025 2779.71
-0.4985 0 0.025 2778.04
-0.486021 0 0.025 2778.31
-0.473483 0 0.025 2777.38
-0.460905 0 0.025 2774.54
-0.448308 0 0.025 2772.63
-0.435709 0 0.025 2771.19
-0.42313 0 0.025 2769.56
-0.41059 0 0.025 2769.04
-0.39811 0 0.025 2769.63
-0.385706 0 0.025 2768.77
-0.373398 0 0.025 2766.71
-0.361205 0 0.025 2764.65
-0.349141 0 0.025 2763.19
-0.337226 0 0.025 2762.29
-0.325475 0 0.025 2761.49
-0.313901 0 0.025 2761.19
-0.30252 0 0.025 2761.14
-0.291343 0 0.025 2761.08
-0.280382 0 0.025 2760.55
-0.269646 0 0.025 2759.9
-0.259148 0 0.025 2758.76
-0.248893 0 0.025 2757.77
-0.23889 0 0.025 2756.57
-0.229143 0 0.025 2755.56
-0.219659 0 0.025 2754.37
-0.210441 0 0.025 2753.24
-0.201491 0 0.025 2751.99
-0.192812 0 0.025 2751.04
-0.184405 0 0.025 2750.09
-0.176269 0 0.025 2749.57
-0.168404 0 0.025 2749.22
-0.160808 0 0.025 2749.54
-0.15348 0 0.025 2750.29
-0.146415 0 0.025 2751.34
-0.13961 0 0.025 2752.28
-0.133063 0 0.025 2753.11
-0.126767 0 0.025 2753.55
-0.120718 0 0.025 2753.73
-0.11491 0 0.025 2753.49
-0.109339 0 0.025 2753.01
-0.103997 0 0.025 2752.3
-0.0988805 0 0.025 2751.48
-0.0939808 0 0.025 2750.5
-0.0892928 0 0.025 2749.45
-0.0848096 0 0.025 2748.33
-0.0805248 0 0.025 2747.22
-0.0764316 0 0.025 2746.17
-0.0725237 0 0.025 2745.24
-0.0687943 0 0.025 2744.4
-0.065237 0 0.025 2743.69
-0.0618454 0 0.025 2743.09
-0.058613 0 0.025 2742.57
-0.0555337 0 0.025 2742.15
-0.0526013 0 0.025 2741.81
-0.0498099 0 0.025 2741.56
-0.0471536 0 0.025 2741.37
-0.0446266 0 0.025 2741.25
-0.0422235 0 0.025 2741.17
-0.039939 0 0.025 2741.13
-0.0377676 0 0.025 2741.06
-0.0357044 0 0.025 2741.18
-0.0337445 0 0.025 2741.86
-0.0318832 0 0.025 2809.03
-0.0301159 0 0.025 3721.5
-0.0284383 0 0.025 5563.68
-0.0268461 0 0.025 6987.85
-0.0253353 0 0.025 7912.44
-0.023902 0 0.025 8475.84
-0.0225426 0 0.025 8911.08
-0.0212532 0 0.025 9273.15
-0.0200306 0 0.025 9579.55
-0.0188715 0 0.025 9835.24
-0.0177728 0 0.025 10054.1
-0.0167313 0 0.025 10247.8
-0.0157444 0 0.025 10423.8
-0.0148092 0 0.025 10585.9
-0.0139232 0 0.025 10736.1
-0.0130838 0 0.025 10876.6
-0.0122887 0 0.025 11008
-0.0115356 0 0.025 11130.7
-0.0108223 0 0.025 11244.4
-0.0101469 0 0.025 11348.8
-0.00950727 0 0.025 11443.3
-0.00890168 0 0.025 11527.9
-0.00832835 0 0.025 11603
-0.00778557 0 0.025 11669.3
-0.00727176 0 0.025 11727.8
-0.0067854 0 0.025 11779.7
-0.00632507 0 0.025 11826.7
-0.00588937 0 0.025 11870.4
-0.00547703 0 0.025 11912.8
-0.0050868 0 0.025 11955.8
-0.00471753 0 0.025 12000.9
-0.0043681 0 0.025 12050
-0.00403746 0 0.025 12104.8
-0.00372461 0 0.025 12165.5
-0.0034286 0 0.025 12233.5
-0.00314855 0 0.025 12311.3
-0.0028836 0 0.025 12401.2
-0.00263294 0 0.025 12495.1
-0.00239581 0 0.025 12597.2
-0.0021715 0 0.025 12707.5
-0.00195929 0 0.025 12825.1
-0.00175856 0 0.025 12949.2
-0.00156869 0 0.025 13078.5
-0.00138908 0 0.025 13211.8
-0.0012192 0 0.025 13347.4
-0.00105853 0 0.025 13483.4
-0.000906546 0 0.025 13617.2
-0.000762803 0 0.025 13744.4
-0.000626848 0 0.025 13858.9
-0.000498265 0 0.025 13951.9
-0.000376656 0 0.025 14012.8
-0.000261642 0 0.025 14032.5
-0.00015287 0 0.025 14031.4
-5e-05 0 0.025 14082.6
4.14519e-05 2.79596e-05 0.025 13727.1
0.000125371 8.45641e-05 0.025 13782.1
0.000211347 0.000142556 0.025 13749.2
0.000299429 0.000201968 0.025 13682.8
0.000389669 0.000262835 0.025 13600.2
0.000482118 0.000325193 0.025 13511.8
0.000576831 0.000389077 0.025 13422.7
0.000673861 0.000454524 0.025 13336.7
0.000773265 0.000521574 0.025 13257.1
0.0008751 0.000590262 0.025 13186.8
0.000979426 0.000660632 0.025 13127.5
0.0010863 0.000732721 0.025 13080.1
0.00119579 0.000806572 0.025 13045.4
0.00130795 0.000882227 0.025 13022.5
0.00142285 0.00095973 0.025 13011.4
0.00154056 0.00103912 0.025 13014.4
0.00166115 0.00112046 0.025 13029.8
0.00178467 0.00120378 0.025 13056.6
0.00191121 0.00128913 0.025 13094.2
0.00204083 0.00137656 0.025 13143.2
0.00217362 0.00146612 0.025 13202.1
0.00230964 0.00155787 0.025 13270.7
0.00244897 0.00165185 0.025 13349.2
0.00259169 0.00174812 0.025 13437.9
0.00273789 0.00184673 0.025 13535.3
0.00288765 0.00194774 0.025 13642
0.00304105 0.00205122 0.025 13757.7
0.00319818 0.00215719 0.025 13883
0.00335912 0.00226575 0.025 14017.5
0.00352397 0.00237695 0.025 14161.2
0.00369283 0.00249085 0.025 14314.9
0.00386579 0.00260751 0.025 14478.3
0.00404294 0.00272699 0.025 14651.9
0.00422438 0.00284938 0.025 14836
0.00441022 0.00297474 0.025 15031
0.00460056 0.00310312 0.025 15237.5
0.00479552 0.00323462 0.025 15456.4
0.00499519 0.0033693 0.025 15687.4
0.00519968 0.00350723 0.025 15932.3
0.00540911 0.00364849 0.025 16191.1
0.00562361 0.00379318 0.025 16465.2
0.00584329 0.00394134 0.025 16755.3
0.00606826 0.00409309 0.025 17062.5
0.00629865 0.00424849 0.025 17387.8
0.0065346 0.00440764 0.025 17732.9
0.00677623 0.00457063 0.025 18098.7
0.00702368 0.00473753 0.025 18487.3
0.00727707 0.00490844 0.025 18899.7
0.00753655 0.00508347 0.025 19338.3
0.00780227 0.00526269 0.025 19805.1
0.00807436 0.00544622 0.025 20302.1
0.00835298 0.00563415 0.025 20832.3
0.00863826 0.00582659 0.025 21397.7
0.00893038 0.00602362 0.025 22001.8
0.00922949 0.00622537 0.025 22646.7
0.00953574 0.00643195 0.025 23336.9
0.00984929 0.00664345 0.025 24074.1
0.0101703 0.00686 0.025 24865.7
0.0104991 0.00708171 0.025 25712.4
0.0108356 0.00730871 0.025 26620.6
0.0111801 0.0075411 0.025 27596.7
0.0115329 0.00777902 0.025 28647.1
0.011894 0.00802259 0.025 29776.3
0.0122637 0.00827194 0.025 30997.9
0.0126421 0.00852719 0.025 32315.7
0.0130295 0.0087885 0.025 33741.7
0.013426 0.00905597 0.025 35289.8
0.013832 0.00932978 0.025 36975.3
0.0142475 0.00961003 0.025 38808.9
0.0146727 0.0098969 0.025 40816.1
0.0151081 0.0101905 0.025 43009.4
0.0155536 0.010491 0.025 45403.2
0.0160097 0.0107986 0.025 48018.2
0.0164764 0.0111134 0.025 50868.3
0.016954 0.0114356 0.025 53969.7
0.0174427 0.0117653 0.025 57330
0.0179429 0.0121026 0.025 60971.5
0.0184548 0.0124479 0.025 64903.4
0.0189786 0.0128013 0.025 69157.5
0.0195146 0.0131628 0.025 73777.9
0.020063 0.0135327 0.025 78777.5
0.0206242 0.0139112 0.025 84179.1
0.0211983 0.0142984 0.025 89999.4
0.0217857 0.0146947 0.025 96259.9
0.0223867 0.0151 0.025 103050
0.0230015 0.0155147 0.025 110447
0.0236304 0.0159389 0.025 118537
0.0242738 0.0163729 0.025 127381
0.0249318 0.0168167 0.025 137065
0.025605 0.0172708 0.025 147588
0.0262935 0.0177352 0.025 158531
0.0269977 0.0182102 0.025 169132
0.0277178 0.0186959 0.025 177421
0.0284544 0.0191927 0.025 181723
0.0292075 0.0197008 0.025 181954
0.0299777 0.0202203 0.025 180105
0.0307653 0.0207514 0.025 173942
0.0315704 0.0212945 0.025 167738
0.0323937 0.0218499 0.025 161653
0.0332354 0.0224176 0.025 155917
0.0340959 0.022998 0.025 150805
0.0349755 0.0235913 0.025 146315
0.0358747 0.0241978 0.025 142423
0.0367938 0.0248178 0.025 138914
0.0377331 0.0254513 0.025 135761
0.0386932 0.0260989 0.025 132930
0.0396743 0.0267606 0.025 130591
0.0406769 0.0274369 0.025 128832
0.0417013 0.0281279 0.025 127570
0.042748 0.0288339 0.025 126615
0.0438175 0.0295552 0.025 125815
0.04491 0.0302922 0.025 125242
0.0460262 0.031045 0.025 124907
0.0471662 0.031814 0.025 124668
0.0483306 0.0325995 0.025 124588
0.0495199 0.0334016 0.025 124757
0.0507344 0.0342208 0.025 124788
0.0519746 0.0350573 0.025 124657
0.0532409 0.0359114 0.025 124522
0.0545339 0.0367835 0.025 124926
0.0558538 0.0376739 0.025 125604
0.0572012 0.0385827 0.025 125824
0.0585766 0.0395104 0.025 125857
0.0599804 0.0404573 0.025 125597
0.061413 0.0414236 0.025 125960
0.0628748 0.0424096 0.025 126891
0.0643665 0.0434157 0.025 127649
0.0658883 0.0444422 0.025 127760
0.0674408 0.0454894 0.025 127424
0.0690245 0.0465576 0.025 126987
0.0706398 0.0476471 0.025 127366
0.0722871 0.0487582 0.025 128193
0.0739669 0.0498912 0.025 128484
0.0756797 0.0510466 0.025 128304
0.0774258 0.0522244 0.025 127629
0.0792059 0.053425 0.025 126775
0.0810203 0.0546489 0.025 126961
0.0828694 0.0558961 0.025 127801
0.0847537 0.0571671 0.025 128840
0.0866737 0.0584622 0.025 128992
0.0886298 0.0597816 0.025 128914
0.0906224 0.0611256 0.025 128588
0.0926518 0.0624944 0.025 128362
0.0947185 0.0638884 0.025 128779
0.096823 0.065308 0.025 129448
0.0989659 0.0667532 0.025 129829
0.101147 0.0682245 0.025 129635
0.103367 0.0697219 0.025 128873
0.105626 0.0712458 0.025 128263
0.107926 0.0727965 0.025 127701
0.110265 0.074374 0.025 128131
0.112644 0.0759789 0.025 128762
0.115063 0.0776111 0.025 129854
0.117524 0.0792709 0.025 130209
0.120026 0.0809585 0.025 130449
0.122569 0.0826741 0.025 130442
0.125155 0.0844179 0.025 130078
0.127782 0.0861901 0.025 129541
0.130451 0.0879908 0.025 128728
0.133163 0.08982 0.025 128179
0.135918 0.0916781 0.025 128165
0.138716 0.0935651 0.025 128986
0.141556 0.095481 0.025 130062
0.14444 0.097426 0.025 130421
0.147367 0.0994004 0.025 129968
0.150337 0.101404 0.025 129494
0.153351 0.103437 0.025 128331
0.156408 0.105498 0.025 126697
0.159508 0.107589 0.025 127111
0.162651 0.10971 0.025 127068
0.165838 0.111859 0.025 126545
0.169069 0.114039 0.025 127556
0.172343 0.116247 0.025 126166
0.175659 0.118483 0.025 125034
0.179018 0.120749 0.025 123606
0.182421 0.123045 0.025 122257
0.185866 0.125368 0.025 122115
0.189353 0.12772 0.025 122536
0.192882 0.1301 0.025 123155
0.196453 0.132509 0.025 123277
0.200065 0.134946 0.025 122537
0.203718 0.13741 0.025 121812
0.207412 0.139901 0.025 121282
0.211146 0.14242 0.025 120158
0.214919 0.144965 0.025 119384
0.218732 0.147537 0.025 119958
0.222583 0.150134 0.025 119961
0.226472 0.152757 0.025 121043
0.230399 0.155406 0.025 121374
0.234362 0.15808 0.025 121797
0.238362 0.160777 0.025 121606
0.242396 0.163498 0.025 121877
0.246466 0.166244 0.025 121862
0.250569 0.169012 0.025 122483
0.254706 0.171801 0.025 121626
0.258874 0.174613 0.025 121283
0.263074 0.177446 0.025 120579
0.267304 0.180299 0.025 120788
0.271564 0.183172 0.025 121043
0.275852 0.186064 0.025 120773
0.280168 0.188975 0.025 121150
0.28451 0.191904 0.025 120936
0.288876 0.19485 0.025 120545
0.293268 0.197812 0.025 120843
0.297683 0.20079 0.025 120033
0.302119 0.203782 0.025 119684
0.306577 0.206788 0.025 119806
0.311054 0.209808 0.025 119499
0.315549 0.212841 0.025 120051
0.320063 0.215885 0.025 119849
0.324591 0.218939 0.025 120776
0.329134 0.222003 0.025 121533
0.333691 0.225077 0.025 121530
0.33826 0.228159 0.025 121989
0.342839 0.231248 0.025 121818
0.347428 0.234343 0.025 122271
0.352025 0.237444 0.025 121300
0.356628 0.240548 0.025 121372
0.361237 0.243658 0.025 121367
0.36585 0.246769 0.025 120447
0.370465 0.249882 0.025 121391
0.375082 0.252996 0.025 120859
0.379698 0.25611 0.025 120702
0.384313 0.259223 0.025 121257
0.388926 0.262333 0.025 120765
0.393534 0.265442 0.025 121029
0.398136 0.268546 0.025 121152
0.40273 0.271645 0.025 120652
0.407317 0.274739 0.025 120607
0.411894 0.277826 0.025 120300
0.41646 0.280906 0.025 121160
0.421014 0.283977 0.025 120698
0.425554 0.28704 0.025 120606
0.430079 0.290092 0.025 120888
0.434588 0.293133 0.025 120833
0.439079 0.296162 0.025 121360
0.443551 0.299179 0.025 121248
0.448004 0.302183 0.025 121172
0.452437 0.305172 0.025 121309
0.456846 0.308146 0.025 121572
0.461232 0.311105 0.025 121509
0.465593 0.314047 0.025 121616
0.469929 0.316971 0.025 121388
0.474238 0.319878 0.025 122115
0.47852 0.322766 0.025 121689
0.482773 0.325635 0.025 121623
0.486996 0.328483 0.025 121220
0.491189 0.331311 0.025 120646
0.49535 0.334118 0.025 121292
