# Wall heat-flux
# Time        	patch         	min           	max           	integral      
5200          	base	-1.673460e+06	-6.380106e+04	-2.513962e+03
