# Wall heat-flux
# Time        	patch         	min           	max           	integral      
0             	base	1.128193e+07	1.494655e+07	1.175431e+05
