# y+ ()       
# Time        	patch         	min           	max           	average       
8300          	base	7.314162e-03	2.429236e+01	5.479525e+00
