# p  FACE_DATA 276
# x  y  z  p
-1.89807 0 0.0105 22106.3
-1.81671 0 0.0105 22010.6
-1.74016 0 0.0105 22065.2
-1.66815 0 0.0105 22099.4
-1.6004 0 0.0105 22100.9
-1.53666 0 0.0105 22097.8
-1.47668 0 0.0105 22094.1
-1.42024 0 0.0105 22090.1
-1.36711 0 0.0105 22086
-1.31712 0 0.0105 22082.8
-1.27005 0 0.0105 22080.7
-1.22575 0 0.0105 22078.3
-1.18403 0 0.0105 22076.2
-1.14475 0 0.0105 22073.8
-1.10775 0 0.0105 22071.8
-1.07289 0 0.0105 22070.6
-1.04005 0 0.0105 22069.5
-1.0091 0 0.0105 22068.3
-0.979914 0 0.0105 22067.1
-0.952392 0 0.0105 22066.5
-0.926429 0 0.0105 22066.5
-0.901924 0 0.0105 22067.3
-0.878785 0 0.0105 22068.6
-0.856927 0 0.0105 22070.5
-0.836265 0 0.0105 22073.4
-0.816722 0 0.0105 22077.4
-0.798224 0 0.0105 22082.8
-0.780701 0 0.0105 22090
-0.764088 0 0.0105 22098.6
-0.74832 0 0.0105 22108.7
-0.733339 0 0.0105 22120.1
-0.719089 0 0.0105 22133
-0.705515 0 0.0105 22147.2
-0.692565 0 0.0105 22162.6
-0.680192 0 0.0105 22179
-0.668349 0 0.0105 22196.3
-0.65699 0 0.0105 22214.3
-0.646073 0 0.0105 22232.8
-0.635557 0 0.0105 22251.7
-0.6254 0 0.0105 22270.9
-0.615568 0 0.0105 22290.2
-0.60602 0 0.0105 22309.5
-0.596721 0 0.0105 22328.8
-0.587638 0 0.0105 22348
-0.578734 0 0.0105 22367
-0.569975 0 0.0105 22385.7
-0.56133 0 0.0105 22404.1
-0.552766 0 0.0105 22422.1
-0.54425 0 0.0105 22439.5
-0.535841 0 0.0105 22456.4
-0.527746 0 0.0105 22472.2
-0.52008 0 0.0105 22486.7
-0.512816 0 0.0105 22500.2
-0.50593 0 0.0105 22512.5
-0.499397 0 0.0105 22523.6
-0.493195 0 0.0105 22533.7
-0.487302 0 0.0105 22542.7
-0.481698 0 0.0105 22550.9
-0.476362 0 0.0105 22558.4
-0.471278 0 0.0105 22565.3
-0.466428 0 0.0105 22571.5
-0.461793 0 0.0105 22577.3
-0.457359 0 0.0105 22582.8
-0.45311 0 0.0105 22587.9
-0.449029 0 0.0105 22592.8
-0.445105 0 0.0105 22597.3
-0.441325 0 0.0105 22601.4
-0.437672 0 0.0105 22605
-0.434136 0 0.0105 22608.2
-0.430704 0 0.0105 22611.1
-0.427365 0 0.0105 22613.8
-0.424106 0 0.0105 22616.3
-0.420917 0 0.0105 22618.7
-0.417786 0 0.0105 22621.1
-0.414702 0 0.0105 22623.3
-0.411656 0 0.0105 22625.3
-0.408635 0 0.0105 22626.7
-0.405629 0 0.0105 22628.9
-0.402629 0 0.0105 22631.5
-0.399629 0 0.0105 22633.3
-0.396628 0 0.0105 22634.9
-0.393628 0 0.0105 22636.4
-0.390626 0 0.0105 22637.8
-0.387625 0 0.0105 22639.1
-0.384621 0 0.0105 22640.1
-0.381618 0 0.0105 22641.1
-0.378613 0 0.0105 22642.1
-0.375606 0 0.0105 22643.3
-0.372597 0 0.0105 22644.6
-0.369588 0 0.0105 22646
-0.366577 0 0.0105 22647.5
-0.363563 0 0.0105 22648.9
-0.360546 0 0.0105 22650.2
-0.357529 0 0.0105 22651.2
-0.354508 0 0.0105 22652.1
-0.351485 0 0.0105 22652.8
-0.348458 0 0.0105 22653.5
-0.345429 0 0.0105 22654.1
-0.342397 0 0.0105 22654.7
-0.339361 0 0.0105 22655.3
-0.336321 0 0.0105 22655.9
-0.333279 0 0.0105 22656.5
-0.330233 0 0.0105 22657.1
-0.327182 0 0.0105 22657.7
-0.324126 0 0.0105 22658.2
-0.321068 0 0.0105 22658.7
-0.318004 0 0.0105 22659
-0.314936 0 0.0105 22659.4
-0.311863 0 0.0105 22659.6
-0.308785 0 0.0105 22659.9
-0.305702 0 0.0105 22660.1
-0.302614 0 0.0105 22660.2
-0.299519 0 0.0105 22660.4
-0.29642 0 0.0105 22660.5
-0.293315 0 0.0105 22660.6
-0.290203 0 0.0105 22660.7
-0.287086 0 0.0105 22660.8
-0.283963 0 0.0105 22660.9
-0.280832 0 0.0105 22661
-0.277695 0 0.0105 22661.2
-0.274551 0 0.0105 22661.5
-0.271401 0 0.0105 22661.7
-0.268244 0 0.0105 22661.9
-0.265079 0 0.0105 22661.9
-0.261906 0 0.0105 22661.8
-0.258725 0 0.0105 22661.7
-0.255537 0 0.0105 22661.6
-0.252341 0 0.0105 22661.4
-0.249137 0 0.0105 22661.4
-0.245924 0 0.0105 22661.3
-0.242703 0 0.0105 22661.2
-0.239474 0 0.0105 22661
-0.236236 0 0.0105 22660.8
-0.232987 0 0.0105 22660.5
-0.22973 0 0.0105 22660.3
-0.226464 0 0.0105 22659.9
-0.223189 0 0.0105 22659.6
-0.219903 0 0.0105 22659.3
-0.216607 0 0.0105 22658.9
-0.213302 0 0.0105 22658.6
-0.209985 0 0.0105 22658.2
-0.20666 0 0.0105 22657.8
-0.203323 0 0.0105 22657.4
-0.199974 0 0.0105 22657
-0.196616 0 0.0105 22656.6
-0.193246 0 0.0105 22656.1
-0.189864 0 0.0105 22655.7
-0.186472 0 0.0105 22655.4
-0.183068 0 0.0105 22655
-0.179651 0 0.0105 22654.7
-0.176222 0 0.0105 22654.4
-0.172781 0 0.0105 22654.1
-0.169328 0 0.0105 22653.7
-0.165862 0 0.0105 22653.2
-0.162383 0 0.0105 22652.7
-0.158892 0 0.0105 22652.2
-0.155387 0 0.0105 22652.3
-0.151868 0 0.0105 22649.7
-0.148337 0 0.0105 22653.4
-0.14479 0 0.0105 22644.5
-0.141231 0 0.0105 23004.9
-0.137658 0 0.0105 29200.7
-0.134069 0 0.0105 39653.9
-0.130466 0 0.0105 43066.5
-0.126849 0 0.0105 44989.1
-0.123216 0 0.0105 46244.4
-0.119568 0 0.0105 47003.4
-0.115906 0 0.0105 47634.2
-0.112228 0 0.0105 48211.1
-0.108534 0 0.0105 48678.5
-0.104824 0 0.0105 49126.6
-0.101098 0 0.0105 49564.7
-0.097355 0 0.0105 49963.1
-0.0935961 0 0.0105 50344.9
-0.0898204 0 0.0105 50712.8
-0.0860278 0 0.0105 51061.6
-0.0822181 0 0.0105 51390.7
-0.0783911 0 0.0105 51702
-0.0745465 0 0.0105 51997.6
-0.0706841 0 0.0105 52274.2
-0.0668039 0 0.0105 52533.8
-0.0629054 0 0.0105 52763.7
-0.0589886 0 0.0105 52950.5
-0.0550531 0 0.0105 53070.1
-0.0510989 0 0.0105 53109.3
-0.0471257 0 0.0105 53057.1
-0.0431332 0 0.0105 52947.6
-0.0391214 0 0.0105 52844.5
-0.0350898 0 0.0105 53141.7
-0.0310384 0 0.0105 53923.6
-0.0269669 0 0.0105 54635
-0.0228751 0 0.0105 55585.9
-0.0187628 0 0.0105 56701.2
-0.0146297 0 0.0105 57961.4
-0.0104756 0 0.0105 59355.2
-0.00630039 0 0.0105 60852.6
-0.00210372 0 0.0105 62431.7
0.00158228 0 0.0105 63958
0.00474683 0 0.0105 65294.4
0.00791139 0 0.0105 66713.8
0.0110759 0 0.0105 68185.2
0.0142405 0 0.0105 69702.1
0.017405 0 0.0105 71251.6
0.0205696 0 0.0105 72825.3
0.0237342 0 0.0105 74414.6
0.0268988 0 0.0105 76009.5
0.0300633 0 0.0105 77602
0.0332279 0 0.0105 79183
0.0363924 0 0.0105 80743.6
0.039557 0 0.0105 82279.7
0.0427215 0 0.0105 83790
0.0458861 0 0.0105 85272.2
0.0490507 0 0.0105 86722.2
0.0522152 0 0.0105 88134.1
0.0553798 0 0.0105 89500.2
0.0585443 0 0.0105 90812
0.0617089 0 0.0105 92066.4
0.0648734 0 0.0105 93263
0.068038 0 0.0105 94405
0.0712026 0 0.0105 95499.7
0.0743671 0 0.0105 96556.1
0.0775317 0 0.0105 97581.7
0.0806962 0 0.0105 98577.9
0.0838607 0 0.0105 99542.6
0.0870253 0 0.0105 100472
0.0901899 0 0.0105 101359
0.0933545 0 0.0105 102194
0.096519 0 0.0105 102966
0.0996836 0 0.0105 103670
0.102848 0 0.0105 104308
0.106012 0 0.0105 104887
0.109177 0 0.0105 105422
0.112341 0 0.0105 105928
0.115506 0 0.0105 106424
0.118671 0 0.0105 106921
0.121835 0 0.0105 107429
0.125 0 0.0105 107951
0.128164 0 0.0105 108486
0.131329 0 0.0105 109025
0.134493 0 0.0105 109557
0.137658 0 0.0105 110069
0.140823 0 0.0105 110546
0.143987 0 0.0105 110978
0.147152 0 0.0105 111356
0.150316 0 0.0105 111665
0.153481 0 0.0105 111895
0.156645 0 0.0105 111967
0.15981 0 0.0105 111495
0.162975 0 0.0105 111402
0.166139 0 0.0105 111248
0.169304 0 0.0105 110483
0.172468 0 0.0105 110055
0.175633 0 0.0105 109236
0.178797 0 0.0105 108205
0.181962 0 0.0105 107024
0.185126 0 0.0105 105693
0.188291 0 0.0105 104237
0.191455 0 0.0105 102677
0.19462 0 0.0105 101037
0.197785 0 0.0105 99337.2
0.20095 0 0.0105 97598.2
0.204114 0 0.0105 95833.6
0.207278 0 0.0105 94056.8
0.210443 0 0.0105 92278.2
0.213607 0 0.0105 90506.4
0.216772 0 0.0105 88748.4
0.219936 0 0.0105 87008.4
0.223101 0 0.0105 85289.3
0.226266 0 0.0105 83593.3
0.22943 0 0.0105 81921.5
0.232595 0 0.0105 80275.7
0.235759 0 0.0105 78655.8
0.238924 0 0.0105 77068.7
0.242088 0 0.0105 75487.1
0.245253 0 0.0105 74037.8
0.248417 0 0.0105 71825.3
