# wallShearStress  FACE_DATA 276
# x  y  z  wallShearStress_x  wallShearStress_y  wallShearStress_z
-1.89807 0 0.0105 -151.521 -0.536503 6.56266e-17
-1.81671 0 0.0105 -118.867 -0.00311574 -1.52849e-17
-1.74016 0 0.0105 -174.894 -0.000500141 2.12291e-19
-1.66815 0 0.0105 -183.947 0.00105056 8.01096e-21
-1.6004 0 0.0105 -183.529 0.000946284 0
-1.53666 0 0.0105 -181.509 0.000645067 -2.00274e-20
-1.47668 0 0.0105 -179.199 0.000455202 -2.00274e-20
-1.42024 0 0.0105 -177.028 0.000419411 -6.00822e-21
-1.36711 0 0.0105 -175.085 0.000388786 6.00822e-21
-1.31712 0 0.0105 -173.361 0.000399455 4.00548e-21
-1.27005 0 0.0105 -171.838 0.000320044 -6.00822e-21
-1.22575 0 0.0105 -170.485 0.000287005 -8.01096e-21
-1.18403 0 0.0105 -169.284 0.000197606 2.00274e-21
-1.14475 0 0.0105 -168.209 0.000150136 -3.00411e-21
-1.10775 0 0.0105 -167.242 0.000110738 0
-1.07289 0 0.0105 -166.37 7.2566e-05 -1.10151e-20
-1.04005 0 0.0105 -165.576 8.2676e-05 -2.00274e-21
-1.0091 0 0.0105 -164.852 0.000107601 -4.00548e-21
-0.979914 0 0.0105 -164.192 5.44658e-05 9.31274e-20
-0.952392 0 0.0105 -163.595 -2.87316e-05 2.6286e-20
-0.926429 0 0.0105 -163.052 -5.68389e-05 -4.05555e-20
-0.901924 0 0.0105 -162.557 0.000107511 -7.20987e-20
-0.878785 0 0.0105 -162.104 0.000181757 0
-0.856927 0 0.0105 -161.688 0.000321473 -6.80932e-20
-0.836265 0 0.0105 -161.31 0.000470677 1.12153e-19
-0.816722 0 0.0105 -160.967 0.000691952 -3.12428e-19
-0.798224 0 0.0105 -160.658 0.000914093 -1.28175e-19
-0.780701 0 0.0105 -160.382 0.0011704 -4.64636e-19
-0.764088 0 0.0105 -160.135 0.00145455 -2.88395e-19
-0.74832 0 0.0105 -159.914 0.00175206 -3.84526e-19
-0.733339 0 0.0105 -159.717 0.00205362 1.28175e-19
-0.719089 0 0.0105 -159.543 0.00233991 -5.12702e-19
-0.705515 0 0.0105 -159.391 0.0025689 -1.28175e-19
-0.692565 0 0.0105 -159.258 0.00274586 1.92263e-19
-0.680192 0 0.0105 -159.143 0.00289793 -2.56351e-19
-0.668349 0 0.0105 -159.043 0.0028725 -6.40877e-20
-0.65699 0 0.0105 -158.956 0.00293712 1.92263e-19
-0.646073 0 0.0105 -158.881 0.00282568 -6.40877e-20
-0.635557 0 0.0105 -158.815 0.00279947 6.40877e-20
-0.6254 0 0.0105 -158.758 0.00262243 0
-0.615568 0 0.0105 -158.707 0.00235826 -1.34584e-18
-0.60602 0 0.0105 -158.661 0.00207664 -2.11489e-18
-0.596721 0 0.0105 -158.619 0.00174247 -2.69168e-18
-0.587638 0 0.0105 -158.581 0.00132616 -1.28175e-19
-0.578734 0 0.0105 -158.545 0.000926862 -3.10825e-18
-0.569975 0 0.0105 -158.509 0.000445598 -3.20439e-20
-0.56133 0 0.0105 -158.474 -0.000102107 -2.03879e-18
-0.552766 0 0.0105 -158.438 -0.000683072 -4.19774e-18
-0.54425 0 0.0105 -158.401 -0.00127852 -2.11489e-18
-0.535841 0 0.0105 -158.362 -0.00187824 -4.6784e-18
-0.527746 0 0.0105 -158.323 -0.00250234 -2.17898e-18
-0.52008 0 0.0105 -158.284 -0.0030149 1.28175e-19
-0.512816 0 0.0105 -158.247 -0.00353276 1.28175e-19
-0.50593 0 0.0105 -158.21 -0.00404586 0
-0.499397 0 0.0105 -158.174 -0.00459729 3.58891e-18
-0.493195 0 0.0105 -158.137 -0.00504843 3.84526e-18
-0.487302 0 0.0105 -158.099 -0.00546695 -3.84526e-18
-0.481698 0 0.0105 -158.062 -0.00577537 3.58891e-18
-0.476362 0 0.0105 -158.026 -0.00605096 -2.56351e-19
-0.471278 0 0.0105 -157.99 -0.00634588 0
-0.466428 0 0.0105 -157.956 -0.0065647 0
-0.461793 0 0.0105 -157.922 -0.00668096 -5.12702e-19
-0.457359 0 0.0105 -157.891 -0.00669547 -5.12702e-19
-0.45311 0 0.0105 -157.862 -0.0067205 -5.12702e-19
-0.449029 0 0.0105 -157.833 -0.00679822 -2.05081e-18
-0.445105 0 0.0105 -157.806 -0.006969 5.12702e-19
-0.441325 0 0.0105 -157.779 -0.00719708 -1.5381e-18
-0.437672 0 0.0105 -157.751 -0.0074548 6.15242e-18
-0.434136 0 0.0105 -157.722 -0.00765509 5.12702e-19
-0.430704 0 0.0105 -157.693 -0.00776088 -1.5381e-18
-0.427365 0 0.0105 -157.664 -0.0078095 0
-0.424106 0 0.0105 -157.635 -0.00782686 1.0254e-18
-0.420917 0 0.0105 -157.608 -0.00781131 0
-0.417786 0 0.0105 -157.581 -0.00778887 3.07621e-18
-0.414702 0 0.0105 -157.554 -0.00777771 3.07621e-18
-0.411656 0 0.0105 -157.53 -0.00777413 -4.10161e-18
-0.408635 0 0.0105 -157.502 -0.00787882 0
-0.405629 0 0.0105 -157.475 -0.00778755 4.10161e-18
-0.402629 0 0.0105 -157.435 -0.00772999 3.07621e-18
-0.399629 0 0.0105 -157.408 -0.00773028 0
-0.396628 0 0.0105 -157.385 -0.00772736 -3.07621e-18
-0.393628 0 0.0105 -157.363 -0.00772611 -2.05081e-18
-0.390626 0 0.0105 -157.341 -0.00772489 0
-0.387625 0 0.0105 -157.319 -0.00774057 -3.07621e-18
-0.384621 0 0.0105 -157.295 -0.00778762 3.07621e-18
-0.381618 0 0.0105 -157.27 -0.0078226 -1.0254e-18
-0.378613 0 0.0105 -157.244 -0.00783803 -1.0254e-18
-0.375606 0 0.0105 -157.218 -0.00784827 4.10161e-18
-0.372597 0 0.0105 -157.193 -0.00784877 3.07621e-18
-0.369588 0 0.0105 -157.168 -0.00778396 0
-0.366577 0 0.0105 -157.146 -0.00771106 0
-0.363563 0 0.0105 -157.123 -0.00763072 2.05081e-18
-0.360546 0 0.0105 -157.102 -0.00754737 2.05081e-18
-0.357529 0 0.0105 -157.078 -0.0074928 -3.07621e-18
-0.354508 0 0.0105 -157.053 -0.00748505 2.05081e-18
-0.351485 0 0.0105 -157.027 -0.007503 2.05081e-18
-0.348458 0 0.0105 -157.002 -0.00754957 3.07621e-18
-0.345429 0 0.0105 -156.976 -0.00760158 1.0254e-18
-0.342397 0 0.0105 -156.948 -0.00764105 -1.0254e-18
-0.339361 0 0.0105 -156.922 -0.00766173 1.0254e-18
-0.336321 0 0.0105 -156.897 -0.00766001 1.0254e-18
-0.333279 0 0.0105 -156.869 -0.00763706 1.0254e-18
-0.330233 0 0.0105 -156.841 -0.00759653 0
-0.327182 0 0.0105 -156.815 -0.00756012 2.05081e-18
-0.324126 0 0.0105 -156.789 -0.00753542 0
-0.321068 0 0.0105 -156.761 -0.00752008 -1.0254e-18
-0.318004 0 0.0105 -156.732 -0.00751488 -4.10161e-18
-0.314936 0 0.0105 -156.703 -0.00750969 -1.0254e-18
-0.311863 0 0.0105 -156.675 -0.00750148 3.07621e-18
-0.308785 0 0.0105 -156.645 -0.00748415 0
-0.305702 0 0.0105 -156.615 -0.0074682 4.10161e-18
-0.302614 0 0.0105 -156.585 -0.00745849 1.0254e-18
-0.299519 0 0.0105 -156.556 -0.00744802 0
-0.29642 0 0.0105 -156.525 -0.00745607 2.05081e-18
-0.293315 0 0.0105 -156.492 -0.00752558 2.05081e-18
-0.290203 0 0.0105 -156.462 -0.00755971 -1.0254e-18
-0.287086 0 0.0105 -156.433 -0.00754265 0
-0.283963 0 0.0105 -156.401 -0.00751213 1.0254e-18
-0.280832 0 0.0105 -156.369 -0.00749249 0
-0.277695 0 0.0105 -156.338 -0.00748907 4.10161e-18
-0.274551 0 0.0105 -156.311 -0.0074902 4.10161e-18
-0.271401 0 0.0105 -156.28 -0.00748984 3.07621e-18
-0.268244 0 0.0105 -156.246 -0.00748267 -1.0254e-18
-0.265079 0 0.0105 -156.215 -0.00747231 0
-0.261906 0 0.0105 -156.182 -0.00745896 -1.0254e-18
-0.258725 0 0.0105 -156.149 -0.00746561 0
-0.255537 0 0.0105 -156.115 -0.00746445 1.5381e-18
-0.252341 0 0.0105 -156.079 -0.00746984 1.5381e-18
-0.249137 0 0.0105 -156.046 -0.00747477 -5.12702e-19
-0.245924 0 0.0105 -156.013 -0.00748618 -3.58891e-18
-0.242703 0 0.0105 -155.981 -0.00749261 5.12702e-19
-0.239474 0 0.0105 -155.947 -0.00749762 5.12702e-19
-0.236236 0 0.0105 -155.913 -0.00749446 5.12702e-19
-0.232987 0 0.0105 -155.877 -0.00748906 0
-0.22973 0 0.0105 -155.842 -0.00747867 -2.56351e-18
-0.226464 0 0.0105 -155.807 -0.00747967 5.12702e-19
-0.223189 0 0.0105 -155.772 -0.00748448 1.5381e-18
-0.219903 0 0.0105 -155.735 -0.00749908 -5.12702e-19
-0.216607 0 0.0105 -155.699 -0.00752822 1.0254e-18
-0.213302 0 0.0105 -155.662 -0.00755172 1.5381e-18
-0.209985 0 0.0105 -155.622 -0.00755789 -5.12702e-19
-0.20666 0 0.0105 -155.588 -0.00757284 0
-0.203323 0 0.0105 -155.551 -0.00762633 -1.5381e-18
-0.199974 0 0.0105 -155.515 -0.00766728 0
-0.196616 0 0.0105 -155.479 -0.0076538 -1.5381e-18
-0.193246 0 0.0105 -155.439 -0.00761554 5.12702e-19
-0.189864 0 0.0105 -155.399 -0.00758067 -2.56351e-18
-0.186472 0 0.0105 -155.364 -0.00757981 -5.12702e-19
-0.183068 0 0.0105 -155.328 -0.00760376 -2.05081e-18
-0.179651 0 0.0105 -155.29 -0.00764854 0
-0.176222 0 0.0105 -155.253 -0.00769695 2.05081e-18
-0.172781 0 0.0105 -155.217 -0.00772611 -1.0254e-18
-0.169328 0 0.0105 -155.176 -0.00774051 -1.0254e-18
-0.165862 0 0.0105 -155.137 -0.00774548 0
-0.162383 0 0.0105 -155.101 -0.00774059 1.5381e-18
-0.158892 0 0.0105 -155.057 -0.00775178 5.12702e-19
-0.155387 0 0.0105 -155.02 -0.00769999 1.0254e-18
-0.151868 0 0.0105 -154.987 -0.00787372 5.12702e-19
-0.148337 0 0.0105 -154.944 -0.00787505 -4.10161e-18
-0.14479 0 0.0105 -154.524 -0.00752119 2.68656e-16
-0.141231 0 0.0105 -133.586 0.0866208 -4.92194e-16
-0.137658 0 0.0105 -20.5641 0.789169 1.31252e-15
-0.134069 0 0.0105 35.8588 0.66242 1.37814e-15
-0.130466 0 0.0105 37.3652 0.265325 -9.51574e-16
-0.126849 0 0.0105 36.2631 0.14498 2.62503e-16
-0.123216 0 0.0105 33.5877 0.0750716 9.02355e-17
-0.119568 0 0.0105 31.9218 0.0901311 2.46097e-17
-0.115906 0 0.0105 31.7562 0.0972357 -2.46097e-17
-0.112228 0 0.0105 31.7927 0.0771709 1.64065e-17
-0.108534 0 0.0105 32.0666 0.0624743 -6.56258e-17
-0.104824 0 0.0105 32.6749 0.0449784 -2.46097e-17
-0.101098 0 0.0105 33.3176 0.0340032 -4.10161e-18
-0.097355 0 0.0105 33.8615 0.0130277 -6.15242e-18
-0.0935961 0 0.0105 34.2879 -0.000875741 -6.09474e-17
-0.0898204 0 0.0105 34.6335 -0.00823475 -1.43556e-17
-0.0860278 0 0.0105 34.9894 -0.0133038 1.64065e-17
-0.0822181 0 0.0105 35.3519 -0.0189462 4.10161e-18
-0.0783911 0 0.0105 35.6863 -0.0210496 4.10161e-18
-0.0745465 0 0.0105 35.9796 -0.0210587 4.10161e-18
-0.0706841 0 0.0105 36.2855 -0.017703 1.0254e-18
-0.0668039 0 0.0105 36.6608 -0.0131061 3.07621e-18
-0.0629054 0 0.0105 37.2031 -0.00937441 8.20323e-18
-0.0589886 0 0.0105 38.103 -0.00735184 -3.07621e-18
-0.0550531 0 0.0105 39.7016 -0.00603661 3.07621e-18
-0.0510989 0 0.0105 42.6164 -0.0033357 1.25612e-17
-0.0471257 0 0.0105 47.1574 0.00102687 2.56351e-18
-0.0431332 0 0.0105 53.4241 0.000127641 6.2806e-18
-0.0391214 0 0.0105 61.3694 0.0111445 -2.35843e-17
-0.0350898 0 0.0105 69.3989 0.023126 -6.15242e-18
-0.0310384 0 0.0105 74.2811 0.0201424 2.25589e-17
-0.0269669 0 0.0105 76.9299 0.00804506 -5.12702e-19
-0.0228751 0 0.0105 79.3479 -0.000106226 2.19901e-18
-0.0187628 0 0.0105 80.4345 -0.0081519 1.5381e-18
-0.0146297 0 0.0105 80.3471 -0.0179303 5.12702e-18
-0.0104756 0 0.0105 79.2343 -0.023667 -4.10161e-18
-0.00630039 0 0.0105 77.2551 -0.0263893 -8.20323e-18
-0.00210372 0 0.0105 74.874 -0.0230211 2.05081e-18
0.00158228 0 0.0105 72.3498 -0.0127895 0
0.00474683 0 0.0105 69.471 -3.30144e-06 6.76125e-18
0.00791139 0 0.0105 66.0945 0.0168951 -6.15242e-18
0.0110759 0 0.0105 61.9703 0.0346877 -2.46097e-17
0.0142405 0 0.0105 57.0598 0.0520721 -4.10161e-18
0.017405 0 0.0105 51.3583 0.0674973 1.64065e-17
0.0205696 0 0.0105 44.9163 0.0790456 -3.28129e-17
0.0237342 0 0.0105 37.794 0.086619 -2.46097e-17
0.0268988 0 0.0105 30.0598 0.0933117 -4.10161e-17
0.0300633 0 0.0105 21.7878 0.0964832 8.20323e-18
0.0332279 0 0.0105 13.0635 0.099789 -3.28129e-17
0.0363924 0 0.0105 3.99396 0.101541 -8.20323e-18
0.039557 0 0.0105 -5.33183 0.0968713 -3.28129e-17
0.0427215 0 0.0105 -14.8455 0.084586 0
0.0458861 0 0.0105 -24.5216 0.0715517 0
0.0490507 0 0.0105 -34.3694 0.0589923 8.20323e-18
0.0522152 0 0.0105 -44.4069 0.0494298 -2.05081e-17
0.0553798 0 0.0105 -54.6288 0.0441188 0
0.0585443 0 0.0105 -64.9677 0.0482302 -4.10161e-18
0.0617089 0 0.0105 -75.3097 0.0522765 1.23048e-17
0.0648734 0 0.0105 -85.5225 0.058757 4.92194e-17
0.068038 0 0.0105 -95.4543 0.0668668 -4.10161e-17
0.0712026 0 0.0105 -104.967 0.0753396 -5.74226e-17
0.0743671 0 0.0105 -113.972 0.0837347 -4.10161e-17
0.0775317 0 0.0105 -122.463 0.0905887 -7.3829e-17
0.0806962 0 0.0105 -130.49 0.0967536 -5.74226e-17
0.0838607 0 0.0105 -138.124 0.103729 -8.20323e-18
0.0870253 0 0.0105 -145.458 0.11239 -4.10161e-17
0.0901899 0 0.0105 -152.609 0.121556 3.28129e-17
0.0933545 0 0.0105 -159.686 0.128206 -3.28129e-17
0.096519 0 0.0105 -166.761 0.125979 1.64065e-17
0.0996836 0 0.0105 -173.852 0.110983 -2.05081e-16
0.102848 0 0.0105 -180.919 0.0802431 2.70706e-16
0.106012 0 0.0105 -187.872 0.0319861 1.96877e-16
0.109177 0 0.0105 -194.594 -0.0285552 2.2764e-16
0.112341 0 0.0105 -200.963 -0.0917102 0
0.115506 0 0.0105 -206.883 -0.14738 1.64065e-17
0.118671 0 0.0105 -212.285 -0.187504 -9.84387e-17
0.121835 0 0.0105 -217.147 -0.20493 6.56258e-17
0.125 0 0.0105 -221.506 -0.198177 1.64065e-17
0.128164 0 0.0105 -225.449 -0.168929 -2.7891e-16
0.131329 0 0.0105 -229.095 -0.121602 3.28129e-17
0.134493 0 0.0105 -232.587 -0.0615059 2.46097e-17
0.137658 0 0.0105 -236.074 0.00565074 -5.0296e-16
0.140823 0 0.0105 -239.652 0.0729855 -8.20323e-18
0.143987 0 0.0105 -243.364 0.136112 -1.64065e-17
0.147152 0 0.0105 -247.241 0.189883 0
0.150316 0 0.0105 -251.257 0.230574 0
0.153481 0 0.0105 -255.809 0.255899 -9.84387e-17
0.156645 0 0.0105 -261.278 0.281682 -6.56258e-17
0.15981 0 0.0105 -267.175 0.263006 0
0.162975 0 0.0105 -271.127 0.260136 -1.96877e-16
0.166139 0 0.0105 -276.214 0.222454 -6.56258e-17
0.169304 0 0.0105 -281.826 0.215069 1.47658e-16
0.172468 0 0.0105 -285.979 0.17675 2.95316e-16
0.175633 0 0.0105 -291.58 0.125577 0
0.178797 0 0.0105 -296.841 0.0550321 1.05822e-15
0.181962 0 0.0105 -301.865 -0.0204124 0
0.185126 0 0.0105 -306.636 -0.0785477 1.64065e-17
0.188291 0 0.0105 -311.096 -0.128827 1.0172e-15
0.191455 0 0.0105 -315.203 -0.167906 -2.2969e-16
0.19462 0 0.0105 -318.928 -0.195406 1.96877e-16
0.197785 0 0.0105 -322.229 -0.212188 -3.28129e-17
0.20095 0 0.0105 -325.08 -0.219008 9.84387e-17
0.204114 0 0.0105 -327.508 -0.217202 0
0.207278 0 0.0105 -329.516 -0.208775 -1.64065e-16
0.210443 0 0.0105 -331.115 -0.195248 -1.14845e-16
0.213607 0 0.0105 -332.305 -0.17864 -2.13284e-16
0.216772 0 0.0105 -333.12 -0.16112 -2.62503e-16
0.219936 0 0.0105 -333.573 -0.143572 3.28129e-17
0.223101 0 0.0105 -333.682 -0.127275 9.84387e-17
0.226266 0 0.0105 -333.493 -0.112984 -8.20323e-18
0.22943 0 0.0105 -333.022 -0.100883 2.46097e-17
0.232595 0 0.0105 -332.301 -0.0913339 0
0.235759 0 0.0105 -331.34 -0.0843399 8.20323e-18
0.238924 0 0.0105 -330.18 -0.079549 -4.92194e-17
0.242088 0 0.0105 -328.723 -0.0778014 8.20323e-18
0.245253 0 0.0105 -328.558 -0.0655043 -5.74226e-17
0.248417 0 0.0105 -323.689 -0.0864556 8.96106e-17
