# Wall heat-flux
# Time        	patch         	min           	max           	integral      
7600          	base	-1.437166e+05	-5.721570e+02	-1.858735e+02
