# p  FACE_DATA 398
# x  y  z  p
-0.7975 0 0.025 4472.59
-0.79239 0 0.025 3679.22
-0.787056 0 0.025 2937.49
-0.781492 0 0.025 2837.93
-0.775691 0 0.025 2788.31
-0.769649 0 0.025 2786.58
-0.763362 0 0.025 2812.78
-0.756822 0 0.025 2836.72
-0.750025 0 0.025 2851.07
-0.742968 0 0.025 2858.14
-0.735648 0 0.025 2862.42
-0.72806 0 0.025 2863.65
-0.720203 0 0.025 2863.56
-0.712076 0 0.025 2862.42
-0.703677 0 0.025 2861.96
-0.695006 0 0.025 2861.04
-0.686065 0 0.025 2859.79
-0.676855 0 0.025 2859.83
-0.667379 0 0.025 2855.42
-0.65764 0 0.025 2851.39
-0.647644 0 0.025 2851.54
-0.637397 0 0.025 2849.58
-0.626906 0 0.025 2845.52
-0.616179 0 0.025 2845.88
-0.605224 0 0.025 2842.81
-0.594054 0 0.025 2841.06
-0.582678 0 0.025 2838.15
-0.57111 0 0.025 2836.4
-0.559364 0 0.025 2833.99
-0.547454 0 0.025 2833.51
-0.535396 0 0.025 2830.71
-0.523205 0 0.025 2829.22
-0.510901 0 0.025 2826.89
-0.4985 0 0.025 2823.93
-0.486021 0 0.025 2823.45
-0.473483 0 0.025 2822.82
-0.460905 0 0.025 2820.42
-0.448308 0 0.025 2818.82
-0.435709 0 0.025 2817.17
-0.42313 0 0.025 2814.73
-0.41059 0 0.025 2813.94
-0.39811 0 0.025 2813.95
-0.385706 0 0.025 2812.56
-0.373398 0 0.025 2810.59
-0.361205 0 0.025 2809.31
-0.349141 0 0.025 2808.45
-0.337226 0 0.025 2807.19
-0.325475 0 0.025 2805.41
-0.313901 0 0.025 2804.06
-0.30252 0 0.025 2802.94
-0.291343 0 0.025 2802.52
-0.280382 0 0.025 2802.34
-0.269646 0 0.025 2802.12
-0.259148 0 0.025 2801.34
-0.248893 0 0.025 2800.79
-0.23889 0 0.025 2799.78
-0.229143 0 0.025 2798.69
-0.219659 0 0.025 2797.27
-0.210441 0 0.025 2796.1
-0.201491 0 0.025 2794.95
-0.192812 0 0.025 2794.06
-0.184405 0 0.025 2793.04
-0.176269 0 0.025 2792.38
-0.168404 0 0.025 2791.79
-0.160808 0 0.025 2791.66
-0.15348 0 0.025 2791.66
-0.146415 0 0.025 2791.72
-0.13961 0 0.025 2791.53
-0.133063 0 0.025 2791.3
-0.126767 0 0.025 2790.91
-0.120718 0 0.025 2790.54
-0.11491 0 0.025 2790.02
-0.109339 0 0.025 2789.42
-0.103997 0 0.025 2788.65
-0.0988805 0 0.025 2787.8
-0.0939808 0 0.025 2786.9
-0.0892928 0 0.025 2786.12
-0.0848096 0 0.025 2785.51
-0.0805248 0 0.025 2785.12
-0.0764316 0 0.025 2784.94
-0.0725237 0 0.025 2784.85
-0.0687943 0 0.025 2784.87
-0.065237 0 0.025 2784.92
-0.0618454 0 0.025 2785.01
-0.058613 0 0.025 2785.11
-0.0555337 0 0.025 2785.25
-0.0526013 0 0.025 2785.39
-0.0498099 0 0.025 2785.54
-0.0471536 0 0.025 2785.66
-0.0446266 0 0.025 2785.79
-0.0422235 0 0.025 2785.88
-0.039939 0 0.025 2785.99
-0.0377676 0 0.025 2786.07
-0.0357044 0 0.025 2786.14
-0.0337445 0 0.025 2786.39
-0.0318832 0 0.025 2786
-0.0301159 0 0.025 2808.01
-0.0284383 0 0.025 3226.79
-0.0268461 0 0.025 4636.41
-0.0253353 0 0.025 6002.32
-0.023902 0 0.025 6921.39
-0.0225426 0 0.025 7576.35
-0.0212532 0 0.025 8072.81
-0.0200306 0 0.025 8493.64
-0.0188715 0 0.025 8862.87
-0.0177728 0 0.025 9181.27
-0.0167313 0 0.025 9459.9
-0.0157444 0 0.025 9710.12
-0.0148092 0 0.025 9934.89
-0.0139232 0 0.025 10141.8
-0.0130838 0 0.025 10333.2
-0.0122887 0 0.025 10510.7
-0.0115356 0 0.025 10675
-0.0108223 0 0.025 10827.2
-0.0101469 0 0.025 10967.9
-0.00950727 0 0.025 11097.2
-0.00890168 0 0.025 11215.5
-0.00832835 0 0.025 11322.9
-0.00778557 0 0.025 11420.4
-0.00727176 0 0.025 11508.8
-0.0067854 0 0.025 11589.5
-0.00632507 0 0.025 11663.6
-0.00588937 0 0.025 11732.7
-0.00547703 0 0.025 11798.2
-0.0050868 0 0.025 11861.6
-0.00471753 0 0.025 11923.8
-0.0043681 0 0.025 11986.3
-0.00403746 0 0.025 12051.4
-0.00372461 0 0.025 12119.2
-0.0034286 0 0.025 12190.5
-0.00314855 0 0.025 12265.5
-0.0028836 0 0.025 12346.4
-0.00263294 0 0.025 12437.1
-0.00239581 0 0.025 12527.7
-0.0021715 0 0.025 12623.8
-0.00195929 0 0.025 12724.8
-0.00175856 0 0.025 12830.2
-0.00156869 0 0.025 12939.2
-0.00138908 0 0.025 13050.8
-0.0012192 0 0.025 13164.3
-0.00105853 0 0.025 13278.3
-0.000906546 0 0.025 13391.1
-0.000762803 0 0.025 13499.7
-0.000626848 0 0.025 13600.2
-0.000498265 0 0.025 13686
-0.000376656 0 0.025 13748.6
-0.000261642 0 0.025 13780.7
-0.00015287 0 0.025 13788.8
-5e-05 0 0.025 13875.3
4.14519e-05 2.79596e-05 0.025 13459.8
0.000125371 8.45641e-05 0.025 13554.2
0.000211347 0.000142556 0.025 13520.2
0.000299429 0.000201968 0.025 13452.5
0.000389669 0.000262835 0.025 13372.9
0.000482118 0.000325193 0.025 13292
0.000576831 0.000389077 0.025 13215.7
0.000673861 0.000454524 0.025 13147.8
0.000773265 0.000521574 0.025 13091
0.0008751 0.000590262 0.025 13046.8
0.000979426 0.000660632 0.025 13016.6
0.0010863 0.000732721 0.025 12997.1
0.00119579 0.000806572 0.025 12992.2
0.00130795 0.000882227 0.025 13000.7
0.00142285 0.00095973 0.025 13020.9
0.00154056 0.00103912 0.025 13052.5
0.00166115 0.00112046 0.025 13095.4
0.00178467 0.00120378 0.025 13149.3
0.00191121 0.00128913 0.025 13212.6
0.00204083 0.00137656 0.025 13286.3
0.00217362 0.00146612 0.025 13369
0.00230964 0.00155787 0.025 13461.3
0.00244897 0.00165185 0.025 13561.6
0.00259169 0.00174812 0.025 13671.3
0.00273789 0.00184673 0.025 13789.4
0.00288765 0.00194774 0.025 13916.3
0.00304105 0.00205122 0.025 14051.7
0.00319818 0.00215719 0.025 14196.2
0.00335912 0.00226575 0.025 14349.2
0.00352397 0.00237695 0.025 14511.6
0.00369283 0.00249085 0.025 14683.3
0.00386579 0.00260751 0.025 14864.8
0.00404294 0.00272699 0.025 15056.4
0.00422438 0.00284938 0.025 15258.6
0.00441022 0.00297474 0.025 15472.1
0.00460056 0.00310312 0.025 15697.5
0.00479552 0.00323462 0.025 15935.7
0.00499519 0.0033693 0.025 16187
0.00519968 0.00350723 0.025 16453.2
0.00540911 0.00364849 0.025 16734.4
0.00562361 0.00379318 0.025 17032.2
0.00584329 0.00394134 0.025 17347.6
0.00606826 0.00409309 0.025 17681.8
0.00629865 0.00424849 0.025 18036.2
0.0065346 0.00440764 0.025 18412.8
0.00677623 0.00457063 0.025 18812.5
0.00702368 0.00473753 0.025 19237.9
0.00727707 0.00490844 0.025 19690.4
0.00753655 0.00508347 0.025 20172.7
0.00780227 0.00526269 0.025 20687
0.00807436 0.00544622 0.025 21235.9
0.00835298 0.00563415 0.025 21822.3
0.00863826 0.00582659 0.025 22449.2
0.00893038 0.00602362 0.025 23119.7
0.00922949 0.00622537 0.025 23836.8
0.00953574 0.00643195 0.025 24604.6
0.00984929 0.00664345 0.025 25425.9
0.0101703 0.00686 0.025 26307.7
0.0104991 0.00708171 0.025 27250.5
0.0108356 0.00730871 0.025 28262
0.0111801 0.0075411 0.025 29348.3
0.0115329 0.00777902 0.025 30514.7
0.011894 0.00802259 0.025 31767.9
0.0122637 0.00827194 0.025 33120
0.0126421 0.00852719 0.025 34577.1
0.0130295 0.0087885 0.025 36150.9
0.013426 0.00905597 0.025 37851.8
0.013832 0.00932978 0.025 39690.3
0.0142475 0.00961003 0.025 41678
0.0146727 0.0098969 0.025 43822.6
0.0151081 0.0101905 0.025 46139.1
0.0155536 0.010491 0.025 48644.4
0.0160097 0.0107986 0.025 51355.3
0.0164764 0.0111134 0.025 54277.1
0.016954 0.0114356 0.025 57434.5
0.0174427 0.0117653 0.025 60834.7
0.0179429 0.0121026 0.025 64499.5
0.0184548 0.0124479 0.025 68435.6
0.0189786 0.0128013 0.025 72664
0.0195146 0.0131628 0.025 77224.4
0.020063 0.0135327 0.025 82149.3
0.0206242 0.0139112 0.025 87501.1
0.0211983 0.0142984 0.025 93384.7
0.0217857 0.0146947 0.025 99895.6
0.0223867 0.0151 0.025 107068
0.0230015 0.0155147 0.025 114858
0.0236304 0.0159389 0.025 123380
0.0242738 0.0163729 0.025 132638
0.0249318 0.0168167 0.025 142464
0.025605 0.0172708 0.025 152276
0.0262935 0.0177352 0.025 160850
0.0269977 0.0182102 0.025 166896
0.0277178 0.0186959 0.025 169545
0.0284544 0.0191927 0.025 169333
0.0292075 0.0197008 0.025 168513
0.0299777 0.0202203 0.025 164936
0.0307653 0.0207514 0.025 161963
0.0315704 0.0212945 0.025 159131
0.0323937 0.0218499 0.025 156107
0.0332354 0.0224176 0.025 152648
0.0340959 0.022998 0.025 148828
0.0349755 0.0235913 0.025 144856
0.0358747 0.0241978 0.025 141131
0.0367938 0.0248178 0.025 137774
0.0377331 0.0254513 0.025 134999
0.0386932 0.0260989 0.025 132862
0.0396743 0.0267606 0.025 131226
0.0406769 0.0274369 0.025 129929
0.0417013 0.0281279 0.025 128824
0.042748 0.0288339 0.025 128012
0.0438175 0.0295552 0.025 127429
0.04491 0.0302922 0.025 126909
0.0460262 0.031045 0.025 126370
0.0471662 0.031814 0.025 125871
0.0483306 0.0325995 0.025 126167
0.0495199 0.0334016 0.025 126847
0.0507344 0.0342208 0.025 127255
0.0519746 0.0350573 0.025 127252
0.0532409 0.0359114 0.025 127103
0.0545339 0.0367835 0.025 127068
0.0558538 0.0376739 0.025 127181
0.0572012 0.0385827 0.025 127092
0.0585766 0.0395104 0.025 126798
0.0599804 0.0404573 0.025 126337
0.061413 0.0414236 0.025 126661
0.0628748 0.0424096 0.025 127549
0.0643665 0.0434157 0.025 128357
0.0658883 0.0444422 0.025 128419
0.0674408 0.0454894 0.025 128083
0.0690245 0.0465576 0.025 127743
0.0706398 0.0476471 0.025 127541
0.0722871 0.0487582 0.025 127952
0.0739669 0.0498912 0.025 128435
0.0756797 0.0510466 0.025 128633
0.0774258 0.0522244 0.025 128693
0.0792059 0.053425 0.025 128652
0.0810203 0.0546489 0.025 128876
0.0828694 0.0558961 0.025 129106
0.0847537 0.0571671 0.025 129383
0.0866737 0.0584622 0.025 129484
0.0886298 0.0597816 0.025 129624
0.0906224 0.0611256 0.025 129742
0.0926518 0.0624944 0.025 129941
0.0947185 0.0638884 0.025 130169
0.096823 0.065308 0.025 130276
0.0989659 0.0667532 0.025 130291
0.101147 0.0682245 0.025 129702
0.103367 0.0697219 0.025 129206
0.105626 0.0712458 0.025 128930
0.107926 0.0727965 0.025 128436
0.110265 0.074374 0.025 128020
0.112644 0.0759789 0.025 127315
0.115063 0.0776111 0.025 127615
0.117524 0.0792709 0.025 127801
0.120026 0.0809585 0.025 128458
0.122569 0.0826741 0.025 129515
0.125155 0.0844179 0.025 130224
0.127782 0.0861901 0.025 130261
0.130451 0.0879908 0.025 129676
0.133163 0.08982 0.025 129294
0.135918 0.0916781 0.025 128887
0.138716 0.0935651 0.025 129114
0.141556 0.095481 0.025 129581
0.14444 0.097426 0.025 129872
0.147367 0.0994004 0.025 129240
0.150337 0.101404 0.025 129629
0.153351 0.103437 0.025 128727
0.156408 0.105498 0.025 127103
0.159508 0.107589 0.025 127657
0.162651 0.10971 0.025 126610
0.165838 0.111859 0.025 124225
0.169069 0.114039 0.025 127426
0.172343 0.116247 0.025 125394
0.175659 0.118483 0.025 124900
0.179018 0.120749 0.025 124096
0.182421 0.123045 0.025 123033
0.185866 0.125368 0.025 122535
0.189353 0.12772 0.025 122137
0.192882 0.1301 0.025 122064
0.196453 0.132509 0.025 122306
0.200065 0.134946 0.025 121645
0.203718 0.13741 0.025 121710
0.207412 0.139901 0.025 121982
0.211146 0.14242 0.025 121194
0.214919 0.144965 0.025 120442
0.218732 0.147537 0.025 121252
0.222583 0.150134 0.025 121060
0.226472 0.152757 0.025 122522
0.230399 0.155406 0.025 122179
0.234362 0.15808 0.025 122237
0.238362 0.160777 0.025 121006
0.242396 0.163498 0.025 121017
0.246466 0.166244 0.025 120226
0.250569 0.169012 0.025 121155
0.254706 0.171801 0.025 120329
0.258874 0.174613 0.025 120311
0.263074 0.177446 0.025 119873
0.267304 0.180299 0.025 120629
0.271564 0.183172 0.025 121212
0.275852 0.186064 0.025 120758
0.280168 0.188975 0.025 121379
0.28451 0.191904 0.025 120979
0.288876 0.19485 0.025 120288
0.293268 0.197812 0.025 120988
0.297683 0.20079 0.025 119780
0.302119 0.203782 0.025 119249
0.306577 0.206788 0.025 120371
0.311054 0.209808 0.025 119294
0.315549 0.212841 0.025 119995
0.320063 0.215885 0.025 119367
0.324591 0.218939 0.025 120963
0.329134 0.222003 0.025 121519
0.333691 0.225077 0.025 120977
0.33826 0.228159 0.025 121939
0.342839 0.231248 0.025 121513
0.347428 0.234343 0.025 122440
0.352025 0.237444 0.025 120982
0.356628 0.240548 0.025 121265
0.361237 0.243658 0.025 121256
0.36585 0.246769 0.025 119582
0.370465 0.249882 0.025 122042
0.375082 0.252996 0.025 120858
0.379698 0.25611 0.025 119930
0.384313 0.259223 0.025 121458
0.388926 0.262333 0.025 120570
0.393534 0.265442 0.025 120976
0.398136 0.268546 0.025 121280
0.40273 0.271645 0.025 120533
0.407317 0.274739 0.025 120391
0.411894 0.277826 0.025 119856
0.41646 0.280906 0.025 121440
0.421014 0.283977 0.025 120577
0.425554 0.28704 0.025 120345
0.430079 0.290092 0.025 120891
0.434588 0.293133 0.025 120639
0.439079 0.296162 0.025 121412
0.443551 0.299179 0.025 121034
0.448004 0.302183 0.025 120939
0.452437 0.305172 0.025 121062
0.456846 0.308146 0.025 121377
0.461232 0.311105 0.025 121251
0.465593 0.314047 0.025 121414
0.469929 0.316971 0.025 121000
0.474238 0.319878 0.025 122152
0.47852 0.322766 0.025 121811
0.482773 0.325635 0.025 121913
0.486996 0.328483 0.025 121479
0.491189 0.331311 0.025 120712
0.49535 0.334118 0.025 122050
