TITLE = "Mach 4.5 Flow Over a Flat Plate: Boundary Layer Profile"
VARIABLES = "x [ft]"
"y [ft]"
"u [ft/s]"
"v [ft/s]"
"rho [slug/ft^3]"
"p [lb/ft<sup>2</sup>]"
"T [deg R]]"
"mu [slug/(ft*s)]"
"mut/muinf"

ZONE T="Coles 23: Fence Trip", I=18, F=POINT
 1.791666985E+00 3.166666953E-03 1.444000000E+03 0.000000000E+00 0.000000000E+00 0.000000000E+00 0.000000000E+00 0.000000000E+00 0.000000000E+00
 1.791666985E+00 3.616666887E-03 1.522000000E+03 0.000000000E+00 0.000000000E+00 0.000000000E+00 0.000000000E+00 0.000000000E+00 0.000000000E+00
 1.791666985E+00 4.133332986E-03 1.587000000E+03 0.000000000E+00 0.000000000E+00 0.000000000E+00 0.000000000E+00 0.000000000E+00 0.000000000E+00
 1.791666985E+00 4.766666796E-03 1.643000000E+03 0.000000000E+00 0.000000000E+00 0.000000000E+00 0.000000000E+00 0.000000000E+00 0.000000000E+00
 1.791666985E+00 5.524999928E-03 1.688000000E+03 0.000000000E+00 0.000000000E+00 0.000000000E+00 0.000000000E+00 0.000000000E+00 0.000000000E+00
 1.791666985E+00 6.466667168E-03 1.730000000E+03 0.000000000E+00 0.000000000E+00 0.000000000E+00 0.000000000E+00 0.000000000E+00 0.000000000E+00
 1.791666985E+00 7.566667162E-03 1.770000000E+03 0.000000000E+00 0.000000000E+00 0.000000000E+00 0.000000000E+00 0.000000000E+00 0.000000000E+00
 1.791666985E+00 8.899999782E-03 1.808000000E+03 0.000000000E+00 0.000000000E+00 0.000000000E+00 0.000000000E+00 0.000000000E+00 0.000000000E+00
 1.791666985E+00 1.049999986E-02 1.850000000E+03 0.000000000E+00 0.000000000E+00 0.000000000E+00 0.000000000E+00 0.000000000E+00 0.000000000E+00
 1.791666985E+00 1.243332960E-02 1.903000000E+03 0.000000000E+00 0.000000000E+00 0.000000000E+00 0.000000000E+00 0.000000000E+00 0.000000000E+00
 1.791666985E+00 1.471666992E-02 1.957000000E+03 0.000000000E+00 0.000000000E+00 0.000000000E+00 0.000000000E+00 0.000000000E+00 0.000000000E+00
 1.791666985E+00 1.751667075E-02 2.021000000E+03 0.000000000E+00 0.000000000E+00 0.000000000E+00 0.000000000E+00 0.000000000E+00 0.000000000E+00
 1.791666985E+00 2.089167014E-02 2.089000000E+03 0.000000000E+00 0.000000000E+00 0.000000000E+00 0.000000000E+00 0.000000000E+00 0.000000000E+00
 1.791666985E+00 2.481666952E-02 2.157000000E+03 0.000000000E+00 0.000000000E+00 0.000000000E+00 0.000000000E+00 0.000000000E+00 0.000000000E+00
 1.791666985E+00 2.971667051E-02 2.223000000E+03 0.000000000E+00 0.000000000E+00 0.000000000E+00 0.000000000E+00 0.000000000E+00 0.000000000E+00
 1.791666985E+00 3.547500074E-02 2.278000000E+03 0.000000000E+00 0.000000000E+00 0.000000000E+00 0.000000000E+00 0.000000000E+00 0.000000000E+00
 1.791666985E+00 4.256666824E-02 2.304000000E+03 0.000000000E+00 0.000000000E+00 0.000000000E+00 0.000000000E+00 0.000000000E+00 0.000000000E+00
 1.791666985E+00 5.104999989E-02 2.306000000E+03 0.000000000E+00 0.000000000E+00 0.000000000E+00 0.000000000E+00 0.000000000E+00 0.000000000E+00

ZONE T="Coles 22: Fence Trip", I=21, F=POINT
 1.791666985E+00 1.991667086E-03 1.295000000E+03 0.000000000E+00 0.000000000E+00 0.000000000E+00 0.000000000E+00 0.000000000E+00 0.000000000E+00
 1.791666985E+00 2.249999903E-03 1.372000000E+03 0.000000000E+00 0.000000000E+00 0.000000000E+00 0.000000000E+00 0.000000000E+00 0.000000000E+00
 1.791666985E+00 2.491666935E-03 1.427000000E+03 0.000000000E+00 0.000000000E+00 0.000000000E+00 0.000000000E+00 0.000000000E+00 0.000000000E+00
 1.791666985E+00 2.799999900E-03 1.485000000E+03 0.000000000E+00 0.000000000E+00 0.000000000E+00 0.000000000E+00 0.000000000E+00 0.000000000E+00
 1.791666985E+00 3.166666953E-03 1.537000000E+03 0.000000000E+00 0.000000000E+00 0.000000000E+00 0.000000000E+00 0.000000000E+00 0.000000000E+00
 1.791666985E+00 3.616666887E-03 1.583000000E+03 0.000000000E+00 0.000000000E+00 0.000000000E+00 0.000000000E+00 0.000000000E+00 0.000000000E+00
 1.791666985E+00 4.133332986E-03 1.624000000E+03 0.000000000E+00 0.000000000E+00 0.000000000E+00 0.000000000E+00 0.000000000E+00 0.000000000E+00
 1.791666985E+00 4.766666796E-03 1.664000000E+03 0.000000000E+00 0.000000000E+00 0.000000000E+00 0.000000000E+00 0.000000000E+00 0.000000000E+00
 1.791666985E+00 5.524999928E-03 1.698000000E+03 0.000000000E+00 0.000000000E+00 0.000000000E+00 0.000000000E+00 0.000000000E+00 0.000000000E+00
 1.791666985E+00 6.466667168E-03 1.698000000E+03 0.000000000E+00 0.000000000E+00 0.000000000E+00 0.000000000E+00 0.000000000E+00 0.000000000E+00
 1.791666985E+00 7.566667162E-03 1.735000000E+03 0.000000000E+00 0.000000000E+00 0.000000000E+00 0.000000000E+00 0.000000000E+00 0.000000000E+00
 1.791666985E+00 8.899999782E-03 1.813000000E+03 0.000000000E+00 0.000000000E+00 0.000000000E+00 0.000000000E+00 0.000000000E+00 0.000000000E+00
 1.791666985E+00 1.049999986E-02 1.860000000E+03 0.000000000E+00 0.000000000E+00 0.000000000E+00 0.000000000E+00 0.000000000E+00 0.000000000E+00
 1.791666985E+00 1.243332960E-02 1.916000000E+03 0.000000000E+00 0.000000000E+00 0.000000000E+00 0.000000000E+00 0.000000000E+00 0.000000000E+00
 1.791666985E+00 1.471666992E-02 1.974000000E+03 0.000000000E+00 0.000000000E+00 0.000000000E+00 0.000000000E+00 0.000000000E+00 0.000000000E+00
 1.791666985E+00 1.751667075E-02 2.041000000E+03 0.000000000E+00 0.000000000E+00 0.000000000E+00 0.000000000E+00 0.000000000E+00 0.000000000E+00
 1.791666985E+00 2.089167014E-02 2.112000000E+03 0.000000000E+00 0.000000000E+00 0.000000000E+00 0.000000000E+00 0.000000000E+00 0.000000000E+00
 1.791666985E+00 2.481666952E-02 2.181000000E+03 0.000000000E+00 0.000000000E+00 0.000000000E+00 0.000000000E+00 0.000000000E+00 0.000000000E+00
 1.791666985E+00 2.971667051E-02 2.248000000E+03 0.000000000E+00 0.000000000E+00 0.000000000E+00 0.000000000E+00 0.000000000E+00 0.000000000E+00
 1.791666985E+00 3.547500074E-02 2.297000000E+03 0.000000000E+00 0.000000000E+00 0.000000000E+00 0.000000000E+00 0.000000000E+00 0.000000000E+00
 1.791666985E+00 4.256666824E-02 2.315000000E+03 0.000000000E+00 0.000000000E+00 0.000000000E+00 0.000000000E+00 0.000000000E+00 0.000000000E+00

ZONE T="Coles 61: Sand Trip", I=18, F=POINT
 1.791666985E+00 1.466667047E-03 1.331000000E+03 0.000000000E+00 0.000000000E+00 0.000000000E+00 0.000000000E+00 0.000000000E+00 0.000000000E+00
 1.791666985E+00 1.674999949E-03 1.393000000E+03 0.000000000E+00 0.000000000E+00 0.000000000E+00 0.000000000E+00 0.000000000E+00 0.000000000E+00
 1.791666985E+00 1.991667086E-03 1.470000000E+03 0.000000000E+00 0.000000000E+00 0.000000000E+00 0.000000000E+00 0.000000000E+00 0.000000000E+00
 1.791666985E+00 2.383332932E-03 1.550000000E+03 0.000000000E+00 0.000000000E+00 0.000000000E+00 0.000000000E+00 0.000000000E+00 0.000000000E+00
 1.791666985E+00 2.883333014E-03 1.624000000E+03 0.000000000E+00 0.000000000E+00 0.000000000E+00 0.000000000E+00 0.000000000E+00 0.000000000E+00
 1.791666985E+00 3.458332969E-03 1.690000000E+03 0.000000000E+00 0.000000000E+00 0.000000000E+00 0.000000000E+00 0.000000000E+00 0.000000000E+00
 1.791666985E+00 4.166666884E-03 1.749000000E+03 0.000000000E+00 0.000000000E+00 0.000000000E+00 0.000000000E+00 0.000000000E+00 0.000000000E+00
 1.791666985E+00 4.999999888E-03 1.799000000E+03 0.000000000E+00 0.000000000E+00 0.000000000E+00 0.000000000E+00 0.000000000E+00 0.000000000E+00
 1.791666985E+00 6.049999967E-03 1.842000000E+03 0.000000000E+00 0.000000000E+00 0.000000000E+00 0.000000000E+00 0.000000000E+00 0.000000000E+00
 1.791666985E+00 7.308333181E-03 1.887000000E+03 0.000000000E+00 0.000000000E+00 0.000000000E+00 0.000000000E+00 0.000000000E+00 0.000000000E+00
 1.791666985E+00 1.073332969E-02 1.994000000E+03 0.000000000E+00 0.000000000E+00 0.000000000E+00 0.000000000E+00 0.000000000E+00 0.000000000E+00
 1.791666985E+00 1.301667001E-02 2.056000000E+03 0.000000000E+00 0.000000000E+00 0.000000000E+00 0.000000000E+00 0.000000000E+00 0.000000000E+00
 1.791666985E+00 1.573332958E-02 2.120000000E+03 0.000000000E+00 0.000000000E+00 0.000000000E+00 0.000000000E+00 0.000000000E+00 0.000000000E+00
 1.791666985E+00 1.898333058E-02 2.182000000E+03 0.000000000E+00 0.000000000E+00 0.000000000E+00 0.000000000E+00 0.000000000E+00 0.000000000E+00
 1.791666985E+00 2.309167013E-02 2.247000000E+03 0.000000000E+00 0.000000000E+00 0.000000000E+00 0.000000000E+00 0.000000000E+00 0.000000000E+00
 1.791666985E+00 2.795832977E-02 2.300000000E+03 0.000000000E+00 0.000000000E+00 0.000000000E+00 0.000000000E+00 0.000000000E+00 0.000000000E+00
 1.791666985E+00 3.398333117E-02 2.323000000E+03 0.000000000E+00 0.000000000E+00 0.000000000E+00 0.000000000E+00 0.000000000E+00 0.000000000E+00
 1.791666985E+00 4.131666943E-02 2.324000000E+03 0.000000000E+00 0.000000000E+00 0.000000000E+00 0.000000000E+00 0.000000000E+00 0.000000000E+00

ZONE T="Coles 76: Clean Transition", I=16, F=POINT
 1.791666985E+00 1.449999982E-03 1.453000000E+03 0.000000000E+00 0.000000000E+00 0.000000000E+00 0.000000000E+00 0.000000000E+00 0.000000000E+00
 1.791666985E+00 1.708333031E-03 1.537000000E+03 0.000000000E+00 0.000000000E+00 0.000000000E+00 0.000000000E+00 0.000000000E+00 0.000000000E+00
 1.791666985E+00 2.025000053E-03 1.618000000E+03 0.000000000E+00 0.000000000E+00 0.000000000E+00 0.000000000E+00 0.000000000E+00 0.000000000E+00
 1.791666985E+00 2.416667063E-03 1.696000000E+03 0.000000000E+00 0.000000000E+00 0.000000000E+00 0.000000000E+00 0.000000000E+00 0.000000000E+00
 1.791666985E+00 2.916666912E-03 1.773000000E+03 0.000000000E+00 0.000000000E+00 0.000000000E+00 0.000000000E+00 0.000000000E+00 0.000000000E+00
 1.791666985E+00 3.491667099E-03 1.843000000E+03 0.000000000E+00 0.000000000E+00 0.000000000E+00 0.000000000E+00 0.000000000E+00 0.000000000E+00
 1.791666985E+00 4.199999850E-03 1.906000000E+03 0.000000000E+00 0.000000000E+00 0.000000000E+00 0.000000000E+00 0.000000000E+00 0.000000000E+00
 1.791666985E+00 5.033332855E-03 1.959000000E+03 0.000000000E+00 0.000000000E+00 0.000000000E+00 0.000000000E+00 0.000000000E+00 0.000000000E+00
 1.791666985E+00 6.083332933E-03 2.007000000E+03 0.000000000E+00 0.000000000E+00 0.000000000E+00 0.000000000E+00 0.000000000E+00 0.000000000E+00
 1.791666985E+00 7.341667078E-03 2.060000000E+03 0.000000000E+00 0.000000000E+00 0.000000000E+00 0.000000000E+00 0.000000000E+00 0.000000000E+00
 1.791666985E+00 8.883333765E-03 2.118000000E+03 0.000000000E+00 0.000000000E+00 0.000000000E+00 0.000000000E+00 0.000000000E+00 0.000000000E+00
 1.791666985E+00 1.076667011E-02 2.178000000E+03 0.000000000E+00 0.000000000E+00 0.000000000E+00 0.000000000E+00 0.000000000E+00 0.000000000E+00
 1.791666985E+00 1.305000018E-02 2.239000000E+03 0.000000000E+00 0.000000000E+00 0.000000000E+00 0.000000000E+00 0.000000000E+00 0.000000000E+00
 1.791666985E+00 1.576667093E-02 2.292000000E+03 0.000000000E+00 0.000000000E+00 0.000000000E+00 0.000000000E+00 0.000000000E+00 0.000000000E+00
 1.791666985E+00 1.901667006E-02 2.321000000E+03 0.000000000E+00 0.000000000E+00 0.000000000E+00 0.000000000E+00 0.000000000E+00 0.000000000E+00
 1.791666985E+00 2.312500030E-02 2.328000000E+03 0.000000000E+00 0.000000000E+00 0.000000000E+00 0.000000000E+00 0.000000000E+00 0.000000000E+00

ZONE T="Coles 62: Air Jet", I=19, F=POINT
 1.791666985E+00 1.391667058E-03 1.290000000E+03 0.000000000E+00 0.000000000E+00 0.000000000E+00 0.000000000E+00 0.000000000E+00 0.000000000E+00
 1.791666985E+00 1.649999991E-03 1.365000000E+03 0.000000000E+00 0.000000000E+00 0.000000000E+00 0.000000000E+00 0.000000000E+00 0.000000000E+00
 1.791666985E+00 1.966666896E-03 1.445000000E+03 0.000000000E+00 0.000000000E+00 0.000000000E+00 0.000000000E+00 0.000000000E+00 0.000000000E+00
 1.791666985E+00 2.358332975E-03 1.523000000E+03 0.000000000E+00 0.000000000E+00 0.000000000E+00 0.000000000E+00 0.000000000E+00 0.000000000E+00
 1.791666985E+00 2.858333057E-03 1.597000000E+03 0.000000000E+00 0.000000000E+00 0.000000000E+00 0.000000000E+00 0.000000000E+00 0.000000000E+00
 1.791666985E+00 3.433333011E-03 1.663000000E+03 0.000000000E+00 0.000000000E+00 0.000000000E+00 0.000000000E+00 0.000000000E+00 0.000000000E+00
 1.791666985E+00 4.146667197E-03 1.722000000E+03 0.000000000E+00 0.000000000E+00 0.000000000E+00 0.000000000E+00 0.000000000E+00 0.000000000E+00
 1.791666985E+00 4.974999931E-03 1.771000000E+03 0.000000000E+00 0.000000000E+00 0.000000000E+00 0.000000000E+00 0.000000000E+00 0.000000000E+00
 1.791666985E+00 6.025000010E-03 1.815000000E+03 0.000000000E+00 0.000000000E+00 0.000000000E+00 0.000000000E+00 0.000000000E+00 0.000000000E+00
 1.791666985E+00 7.283333223E-03 1.859000000E+03 0.000000000E+00 0.000000000E+00 0.000000000E+00 0.000000000E+00 0.000000000E+00 0.000000000E+00
 1.791666985E+00 8.825000376E-03 1.910000000E+03 0.000000000E+00 0.000000000E+00 0.000000000E+00 0.000000000E+00 0.000000000E+00 0.000000000E+00
 1.791666985E+00 1.070833020E-02 1.968000000E+03 0.000000000E+00 0.000000000E+00 0.000000000E+00 0.000000000E+00 0.000000000E+00 0.000000000E+00
 1.791666985E+00 1.299166959E-02 2.031000000E+03 0.000000000E+00 0.000000000E+00 0.000000000E+00 0.000000000E+00 0.000000000E+00 0.000000000E+00
 1.791666985E+00 1.570832916E-02 2.098000000E+03 0.000000000E+00 0.000000000E+00 0.000000000E+00 0.000000000E+00 0.000000000E+00 0.000000000E+00
 1.791666985E+00 1.895833015E-02 2.165000000E+03 0.000000000E+00 0.000000000E+00 0.000000000E+00 0.000000000E+00 0.000000000E+00 0.000000000E+00
 1.791666985E+00 2.306666970E-02 2.234000000E+03 0.000000000E+00 0.000000000E+00 0.000000000E+00 0.000000000E+00 0.000000000E+00 0.000000000E+00
 1.791666985E+00 2.793332934E-02 2.294000000E+03 0.000000000E+00 0.000000000E+00 0.000000000E+00 0.000000000E+00 0.000000000E+00 0.000000000E+00
 1.791666985E+00 3.395833075E-02 2.326000000E+03 0.000000000E+00 0.000000000E+00 0.000000000E+00 0.000000000E+00 0.000000000E+00 0.000000000E+00
 1.791666985E+00 4.129166901E-02 2.327000000E+03 0.000000000E+00 0.000000000E+00 0.000000000E+00 0.000000000E+00 0.000000000E+00 0.000000000E+00

ZONE T="Experiment", I=188, F=POINT
 1.791666985E+00 3.799216032E+00 2.307367920E+03 0.000000000E+00 0.000000000E+00 0.000000000E+00 0.000000000E+00 0.000000000E+00 0.000000000E+00
 1.791666985E+00 3.590801001E+00 2.307366943E+03 0.000000000E+00 0.000000000E+00 0.000000000E+00 0.000000000E+00 0.000000000E+00 0.000000000E+00
 1.791666985E+00 3.799216032E+00 2.307367920E+03 0.000000000E+00 0.000000000E+00 0.000000000E+00 0.000000000E+00 0.000000000E+00 0.000000000E+00
 1.791666985E+00 4.000000000E+00 2.307367920E+03 0.000000000E+00 0.000000000E+00 0.000000000E+00 0.000000000E+00 0.000000000E+00 0.000000000E+00
 1.791666985E+00 3.799216032E+00 2.307367920E+03 0.000000000E+00 0.000000000E+00 0.000000000E+00 0.000000000E+00 0.000000000E+00 0.000000000E+00
 1.791666985E+00 3.158759117E+00 2.307366943E+03 0.000000000E+00 0.000000000E+00 0.000000000E+00 0.000000000E+00 0.000000000E+00 0.000000000E+00
 1.791666985E+00 3.376617908E+00 2.307366943E+03 0.000000000E+00 0.000000000E+00 0.000000000E+00 0.000000000E+00 0.000000000E+00 0.000000000E+00
 1.791666985E+00 3.590801001E+00 2.307366943E+03 0.000000000E+00 0.000000000E+00 0.000000000E+00 0.000000000E+00 0.000000000E+00 0.000000000E+00
 1.791666985E+00 3.376617908E+00 2.307366943E+03 0.000000000E+00 0.000000000E+00 0.000000000E+00 0.000000000E+00 0.000000000E+00 0.000000000E+00
 1.791666985E+00 3.158759117E+00 2.307366943E+03 0.000000000E+00 0.000000000E+00 0.000000000E+00 0.000000000E+00 0.000000000E+00 0.000000000E+00
 1.791666985E+00 2.505728960E+00 2.307367920E+03 0.000000000E+00 0.000000000E+00 0.000000000E+00 0.000000000E+00 0.000000000E+00 0.000000000E+00
 1.791666985E+00 2.295691013E+00 2.307366943E+03 0.000000000E+00 0.000000000E+00 0.000000000E+00 0.000000000E+00 0.000000000E+00 0.000000000E+00
 1.791666985E+00 2.505728960E+00 2.307367920E+03 0.000000000E+00 0.000000000E+00 0.000000000E+00 0.000000000E+00 0.000000000E+00 0.000000000E+00
 1.791666985E+00 2.721031904E+00 2.307366943E+03 0.000000000E+00 0.000000000E+00 0.000000000E+00 0.000000000E+00 0.000000000E+00 0.000000000E+00
 1.791666985E+00 2.939462900E+00 2.307366943E+03 0.000000000E+00 0.000000000E+00 0.000000000E+00 0.000000000E+00 0.000000000E+00 0.000000000E+00
 1.791666985E+00 3.158759117E+00 2.307366943E+03 0.000000000E+00 0.000000000E+00 0.000000000E+00 0.000000000E+00 0.000000000E+00 0.000000000E+00
 1.791666985E+00 2.939462900E+00 2.307366943E+03 0.000000000E+00 0.000000000E+00 0.000000000E+00 0.000000000E+00 0.000000000E+00 0.000000000E+00
 1.791666985E+00 2.721031904E+00 2.307366943E+03 0.000000000E+00 0.000000000E+00 0.000000000E+00 0.000000000E+00 0.000000000E+00 0.000000000E+00
 1.791666985E+00 2.505728960E+00 2.307367920E+03 0.000000000E+00 0.000000000E+00 0.000000000E+00 0.000000000E+00 0.000000000E+00 0.000000000E+00
 1.791666985E+00 2.092843056E+00 2.307366943E+03 0.000000000E+00 0.000000000E+00 0.000000000E+00 0.000000000E+00 0.000000000E+00 0.000000000E+00
 1.791666985E+00 1.898836970E+00 2.307366943E+03 0.000000000E+00 0.000000000E+00 0.000000000E+00 0.000000000E+00 0.000000000E+00 0.000000000E+00
 1.791666985E+00 2.092843056E+00 2.307366943E+03 0.000000000E+00 0.000000000E+00 0.000000000E+00 0.000000000E+00 0.000000000E+00 0.000000000E+00
 1.791666985E+00 2.295691013E+00 2.307366943E+03 0.000000000E+00 0.000000000E+00 0.000000000E+00 0.000000000E+00 0.000000000E+00 0.000000000E+00
 1.791666985E+00 2.092843056E+00 2.307366943E+03 0.000000000E+00 0.000000000E+00 0.000000000E+00 0.000000000E+00 0.000000000E+00 0.000000000E+00
 1.791666985E+00 1.715008020E+00 2.307366943E+03 0.000000000E+00 0.000000000E+00 0.000000000E+00 0.000000000E+00 0.000000000E+00 0.000000000E+00
 1.791666985E+00 1.898836970E+00 2.307366943E+03 0.000000000E+00 0.000000000E+00 0.000000000E+00 0.000000000E+00 0.000000000E+00 0.000000000E+00
 1.791666985E+00 1.715008020E+00 2.307366943E+03 0.000000000E+00 0.000000000E+00 0.000000000E+00 0.000000000E+00 0.000000000E+00 0.000000000E+00
 1.791666985E+00 1.542351961E+00 2.307366943E+03 0.000000000E+00 0.000000000E+00 0.000000000E+00 0.000000000E+00 0.000000000E+00 0.000000000E+00
 1.791666985E+00 1.381528974E+00 2.307366943E+03 0.000000000E+00 0.000000000E+00 0.000000000E+00 0.000000000E+00 0.000000000E+00 0.000000000E+00
 1.791666985E+00 1.542351961E+00 2.307366943E+03 0.000000000E+00 0.000000000E+00 0.000000000E+00 0.000000000E+00 0.000000000E+00 0.000000000E+00
 1.791666985E+00 1.715008020E+00 2.307366943E+03 0.000000000E+00 0.000000000E+00 0.000000000E+00 0.000000000E+00 0.000000000E+00 0.000000000E+00
 1.791666985E+00 1.096464038E+00 2.307366943E+03 0.000000000E+00 0.000000000E+00 0.000000000E+00 0.000000000E+00 0.000000000E+00 0.000000000E+00
 1.791666985E+00 1.232880950E+00 2.307366943E+03 0.000000000E+00 0.000000000E+00 0.000000000E+00 0.000000000E+00 0.000000000E+00 0.000000000E+00
 1.791666985E+00 1.381528974E+00 2.307366943E+03 0.000000000E+00 0.000000000E+00 0.000000000E+00 0.000000000E+00 0.000000000E+00 0.000000000E+00
 1.791666985E+00 1.232880950E+00 2.307366943E+03 0.000000000E+00 0.000000000E+00 0.000000000E+00 0.000000000E+00 0.000000000E+00 0.000000000E+00
 1.791666985E+00 1.096464038E+00 2.307366943E+03 0.000000000E+00 0.000000000E+00 0.000000000E+00 0.000000000E+00 0.000000000E+00 0.000000000E+00
 1.791666985E+00 7.577704191E-01 2.307375000E+03 0.000000000E+00 0.000000000E+00 0.000000000E+00 0.000000000E+00 0.000000000E+00 0.000000000E+00
 1.791666985E+00 6.666340828E-01 2.307342041E+03 0.000000000E+00 0.000000000E+00 0.000000000E+00 0.000000000E+00 0.000000000E+00 0.000000000E+00
 1.791666985E+00 7.577704191E-01 2.307375000E+03 0.000000000E+00 0.000000000E+00 0.000000000E+00 0.000000000E+00 0.000000000E+00 0.000000000E+00
 1.791666985E+00 8.593724966E-01 2.307372070E+03 0.000000000E+00 0.000000000E+00 0.000000000E+00 0.000000000E+00 0.000000000E+00 0.000000000E+00
 1.791666985E+00 9.720907807E-01 2.307368896E+03 0.000000000E+00 0.000000000E+00 0.000000000E+00 0.000000000E+00 0.000000000E+00 0.000000000E+00
 1.791666985E+00 1.096464038E+00 2.307366943E+03 0.000000000E+00 0.000000000E+00 0.000000000E+00 0.000000000E+00 0.000000000E+00 0.000000000E+00
 1.791666985E+00 9.720907807E-01 2.307368896E+03 0.000000000E+00 0.000000000E+00 0.000000000E+00 0.000000000E+00 0.000000000E+00 0.000000000E+00
 1.791666985E+00 8.593724966E-01 2.307372070E+03 0.000000000E+00 0.000000000E+00 0.000000000E+00 0.000000000E+00 0.000000000E+00 0.000000000E+00
 1.791666985E+00 7.577704191E-01 2.307375000E+03 0.000000000E+00 0.000000000E+00 0.000000000E+00 0.000000000E+00 0.000000000E+00 0.000000000E+00
 1.791666985E+00 5.852435827E-01 2.307090088E+03 0.000000000E+00 0.000000000E+00 0.000000000E+00 0.000000000E+00 0.000000000E+00 0.000000000E+00
 1.791666985E+00 5.128409266E-01 2.306188965E+03 0.000000000E+00 0.000000000E+00 0.000000000E+00 0.000000000E+00 0.000000000E+00 0.000000000E+00
 1.791666985E+00 5.852435827E-01 2.307090088E+03 0.000000000E+00 0.000000000E+00 0.000000000E+00 0.000000000E+00 0.000000000E+00 0.000000000E+00
 1.791666985E+00 6.666340828E-01 2.307342041E+03 0.000000000E+00 0.000000000E+00 0.000000000E+00 0.000000000E+00 0.000000000E+00 0.000000000E+00
 1.791666985E+00 5.852435827E-01 2.307090088E+03 0.000000000E+00 0.000000000E+00 0.000000000E+00 0.000000000E+00 0.000000000E+00 0.000000000E+00
 1.791666985E+00 4.486575127E-01 2.304552979E+03 0.000000000E+00 0.000000000E+00 0.000000000E+00 0.000000000E+00 0.000000000E+00 0.000000000E+00
 1.791666985E+00 5.128409266E-01 2.306188965E+03 0.000000000E+00 0.000000000E+00 0.000000000E+00 0.000000000E+00 0.000000000E+00 0.000000000E+00
 1.791666985E+00 4.486575127E-01 2.304552979E+03 0.000000000E+00 0.000000000E+00 0.000000000E+00 0.000000000E+00 0.000000000E+00 0.000000000E+00
 1.791666985E+00 3.919357955E-01 2.303047119E+03 0.000000000E+00 0.000000000E+00 0.000000000E+00 0.000000000E+00 0.000000000E+00 0.000000000E+00
 1.791666985E+00 3.419452906E-01 2.302448975E+03 0.000000000E+00 0.000000000E+00 0.000000000E+00 0.000000000E+00 0.000000000E+00 0.000000000E+00
 1.791666985E+00 3.919357955E-01 2.303047119E+03 0.000000000E+00 0.000000000E+00 0.000000000E+00 0.000000000E+00 0.000000000E+00 0.000000000E+00
 1.791666985E+00 4.486575127E-01 2.304552979E+03 0.000000000E+00 0.000000000E+00 0.000000000E+00 0.000000000E+00 0.000000000E+00 0.000000000E+00
 1.791666985E+00 2.979927957E-01 2.302562988E+03 0.000000000E+00 0.000000000E+00 0.000000000E+00 0.000000000E+00 0.000000000E+00 0.000000000E+00
 1.791666985E+00 3.419452906E-01 2.302448975E+03 0.000000000E+00 0.000000000E+00 0.000000000E+00 0.000000000E+00 0.000000000E+00 0.000000000E+00
 1.791666985E+00 2.979927957E-01 2.302562988E+03 0.000000000E+00 0.000000000E+00 0.000000000E+00 0.000000000E+00 0.000000000E+00 0.000000000E+00
 1.791666985E+00 2.594310939E-01 2.302865967E+03 0.000000000E+00 0.000000000E+00 0.000000000E+00 0.000000000E+00 0.000000000E+00 0.000000000E+00
 1.791666985E+00 2.256616950E-01 2.303061035E+03 0.000000000E+00 0.000000000E+00 0.000000000E+00 0.000000000E+00 0.000000000E+00 0.000000000E+00
 1.791666985E+00 2.594310939E-01 2.302865967E+03 0.000000000E+00 0.000000000E+00 0.000000000E+00 0.000000000E+00 0.000000000E+00 0.000000000E+00
 1.791666985E+00 2.979927957E-01 2.302562988E+03 0.000000000E+00 0.000000000E+00 0.000000000E+00 0.000000000E+00 0.000000000E+00 0.000000000E+00
 1.791666985E+00 1.961369962E-01 2.303125000E+03 0.000000000E+00 0.000000000E+00 0.000000000E+00 0.000000000E+00 0.000000000E+00 0.000000000E+00
 1.791666985E+00 2.256616950E-01 2.303061035E+03 0.000000000E+00 0.000000000E+00 0.000000000E+00 0.000000000E+00 0.000000000E+00 0.000000000E+00
 1.791666985E+00 1.961369962E-01 2.303125000E+03 0.000000000E+00 0.000000000E+00 0.000000000E+00 0.000000000E+00 0.000000000E+00 0.000000000E+00
 1.791666985E+00 1.703602970E-01 2.303166016E+03 0.000000000E+00 0.000000000E+00 0.000000000E+00 0.000000000E+00 0.000000000E+00 0.000000000E+00
 1.791666985E+00 1.478836983E-01 2.303219971E+03 0.000000000E+00 0.000000000E+00 0.000000000E+00 0.000000000E+00 0.000000000E+00 0.000000000E+00
 1.791666985E+00 1.703602970E-01 2.303166016E+03 0.000000000E+00 0.000000000E+00 0.000000000E+00 0.000000000E+00 0.000000000E+00 0.000000000E+00
 1.791666985E+00 1.961369962E-01 2.303125000E+03 0.000000000E+00 0.000000000E+00 0.000000000E+00 0.000000000E+00 0.000000000E+00 0.000000000E+00
 1.791666985E+00 1.112691984E-01 2.303271973E+03 0.000000000E+00 0.000000000E+00 0.000000000E+00 0.000000000E+00 0.000000000E+00 0.000000000E+00
 1.791666985E+00 9.645575285E-02 2.303261963E+03 0.000000000E+00 0.000000000E+00 0.000000000E+00 0.000000000E+00 0.000000000E+00 0.000000000E+00
 1.791666985E+00 1.112691984E-01 2.303271973E+03 0.000000000E+00 0.000000000E+00 0.000000000E+00 0.000000000E+00 0.000000000E+00 0.000000000E+00
 1.791666985E+00 1.283058971E-01 2.303269043E+03 0.000000000E+00 0.000000000E+00 0.000000000E+00 0.000000000E+00 0.000000000E+00 0.000000000E+00
 1.791666985E+00 1.478836983E-01 2.303219971E+03 0.000000000E+00 0.000000000E+00 0.000000000E+00 0.000000000E+00 0.000000000E+00 0.000000000E+00
 1.791666985E+00 1.283058971E-01 2.303269043E+03 0.000000000E+00 0.000000000E+00 0.000000000E+00 0.000000000E+00 0.000000000E+00 0.000000000E+00
 1.791666985E+00 1.112691984E-01 2.303271973E+03 0.000000000E+00 0.000000000E+00 0.000000000E+00 0.000000000E+00 0.000000000E+00 0.000000000E+00
 1.791666985E+00 8.358483016E-02 2.303304932E+03 0.000000000E+00 0.000000000E+00 0.000000000E+00 0.000000000E+00 0.000000000E+00 0.000000000E+00
 1.791666985E+00 7.240860164E-02 2.303388916E+03 0.000000000E+00 0.000000000E+00 0.000000000E+00 0.000000000E+00 0.000000000E+00 0.000000000E+00
 1.791666985E+00 8.358483016E-02 2.303304932E+03 0.000000000E+00 0.000000000E+00 0.000000000E+00 0.000000000E+00 0.000000000E+00 0.000000000E+00
 1.791666985E+00 9.645575285E-02 2.303261963E+03 0.000000000E+00 0.000000000E+00 0.000000000E+00 0.000000000E+00 0.000000000E+00 0.000000000E+00
 1.791666985E+00 8.358483016E-02 2.303304932E+03 0.000000000E+00 0.000000000E+00 0.000000000E+00 0.000000000E+00 0.000000000E+00 0.000000000E+00
 1.791666985E+00 6.270910054E-02 2.303461914E+03 0.000000000E+00 0.000000000E+00 0.000000000E+00 0.000000000E+00 0.000000000E+00 0.000000000E+00
 1.791666985E+00 7.240860164E-02 2.303388916E+03 0.000000000E+00 0.000000000E+00 0.000000000E+00 0.000000000E+00 0.000000000E+00 0.000000000E+00
 1.791666985E+00 6.270910054E-02 2.303461914E+03 0.000000000E+00 0.000000000E+00 0.000000000E+00 0.000000000E+00 0.000000000E+00 0.000000000E+00
 1.791666985E+00 5.429517850E-02 2.303534912E+03 0.000000000E+00 0.000000000E+00 0.000000000E+00 0.000000000E+00 0.000000000E+00 0.000000000E+00
 1.791666985E+00 4.699937999E-02 2.303135010E+03 0.000000000E+00 0.000000000E+00 0.000000000E+00 0.000000000E+00 0.000000000E+00 0.000000000E+00
 1.791666985E+00 5.429517850E-02 2.303534912E+03 0.000000000E+00 0.000000000E+00 0.000000000E+00 0.000000000E+00 0.000000000E+00 0.000000000E+00
 1.791666985E+00 6.270910054E-02 2.303461914E+03 0.000000000E+00 0.000000000E+00 0.000000000E+00 0.000000000E+00 0.000000000E+00 0.000000000E+00
 1.791666985E+00 4.067536816E-02 2.299739990E+03 0.000000000E+00 0.000000000E+00 0.000000000E+00 0.000000000E+00 0.000000000E+00 0.000000000E+00
 1.791666985E+00 4.699937999E-02 2.303135010E+03 0.000000000E+00 0.000000000E+00 0.000000000E+00 0.000000000E+00 0.000000000E+00 0.000000000E+00
 1.791666985E+00 4.067536816E-02 2.299739990E+03 0.000000000E+00 0.000000000E+00 0.000000000E+00 0.000000000E+00 0.000000000E+00 0.000000000E+00
 1.791666985E+00 3.519536182E-02 2.288561035E+03 0.000000000E+00 0.000000000E+00 0.000000000E+00 0.000000000E+00 0.000000000E+00 0.000000000E+00
 1.791666985E+00 3.044795990E-02 2.265666992E+03 0.000000000E+00 0.000000000E+00 0.000000000E+00 0.000000000E+00 0.000000000E+00 0.000000000E+00
 1.791666985E+00 3.519536182E-02 2.288561035E+03 0.000000000E+00 0.000000000E+00 0.000000000E+00 0.000000000E+00 0.000000000E+00 0.000000000E+00
 1.791666985E+00 4.067536816E-02 2.299739990E+03 0.000000000E+00 0.000000000E+00 0.000000000E+00 0.000000000E+00 0.000000000E+00 0.000000000E+00
 1.791666985E+00 2.633618936E-02 2.230931885E+03 0.000000000E+00 0.000000000E+00 0.000000000E+00 0.000000000E+00 0.000000000E+00 0.000000000E+00
 1.791666985E+00 3.044795990E-02 2.265666992E+03 0.000000000E+00 0.000000000E+00 0.000000000E+00 0.000000000E+00 0.000000000E+00 0.000000000E+00
 1.791666985E+00 2.633618936E-02 2.230931885E+03 0.000000000E+00 0.000000000E+00 0.000000000E+00 0.000000000E+00 0.000000000E+00 0.000000000E+00
 1.791666985E+00 2.277564071E-02 2.187342041E+03 0.000000000E+00 0.000000000E+00 0.000000000E+00 0.000000000E+00 0.000000000E+00 0.000000000E+00
 1.791666985E+00 2.633618936E-02 2.230931885E+03 0.000000000E+00 0.000000000E+00 0.000000000E+00 0.000000000E+00 0.000000000E+00 0.000000000E+00
 1.791666985E+00 1.969294064E-02 2.138508057E+03 0.000000000E+00 0.000000000E+00 0.000000000E+00 0.000000000E+00 0.000000000E+00 0.000000000E+00
 1.791666985E+00 2.277564071E-02 2.187342041E+03 0.000000000E+00 0.000000000E+00 0.000000000E+00 0.000000000E+00 0.000000000E+00 0.000000000E+00
 1.791666985E+00 1.969294064E-02 2.138508057E+03 0.000000000E+00 0.000000000E+00 0.000000000E+00 0.000000000E+00 0.000000000E+00 0.000000000E+00
 1.791666985E+00 1.702436991E-02 2.086985107E+03 0.000000000E+00 0.000000000E+00 0.000000000E+00 0.000000000E+00 0.000000000E+00 0.000000000E+00
 1.791666985E+00 1.471458003E-02 2.034290039E+03 0.000000000E+00 0.000000000E+00 0.000000000E+00 0.000000000E+00 0.000000000E+00 0.000000000E+00
 1.791666985E+00 1.271555014E-02 1.981317017E+03 0.000000000E+00 0.000000000E+00 0.000000000E+00 0.000000000E+00 0.000000000E+00 0.000000000E+00
 1.791666985E+00 1.471458003E-02 2.034290039E+03 0.000000000E+00 0.000000000E+00 0.000000000E+00 0.000000000E+00 0.000000000E+00 0.000000000E+00
 1.791666985E+00 1.702436991E-02 2.086985107E+03 0.000000000E+00 0.000000000E+00 0.000000000E+00 0.000000000E+00 0.000000000E+00 0.000000000E+00
 1.791666985E+00 1.969294064E-02 2.138508057E+03 0.000000000E+00 0.000000000E+00 0.000000000E+00 0.000000000E+00 0.000000000E+00 0.000000000E+00