# y+ ()       
# Time        	patch         	min           	max           	average       
4600          	base	1.397557e-02	6.421579e-01	2.588718e-01
