# p  FACE_DATA 317
# x  y  z  p
-2.24217 0 0.27 23911.8
-2.12942 0 0.27 23884.4
-2.02231 0 0.27 23857.5
-1.92055 0 0.27 23847.2
-1.82389 0 0.27 23844.5
-1.73207 0 0.27 23839.6
-1.64485 0 0.27 23831.8
-1.562 0 0.27 23827.1
-1.48331 0 0.27 23826.8
-1.40856 0 0.27 23824.8
-1.33756 0 0.27 23816.9
-1.27013 0 0.27 23802.9
-1.20608 0 0.27 23784.3
-1.14539 0 0.27 23762.8
-1.08787 0 0.27 23743.4
-1.03323 0 0.27 23726
-0.981322 0 0.27 23711
-0.932014 0 0.27 23698.9
-0.885173 0 0.27 23689.5
-0.84068 0 0.27 23682.6
-0.798416 0 0.27 23677.8
-0.758473 0 0.27 23674.7
-0.720912 0 0.27 23673.1
-0.685558 0 0.27 23672.4
-0.652245 0 0.27 23672.3
-0.620811 0 0.27 23672.3
-0.591171 0 0.27 23672.1
-0.563165 0 0.27 23672.4
-0.536572 0 0.27 23673.3
-0.51125 0 0.27 23674.8
-0.487059 0 0.27 23677.3
-0.463863 0 0.27 23680.7
-0.441526 0 0.27 23685
-0.419915 0 0.27 23690.1
-0.398896 0 0.27 23695.6
-0.378338 0 0.27 23701.4
-0.358104 0 0.27 23707.1
-0.33806 0 0.27 23710.6
-0.318069 0 0.27 23738.6
-0.296809 0 0.27 23756.7
-0.275112 0 0.27 23738.8
-0.255001 0 0.27 23735
-0.23636 0 0.27 23762.8
-0.219081 0 0.27 23754.1
-0.203066 0 0.27 23731.5
-0.188221 0 0.27 23729.3
-0.174462 0 0.27 23726.9
-0.161708 0 0.27 23727.1
-0.149886 0 0.27 23728.1
-0.138929 0 0.27 23727.7
-0.128773 0 0.27 23728.1
-0.119359 0 0.27 23727.4
-0.110632 0 0.27 23727.5
-0.102544 0 0.27 23727.5
-0.0950472 0 0.27 23728.1
-0.0880983 0 0.27 23728.3
-0.0816572 0 0.27 23728.2
-0.0756869 0 0.27 23728.9
-0.070153 0 0.27 23731.3
-0.0650234 0 0.27 23815.8
-0.0602687 0 0.27 26089.9
-0.0558616 0 0.27 34466.2
-0.0517765 0 0.27 42091.7
-0.0479899 0 0.27 45336.3
-0.04448 0 0.27 47465.2
-0.0412265 0 0.27 49010.1
-0.0382106 0 0.27 50070.1
-0.0354151 0 0.27 50967.2
-0.0328237 0 0.27 51747.1
-0.0304215 0 0.27 52391.6
-0.0281948 0 0.27 52967.6
-0.0261306 0 0.27 53482.4
-0.0242171 0 0.27 53945.2
-0.0224431 0 0.27 54361.1
-0.0207985 0 0.27 54737.2
-0.0192738 0 0.27 55078.9
-0.0178602 0 0.27 55388.5
-0.0165496 0 0.27 55670.2
-0.0153345 0 0.27 55925.7
-0.0142077 0 0.27 56158.2
-0.0131629 0 0.27 56370.5
-0.0121939 0 0.27 56564.7
-0.0112952 0 0.27 56742.8
-0.0104616 0 0.27 56907.1
-0.0096884 0 0.27 57059.1
-0.00897103 0 0.27 57200.5
-0.00830536 0 0.27 57332.6
-0.00768758 0 0.27 57456.4
-0.0071141 0 0.27 57572.9
-0.00658165 0 0.27 57682.3
-0.00608714 0 0.27 57786
-0.00562772 0 0.27 57884
-0.00520074 0 0.27 57976.8
-0.00480375 0 0.27 58064.7
-0.00443446 0 0.27 58148
-0.00409073 0 0.27 58226.8
-0.00377059 0 0.27 58301.4
-0.00347218 0 0.27 58371.6
-0.00319379 0 0.27 58443.1
-0.00293381 0 0.27 58505.6
-0.00269075 0 0.27 58565.9
-0.00246319 0 0.27 58622.9
-0.00224984 0 0.27 58677
-0.00204945 0 0.27 58728
-0.00186089 0 0.27 58776.4
-0.00168306 0 0.27 58821.8
-0.00151492 0 0.27 58865.1
-0.00135552 0 0.27 58905.3
-0.00120394 0 0.27 58943.6
-0.00105929 0 0.27 58978.6
-0.000920752 0 0.27 59012.1
-0.000787523 0 0.27 59041.7
-0.000658834 0 0.27 59069
-0.000533942 0 0.27 59092.2
-0.000412129 0 0.27 59109
-0.000292693 0 0.27 59125.2
-0.000174943 0 0.27 59104.7
-5.82025e-05 0 0.27 59308.3
6.0278e-05 2.68374e-05 0.27 58587.8
0.000182584 8.12915e-05 0.27 58812.8
0.000308438 0.000137325 0.27 58770.6
0.000437939 0.000194983 0.27 58756
0.00057119 0.00025431 0.27 58742.3
0.000708293 0.000315353 0.27 58741.5
0.000849358 0.000378158 0.27 58750.5
0.000994492 0.000442776 0.27 58764.3
0.00114381 0.000509256 0.27 58785.5
0.00129743 0.000577649 0.27 58809.9
0.00145545 0.000648007 0.27 58839.7
0.00161801 0.000720386 0.27 58872.6
0.00178523 0.000794839 0.27 58909.9
0.00195724 0.000871423 0.27 58950.1
0.00213417 0.000950195 0.27 58994.2
0.00231614 0.00103122 0.27 59041.1
0.0025033 0.00111455 0.27 59091.6
0.00269579 0.00120024 0.27 59144.9
0.00289374 0.00128838 0.27 59201.4
0.00309731 0.00137901 0.27 59261.1
0.00330663 0.00147221 0.27 59324.1
0.00352187 0.00156804 0.27 59391.1
0.00374317 0.00166657 0.27 59460.2
0.0039707 0.00176788 0.27 59532.5
0.00420463 0.00187202 0.27 59607.9
0.00444512 0.0019791 0.27 59686.7
0.00469233 0.00208916 0.27 59768.9
0.00494645 0.0022023 0.27 59854.5
0.00520763 0.00231859 0.27 59943.6
0.00547608 0.00243811 0.27 60036.2
0.00575197 0.00256094 0.27 60132.5
0.00603549 0.00268717 0.27 60232.4
0.00632683 0.00281688 0.27 60336
0.00662618 0.00295016 0.27 60443.5
0.00693375 0.0030871 0.27 60554.9
0.00724974 0.0032278 0.27 60670.4
0.00757435 0.00337232 0.27 60790
0.0079078 0.00352077 0.27 60913.8
0.00825029 0.00367327 0.27 61042
0.00860204 0.00382988 0.27 61174.8
0.00896328 0.00399071 0.27 61312.3
0.00933422 0.00415586 0.27 61454.6
0.0097151 0.00432544 0.27 61601.8
0.0101061 0.00449954 0.27 61754.2
0.0105076 0.00467828 0.27 61912.1
0.0109197 0.00486175 0.27 62075.5
0.0113426 0.00505007 0.27 62244.8
0.0117768 0.00524333 0.27 62420.1
0.0122222 0.00544166 0.27 62601.9
0.0126792 0.00564515 0.27 62790.2
0.0131482 0.00585394 0.27 62985.5
0.0136292 0.00606812 0.27 63187.7
0.0141227 0.00628781 0.27 63397.6
0.0146288 0.00651313 0.27 63615.2
0.0151477 0.00674419 0.27 63840.7
0.0156799 0.00698113 0.27 64074.6
0.0162254 0.00722403 0.27 64316.8
0.0167847 0.00747303 0.27 64568
0.017358 0.00772826 0.27 64828.1
0.0179454 0.00798982 0.27 65097.6
0.0185474 0.00825783 0.27 65376.6
0.0191641 0.00853242 0.27 65665.5
0.0197959 0.00881371 0.27 65964.2
0.0204431 0.00910183 0.27 66273
0.0211057 0.00939688 0.27 66591.7
0.0217843 0.00969898 0.27 66920.6
0.0224789 0.0100083 0.27 67259.7
0.02319 0.0103248 0.27 67608.8
0.0239176 0.0106488 0.27 67968.5
0.0246623 0.0109804 0.27 68338.3
0.025424 0.0113195 0.27 68718.8
0.0262032 0.0116664 0.27 69110
0.0270001 0.0120212 0.27 69511.7
0.0278149 0.012384 0.27 69923.9
0.0286479 0.0127549 0.27 70347
0.0294992 0.0131339 0.27 70780.2
0.0303692 0.0135212 0.27 71224.1
0.0312581 0.013917 0.27 71678
0.0321659 0.0143213 0.27 72141.8
0.0330931 0.014734 0.27 72615.3
0.0340398 0.0151555 0.27 73098.5
0.0350062 0.0155858 0.27 73591.1
0.0359924 0.0160249 0.27 74093
0.0369987 0.0164729 0.27 74605.1
0.0380251 0.0169299 0.27 75125.7
0.0390719 0.0173959 0.27 75655.3
0.0401391 0.0178711 0.27 76193.3
0.041227 0.0183554 0.27 76738.7
0.0423356 0.018849 0.27 77292.3
0.043465 0.0193519 0.27 77853.7
0.0446154 0.0198641 0.27 78420.6
0.0457867 0.0203856 0.27 78993.3
0.046979 0.0209164 0.27 79569.5
0.0481924 0.0214567 0.27 80148.5
0.0494267 0.0220063 0.27 80727.7
0.0506823 0.0225652 0.27 81305
0.0519588 0.0231335 0.27 81878.8
0.0532563 0.0237113 0.27 82446.3
0.0545749 0.0242983 0.27 83006.2
0.0559142 0.0248946 0.27 83555.6
0.0572744 0.0255002 0.27 84093.4
0.0586552 0.0261149 0.27 84617.7
0.0600565 0.0267388 0.27 85128.9
0.0614781 0.0273718 0.27 85627.3
0.0629198 0.0280137 0.27 86112.9
0.0643815 0.0286645 0.27 86589.3
0.0658629 0.029324 0.27 87056.7
0.0673636 0.0299922 0.27 87518.6
0.0688836 0.030669 0.27 87975.9
0.0704223 0.0313541 0.27 88430.7
0.0719795 0.0320474 0.27 88886.2
0.0735549 0.0327488 0.27 89341.4
0.075148 0.0334581 0.27 89797.4
0.0767585 0.0341751 0.27 90254.4
0.0783859 0.0348996 0.27 90710.3
0.0800297 0.0356315 0.27 91165.7
0.0816895 0.0363706 0.27 91619.7
0.0833647 0.0371164 0.27 92064.2
0.085055 0.0378689 0.27 92498.6
0.0867595 0.0386278 0.27 92913
0.0884779 0.0393929 0.27 93303.7
0.0902095 0.0401639 0.27 93668.6
0.0919538 0.0409405 0.27 94005.2
0.09371 0.0417224 0.27 94312.4
0.0954776 0.0425094 0.27 94593.3
0.0972558 0.0433011 0.27 94852.7
0.0990439 0.0440972 0.27 95094.7
0.100841 0.0448975 0.27 95317.6
0.102647 0.0457015 0.27 95524.9
0.104461 0.046509 0.27 95738.9
0.106282 0.0473197 0.27 95943.2
0.108109 0.0481331 0.27 96164.5
0.109941 0.048949 0.27 96382.2
0.111779 0.0497671 0.27 96597.8
0.11362 0.0505868 0.27 96821.6
0.115464 0.051408 0.27 97080.9
0.117311 0.0522302 0.27 97327.4
0.11916 0.0530531 0.27 97562.4
0.121009 0.0538763 0.27 97842.8
0.122857 0.0546995 0.27 98099.8
0.124705 0.0555223 0.27 98335.9
0.126552 0.0563444 0.27 98569.2
0.128395 0.0571653 0.27 98791.4
0.130236 0.0579847 0.27 98997.7
0.132072 0.0588023 0.27 99186.5
0.133904 0.0596177 0.27 99356.7
0.13573 0.0604306 0.27 99492.8
0.137549 0.0612407 0.27 99588.2
0.139361 0.0620475 0.27 99664.5
0.141165 0.0628508 0.27 99698.7
0.14296 0.0636503 0.27 99776.5
0.144747 0.0644455 0.27 99837
0.146523 0.0652363 0.27 99879.3
0.148288 0.0660222 0.27 99921
0.150042 0.0668031 0.27 99958.1
0.151784 0.0675785 0.27 100036
0.153513 0.0683483 0.27 100081
0.155228 0.0691121 0.27 100157
0.15693 0.0698698 0.27 100270
0.158617 0.070621 0.27 100380
0.160289 0.0713654 0.27 100520
0.161946 0.072103 0.27 100654
0.163586 0.0728334 0.27 100788
0.165211 0.0735564 0.27 100942
0.166817 0.0742718 0.27 101087
0.168406 0.0749795 0.27 101240
0.169978 0.0756793 0.27 101390
0.171532 0.0763709 0.27 101509
0.173067 0.0770543 0.27 101621
0.174583 0.0777293 0.27 101707
0.17608 0.0783958 0.27 101817
0.177557 0.0790535 0.27 101938
0.179014 0.0797025 0.27 101973
0.180452 0.0803425 0.27 102010
0.18187 0.0809736 0.27 102101
0.183266 0.0815956 0.27 102194
0.184643 0.0822085 0.27 102326
0.185999 0.0828122 0.27 102425
0.187334 0.0834066 0.27 102518
0.188648 0.0839917 0.27 102646
0.189942 0.0845675 0.27 102746
0.191214 0.0851339 0.27 102902
0.192465 0.085691 0.27 103020
0.193695 0.0862387 0.27 103169
0.194904 0.086777 0.27 103337
0.196093 0.0873059 0.27 103502
0.197259 0.0878254 0.27 103664
0.198405 0.0883357 0.27 103842
0.19953 0.0888366 0.27 104051
0.200635 0.0893284 0.27 104292
0.201718 0.0898108 0.27 104505
0.202782 0.0902841 0.27 104718
0.203824 0.0907483 0.27 104951
0.204846 0.0912035 0.27 105127
0.205848 0.0916496 0.27 105339
0.206831 0.0920869 0.27 105566
0.207793 0.0925153 0.27 105764
0.208735 0.092935 0.27 105993
0.209658 0.093346 0.27 105882
