# p  FACE_DATA 240
# x  y  z  p
-0.771783 0 0.026 3541.66
-0.74637 0 0.026 2982.8
-0.719597 0 0.026 2824.54
-0.693782 0 0.026 2767.49
-0.66889 0 0.026 2750.57
-0.644887 0 0.026 2741.02
-0.621743 0 0.026 2734.1
-0.599426 0 0.026 2730.15
-0.577906 0 0.026 2726.12
-0.557155 0 0.026 2719.77
-0.537145 0 0.026 2712.67
-0.517849 0 0.026 2706.88
-0.499243 0 0.026 2703.17
-0.481301 0 0.026 2700.19
-0.463999 0 0.026 2696.34
-0.447315 0 0.026 2691.12
-0.431226 0 0.026 2685.71
-0.41571 0 0.026 2681.12
-0.400747 0 0.026 2678.14
-0.386317 0 0.026 2676.76
-0.372401 0 0.026 2675.81
-0.358982 0 0.026 2673.97
-0.346039 0 0.026 2671.04
-0.333557 0 0.026 2667.27
-0.321518 0 0.026 2663.27
-0.309908 0 0.026 2660.02
-0.298709 0 0.026 2657.93
-0.287908 0 0.026 2657.33
-0.27749 0 0.026 2658.02
-0.267441 0 0.026 2658.99
-0.257748 0 0.026 2659.65
-0.248397 0 0.026 2659.29
-0.239378 0 0.026 2657.69
-0.230676 0 0.026 2655.34
-0.222282 0 0.026 2652.38
-0.214183 0 0.026 2649.28
-0.20637 0 0.026 2646.28
-0.19883 0 0.026 2643.53
-0.191555 0 0.026 2641.68
-0.184536 0 0.026 2640.64
-0.177762 0 0.026 2640.16
-0.171224 0 0.026 2640.21
-0.165013 0 0.026 2640.86
-0.159119 0 0.026 2642.01
-0.153435 0 0.026 2643.49
-0.14795 0 0.026 2645.01
-0.14266 0 0.026 2646.37
-0.137557 0 0.026 2647.53
-0.132633 0 0.026 2648.49
-0.127882 0 0.026 2649.06
-0.123298 0 0.026 2649.32
-0.118874 0 0.026 2649.42
-0.114605 0 0.026 2649.4
-0.110484 0 0.026 2649.19
-0.106508 0 0.026 2648.85
-0.10267 0 0.026 2648.33
-0.0989664 0 0.026 2647.63
-0.0953906 0 0.026 2646.7
-0.0919392 0 0.026 2645.57
-0.0886074 0 0.026 2644.26
-0.085391 0 0.026 2642.86
-0.0822859 0 0.026 2641.44
-0.079288 0 0.026 2640.06
-0.0763938 0 0.026 2638.74
-0.0735993 0 0.026 2637.45
-0.0709011 0 0.026 2636.21
-0.0682959 0 0.026 2635.03
-0.0657802 0 0.026 2633.92
-0.063351 0 0.026 2632.9
-0.0610052 0 0.026 2631.96
-0.05874 0 0.026 2631.08
-0.0565524 0 0.026 2630.28
-0.0544398 0 0.026 2629.57
-0.0523995 0 0.026 2628.92
-0.0504291 0 0.026 2628.34
-0.048526 0 0.026 2627.82
-0.046688 0 0.026 2627.37
-0.0449127 0 0.026 2626.97
-0.043198 0 0.026 2626.63
-0.0415419 0 0.026 2626.34
-0.0399422 0 0.026 2626.08
-0.0383971 0 0.026 2625.85
-0.0369046 0 0.026 2625.65
-0.0354628 0 0.026 2625.47
-0.0340701 0 0.026 2625.32
-0.0327248 0 0.026 2625.19
-0.0314253 0 0.026 2625.07
-0.0301698 0 0.026 2624.96
-0.0289571 0 0.026 2624.87
-0.0277855 0 0.026 2624.82
-0.0266537 0 0.026 2624.75
-0.0255603 0 0.026 2624.63
-0.0245039 0 0.026 2624.72
-0.0234834 0 0.026 2624.73
-0.0224975 0 0.026 2624.75
-0.0215449 0 0.026 2624.79
-0.0206246 0 0.026 2624.85
-0.0197355 0 0.026 2624.92
-0.0188765 0 0.026 2625.01
-0.0180466 0 0.026 2625.1
-0.0172447 0 0.026 2625.2
-0.0164699 0 0.026 2625.31
-0.0157213 0 0.026 2625.43
-0.0149981 0 0.026 2625.85
-0.0142993 0 0.026 2636.16
-0.0136241 0 0.026 3051.31
-0.0129717 0 0.026 7861.6
-0.0123413 0 0.026 13485.7
-0.0117322 0 0.026 15093.5
-0.0111437 0 0.026 14084.6
-0.010575 0 0.026 13289.9
-0.0100256 0 0.026 12940
-0.00949468 0 0.026 12879.2
-0.00898166 0 0.026 13004.6
-0.00848594 0 0.026 13236.4
-0.00800694 0 0.026 13519.2
-0.00754409 0 0.026 13822.2
-0.00709684 0 0.026 14124.6
-0.00666467 0 0.026 14418.4
-0.00624706 0 0.026 14698.9
-0.00584352 0 0.026 14963.2
-0.00545358 0 0.026 15209.7
-0.00507677 0 0.026 15437.9
-0.00471265 0 0.026 15648.7
-0.0043608 0 0.026 15843.4
-0.0040208 0 0.026 16024.5
-0.00369224 0 0.026 16194.5
-0.00337474 0 0.026 16355.7
-0.00306793 0 0.026 16510.3
-0.00277146 0 0.026 16661.4
-0.00248495 0 0.026 16813
-0.00220809 0 0.026 16970.8
-0.00194054 0 0.026 17144.5
-0.001682 0 0.026 17328
-0.00143216 0 0.026 17524.7
-0.00119071 0 0.026 17749.7
-0.000957397 0 0.026 18003
-0.000731928 0 0.026 18278.7
-0.00051404 0 0.026 18561.2
-0.00030348 0 0.026 18971
-0.0001 0 0.026 20239.9
8.66025e-05 5e-05 0.026 17835.3
0.000259964 0.00015009 0.026 18440.6
0.000433795 0.000250451 0.026 18254.1
0.000608407 0.000351264 0.026 18084.9
0.000784117 0.000452711 0.026 17967.9
0.000961243 0.000554974 0.026 17903.8
0.0011401 0.000658238 0.026 17877.5
0.00132102 0.000762689 0.026 17879.3
0.00150431 0.000868516 0.026 17895.4
0.00169033 0.000975909 0.026 17922.7
0.00187939 0.00108506 0.026 17952.9
0.00207184 0.00119618 0.026 17983.3
0.00226802 0.00130945 0.026 18016.7
0.00246831 0.00142508 0.026 18049.2
0.00267303 0.00154328 0.026 18082.6
0.00288259 0.00166427 0.026 18118.5
0.00309735 0.00178825 0.026 18159.6
0.00331769 0.00191547 0.026 18208.9
0.00354401 0.00204614 0.026 18269.1
0.00377673 0.0021805 0.026 18344.7
0.00401626 0.00231879 0.026 18442.9
0.00426304 0.00246127 0.026 18569.5
0.0045175 0.00260818 0.026 18732.1
0.00478012 0.0027598 0.026 18932.3
0.00505136 0.0029164 0.026 19176.7
0.0053317 0.00307826 0.026 19468.6
0.00562167 0.00324567 0.026 19813.4
0.00592177 0.00341894 0.026 20223.9
0.00623257 0.00359837 0.026 20719.3
0.0065546 0.0037843 0.026 21268.2
0.00688845 0.00397706 0.026 21894.7
0.00723473 0.00417698 0.026 22611.1
0.00759407 0.00438444 0.026 23431.2
0.0079671 0.00459981 0.026 24369.7
0.0083545 0.00482347 0.026 25426.5
0.00875697 0.00505584 0.026 26609.3
0.00917525 0.00529733 0.026 27968.4
0.00961007 0.00554838 0.026 29558.9
0.0100622 0.00580943 0.026 31448.9
0.0105325 0.00608095 0.026 33785.6
0.0110218 0.00636345 0.026 36638.2
0.011531 0.00665743 0.026 40049.4
0.012061 0.00696343 0.026 43925
0.0126127 0.00728197 0.026 48130.7
0.0131872 0.00761366 0.026 52330
0.0137855 0.00795908 0.026 56511.5
0.0144087 0.00831886 0.026 60736.9
0.0150578 0.00869364 0.026 64981.2
0.0157341 0.0090841 0.026 68686.4
0.0164388 0.00949095 0.026 71229.2
0.0171732 0.00991493 0.026 73484.2
0.0179385 0.0103568 0.026 78746.6
0.0187362 0.0108173 0.026 89106.2
0.0195677 0.0112974 0.026 99214.1
0.0204344 0.0117978 0.026 103279
0.0213381 0.0123195 0.026 103295
0.0222801 0.0128635 0.026 98667.8
0.0232625 0.0134306 0.026 92608.6
0.0242867 0.014022 0.026 95178.2
0.0253548 0.0146386 0.026 95272.2
0.0264686 0.0152817 0.026 92045.3
0.0276302 0.0159524 0.026 95177.3
0.0288416 0.0166517 0.026 100967
0.0301051 0.0173812 0.026 105494
0.0314228 0.018142 0.026 104740
0.0327972 0.0189355 0.026 104158
0.0342308 0.0197632 0.026 103987
0.0357262 0.0206265 0.026 104904
0.0372859 0.021527 0.026 104055
0.038913 0.0224664 0.026 103265
0.0406102 0.0234463 0.026 101890
0.0423807 0.0244685 0.026 100663
0.0442276 0.0255348 0.026 99377.2
0.0461543 0.0266472 0.026 99803
0.0481643 0.0278077 0.026 101365
0.0502611 0.0290183 0.026 102646
0.0524487 0.0302813 0.026 102214
0.0547308 0.0315988 0.026 102643
0.0571116 0.0329735 0.026 102250
0.0595956 0.0344075 0.026 104319
0.0621869 0.0359036 0.026 103507
0.0648905 0.0374645 0.026 103256
0.0677111 0.039093 0.026 103848
0.0706539 0.040792 0.026 104051
0.073724 0.0425646 0.026 101906
0.0769272 0.044414 0.026 104387
0.0802692 0.0463434 0.026 105556
0.0837559 0.0483565 0.026 105267
0.0873938 0.0504568 0.026 100355
0.0911892 0.0526481 0.026 100222
0.0951492 0.0549344 0.026 104639
0.0992806 0.0573198 0.026 105596
0.103592 0.0598086 0.026 105178
0.10809 0.0624052 0.026 104558
0.112782 0.0651144 0.026 100193
0.117678 0.0679412 0.026 98377.9
0.122786 0.0708904 0.026 102915
0.128115 0.0739676 0.026 101913
0.133677 0.0771782 0.026 99680.9
