# wallHeatFlux  FACE_DATA 240
# x  y  z  wallHeatFlux
-0.771783 0 0.026 -319961
-0.74637 0 0.026 -79884
-0.719597 0 0.026 -75690.8
-0.693782 0 0.026 -73355.3
-0.66889 0 0.026 -71603.7
-0.644887 0 0.026 -69905.2
-0.621743 0 0.026 -68525.1
-0.599426 0 0.026 -67675.8
-0.577906 0 0.026 -66985.8
-0.557155 0 0.026 -66136.5
-0.537145 0 0.026 -65287.3
-0.517849 0 0.026 -64703.4
-0.499243 0 0.026 -64331.8
-0.481301 0 0.026 -64119.5
-0.463999 0 0.026 -63854.1
-0.447315 0 0.026 -63535.7
-0.431226 0 0.026 -63270.3
-0.41571 0 0.026 -63004.9
-0.400747 0 0.026 -62898.7
-0.386317 0 0.026 -62845.6
-0.372401 0 0.026 -62845.6
-0.358982 0 0.026 -62845.6
-0.346039 0 0.026 -62739.5
-0.333557 0 0.026 -62580.2
-0.321518 0 0.026 -62421
-0.309908 0 0.026 -62261.8
-0.298709 0 0.026 -62208.7
-0.287908 0 0.026 -62261.8
-0.27749 0 0.026 -62421
-0.267441 0 0.026 -62580.2
-0.257748 0 0.026 -62633.3
-0.248397 0 0.026 -62739.5
-0.239378 0 0.026 -62633.3
-0.230676 0 0.026 -62474.1
-0.222282 0 0.026 -62314.8
-0.214183 0 0.026 -62102.5
-0.20637 0 0.026 -61943.3
-0.19883 0 0.026 -61784.1
-0.191555 0 0.026 -61677.9
-0.184536 0 0.026 -61677.9
-0.177762 0 0.026 -61677.9
-0.171224 0 0.026 -61731
-0.165013 0 0.026 -61890.2
-0.159119 0 0.026 -61996.4
-0.153435 0 0.026 -62155.6
-0.14795 0 0.026 -62314.8
-0.14266 0 0.026 -62474.1
-0.137557 0 0.026 -62527.2
-0.132633 0 0.026 -62633.3
-0.127882 0 0.026 -62686.4
-0.123298 0 0.026 -62686.4
-0.118874 0 0.026 -62686.4
-0.114605 0 0.026 -62686.4
-0.110484 0 0.026 -62686.4
-0.106508 0 0.026 -62633.3
-0.10267 0 0.026 -62527.2
-0.0989664 0 0.026 -62474.1
-0.0953906 0 0.026 -62421
-0.0919392 0 0.026 -62314.8
-0.0886074 0 0.026 -62208.7
-0.085391 0 0.026 -62049.4
-0.0822859 0 0.026 -61943.3
-0.079288 0 0.026 -61837.1
-0.0763938 0 0.026 -61731
-0.0735993 0 0.026 -61624.8
-0.0709011 0 0.026 -61518.7
-0.0682959 0 0.026 -61412.5
-0.0657802 0 0.026 -61306.3
-0.063351 0 0.026 -61253.3
-0.0610052 0 0.026 -61200.2
-0.05874 0 0.026 -61094
-0.0565524 0 0.026 -61040.9
-0.0544398 0 0.026 -60987.9
-0.0523995 0 0.026 -60934.8
-0.0504291 0 0.026 -60881.7
-0.048526 0 0.026 -60881.7
-0.046688 0 0.026 -60828.6
-0.0449127 0 0.026 -60828.6
-0.043198 0 0.026 -60775.6
-0.0415419 0 0.026 -60775.6
-0.0399422 0 0.026 -60775.6
-0.0383971 0 0.026 -60722.5
-0.0369046 0 0.026 -60722.5
-0.0354628 0 0.026 -60722.5
-0.0340701 0 0.026 -60722.5
-0.0327248 0 0.026 -60669.4
-0.0314253 0 0.026 -60669.4
-0.0301698 0 0.026 -60669.4
-0.0289571 0 0.026 -60669.4
-0.0277855 0 0.026 -60669.4
-0.0266537 0 0.026 -60669.4
-0.0255603 0 0.026 -60669.4
-0.0245039 0 0.026 -60669.4
-0.0234834 0 0.026 -60669.4
-0.0224975 0 0.026 -60669.4
-0.0215449 0 0.026 -60669.4
-0.0206246 0 0.026 -60669.4
-0.0197355 0 0.026 -60669.4
-0.0188765 0 0.026 -60669.4
-0.0180466 0 0.026 -60669.4
-0.0172447 0 0.026 -60669.4
-0.0164699 0 0.026 -60669.4
-0.0157213 0 0.026 -60722.5
-0.0149981 0 0.026 -60828.6
-0.0142993 0 0.026 -64225.7
-0.0136241 0 0.026 -189227
-0.0129717 0 0.026 -934139
-0.0123413 0 0.026 -1.01726e+06
-0.0117322 0 0.026 -1.04407e+06
-0.0111437 0 0.026 -777555
-0.010575 0 0.026 -540610
-0.0100256 0 0.026 -385726
-0.00949468 0 0.026 -285406
-0.00898166 0 0.026 -223091
-0.00848594 0 0.026 -185936
-0.00800694 0 0.026 -164333
-0.00754409 0 0.026 -152284
-0.00709684 0 0.026 -147135
-0.00666467 0 0.026 -146658
-0.00624706 0 0.026 -149789
-0.00584352 0 0.026 -155681
-0.00545358 0 0.026 -163537
-0.00507677 0 0.026 -172825
-0.00471265 0 0.026 -183070
-0.0043608 0 0.026 -194110
-0.0040208 0 0.026 -205841
-0.00369224 0 0.026 -218474
-0.00337474 0 0.026 -232168
-0.00306793 0 0.026 -247083
-0.00277146 0 0.026 -263272
-0.00248495 0 0.026 -281266
-0.00220809 0 0.026 -301330
-0.00194054 0 0.026 -323464
-0.001682 0 0.026 -344430
-0.00143216 0 0.026 -365556
-0.00119071 0 0.026 -385885
-0.000957397 0 0.026 -403720
-0.000731928 0 0.026 -418104
-0.00051404 0 0.026 -425588
-0.00030348 0 0.026 -424527
-0.0001 0 0.026 -413964
8.66025e-05 5e-05 0.026 -273098
0.000259964 0.00015009 0.026 -373091
0.000433795 0.000250451 0.026 -406673
0.000608407 0.000351264 0.026 -435220
0.000784117 0.000452711 0.026 -455599
0.000961243 0.000554974 0.026 -471067
0.0011401 0.000658238 0.026 -484026
0.00132102 0.000762689 0.026 -494098
0.00150431 0.000868516 0.026 -501899
0.00169033 0.000975909 0.026 -507904
0.00187939 0.00108506 0.026 -512384
0.00207184 0.00119618 0.026 -513999
0.00226802 0.00130945 0.026 -511940
0.00246831 0.00142508 0.026 -509650
0.00267303 0.00154328 0.026 -503106
0.00288259 0.00166427 0.026 -496319
0.00309735 0.00178825 0.026 -485450
0.00331769 0.00191547 0.026 -473069
0.00354401 0.00204614 0.026 -458612
0.00377673 0.0021805 0.026 -442319
0.00401626 0.00231879 0.026 -424674
0.00426304 0.00246127 0.026 -406038
0.0045175 0.00260818 0.026 -386164
0.00478012 0.0027598 0.026 -366183
0.00505136 0.0029164 0.026 -346016
0.0053317 0.00307826 0.026 -325955
0.00562167 0.00324567 0.026 -305709
0.00592177 0.00341894 0.026 -288854
0.00623257 0.00359837 0.026 -272217
0.0065546 0.0037843 0.026 -253801
0.00688845 0.00397706 0.026 -235471
0.00723473 0.00417698 0.026 -217799
0.00759407 0.00438444 0.026 -199978
0.0079671 0.00459981 0.026 -181087
0.0083545 0.00482347 0.026 -163573
0.00875697 0.00505584 0.026 -140274
0.00917525 0.00529733 0.026 -118434
0.00961007 0.00554838 0.026 -94668
0.0100622 0.00580943 0.026 -74112.9
0.0105325 0.00608095 0.026 -66972.7
0.0110218 0.00636345 0.026 -83591.2
0.011531 0.00665743 0.026 -145316
0.012061 0.00696343 0.026 -261242
0.0126127 0.00728197 0.026 -405048
0.0131872 0.00761366 0.026 -571270
0.0137855 0.00795908 0.026 -726980
0.0144087 0.00831886 0.026 -869419
0.0150578 0.00869364 0.026 -996643
0.0157341 0.0090841 0.026 -1.06613e+06
0.0164388 0.00949095 0.026 -1.0131e+06
0.0171732 0.00991493 0.026 -841063
0.0179385 0.0103568 0.026 -772036
0.0187362 0.0108173 0.026 -1.14559e+06
0.0195677 0.0112974 0.026 -1.70072e+06
0.0204344 0.0117978 0.026 -1.97485e+06
0.0213381 0.0123195 0.026 -2.04477e+06
0.0222801 0.0128635 0.026 -1.86309e+06
0.0232625 0.0134306 0.026 -1.70234e+06
0.0242867 0.014022 0.026 -1.78145e+06
0.0253548 0.0146386 0.026 -1.77406e+06
0.0264686 0.0152817 0.026 -1.62363e+06
0.0276302 0.0159524 0.026 -1.70502e+06
0.0288416 0.0166517 0.026 -1.82549e+06
0.0301051 0.0173812 0.026 -1.91594e+06
0.0314228 0.018142 0.026 -1.87194e+06
0.0327972 0.0189355 0.026 -1.8347e+06
0.0342308 0.0197632 0.026 -1.84278e+06
0.0357262 0.0206265 0.026 -1.87608e+06
0.0372859 0.021527 0.026 -1.87946e+06
0.038913 0.0224664 0.026 -1.82272e+06
0.0406102 0.0234463 0.026 -1.65504e+06
0.0423807 0.0244685 0.026 -1.65637e+06
0.0442276 0.0255348 0.026 -1.52241e+06
0.0461543 0.0266472 0.026 -1.70289e+06
0.0481643 0.0278077 0.026 -1.69638e+06
0.0502611 0.0290183 0.026 -1.76864e+06
0.0524487 0.0302813 0.026 -1.79098e+06
0.0547308 0.0315988 0.026 -1.79749e+06
0.0571116 0.0329735 0.026 -1.90352e+06
0.0595956 0.0344075 0.026 -2.04383e+06
0.0621869 0.0359036 0.026 -2.13908e+06
0.0648905 0.0374645 0.026 -1.8788e+06
0.0677111 0.039093 0.026 -2.01067e+06
0.0706539 0.040792 0.026 -1.85814e+06
0.073724 0.0425646 0.026 -1.7477e+06
0.0769272 0.044414 0.026 -1.80353e+06
0.0802692 0.0463434 0.026 -2.04874e+06
0.0837559 0.0483565 0.026 -2.06972e+06
0.0873938 0.0504568 0.026 -1.87625e+06
0.0911892 0.0526481 0.026 -1.86209e+06
0.0951492 0.0549344 0.026 -2.07982e+06
0.0992806 0.0573198 0.026 -2.21264e+06
0.103592 0.0598086 0.026 -2.5728e+06
0.10809 0.0624052 0.026 -2.40028e+06
0.112782 0.0651144 0.026 -1.9045e+06
0.117678 0.0679412 0.026 -1.83076e+06
0.122786 0.0708904 0.026 -2.20416e+06
0.128115 0.0739676 0.026 -2.00267e+06
0.133677 0.0771782 0.026 -1.71995e+06
