# y+ ()       
# Time        	patch         	min           	max           	average       
0             	base	7.915473e-03	2.690490e+01	5.728797e+00
