# y+ ()       
# Time        	patch         	min           	max           	average       
11100         	base	5.491858e-03	2.425388e+01	5.500847e+00
