# p  FACE_DATA 203
# x  y  z  p
-0.873265 0 0.0205 3480.39
-0.846493 0 0.0205 2976.03
-0.820677 0 0.0205 2846.22
-0.795786 0 0.0205 2797.19
-0.771783 0 0.0205 2777.18
-0.74637 0 0.0205 2775.05
-0.719597 0 0.0205 2773.03
-0.693782 0 0.0205 2767.3
-0.66889 0 0.0205 2764.53
-0.644887 0 0.0205 2765.29
-0.621743 0 0.0205 2764.1
-0.599426 0 0.0205 2760.53
-0.577905 0 0.0205 2757.37
-0.557154 0 0.0205 2756.58
-0.537145 0 0.0205 2757.07
-0.517849 0 0.0205 2756.09
-0.499243 0 0.0205 2753.47
-0.481301 0 0.0205 2750.69
-0.463999 0 0.0205 2748.89
-0.447314 0 0.0205 2748.78
-0.431225 0 0.0205 2749.84
-0.41571 0 0.0205 2749.91
-0.400747 0 0.0205 2748.35
-0.386317 0 0.0205 2745.93
-0.372401 0 0.0205 2743.51
-0.358981 0 0.0205 2741.72
-0.346039 0 0.0205 2741.03
-0.333556 0 0.0205 2741.71
-0.321518 0 0.0205 2743.37
-0.309908 0 0.0205 2745.23
-0.298709 0 0.0205 2746.33
-0.287908 0 0.0205 2746.53
-0.27749 0 0.0205 2745.22
-0.267441 0 0.0205 2742.96
-0.257748 0 0.0205 2740.13
-0.248397 0 0.0205 2737.18
-0.239378 0 0.0205 2734.59
-0.230677 0 0.0205 2732.64
-0.222282 0 0.0205 2731.41
-0.214183 0 0.0205 2730.9
-0.20637 0 0.0205 2731.14
-0.19883 0 0.0205 2732.14
-0.191555 0 0.0205 2733.57
-0.184536 0 0.0205 2735.21
-0.177762 0 0.0205 2736.89
-0.171224 0 0.0205 2738.52
-0.164914 0 0.0205 2739.97
-0.158824 0 0.0205 2741.22
-0.152944 0 0.0205 2742.21
-0.147268 0 0.0205 2742.9
-0.141788 0 0.0205 2743.29
-0.136496 0 0.0205 2743.39
-0.131387 0 0.0205 2743.07
-0.126452 0 0.0205 2742.43
-0.121685 0 0.0205 2741.51
-0.117081 0 0.0205 2740.34
-0.112632 0 0.0205 2738.99
-0.108332 0 0.0205 2737.53
-0.104177 0 0.0205 2736.03
-0.100161 0 0.0205 2734.53
-0.0962773 0 0.0205 2733.07
-0.0925221 0 0.0205 2731.68
-0.08889 0 0.0205 2730.38
-0.0853762 0 0.0205 2729.18
-0.0819759 0 0.0205 2728.07
-0.0786847 0 0.0205 2727.06
-0.0754981 0 0.0205 2726.13
-0.0724121 0 0.0205 2725.29
-0.0694223 0 0.0205 2724.54
-0.066525 0 0.0205 2723.87
-0.0637161 0 0.0205 2723.28
-0.060992 0 0.0205 2722.75
-0.0583491 0 0.0205 2722.29
-0.0557837 0 0.0205 2721.87
-0.0532926 0 0.0205 2721.54
-0.0508723 0 0.0205 2721.24
-0.0485197 0 0.0205 2721.04
-0.0462317 0 0.0205 2720.89
-0.0440053 0 0.0205 2720.77
-0.0418373 0 0.0205 2720.82
-0.039725 0 0.0205 2721.24
-0.0376655 0 0.0205 2723.5
-0.0356562 0 0.0205 2776.05
-0.0336943 0 0.0205 3400.02
-0.0317773 0 0.0205 5160.22
-0.0299025 0 0.0205 6709.02
-0.0280674 0 0.0205 7585.76
-0.0262697 0 0.0205 8218.58
-0.024507 0 0.0205 8692.31
-0.0227768 0 0.0205 9077.46
-0.021077 0 0.0205 9417.45
-0.0194052 0 0.0205 9709.89
-0.0177593 0 0.0205 9975.57
-0.016137 0 0.0205 10219.7
-0.014536 0 0.0205 10445.5
-0.0129545 0 0.0205 10654.1
-0.0113902 0 0.0205 10846.9
-0.00984104 0 0.0205 11018.2
-0.00830498 0 0.0205 11166.2
-0.00677997 0 0.0205 11288.9
-0.00526398 0 0.0205 11399.1
-0.00375499 0 0.0205 11486.6
-0.002251 0 0.0205 11724.1
-0.00075 0 0.0205 12992.7
0.000689475 0.000398068 0.0205 12019.8
0.00206843 0.0011942 0.0205 12453.8
0.00344737 0.00199034 0.0205 13099.5
0.00482631 0.00278648 0.0205 13873.2
0.00620527 0.00358261 0.0205 14859.6
0.00758422 0.00437875 0.0205 16044.3
0.00896317 0.00517489 0.0205 17455.9
0.0103421 0.00597102 0.0205 19129
0.0117211 0.00676715 0.0205 21107.9
0.0131 0.00756329 0.0205 23434.7
0.0144789 0.00835943 0.0205 26150.3
0.0158579 0.00915557 0.0205 29286.7
0.0172368 0.00995171 0.0205 32916.1
0.0186158 0.0107478 0.0205 37085.1
0.0199947 0.0115439 0.0205 41886.9
0.0213737 0.0123401 0.0205 47421.4
0.0227526 0.0131362 0.0205 53866.9
0.0241316 0.0139323 0.0205 61271.6
0.0255106 0.0147285 0.0205 69671.9
0.0268895 0.0155246 0.0205 79045.5
0.0282685 0.0163208 0.0205 89275.3
0.0296474 0.0171169 0.0205 100129
0.0310264 0.017913 0.0205 111424
0.0324053 0.0187092 0.0205 122321
0.0337843 0.0195054 0.0205 131221
0.0351632 0.0203015 0.0205 136830
0.0365421 0.0210976 0.0205 139054
0.037921 0.0218938 0.0205 139719
0.0393 0.0226898 0.0205 133549
0.0406789 0.023486 0.0205 128012
0.0420579 0.0242821 0.0205 123323
0.0434368 0.0250783 0.0205 119096
0.0448158 0.0258745 0.0205 115218
0.0461948 0.0266706 0.0205 111909
0.0475737 0.0274667 0.0205 109199
0.0489527 0.0282628 0.0205 106989
0.0503316 0.029059 0.0205 104998
0.0517106 0.0298551 0.0205 103295
0.0530895 0.0306512 0.0205 101984
0.0544684 0.0314473 0.0205 101052
0.0558474 0.0322435 0.0205 100709
0.0572264 0.0330397 0.0205 100599
0.0586053 0.0338357 0.0205 100441
0.0599842 0.0346319 0.0205 100385
0.0613632 0.0354281 0.0205 100288
0.0627422 0.0362242 0.0205 100336
0.0641211 0.0370204 0.0205 100493
0.0655001 0.0378164 0.0205 100704
0.066879 0.0386126 0.0205 100825
0.0682579 0.0394088 0.0205 100789
0.0696369 0.0402049 0.0205 100626
0.0710158 0.041001 0.0205 100385
0.0723947 0.0417971 0.0205 100146
0.0737737 0.0425932 0.0205 99911.7
0.0751527 0.0433894 0.0205 99875.4
0.0765316 0.0441856 0.0205 100024
0.0779106 0.0449817 0.0205 100336
0.0792895 0.0457778 0.0205 100712
0.0806685 0.0465739 0.0205 101077
0.0820474 0.0473701 0.0205 101366
0.0834263 0.0481662 0.0205 101455
0.0848053 0.0489624 0.0205 101433
0.0861843 0.0497585 0.0205 101418
0.0875632 0.0505546 0.0205 101356
0.0889421 0.0513508 0.0205 101292
0.0903211 0.0521469 0.0205 101253
0.0917 0.0529431 0.0205 101209
0.093079 0.0537392 0.0205 101111
0.094458 0.0545353 0.0205 101147
0.0958369 0.0553315 0.0205 101117
0.0972159 0.0561276 0.0205 101203
0.0985948 0.0569238 0.0205 101344
0.0999737 0.0577198 0.0205 101550
0.101352 0.058516 0.0205 101764
0.102732 0.0593121 0.0205 102039
0.10411 0.0601083 0.0205 102294
0.105489 0.0609044 0.0205 102522
0.106868 0.0617005 0.0205 102649
0.108248 0.0624967 0.0205 102704
0.109627 0.0632928 0.0205 102733
0.111006 0.064089 0.0205 102652
0.112385 0.0648851 0.0205 102547
0.113764 0.0656812 0.0205 102426
0.115143 0.0664774 0.0205 102301
0.116522 0.0672735 0.0205 102225
0.117901 0.0680697 0.0205 102156
0.119279 0.0688658 0.0205 102222
0.120658 0.0696619 0.0205 102113
0.122037 0.0704581 0.0205 102097
0.123415 0.0712542 0.0205 102066
0.124794 0.0720503 0.0205 102101
0.126173 0.0728465 0.0205 102108
0.127552 0.0736426 0.0205 102088
0.128931 0.0744387 0.0205 102133
0.13031 0.0752348 0.0205 102120
0.131689 0.076031 0.0205 102112
0.133069 0.0768271 0.0205 102086
0.134447 0.0776233 0.0205 102127
0.135827 0.0784194 0.0205 101758
