# Wall heat-flux
# Time        	patch         	min           	max           	integral      
7000          	base	-2.663838e+05	-5.639210e+03	-5.813425e+02
