# y+ ()       
# Time        	patch         	min           	max           	average       
5000          	base	2.915452e-02	6.438997e-01	2.597847e-01
