# y+ ()       
# Time        	patch         	min           	max           	average       
0             	base	3.571383e-02	6.499288e-01	2.527304e-01
