# wallHeatFlux  FACE_DATA 398
# x  y  z  wallHeatFlux
-0.7975 0 0.025 -653671
-0.79239 0 0.025 -120050
-0.787056 0 0.025 -71323.9
-0.781492 0 0.025 -64312.3
-0.775691 0 0.025 -65756.7
-0.769649 0 0.025 -66584.1
-0.763362 0 0.025 -67185.2
-0.756822 0 0.025 -67126.5
-0.750025 0 0.025 -66615.6
-0.742968 0 0.025 -65844.6
-0.735648 0 0.025 -64928.5
-0.72806 0 0.025 -63958.2
-0.720203 0 0.025 -63025.8
-0.712076 0 0.025 -62147.6
-0.703677 0 0.025 -61305.6
-0.695006 0 0.025 -60526.7
-0.686065 0 0.025 -59800.5
-0.676855 0 0.025 -59132.4
-0.667379 0 0.025 -58430.9
-0.65764 0 0.025 -57734.5
-0.647644 0 0.025 -57141.7
-0.637397 0 0.025 -56611.6
-0.626906 0 0.025 -55996.9
-0.616179 0 0.025 -55473.2
-0.605224 0 0.025 -54976.9
-0.594054 0 0.025 -54510.5
-0.582678 0 0.025 -54008.3
-0.57111 0 0.025 -53552.2
-0.559364 0 0.025 -53116.6
-0.547454 0 0.025 -52736.8
-0.535396 0 0.025 -52317.8
-0.523205 0 0.025 -51915.8
-0.510901 0 0.025 -51530.1
-0.4985 0 0.025 -51155.8
-0.486021 0 0.025 -50833.7
-0.473483 0 0.025 -50530.9
-0.460905 0 0.025 -50235.9
-0.448308 0 0.025 -49913
-0.435709 0 0.025 -49572
-0.42313 0 0.025 -49254.7
-0.41059 0 0.025 -49011.6
-0.39811 0 0.025 -48831.4
-0.385706 0 0.025 -48627.5
-0.373398 0 0.025 -48375.2
-0.361205 0 0.025 -48111.2
-0.349141 0 0.025 -47844.9
-0.337226 0 0.025 -47600
-0.325475 0 0.025 -47402.9
-0.313901 0 0.025 -47259.3
-0.30252 0 0.025 -47152.4
-0.291343 0 0.025 -47025.3
-0.280382 0 0.025 -46855.1
-0.269646 0 0.025 -46668
-0.259148 0 0.025 -46481.4
-0.248893 0 0.025 -46312.8
-0.23889 0 0.025 -46155.4
-0.229143 0 0.025 -46018.9
-0.219659 0 0.025 -45894.9
-0.210441 0 0.025 -45770.7
-0.201491 0 0.025 -45633.7
-0.192812 0 0.025 -45499.8
-0.184405 0 0.025 -45370.6
-0.176269 0 0.025 -45261
-0.168404 0 0.025 -45169.2
-0.160808 0 0.025 -45098.9
-0.15348 0 0.025 -45058.5
-0.146415 0 0.025 -45040.3
-0.13961 0 0.025 -45020.7
-0.133063 0 0.025 -45003.2
-0.126767 0 0.025 -44986.5
-0.120718 0 0.025 -44959.7
-0.11491 0 0.025 -44923
-0.109339 0 0.025 -44870.9
-0.103997 0 0.025 -44807.3
-0.0988805 0 0.025 -44731.9
-0.0939808 0 0.025 -44653.7
-0.0892928 0 0.025 -44571.7
-0.0848096 0 0.025 -44489.7
-0.0805248 0 0.025 -44402.9
-0.0764316 0 0.025 -44321.7
-0.0725237 0 0.025 -44240.6
-0.0687943 0 0.025 -44170.9
-0.065237 0 0.025 -44100.6
-0.0618454 0 0.025 -44031.3
-0.058613 0 0.025 -43971.9
-0.0555337 0 0.025 -43918.8
-0.0526013 0 0.025 -43870.5
-0.0498099 0 0.025 -43827.8
-0.0471536 0 0.025 -43790.5
-0.0446266 0 0.025 -43758.5
-0.0422235 0 0.025 -43726.6
-0.039939 0 0.025 -43700
-0.0377676 0 0.025 -43683.8
-0.0357044 0 0.025 -43663.3
-0.0337445 0 0.025 -43652.4
-0.0318832 0 0.025 -43636.5
-0.0301159 0 0.025 -43138.1
-0.0284383 0 0.025 -37953.7
-0.0268461 0 0.025 -29432.7
-0.0253353 0 0.025 -40086.9
-0.023902 0 0.025 -57228.3
-0.0225426 0 0.025 -67812.9
-0.0212532 0 0.025 -74765.6
-0.0200306 0 0.025 -80504.7
-0.0188715 0 0.025 -85607.8
-0.0177728 0 0.025 -89912.7
-0.0167313 0 0.025 -93725.3
-0.0157444 0 0.025 -97141.8
-0.0148092 0 0.025 -100252
-0.0139232 0 0.025 -103170
-0.0130838 0 0.025 -105883
-0.0122887 0 0.025 -108316
-0.0115356 0 0.025 -110437
-0.0108223 0 0.025 -112266
-0.0101469 0 0.025 -113845
-0.00950727 0 0.025 -115215
-0.00890168 0 0.025 -116416
-0.00832835 0 0.025 -117505
-0.00778557 0 0.025 -118559
-0.00727176 0 0.025 -119626
-0.0067854 0 0.025 -120765
-0.00632507 0 0.025 -121995
-0.00588937 0 0.025 -123346
-0.00547703 0 0.025 -124815
-0.0050868 0 0.025 -126402
-0.00471753 0 0.025 -128105
-0.0043681 0 0.025 -129932
-0.00403746 0 0.025 -131898
-0.00372461 0 0.025 -133985
-0.0034286 0 0.025 -136192
-0.00314855 0 0.025 -138545
-0.0028836 0 0.025 -141084
-0.00263294 0 0.025 -143787
-0.00239581 0 0.025 -146460
-0.0021715 0 0.025 -149153
-0.00195929 0 0.025 -152002
-0.00175856 0 0.025 -154959
-0.00156869 0 0.025 -158025
-0.00138908 0 0.025 -161197
-0.0012192 0 0.025 -164450
-0.00105853 0 0.025 -167771
-0.000906546 0 0.025 -171144
-0.000762803 0 0.025 -174443
-0.000626848 0 0.025 -177420
-0.000498265 0 0.025 -179256
-0.000376656 0 0.025 -178122
-0.000261642 0 0.025 -170319
-0.00015287 0 0.025 -148622
-5e-05 0 0.025 -96479.1
4.14519e-05 2.79596e-05 0.025 -69537.9
0.000125371 8.45641e-05 0.025 -83737.9
0.000211347 0.000142556 0.025 -99157.2
0.000299429 0.000201968 0.025 -110288
0.000389669 0.000262835 0.025 -119659
0.000482118 0.000325193 0.025 -128551
0.000576831 0.000389077 0.025 -136873
0.000673861 0.000454524 0.025 -144394
0.000773265 0.000521574 0.025 -151072
0.0008751 0.000590262 0.025 -156973
0.000979426 0.000660632 0.025 -162226
0.0010863 0.000732721 0.025 -166952
0.00119579 0.000806572 0.025 -171301
0.00130795 0.000882227 0.025 -175342
0.00142285 0.00095973 0.025 -179163
0.00154056 0.00103912 0.025 -182833
0.00166115 0.00112046 0.025 -186402
0.00178467 0.00120378 0.025 -189931
0.00191121 0.00128913 0.025 -193468
0.00204083 0.00137656 0.025 -196959
0.00217362 0.00146612 0.025 -200515
0.00230964 0.00155787 0.025 -204137
0.00244897 0.00165185 0.025 -207777
0.00259169 0.00174812 0.025 -211511
0.00273789 0.00184673 0.025 -215361
0.00288765 0.00194774 0.025 -219350
0.00304105 0.00205122 0.025 -223449
0.00319818 0.00215719 0.025 -227674
0.00335912 0.00226575 0.025 -232110
0.00352397 0.00237695 0.025 -236668
0.00369283 0.00249085 0.025 -241446
0.00386579 0.00260751 0.025 -246413
0.00404294 0.00272699 0.025 -251634
0.00422438 0.00284938 0.025 -257118
0.00441022 0.00297474 0.025 -262860
0.00460056 0.00310312 0.025 -268899
0.00479552 0.00323462 0.025 -275235
0.00499519 0.0033693 0.025 -281987
0.00519968 0.00350723 0.025 -289054
0.00540911 0.00364849 0.025 -296552
0.00562361 0.00379318 0.025 -304465
0.00584329 0.00394134 0.025 -312836
0.00606826 0.00409309 0.025 -321757
0.00629865 0.00424849 0.025 -331167
0.0065346 0.00440764 0.025 -341246
0.00677623 0.00457063 0.025 -351908
0.00702368 0.00473753 0.025 -363138
0.00727707 0.00490844 0.025 -375332
0.00753655 0.00508347 0.025 -388364
0.00780227 0.00526269 0.025 -402283
0.00807436 0.00544622 0.025 -417275
0.00835298 0.00563415 0.025 -433514
0.00863826 0.00582659 0.025 -450974
0.00893038 0.00602362 0.025 -470025
0.00922949 0.00622537 0.025 -490334
0.00953574 0.00643195 0.025 -512803
0.00984929 0.00664345 0.025 -537244
0.0101703 0.00686 0.025 -563529
0.0104991 0.00708171 0.025 -595419
0.0108356 0.00730871 0.025 -630842
0.0111801 0.0075411 0.025 -668437
0.0115329 0.00777902 0.025 -709897
0.011894 0.00802259 0.025 -755187
0.0122637 0.00827194 0.025 -798483
0.0126421 0.00852719 0.025 -842767
0.0130295 0.0087885 0.025 -888794
0.013426 0.00905597 0.025 -929068
0.013832 0.00932978 0.025 -972557
0.0142475 0.00961003 0.025 -1.01351e+06
0.0146727 0.0098969 0.025 -1.05238e+06
0.0151081 0.0101905 0.025 -1.09641e+06
0.0155536 0.010491 0.025 -1.14264e+06
0.0160097 0.0107986 0.025 -1.18989e+06
0.0164764 0.0111134 0.025 -1.24137e+06
0.016954 0.0114356 0.025 -1.29647e+06
0.0174427 0.0117653 0.025 -1.35118e+06
0.0179429 0.0121026 0.025 -1.40952e+06
0.0184548 0.0124479 0.025 -1.47917e+06
0.0189786 0.0128013 0.025 -1.52736e+06
0.0195146 0.0131628 0.025 -1.57791e+06
0.020063 0.0135327 0.025 -1.63801e+06
0.0206242 0.0139112 0.025 -1.67512e+06
0.0211983 0.0142984 0.025 -1.701e+06
0.0217857 0.0146947 0.025 -1.73264e+06
0.0223867 0.0151 0.025 -1.7588e+06
0.0230015 0.0155147 0.025 -1.77991e+06
0.0236304 0.0159389 0.025 -1.80728e+06
0.0242738 0.0163729 0.025 -1.80709e+06
0.0249318 0.0168167 0.025 -1.82145e+06
0.025605 0.0172708 0.025 -1.82992e+06
0.0262935 0.0177352 0.025 -1.80407e+06
0.0269977 0.0182102 0.025 -1.7736e+06
0.0277178 0.0186959 0.025 -1.73304e+06
0.0284544 0.0191927 0.025 -1.74583e+06
0.0292075 0.0197008 0.025 -1.67923e+06
0.0299777 0.0202203 0.025 -1.63993e+06
0.0307653 0.0207514 0.025 -1.6082e+06
0.0315704 0.0212945 0.025 -1.58109e+06
0.0323937 0.0218499 0.025 -1.55702e+06
0.0332354 0.0224176 0.025 -1.53144e+06
0.0340959 0.022998 0.025 -1.5091e+06
0.0349755 0.0235913 0.025 -1.47782e+06
0.0358747 0.0241978 0.025 -1.47786e+06
0.0367938 0.0248178 0.025 -1.44423e+06
0.0377331 0.0254513 0.025 -1.42119e+06
0.0386932 0.0260989 0.025 -1.40318e+06
0.0396743 0.0267606 0.025 -1.38532e+06
0.0406769 0.0274369 0.025 -1.37389e+06
0.0417013 0.0281279 0.025 -1.35676e+06
0.042748 0.0288339 0.025 -1.35851e+06
0.0438175 0.0295552 0.025 -1.34505e+06
0.04491 0.0302922 0.025 -1.3282e+06
0.0460262 0.031045 0.025 -1.33185e+06
0.0471662 0.031814 0.025 -1.33812e+06
0.0483306 0.0325995 0.025 -1.32749e+06
0.0495199 0.0334016 0.025 -1.33078e+06
0.0507344 0.0342208 0.025 -1.32593e+06
0.0519746 0.0350573 0.025 -1.32089e+06
0.0532409 0.0359114 0.025 -1.323e+06
0.0545339 0.0367835 0.025 -1.30788e+06
0.0558538 0.0376739 0.025 -1.30505e+06
0.0572012 0.0385827 0.025 -1.30347e+06
0.0585766 0.0395104 0.025 -1.30127e+06
0.0599804 0.0404573 0.025 -1.30972e+06
0.061413 0.0414236 0.025 -1.29524e+06
0.0628748 0.0424096 0.025 -1.3231e+06
0.0643665 0.0434157 0.025 -1.3266e+06
0.0658883 0.0444422 0.025 -1.30052e+06
0.0674408 0.0454894 0.025 -1.28836e+06
0.0690245 0.0465576 0.025 -1.28858e+06
0.0706398 0.0476471 0.025 -1.27823e+06
0.0722871 0.0487582 0.025 -1.27494e+06
0.0739669 0.0498912 0.025 -1.27454e+06
0.0756797 0.0510466 0.025 -1.28556e+06
0.0774258 0.0522244 0.025 -1.29809e+06
0.0792059 0.053425 0.025 -1.28984e+06
0.0810203 0.0546489 0.025 -1.309e+06
0.0828694 0.0558961 0.025 -1.27803e+06
0.0847537 0.0571671 0.025 -1.31912e+06
0.0866737 0.0584622 0.025 -1.27894e+06
0.0886298 0.0597816 0.025 -1.27968e+06
0.0906224 0.0611256 0.025 -1.29105e+06
0.0926518 0.0624944 0.025 -1.25863e+06
0.0947185 0.0638884 0.025 -1.30299e+06
0.096823 0.065308 0.025 -1.2603e+06
0.0989659 0.0667532 0.025 -1.34685e+06
0.101147 0.0682245 0.025 -1.69677e+06
0.103367 0.0697219 0.025 -1.59935e+06
0.105626 0.0712458 0.025 -1.20435e+06
0.107926 0.0727965 0.025 -1.19916e+06
0.110265 0.074374 0.025 -1.23736e+06
0.112644 0.0759789 0.025 -1.84109e+06
0.115063 0.0776111 0.025 -1.24133e+06
0.117524 0.0792709 0.025 -1.71602e+06
0.120026 0.0809585 0.025 -1.88669e+06
0.122569 0.0826741 0.025 -1.67489e+06
0.125155 0.0844179 0.025 -1.496e+06
0.127782 0.0861901 0.025 -1.29828e+06
0.130451 0.0879908 0.025 -1.25221e+06
0.133163 0.08982 0.025 -1.22952e+06
0.135918 0.0916781 0.025 -1.19897e+06
0.138716 0.0935651 0.025 -1.19936e+06
0.141556 0.095481 0.025 -1.20888e+06
0.14444 0.097426 0.025 -1.59319e+06
0.147367 0.0994004 0.025 -2.3727e+06
0.150337 0.101404 0.025 -1.67356e+06
0.153351 0.103437 0.025 -1.62028e+06
0.156408 0.105498 0.025 -2.27162e+06
0.159508 0.107589 0.025 -1.02826e+06
0.162651 0.10971 0.025 -1.52043e+06
0.165838 0.111859 0.025 -3.67226e+06
0.169069 0.114039 0.025 -1.63087e+06
0.172343 0.116247 0.025 -1.99749e+06
0.175659 0.118483 0.025 -1.89065e+06
0.179018 0.120749 0.025 -1.88637e+06
0.182421 0.123045 0.025 -1.95296e+06
0.185866 0.125368 0.025 -1.71431e+06
0.189353 0.12772 0.025 -1.74851e+06
0.192882 0.1301 0.025 -1.85676e+06
0.196453 0.132509 0.025 -1.75582e+06
0.200065 0.134946 0.025 -2.19313e+06
0.203718 0.13741 0.025 -1.96496e+06
0.207412 0.139901 0.025 -929387
0.211146 0.14242 0.025 -991626
0.214919 0.144965 0.025 -1.62557e+06
0.218732 0.147537 0.025 -991915
0.222583 0.150134 0.025 -1.95762e+06
0.226472 0.152757 0.025 -981523
0.230399 0.155406 0.025 -1.84368e+06
0.234362 0.15808 0.025 -1.73619e+06
0.238362 0.160777 0.025 -2.36542e+06
0.242396 0.163498 0.025 -1.96572e+06
0.246466 0.166244 0.025 -2.12836e+06
0.250569 0.169012 0.025 -935141
0.254706 0.171801 0.025 -1.54128e+06
0.258874 0.174613 0.025 -1.54585e+06
0.263074 0.177446 0.025 -1.96924e+06
0.267304 0.180299 0.025 -1.59119e+06
0.271564 0.183172 0.025 -951743
0.275852 0.186064 0.025 -1.63506e+06
0.280168 0.188975 0.025 -926937
0.28451 0.191904 0.025 -1.66163e+06
0.288876 0.19485 0.025 -2.28956e+06
0.293268 0.197812 0.025 -1.62019e+06
0.297683 0.20079 0.025 -1.92535e+06
0.302119 0.203782 0.025 -2.25219e+06
0.306577 0.206788 0.025 -1.46277e+06
0.311054 0.209808 0.025 -1.59897e+06
0.315549 0.212841 0.025 -1.16981e+06
0.320063 0.215885 0.025 -2.03871e+06
0.324591 0.218939 0.025 -1.4378e+06
0.329134 0.222003 0.025 -1.41856e+06
0.333691 0.225077 0.025 -2.22829e+06
0.33826 0.228159 0.025 -1.79384e+06
0.342839 0.231248 0.025 -1.83999e+06
0.347428 0.234343 0.025 -876884
0.352025 0.237444 0.025 -1.94404e+06
0.356628 0.240548 0.025 -1.41894e+06
0.361237 0.243658 0.025 -1.15782e+06
0.36585 0.246769 0.025 -2.59602e+06
0.370465 0.249882 0.025 -1.02977e+06
0.375082 0.252996 0.025 -1.44394e+06
0.379698 0.25611 0.025 -2.6689e+06
0.384313 0.259223 0.025 -1.38934e+06
0.388926 0.262333 0.025 -1.71814e+06
0.393534 0.265442 0.025 -1.41363e+06
0.398136 0.268546 0.025 -881805
0.40273 0.271645 0.025 -1.63281e+06
0.407317 0.274739 0.025 -1.68868e+06
0.411894 0.277826 0.025 -2.11476e+06
0.41646 0.280906 0.025 -836896
0.421014 0.283977 0.025 -1.59763e+06
0.425554 0.28704 0.025 -1.87546e+06
0.430079 0.290092 0.025 -1.48668e+06
0.434588 0.293133 0.025 -1.83191e+06
0.439079 0.296162 0.025 -1.28072e+06
0.443551 0.299179 0.025 -1.66778e+06
0.448004 0.302183 0.025 -1.69701e+06
0.452437 0.305172 0.025 -1.65572e+06
0.456846 0.308146 0.025 -1.53909e+06
0.461232 0.311105 0.025 -1.56475e+06
0.465593 0.314047 0.025 -1.44818e+06
0.469929 0.316971 0.025 -1.92805e+06
0.474238 0.319878 0.025 -992840
0.47852 0.322766 0.025 -1.11203e+06
0.482773 0.325635 0.025 -881648
0.486996 0.328483 0.025 -1.3259e+06
0.491189 0.331311 0.025 -2.01901e+06
0.49535 0.334118 0.025 -1.28772e+06
