# p  FACE_DATA 235
# x  y  z  p
-0.57565 0 0.0205 3502.38
-0.556783 0 0.0205 2800.35
-0.538647 0 0.0205 2748.44
-0.521213 0 0.0205 2764.87
-0.504453 0 0.0205 2727.71
-0.48834 0 0.0205 2729.08
-0.472849 0 0.0205 2737.9
-0.457957 0 0.0205 2741.46
-0.443638 0 0.0205 2744.98
-0.429872 0 0.0205 2745.08
-0.416636 0 0.0205 2742.96
-0.40391 0 0.0205 2753.41
-0.391674 0 0.0205 2758.03
-0.379908 0 0.0205 2755.82
-0.368594 0 0.0205 2750.6
-0.357715 0 0.0205 2759.46
-0.347254 0 0.0205 2728.79
-0.337194 0 0.0205 2724.21
-0.327521 0 0.0205 2724.75
-0.318219 0 0.0205 2734.35
-0.309273 0 0.0205 2735.84
-0.300671 0 0.0205 2734.85
-0.292398 0 0.0205 2739.66
-0.284442 0 0.0205 2738.81
-0.27679 0 0.0205 2733.09
-0.269431 0 0.0205 2742.29
-0.262355 0 0.0205 2726.42
-0.255549 0 0.0205 2729.26
-0.249003 0 0.0205 2732.36
-0.242707 0 0.0205 2732.78
-0.236652 0 0.0205 2731.29
-0.230829 0 0.0205 2730.06
-0.225228 0 0.0205 2728.35
-0.219841 0 0.0205 2728.54
-0.21466 0 0.0205 2730.62
-0.209676 0 0.0205 2731.67
-0.204883 0 0.0205 2732.92
-0.200177 0 0.0205 2732.13
-0.1955 0 0.0205 2733.03
-0.190906 0 0.0205 2734.92
-0.186428 0 0.0205 2737.32
-0.182051 0 0.0205 2740.35
-0.177762 0 0.0205 2743.62
-0.17358 0 0.0205 2745.79
-0.169482 0 0.0205 2746.74
-0.165477 0 0.0205 2746.64
-0.161572 0 0.0205 2745.89
-0.157735 0 0.0205 2744.95
-0.153994 0 0.0205 2743.95
-0.150346 0 0.0205 2743.05
-0.146761 0 0.0205 2742.41
-0.143265 0 0.0205 2741.96
-0.139847 0 0.0205 2741.64
-0.136496 0 0.0205 2741.28
-0.133229 0 0.0205 2740.87
-0.130025 0 0.0205 2740.51
-0.126893 0 0.0205 2740.07
-0.123837 0 0.0205 2739.75
-0.120834 0 0.0205 2739.42
-0.117903 0 0.0205 2739.08
-0.115044 0 0.0205 2738.82
-0.112234 0 0.0205 2738.59
-0.109492 0 0.0205 2738.42
-0.106804 0 0.0205 2738.28
-0.104153 0 0.0205 2738.16
-0.101546 0 0.0205 2738.03
-0.0989719 0 0.0205 2737.92
-0.0964343 0 0.0205 2737.79
-0.0939374 0 0.0205 2737.64
-0.0914684 0 0.0205 2737.58
-0.0890386 0 0.0205 2737.52
-0.0866475 0 0.0205 2737.42
-0.0842832 0 0.0205 2737.35
-0.0819566 0 0.0205 2737.35
-0.0796635 0 0.0205 2737.4
-0.0774002 0 0.0205 2737.41
-0.0751735 0 0.0205 2737.41
-0.0729758 0 0.0205 2737.43
-0.0708106 0 0.0205 2737.47
-0.0686812 0 0.0205 2737.59
-0.0665768 0 0.0205 2737.66
-0.0645079 0 0.0205 2737.75
-0.0624742 0 0.0205 2737.87
-0.0604652 0 0.0205 2737.98
-0.0584911 0 0.0205 2738.07
-0.0565486 0 0.0205 2738.2
-0.054634 0 0.0205 2738.32
-0.0527543 0 0.0205 2738.47
-0.050906 0 0.0205 2738.55
-0.0490962 0 0.0205 2738.61
-0.0473279 0 0.0205 2738.68
-0.04559 0 0.0205 2738.74
-0.0438927 0 0.0205 2738.78
-0.0422356 0 0.0205 2738.81
-0.0406076 0 0.0205 2738.84
-0.039019 0 0.0205 2738.85
-0.0374658 0 0.0205 2738.85
-0.0359442 0 0.0205 2738.87
-0.0344609 0 0.0205 2738.89
-0.0330083 0 0.0205 2738.9
-0.0315898 0 0.0205 2738.89
-0.0302086 0 0.0205 2738.92
-0.0288534 0 0.0205 2738.95
-0.0275349 0 0.0205 2738.94
-0.0262527 0 0.0205 2738.95
-0.0249956 0 0.0205 2738.96
-0.023774 0 0.0205 2738.91
-0.0225842 0 0.0205 2738.87
-0.021422 0 0.0205 2738.9
-0.0202944 0 0.0205 2739
-0.0191938 0 0.0205 2739.09
-0.0181234 0 0.0205 2739.15
-0.0170867 0 0.0205 2739.21
-0.016072 0 0.0205 2739.26
-0.0150901 0 0.0205 2739.27
-0.0141406 0 0.0205 2739.27
-0.013212 0 0.0205 2739.27
-0.012315 0 0.0205 2739.21
-0.0114453 0 0.0205 2739.18
-0.010599 0 0.0205 2739.14
-0.00978278 0 0.0205 2739.09
-0.0089888 0 0.0205 2739.1
-0.0082203 0 0.0205 2739.08
-0.00748044 0 0.0205 2739.05
-0.00675745 0 0.0205 2739.09
-0.00606198 0 0.0205 2739.03
-0.0053934 0 0.0205 2739.03
-0.00473991 0 0.0205 2739.06
-0.004112 0 0.0205 2738.98
-0.00350529 0 0.0205 2738.97
-0.00291537 0 0.0205 2738.98
-0.00234888 0 0.0205 2738.86
-0.0017977 0 0.0205 2740.05
-0.00126472 0 0.0205 2766.51
-0.0007527 0 0.0205 3827.23
-0.00025 0 0.0205 4600.28
0.00020726 0.000139798 0.0205 28649.1
0.00062196 0.000419517 0.0205 75200.8
0.00103721 0.000699604 0.0205 111778
0.00145336 0.000980299 0.0205 119922
0.00187079 0.00126186 0.0205 127181
0.00228985 0.00154452 0.0205 128088
0.00271091 0.00182854 0.0205 126715
0.00313435 0.00211415 0.0205 129423
0.00356054 0.00240162 0.0205 127782
0.00398984 0.00269118 0.0205 122228
0.00442264 0.0029831 0.0205 119219
0.00485931 0.00327765 0.0205 119814
0.00530023 0.00357505 0.0205 118149
0.00574579 0.00387559 0.0205 126538
0.00619639 0.00417951 0.0205 121319
0.00665241 0.0044871 0.0205 122890
0.00711424 0.00479861 0.0205 121051
0.00758231 0.00511434 0.0205 119607
0.00805703 0.00543453 0.0205 120965
0.00853879 0.00575948 0.0205 126630
0.00902802 0.00608948 0.0205 125360
0.00952516 0.0064248 0.0205 126732
0.0100306 0.00676576 0.0205 124818
0.0105449 0.00711263 0.0205 121663
0.0110684 0.00746574 0.0205 126141
0.0116016 0.00782537 0.0205 122164
0.0121449 0.00819186 0.0205 122267
0.0126989 0.00856552 0.0205 122354
0.013264 0.00894669 0.0205 130297
0.0138407 0.00933568 0.0205 135979
0.0144295 0.00973285 0.0205 124279
0.015031 0.0101386 0.0205 123235
0.0156456 0.0105531 0.0205 124440
0.016274 0.0109769 0.0205 124709
0.0169165 0.0114103 0.0205 125668
0.0175739 0.0118537 0.0205 124470
0.0182466 0.0123075 0.0205 124814
0.0189354 0.0127721 0.0205 132825
0.0196407 0.0132478 0.0205 133199
0.0203631 0.0137352 0.0205 135036
0.0211035 0.0142345 0.0205 135348
0.0218623 0.0147463 0.0205 136297
0.0226403 0.0152711 0.0205 136930
0.023438 0.0158092 0.0205 136408
0.0242564 0.0163611 0.0205 134027
0.0250958 0.0169274 0.0205 132015
0.0259573 0.0175084 0.0205 135154
0.0268416 0.0181049 0.0205 134677
0.0277493 0.0187172 0.0205 140265
0.0286813 0.0193458 0.0205 133584
0.0296385 0.0199914 0.0205 136380
0.0306216 0.0206545 0.0205 133692
0.0316314 0.0213357 0.0205 133949
0.032669 0.0220355 0.0205 144599
0.0337352 0.0227547 0.0205 127186
0.034831 0.0234938 0.0205 133570
0.0359572 0.0242533 0.0205 141533
0.0371148 0.0250343 0.0205 141936
0.038305 0.0258371 0.0205 133146
0.0395287 0.0266625 0.0205 133521
0.040787 0.0275112 0.0205 138046
0.0420811 0.0283841 0.0205 141929
0.043412 0.0292818 0.0205 127958
0.0447809 0.0302051 0.0205 139497
0.046189 0.0311548 0.0205 135761
0.0476375 0.0321318 0.0205 141412
0.0491277 0.0331371 0.0205 137147
0.0506609 0.0341713 0.0205 147634
0.0522386 0.0352353 0.0205 129006
0.0538619 0.0363303 0.0205 147990
0.0555324 0.0374571 0.0205 140850
0.0572515 0.0386166 0.0205 145803
0.0590207 0.03981 0.0205 138404
0.0608417 0.0410383 0.0205 148195
0.0627159 0.0423024 0.0205 144328
0.064645 0.0436036 0.0205 134600
0.0666306 0.044943 0.0205 121084
0.0686746 0.0463217 0.0205 139523
0.0707788 0.0477409 0.0205 133737
0.0729449 0.0492019 0.0205 140353
0.0751749 0.0507061 0.0205 138655
0.0774706 0.0522546 0.0205 135313
0.0798342 0.0538489 0.0205 146758
0.0822678 0.0554903 0.0205 140194
0.0847732 0.0571803 0.0205 137811
0.087353 0.0589204 0.0205 137007
0.0900092 0.060712 0.0205 147594
0.0927443 0.0625568 0.0205 147190
0.0955605 0.0644564 0.0205 148536
0.0984604 0.0664124 0.0205 152757
0.101446 0.0684266 0.0205 148221
0.104521 0.0705006 0.0205 144639
0.107688 0.0726364 0.0205 147421
0.110949 0.0748358 0.0205 152397
0.114306 0.0771006 0.0205 147401
0.117764 0.079433 0.0205 150308
0.121326 0.081835 0.0205 152006
0.124992 0.0843085 0.0205 149051
0.128769 0.0868559 0.0205 152964
