# p  FACE_DATA 317
# x  y  z  p
-2.24217 0 0.27 23899.9
-2.12942 0 0.27 23870
-2.02231 0 0.27 23845.2
-1.92055 0 0.27 23835
-1.82389 0 0.27 23831.7
-1.73207 0 0.27 23826.7
-1.64485 0 0.27 23819.3
-1.562 0 0.27 23814.6
-1.48331 0 0.27 23814.1
-1.40856 0 0.27 23811.8
-1.33756 0 0.27 23804
-1.27013 0 0.27 23790.6
-1.20608 0 0.27 23772.6
-1.14539 0 0.27 23751.8
-1.08787 0 0.27 23733.2
-1.03323 0 0.27 23716.3
-0.981322 0 0.27 23701.8
-0.932014 0 0.27 23690.3
-0.885173 0 0.27 23681.2
-0.84068 0 0.27 23674.4
-0.798416 0 0.27 23669.8
-0.758473 0 0.27 23666.9
-0.720912 0 0.27 23665.4
-0.685558 0 0.27 23664.8
-0.652245 0 0.27 23664.6
-0.620811 0 0.27 23664.4
-0.591171 0 0.27 23664.2
-0.563165 0 0.27 23664.7
-0.536572 0 0.27 23665.7
-0.51125 0 0.27 23667.5
-0.487059 0 0.27 23670.2
-0.463863 0 0.27 23673.9
-0.441526 0 0.27 23678.5
-0.419915 0 0.27 23683.7
-0.398896 0 0.27 23689.2
-0.378338 0 0.27 23694.8
-0.358104 0 0.27 23700.4
-0.33806 0 0.27 23703.5
-0.318069 0 0.27 23730.9
-0.296809 0 0.27 23747.2
-0.275112 0 0.27 23730
-0.255001 0 0.27 23726.9
-0.23636 0 0.27 23751.3
-0.219081 0 0.27 23742.7
-0.203066 0 0.27 23721.9
-0.188221 0 0.27 23719.2
-0.174462 0 0.27 23717
-0.161708 0 0.27 23717.2
-0.149886 0 0.27 23718.4
-0.138929 0 0.27 23717.8
-0.128773 0 0.27 23718.4
-0.119359 0 0.27 23716.4
-0.110632 0 0.27 23718.6
-0.102544 0 0.27 23723.2
-0.0950472 0 0.27 24026.2
-0.0880983 0 0.27 31878.4
-0.0816572 0 0.27 43731.8
-0.0756869 0 0.27 46505.9
-0.070153 0 0.27 48161.6
-0.0650234 0 0.27 49123.3
-0.0602687 0 0.27 49759.4
-0.0558616 0 0.27 50245.1
-0.0517765 0 0.27 50659.7
-0.0479899 0 0.27 51003.9
-0.04448 0 0.27 51304.6
-0.0412265 0 0.27 51573.1
-0.0382106 0 0.27 51814.3
-0.0354151 0 0.27 52032.3
-0.0328237 0 0.27 52227.5
-0.0304215 0 0.27 52402.3
-0.0281948 0 0.27 52556.4
-0.0261306 0 0.27 52691.6
-0.0242171 0 0.27 52808.5
-0.0224431 0 0.27 52908.4
-0.0207985 0 0.27 52993.2
-0.0192738 0 0.27 53064.8
-0.0178602 0 0.27 53125.4
-0.0165496 0 0.27 53177
-0.0153345 0 0.27 53221.8
-0.0142077 0 0.27 53261.7
-0.0131629 0 0.27 53298.5
-0.0121939 0 0.27 53332.5
-0.0112952 0 0.27 53367.3
-0.0104616 0 0.27 53402.7
-0.0096884 0 0.27 53439.5
-0.00897103 0 0.27 53478.4
-0.00830536 0 0.27 53519.7
-0.00768758 0 0.27 53563.6
-0.0071141 0 0.27 53609.9
-0.00658165 0 0.27 53658
-0.00608714 0 0.27 53709.2
-0.00562772 0 0.27 53770.8
-0.00520074 0 0.27 53826.2
-0.00480375 0 0.27 53883.9
-0.00443446 0 0.27 53943.7
-0.00409073 0 0.27 54004.9
-0.00377059 0 0.27 54067.5
-0.00347218 0 0.27 54130.7
-0.00319379 0 0.27 54194.9
-0.00293381 0 0.27 54259.3
-0.00269075 0 0.27 54324.2
-0.00246319 0 0.27 54389
-0.00224984 0 0.27 54454.4
-0.00204945 0 0.27 54519.3
-0.00186089 0 0.27 54584.9
-0.00168306 0 0.27 54649.5
-0.00151492 0 0.27 54715.8
-0.00135552 0 0.27 54780.4
-0.00120394 0 0.27 54847.4
-0.00105929 0 0.27 54911.9
-0.000920752 0 0.27 54980.4
-0.000787523 0 0.27 55045.7
-0.000658834 0 0.27 55114
-0.000533942 0 0.27 55179
-0.000412129 0 0.27 55234
-0.000292693 0 0.27 55301
-0.000174943 0 0.27 55293
-5.82025e-05 0 0.27 55726
6.0278e-05 2.68374e-05 0.27 54833.4
0.000182584 8.12915e-05 0.27 55019
0.000308438 0.000137325 0.27 54986.6
0.000437939 0.000194983 0.27 54919.1
0.00057119 0.00025431 0.27 54814.8
0.000708293 0.000315353 0.27 54713.9
0.000849358 0.000378158 0.27 54625.4
0.000994492 0.000442776 0.27 54538.8
0.00114381 0.000509256 0.27 54468.6
0.00129743 0.000577649 0.27 54399.9
0.00145545 0.000648007 0.27 54343.2
0.00161801 0.000720386 0.27 54289.8
0.00178523 0.000794839 0.27 54245.7
0.00195724 0.000871423 0.27 54204.8
0.00213417 0.000950195 0.27 54170.8
0.00231614 0.00103122 0.27 54140.4
0.0025033 0.00111455 0.27 54115.8
0.00269579 0.00120024 0.27 54094.9
0.00289374 0.00128838 0.27 54078.8
0.00309731 0.00137901 0.27 54066
0.00330663 0.00147221 0.27 54058.2
0.00352187 0.00156804 0.27 54053
0.00374317 0.00166657 0.27 54052.3
0.0039707 0.00176788 0.27 54055.6
0.00420463 0.00187202 0.27 54062.4
0.00444512 0.0019791 0.27 54072.8
0.00469233 0.00208916 0.27 54087
0.00494645 0.0022023 0.27 54104.8
0.00520763 0.00231859 0.27 54126.5
0.00547608 0.00243811 0.27 54151.7
0.00575197 0.00256094 0.27 54180.8
0.00603549 0.00268717 0.27 54213.7
0.00632683 0.00281688 0.27 54250.5
0.00662618 0.00295016 0.27 54291.3
0.00693375 0.0030871 0.27 54335.9
0.00724974 0.0032278 0.27 54384.7
0.00757435 0.00337232 0.27 54437.9
0.0079078 0.00352077 0.27 54495
0.00825029 0.00367327 0.27 54556.9
0.00860204 0.00382988 0.27 54623.1
0.00896328 0.00399071 0.27 54693.8
0.00933422 0.00415586 0.27 54769.4
0.0097151 0.00432544 0.27 54849.6
0.0101061 0.00449954 0.27 54934.4
0.0105076 0.00467828 0.27 55024.8
0.0109197 0.00486175 0.27 55120.2
0.0113426 0.00505007 0.27 55221.2
0.0117768 0.00524333 0.27 55327.7
0.0122222 0.00544166 0.27 55440
0.0126792 0.00564515 0.27 55557.6
0.0131482 0.00585394 0.27 55682
0.0136292 0.00606812 0.27 55812
0.0141227 0.00628781 0.27 55949
0.0146288 0.00651313 0.27 56092.5
0.0151477 0.00674419 0.27 56242.9
0.0156799 0.00698113 0.27 56400.4
0.0162254 0.00722403 0.27 56565
0.0167847 0.00747303 0.27 56737.3
0.017358 0.00772826 0.27 56917.6
0.0179454 0.00798982 0.27 57105.9
0.0185474 0.00825783 0.27 57302.5
0.0191641 0.00853242 0.27 57507.8
0.0197959 0.00881371 0.27 57722
0.0204431 0.00910183 0.27 57945.3
0.0211057 0.00939688 0.27 58177.9
0.0217843 0.00969898 0.27 58420
0.0224789 0.0100083 0.27 58672.2
0.02319 0.0103248 0.27 58934.6
0.0239176 0.0106488 0.27 59207.6
0.0246623 0.0109804 0.27 59490.8
0.025424 0.0113195 0.27 59785.5
0.0262032 0.0116664 0.27 60090.9
0.0270001 0.0120212 0.27 60408.1
0.0278149 0.012384 0.27 60736.7
0.0286479 0.0127549 0.27 61076.9
0.0294992 0.0131339 0.27 61429.4
0.0303692 0.0135212 0.27 61793.3
0.0312581 0.013917 0.27 62169.3
0.0321659 0.0143213 0.27 62557.3
0.0330931 0.014734 0.27 62957.3
0.0340398 0.0151555 0.27 63369.8
0.0350062 0.0155858 0.27 63793.6
0.0359924 0.0160249 0.27 64229.7
0.0369987 0.0164729 0.27 64677.7
0.0380251 0.0169299 0.27 65137.3
0.0390719 0.0173959 0.27 65608.6
0.0401391 0.0178711 0.27 66091.2
0.041227 0.0183554 0.27 66585.1
0.0423356 0.018849 0.27 67089.4
0.043465 0.0193519 0.27 67603.6
0.0446154 0.0198641 0.27 68127.8
0.0457867 0.0203856 0.27 68661.2
0.046979 0.0209164 0.27 69203.6
0.0481924 0.0214567 0.27 69754.3
0.0494267 0.0220063 0.27 70312.9
0.0506823 0.0225652 0.27 70879.1
0.0519588 0.0231335 0.27 71451.8
0.0532563 0.0237113 0.27 72031.6
0.0545749 0.0242983 0.27 72616.6
0.0559142 0.0248946 0.27 73207.6
0.0572744 0.0255002 0.27 73803.5
0.0586552 0.0261149 0.27 74404.4
0.0600565 0.0267388 0.27 75009.5
0.0614781 0.0273718 0.27 75619.4
0.0629198 0.0280137 0.27 76232.4
0.0643815 0.0286645 0.27 76849.3
0.0658629 0.029324 0.27 77469.1
0.0673636 0.0299922 0.27 78091.7
0.0688836 0.030669 0.27 78716
0.0704223 0.0313541 0.27 79341.8
0.0719795 0.0320474 0.27 79968.1
0.0735549 0.0327488 0.27 80593.7
0.075148 0.0334581 0.27 81217.3
0.0767585 0.0341751 0.27 81837.8
0.0783859 0.0348996 0.27 82453
0.0800297 0.0356315 0.27 83061.9
0.0816895 0.0363706 0.27 83662.5
0.0833647 0.0371164 0.27 84252.1
0.085055 0.0378689 0.27 84830.2
0.0867595 0.0386278 0.27 85394
0.0884779 0.0393929 0.27 85942.4
0.0902095 0.0401639 0.27 86474.5
0.0919538 0.0409405 0.27 86989.9
0.09371 0.0417224 0.27 87488.1
0.0954776 0.0425094 0.27 87970.1
0.0972558 0.0433011 0.27 88437.4
0.0990439 0.0440972 0.27 88890.9
0.100841 0.0448975 0.27 89333.6
0.102647 0.0457015 0.27 89765.6
0.104461 0.046509 0.27 90191.8
0.106282 0.0473197 0.27 90613.3
0.108109 0.0481331 0.27 91034
0.109941 0.048949 0.27 91450.4
0.111779 0.0497671 0.27 91867.8
0.11362 0.0505868 0.27 92286.7
0.115464 0.051408 0.27 92713.8
0.117311 0.0522302 0.27 93138
0.11916 0.0530531 0.27 93557.2
0.121009 0.0538763 0.27 93988.2
0.122857 0.0546995 0.27 94403.9
0.124705 0.0555223 0.27 94801.3
0.126552 0.0563444 0.27 95187.2
0.128395 0.0571653 0.27 95555.9
0.130236 0.0579847 0.27 95903.9
0.132072 0.0588023 0.27 96230.9
0.133904 0.0596177 0.27 96527
0.13573 0.0604306 0.27 96792.9
0.137549 0.0612407 0.27 97021.4
0.139361 0.0620475 0.27 97221.9
0.141165 0.0628508 0.27 97390
0.14296 0.0636503 0.27 97559.6
0.144747 0.0644455 0.27 97711.2
0.146523 0.0652363 0.27 97838.6
0.148288 0.0660222 0.27 97960
0.150042 0.0668031 0.27 98072.9
0.151784 0.0675785 0.27 98190.3
0.153513 0.0683483 0.27 98293.3
0.155228 0.0691121 0.27 98409.6
0.15693 0.0698698 0.27 98547.7
0.158617 0.070621 0.27 98687.9
0.160289 0.0713654 0.27 98845.8
0.161946 0.072103 0.27 99012.6
0.163586 0.0728334 0.27 99184.4
0.165211 0.0735564 0.27 99381.6
0.166817 0.0742718 0.27 99584
0.168406 0.0749795 0.27 99800.1
0.169978 0.0756793 0.27 100026
0.171532 0.0763709 0.27 100243
0.173067 0.0770543 0.27 100467
0.174583 0.0777293 0.27 100682
0.17608 0.0783958 0.27 100923
0.177557 0.0790535 0.27 101159
0.179014 0.0797025 0.27 101354
0.180452 0.0803425 0.27 101550
0.18187 0.0809736 0.27 101768
0.183266 0.0815956 0.27 101987
0.184643 0.0822085 0.27 102216
0.185999 0.0828122 0.27 102414
0.187334 0.0834066 0.27 102597
0.188648 0.0839917 0.27 102789
0.189942 0.0845675 0.27 102957
0.191214 0.0851339 0.27 103141
0.192465 0.085691 0.27 103302
0.193695 0.0862387 0.27 103471
0.194904 0.086777 0.27 103641
0.196093 0.0873059 0.27 103802
0.197259 0.0878254 0.27 103953
0.198405 0.0883357 0.27 104106
0.19953 0.0888366 0.27 104277
0.200635 0.0893284 0.27 104459
0.201718 0.0898108 0.27 104624
0.202782 0.0902841 0.27 104785
0.203824 0.0907483 0.27 104959
0.204846 0.0912035 0.27 105110
0.205848 0.0916496 0.27 105287
0.206831 0.0920869 0.27 105477
0.207793 0.0925153 0.27 105672
0.208735 0.092935 0.27 105892
0.209658 0.093346 0.27 105946
