# wallHeatFlux  FACE_DATA 398
# x  y  z  wallHeatFlux
-0.7975 -7.61524e-06 0 -98551.4
-0.79239 -7.61524e-06 0 -22460.2
-0.787056 -7.61524e-06 0 -13918
-0.781492 -7.61524e-06 0 -10969.2
-0.775691 -7.61524e-06 0 -9216.04
-0.769649 -7.61524e-06 0 -8010.15
-0.763361 -7.61524e-06 0 -7121.32
-0.756822 -7.61524e-06 0 -6428.17
-0.750025 -7.61524e-06 0 -5867.76
-0.742968 -7.61524e-06 0 -5408.38
-0.735648 -7.61524e-06 0 -5033.57
-0.72806 -7.61524e-06 0 -4722.24
-0.720203 -7.61524e-06 0 -4453.3
-0.712075 -7.61524e-06 0 -4221.49
-0.703676 -7.61524e-06 0 -4016.06
-0.695006 -7.61524e-06 0 -3837.07
-0.686065 -7.61524e-06 0 -3673.9
-0.676855 -7.61524e-06 0 -3531.91
-0.667379 -7.61524e-06 0 -3395.07
-0.657641 -7.61524e-06 0 -3274.14
-0.647644 -7.61524e-06 0 -3163.62
-0.637398 -7.61524e-06 0 -3063.64
-0.626906 -7.61524e-06 0 -2968.99
-0.616179 -7.61524e-06 0 -2884.72
-0.605225 -7.61524e-06 0 -2805.77
-0.594054 -7.61524e-06 0 -2732.03
-0.582677 -7.61524e-06 0 -2663.42
-0.57111 -7.61524e-06 0 -2594.66
-0.559364 -7.61524e-06 0 -2531.2
-0.547454 -7.61524e-06 0 -2478.3
-0.535396 -7.61524e-06 0 -2425.3
-0.523205 -7.61524e-06 0 -2377.45
-0.510901 -7.61524e-06 0 -2329.59
-0.498499 -7.61524e-06 0 -2286.89
-0.486021 -7.61524e-06 0 -2244.12
-0.473482 -7.61524e-06 0 -2201.24
-0.460905 -7.61524e-06 0 -2163.6
-0.448307 -7.61524e-06 0 -2131.31
-0.435709 -7.61524e-06 0 -2098.94
-0.42313 -7.61524e-06 0 -2066.43
-0.41059 -7.61524e-06 0 -2039.26
-0.39811 -7.61524e-06 0 -2006.64
-0.385706 -7.61524e-06 0 -1979.32
-0.373398 -7.61524e-06 0 -1957.39
-0.361205 -7.61524e-06 0 -1935.43
-0.349142 -7.61524e-06 0 -1913.38
-0.337226 -7.61524e-06 0 -1891.33
-0.325475 -7.61524e-06 0 -1869.27
-0.313901 -7.61524e-06 0 -1852.58
-0.30252 -7.61524e-06 0 -1830.5
-0.291343 -7.61524e-06 0 -1813.83
-0.280381 -7.61524e-06 0 -1797.18
-0.269647 -7.61524e-06 0 -1785.86
-0.259148 -7.61524e-06 0 -1774.56
-0.248893 -7.61524e-06 0 -1757.97
-0.23889 -7.61524e-06 0 -1741.41
-0.229143 -7.61524e-06 0 -1719.49
-0.219659 -7.61524e-06 0 -1702.99
-0.210441 -7.61524e-06 0 -1686.49
-0.201491 -7.61524e-06 0 -1675.47
-0.192812 -7.61524e-06 0 -1664.37
-0.184405 -7.61524e-06 0 -1632.04
-0.176269 -7.61524e-06 0 -1567.55
-0.168404 -7.61524e-06 0 -1455
-0.160809 -7.61524e-06 0 -1305.05
-0.15348 -7.61524e-06 0 -1149.86
-0.146415 -7.61524e-06 0 -1026.8
-0.13961 -7.61524e-06 0 -919.773
-0.133063 -7.61524e-06 0 -823.49
-0.126767 -7.61524e-06 0 -764.658
-0.120717 -7.61524e-06 0 -721.88
-0.11491 -7.61524e-06 0 -695.154
-0.109339 -7.61524e-06 0 -684.48
-0.103997 -7.61524e-06 0 -695.184
-0.0988804 -7.61524e-06 0 -716.651
-0.0939809 -7.61524e-06 0 -743.426
-0.0892928 -7.61524e-06 0 -786.275
-0.0848096 -7.61524e-06 0 -829.133
-0.0805248 -7.61524e-06 0 -877.358
-0.0764317 -7.61524e-06 0 -914.897
-0.0725237 -7.61524e-06 0 -952.444
-0.0687943 -7.61524e-06 0 -984.666
-0.065237 -7.61524e-06 0 -1011.53
-0.0618454 -7.61524e-06 0 -1049.13
-0.058613 -7.61524e-06 0 -1081.36
-0.0555337 -7.61524e-06 0 -1118.98
-0.0526013 -7.61524e-06 0 -1156.6
-0.0498099 -7.61524e-06 0 -1188.87
-0.0471536 -7.61524e-06 0 -1226.52
-0.0446266 -7.61524e-06 0 -1258.81
-0.0422235 -7.61524e-06 0 -1296.47
-0.0399389 -7.61524e-06 0 -1334.14
-0.0377676 -7.61524e-06 0 -1371.81
-0.0357044 -7.61524e-06 0 -1409.53
-0.0337445 -7.61524e-06 0 -1452.57
-0.0318832 -7.61524e-06 0 -1501
-0.0301159 -7.61524e-06 0 -1549.45
-0.0284383 -7.61524e-06 0 -1608.62
-0.0268462 -7.61524e-06 0 -1667.82
-0.0253353 -7.61524e-06 0 -1737.75
-0.023902 -7.61524e-06 0 -1813.07
-0.0225425 -7.61524e-06 0 -1888.39
-0.0212532 -7.61524e-06 0 -1969.16
-0.0200306 -7.61524e-06 0 -2049.88
-0.0188715 -7.61524e-06 0 -2130.66
-0.0177727 -7.61524e-06 0 -2211.45
-0.0167313 -7.61524e-06 0 -2286.91
-0.0157444 -7.61524e-06 0 -2362.39
-0.0148093 -7.61524e-06 0 -2427.12
-0.0139232 -7.61524e-06 0 -2492.01
-0.0130838 -7.61524e-06 0 -2551.37
-0.0122887 -7.61524e-06 0 -2605.6
-0.0115355 -7.61524e-06 0 -2654.33
-0.0108223 -7.61524e-06 0 -2697.77
-0.0101469 -7.61524e-06 0 -2735.87
-0.00950727 -7.61524e-06 0 -2768.64
-0.00890169 -7.61524e-06 0 -2796.08
-0.00832834 -7.61524e-06 0 -2818.18
-0.00778557 -7.61524e-06 0 -2834.95
-0.00727176 -7.61524e-06 0 -2841.02
-0.00678541 -7.61524e-06 0 -2847.13
-0.00632507 -7.61524e-06 0 -2847.95
-0.00588937 -7.61524e-06 0 -2838.04
-0.00547703 -7.61524e-06 0 -2822.84
-0.00508681 -7.61524e-06 0 -2802.33
-0.00471753 -7.61524e-06 0 -2781.93
-0.0043681 -7.61524e-06 0 -2750.83
-0.00403746 -7.61524e-06 0 -2714.48
-0.00372461 -7.61524e-06 0 -2678.28
-0.0034286 -7.61524e-06 0 -2636.85
-0.00314855 -7.61524e-06 0 -2590.19
-0.00288361 -7.61524e-06 0 -2538.41
-0.00263295 -7.61524e-06 0 -2486.86
-0.00239582 -7.61524e-06 0 -2430.27
-0.00217149 -7.61524e-06 0 -2374.08
-0.00195929 -7.61524e-06 0 -2312.99
-0.00175856 -7.61524e-06 0 -2247.08
-0.00156869 -7.61524e-06 0 -2181.92
-0.00138908 -7.61524e-06 0 -2106.76
-0.00121921 -7.61524e-06 0 -2032.66
-0.00105853 -7.61524e-06 0 -1954.47
-0.000906546 -7.61524e-06 0 -1872.29
-0.000762803 -7.61524e-06 0 -1786.38
-0.000626849 -7.61524e-06 0 -1691.16
-0.000498266 -7.61524e-06 0 -1586.27
-0.000376656 -7.61524e-06 0 -1476.46
-0.000261642 -7.61524e-06 0 -1347.15
-0.00015287 -7.61524e-06 0 -1171.91
-5e-05 -7.61524e-06 0 -884.534
4.14596e-05 2.03453e-05 0 -889.963
0.000125379 7.69412e-05 0 -1176.5
0.000211356 0.000134924 0 -1338.13
0.000299438 0.000194328 0 -1461.22
0.000389678 0.000255186 0 -1561.05
0.000482128 0.000317535 0 -1650.12
0.000576841 0.000381409 0 -1729.22
0.000673871 0.000446848 0 -1803.82
0.000773276 0.000513887 0 -1873.84
0.000875112 0.000582565 0 -1939.29
0.000979439 0.000652924 0 -2005.47
0.00108632 0.000725003 0 -2066.39
0.00119581 0.000798843 0 -2128.01
0.00130797 0.000874487 0 -2190.57
0.00142287 0.000951979 0 -2248.03
0.00154058 0.00103136 0 -2309.93
0.00166117 0.00111268 0 -2366.45
0.00178469 0.00119599 0 -2424.01
0.00191123 0.00128133 0 -2487.6
0.00204085 0.00136875 0 -2546.18
0.00217364 0.0014583 0 -2603.64
0.00230966 0.00155003 0 -2661.83
0.00244899 0.001644 0 -2719.58
0.00259171 0.00174025 0 -2776.98
0.00273791 0.00183885 0 -2835.92
0.00288767 0.00193985 0 -2895.23
0.00304108 0.0020433 0 -2952.09
0.0031982 0.00214927 0 -3013.82
0.00335915 0.00225781 0 -3073.57
0.003524 0.002369 0 -3133.35
0.00369286 0.00248287 0 -3195.85
0.00386582 0.00259951 0 -3257.43
0.00404297 0.00271899 0 -3321.64
0.00422442 0.00284136 0 -3392.12
0.00441026 0.00296669 0 -3455.93
0.0046006 0.00309506 0 -3528.88
0.00479556 0.00322653 0 -3597.01
0.00499523 0.00336119 0 -3671.86
0.00519972 0.00349911 0 -3746.25
0.00540916 0.00364036 0 -3820.65
0.00562366 0.00378501 0 -3895.04
0.00584334 0.00393316 0 -3974.75
0.00606831 0.00408489 0 -4054.46
0.00629871 0.00424027 0 -4134.16
0.00653466 0.0043994 0 -4219.19
0.00677629 0.00456236 0 -4302.41
0.00702374 0.00472923 0 -4385.59
0.00727714 0.00490013 0 -4470.54
0.00753663 0.00507513 0 -4556.14
0.00780234 0.00525433 0 -4646.35
0.00807444 0.00543783 0 -4736.69
0.00835306 0.00562573 0 -4823.6
0.00863835 0.00581814 0 -4919.26
0.00893047 0.00601514 0 -5011.36
0.00922958 0.00621687 0 -5106.95
0.00953584 0.00642341 0 -5200.78
0.00984939 0.00663489 0 -5303.94
0.0101705 0.00685141 0 -5405.72
0.0104992 0.00707309 0 -5507.43
0.0108357 0.00730005 0 -5613.1
0.0111802 0.00753241 0 -5724.66
0.011533 0.0077703 0 -5838.72
0.0118941 0.00801384 0 -5952.87
0.0122638 0.00826316 0 -6074.29
0.0126422 0.00851837 0 -6198.72
0.0130296 0.00877964 0 -6327.95
0.0134262 0.00904708 0 -6460.85
0.0138321 0.00932084 0 -6601.7
0.0142476 0.00960107 0 -6748.05
0.0146729 0.00988792 0 -6895.77
0.0151082 0.0101815 0 -7054.4
0.0155538 0.0104819 0 -7222.76
0.0160098 0.0107895 0 -7397.64
0.0164766 0.0111042 0 -7582.19
0.0169542 0.0114263 0 -7772.31
0.0174429 0.011756 0 -7974.51
0.0179431 0.0120934 0 -8191.85
0.018455 0.0124386 0 -8414.56
0.0189789 0.0127918 0 -8658.47
0.0195149 0.0131533 0 -8907.56
0.0200633 0.0135232 0 -9174.54
0.0206245 0.0139016 0 -9455.77
0.0211986 0.0142888 0 -9752.67
0.0217861 0.014685 0 -10059.4
0.022387 0.0150903 0 -10376.7
0.0230018 0.0155049 0 -10705.7
0.0236307 0.0159291 0 -11027.2
0.0242741 0.0163629 0 -11347
0.0249322 0.0168068 0 -11648.6
0.0256053 0.0172608 0 -11954.7
0.0262939 0.0177251 0 -12288.1
0.0269981 0.0182 0 -12693.1
0.0277183 0.0186857 0 -13193.5
0.0284548 0.0191825 0 -13810.6
0.029208 0.0196904 0 -14538.6
0.0299782 0.0202098 0 -15354.8
0.0307658 0.0207409 0 -16229.5
0.031571 0.021284 0 -17184
0.0323942 0.0218393 0 -18271.4
0.033236 0.0224069 0 -19554.5
0.0340965 0.0229872 0 -21070.9
0.0349762 0.0235805 0 -22825.3
0.0358753 0.0241869 0 -24794.5
0.0367944 0.0248067 0 -26919.3
0.0377338 0.0254403 0 -29209.9
0.0386938 0.0260877 0 -31686
0.039675 0.0267494 0 -34384.4
0.0406776 0.0274256 0 -37440.8
0.0417021 0.0281165 0 -40996.1
0.0427488 0.0288225 0 -45125.2
0.0438183 0.0295437 0 -49961.8
0.0449109 0.0302805 0 -55555.3
0.046027 0.0310332 0 -61867.9
0.0471671 0.0318021 0 -68700.8
0.0483315 0.0325874 0 -75827.4
0.0495209 0.0333895 0 -83146.2
0.0507354 0.0342086 0 -90614.4
0.0519756 0.035045 0 -98428
0.053242 0.0358991 0 -106816
0.054535 0.036771 0 -115816
0.0558549 0.0376613 0 -125213
0.0572024 0.03857 0 -134056
0.0585778 0.0394976 0 -140884
0.0599816 0.0404443 0 -145601
0.0614142 0.0414105 0 -148435
0.0628761 0.0423964 0 -149494
0.0643678 0.0434024 0 -148567
0.0658897 0.0444287 0 -146176
0.0674422 0.0454758 0 -143224
0.069026 0.0465439 0 -137722
0.0706413 0.0476333 0 -131529
0.0722886 0.0487443 0 -123780
0.0739685 0.0498771 0 -115210
0.0756813 0.0510323 0 -106156
0.0774275 0.05221 0 -97121
0.0792077 0.0534105 0 -88604.2
0.0810221 0.0546342 0 -81385.1
0.0828712 0.0558812 0 -75518.2
0.0847556 0.0571521 0 -70769.8
0.0866757 0.058447 0 -67028.3
0.0886318 0.0597661 0 -64190.9
0.0906244 0.06111 0 -61888.9
0.0926539 0.0624787 0 -59912.5
0.0947207 0.0638726 0 -58017.3
0.0968252 0.0652919 0 -56721.2
0.0989682 0.066737 0 -56000.3
0.101149 0.068208 0 -56095.5
0.103369 0.0697052 0 -56449
0.105629 0.0712289 0 -57018
0.107928 0.0727794 0 -55376.6
0.110267 0.0743568 0 -55608.9
0.112646 0.0759614 0 -54643.3
0.115066 0.0775934 0 -55085.9
0.117527 0.079253 0 -53970.5
0.120029 0.0809404 0 -53600.9
0.122572 0.0826558 0 -53137.2
0.125158 0.0843994 0 -53053.5
0.127785 0.0861713 0 -52562.6
0.130454 0.0879717 0 -52170.7
0.133167 0.0898008 0 -51656.9
0.135921 0.0916586 0 -51348.5
0.138719 0.0935453 0 -50537
0.141559 0.095461 0 -50931.1
0.144443 0.0974057 0 -49294
0.14737 0.0993798 0 -48932.8
0.15034 0.101383 0 -48725
0.153354 0.103415 0 -47809.1
0.156411 0.105477 0 -47493.7
0.159511 0.107568 0 -47958.7
0.162655 0.109688 0 -47425
0.165842 0.111837 0 -47351.5
0.169073 0.114016 0 -48488.7
0.172346 0.116223 0 -47232.9
0.175663 0.118461 0 -46036.9
0.179022 0.120727 0 -47171.4
0.182425 0.123021 0 -45427.3
0.18587 0.125344 0 -45196.9
0.189357 0.127696 0 -45576.1
0.192886 0.130076 0 -46252.2
0.196457 0.132484 0 -46069.9
0.200069 0.13492 0 -45246.7
0.203722 0.137384 0 -43833
0.207416 0.139875 0 -44192.4
0.21115 0.142393 0 -44099.8
0.214924 0.144938 0 -43789.5
0.218736 0.147509 0 -43962
0.222587 0.150107 0 -42216
0.226476 0.152729 0 -41671.8
0.230403 0.155377 0 -41174.6
0.234366 0.15805 0 -40728.8
0.238366 0.160748 0 -40220.7
0.242401 0.163469 0 -40524.3
0.24647 0.166214 0 -39865.5
0.250573 0.168981 0 -38709.9
0.25471 0.17177 0 -38901.5
0.258878 0.174582 0 -39166.1
0.263078 0.177414 0 -37737.5
0.267309 0.180266 0 -38840.5
0.271568 0.183139 0 -36326.3
0.275856 0.186031 0 -36365
0.280172 0.188942 0 -36652.7
0.284514 0.19187 0 -37382.6
0.288881 0.194815 0 -36449.4
0.293272 0.197777 0 -36092.8
0.297687 0.200754 0 -37696.2
0.302124 0.203746 0 -36301.5
0.306581 0.206752 0 -36026
0.311058 0.209772 0 -35716.6
0.315554 0.212804 0 -35894.8
0.320067 0.215847 0 -38089.5
0.324595 0.218901 0 -36404.8
0.329138 0.221965 0 -35131.6
0.333695 0.225038 0 -35450.4
0.338264 0.228119 0 -35288.2
0.342843 0.231208 0 -34863.8
0.347432 0.234302 0 -35017.3
0.352029 0.237402 0 -34876.1
0.356632 0.240507 0 -34863.7
0.361241 0.243616 0 -35430.4
0.365854 0.246727 0 -35076.9
0.370469 0.249839 0 -34701.7
0.375085 0.252953 0 -35900.9
0.379702 0.256066 0 -35062
0.384317 0.259178 0 -34176.8
0.388929 0.262289 0 -34341.2
0.393537 0.265396 0 -34065.7
0.398139 0.2685 0 -33877.4
0.402734 0.271598 0 -33838.7
0.407321 0.274692 0 -33681.8
0.411898 0.277779 0 -33879.7
0.416464 0.280858 0 -35050.1
0.421017 0.283929 0 -34902.2
0.425557 0.286991 0 -34404.3
0.430082 0.290042 0 -33818.1
0.434591 0.293083 0 -33957.9
0.439082 0.296112 0 -33143.9
0.443555 0.299128 0 -34158.3
0.448008 0.302131 0 -33228.6
0.45244 0.30512 0 -33448.7
0.456849 0.308094 0 -35618.3
0.461235 0.311052 0 -34034.5
0.465596 0.313993 0 -34677.6
0.469932 0.316917 0 -32514.7
0.474241 0.319823 0 -33567.7
0.478523 0.322711 0 -32812.7
0.482776 0.325579 0 -32684.1
0.486999 0.328427 0 -32559.4
0.491191 0.331254 0 -34230.7
0.495353 0.334061 0 -31383.7
