# Wall heat-flux
# Time        	patch         	min           	max           	integral      
3800          	base	-3.307493e+06	-3.794293e+04	-9.256688e+03
