# p  FACE_DATA 212
# x  y  z  p
-0.809577 0 0.035 5413.46
-0.807489 0 0.035 4009.42
-0.805219 0 0.035 3421.65
-0.802746 0 0.035 3183.83
-0.800052 0 0.035 2973.74
-0.797114 0 0.035 2880.75
-0.793909 0 0.035 2854.02
-0.790405 0 0.035 2847.11
-0.786574 0 0.035 2845.76
-0.782377 0 0.035 2848.42
-0.777777 0 0.035 2849.8
-0.772724 0 0.035 2849.15
-0.767167 0 0.035 2846.71
-0.761044 0 0.035 2840.66
-0.754285 0 0.035 2835.66
-0.746806 0 0.035 2833.45
-0.738515 0 0.035 2828.83
-0.729297 0 0.035 2822.91
-0.719017 0 0.035 2817.89
-0.707518 0 0.035 2812.18
-0.694609 0 0.035 2807.51
-0.680056 0 0.035 2804.39
-0.663575 0 0.035 2800.27
-0.644813 0 0.035 2795.83
-0.624813 0 0.035 2790.74
-0.605117 0 0.035 2786.18
-0.586017 0 0.035 2782.19
-0.567487 0 0.035 2778.7
-0.549504 0 0.035 2775.46
-0.532047 0 0.035 2772.36
-0.515094 0 0.035 2770.07
-0.498626 0 0.035 2769.12
-0.482623 0 0.035 2768.9
-0.467067 0 0.035 2766.99
-0.451943 0 0.035 2763.33
-0.437233 0 0.035 2759.13
-0.422924 0 0.035 2756.53
-0.409002 0 0.035 2756.29
-0.395453 0 0.035 2758.48
-0.382267 0 0.035 2759.62
-0.369432 0 0.035 2759.07
-0.356936 0 0.035 2756.14
-0.344773 0 0.035 2752.29
-0.332933 0 0.035 2748.58
-0.321409 0 0.035 2746.47
-0.310192 0 0.035 2746.16
-0.299278 0 0.035 2748.34
-0.288661 0 0.035 2751.41
-0.278335 0 0.035 2753.79
-0.268297 0 0.035 2754.88
-0.258541 0 0.035 2754.96
-0.249066 0 0.035 2752.8
-0.239868 0 0.035 2749.33
-0.230945 0 0.035 2745.57
-0.222294 0 0.035 2741.9
-0.213914 0 0.035 2738.64
-0.205804 0 0.035 2736.17
-0.197961 0 0.035 2734.77
-0.190386 0 0.035 2734.34
-0.183077 0 0.035 2734.96
-0.176032 0 0.035 2736.63
-0.169252 0 0.035 2738.93
-0.162736 0 0.035 2741.48
-0.156483 0 0.035 2744.16
-0.150493 0 0.035 2746.63
-0.144764 0 0.035 2748.73
-0.139298 0 0.035 2750.34
-0.134091 0 0.035 2751.33
-0.129093 0 0.035 2751.74
-0.124253 0 0.035 2751.85
-0.119563 0 0.035 2751.58
-0.115017 0 0.035 2750.94
-0.110611 0 0.035 2749.92
-0.106339 0 0.035 2748.53
-0.102196 0 0.035 2746.85
-0.0981766 0 0.035 2744.98
-0.094276 0 0.035 2743.02
-0.0904897 0 0.035 2741.03
-0.086813 0 0.035 2739.08
-0.0832415 0 0.035 2737.22
-0.0797709 0 0.035 2735.46
-0.0763968 0 0.035 2733.81
-0.0731154 0 0.035 2732.3
-0.0699225 0 0.035 2730.94
-0.0668143 0 0.035 2729.73
-0.0637871 0 0.035 2728.69
-0.0608371 0 0.035 2727.78
-0.0579609 0 0.035 2727.02
-0.0551548 0 0.035 2726.37
-0.0524156 0 0.035 2725.84
-0.0497398 0 0.035 2725.36
-0.0471243 0 0.035 2725.27
-0.0445659 0 0.035 2724.08
-0.0420615 0 0.035 2744.01
-0.0396081 0 0.035 3299.45
-0.0372026 0 0.035 5101.82
-0.0348422 0 0.035 6772.51
-0.032524 0 0.035 7684.55
-0.0302452 0 0.035 8318.55
-0.028003 0 0.035 8796.36
-0.0257948 0 0.035 9199.89
-0.0236178 0 0.035 9541.76
-0.0214695 0 0.035 9855.86
-0.0193471 0 0.035 10139.4
-0.0172482 0 0.035 10403.8
-0.0151702 0 0.035 10653.5
-0.0131106 0 0.035 10887.5
-0.0110667 0 0.035 11102.1
-0.00903637 0 0.035 11287.9
-0.00701697 0 0.035 11450
-0.00500605 0 0.035 11587.1
-0.00300121 0 0.035 11772.7
-0.001 0 0.035 13043.7
0.000866025 0.0005 0.035 12332.5
0.0025844 0.00149211 0.035 13002.1
0.0042763 0.00246893 0.035 13858.5
0.00594322 0.00343132 0.035 14935.8
0.00758636 0.00437998 0.035 16286.1
0.00920737 0.00531588 0.035 17910.7
0.0108073 0.00623962 0.035 19860.1
0.0123876 0.00715197 0.035 22190.8
0.0139495 0.00805371 0.035 24939.5
0.0154937 0.00894529 0.035 28145.7
0.017022 0.00982768 0.035 31871.9
0.0185348 0.0107011 0.035 36187.6
0.0200339 0.0115665 0.035 41164.8
0.0215202 0.0124247 0.035 46878
0.0229941 0.0132756 0.035 53464.3
0.0244573 0.0141204 0.035 60993.2
0.0259099 0.0149591 0.035 69523
0.0273538 0.0157927 0.035 79078.4
0.0287897 0.0166217 0.035 89633.8
0.0302178 0.0174463 0.035 101000
0.0316401 0.0182674 0.035 113028
0.0330561 0.0190849 0.035 125397
0.0344679 0.0199001 0.035 136780
0.0358755 0.0207127 0.035 145793
0.0372803 0.0215238 0.035 150861
0.0386833 0.0223338 0.035 152963
0.0400841 0.0231425 0.035 144857
0.041485 0.0239514 0.035 137693
0.0428849 0.0247596 0.035 130777
0.0442867 0.025569 0.035 124439
0.0456908 0.0263796 0.035 119088
0.0470966 0.0271912 0.035 114686
0.0485064 0.0280052 0.035 110799
0.0499192 0.0288209 0.035 107327
0.0513378 0.0296399 0.035 104380
0.0527619 0.0304621 0.035 102167
0.0541923 0.031288 0.035 100462
0.0556307 0.0321184 0.035 100119
0.057076 0.0329529 0.035 100255
0.0585312 0.033793 0.035 100097
0.0599949 0.034638 0.035 99731.6
0.0614698 0.0354896 0.035 99212.1
0.062957 0.0363482 0.035 98404.9
0.064455 0.0372131 0.035 98391.4
0.0659672 0.0380862 0.035 98769.5
0.0674915 0.0389663 0.035 99334.1
0.0690319 0.0398556 0.035 99737
0.0705882 0.0407541 0.035 99745
0.0721604 0.0416619 0.035 99675.6
0.0737453 0.0425769 0.035 99489.6
0.0753344 0.0434943 0.035 99557.8
0.0769309 0.0444161 0.035 99866
0.0785326 0.0453408 0.035 100446
0.0801411 0.0462695 0.035 101109
0.0817575 0.0472026 0.035 101680
0.0833785 0.0481386 0.035 101809
0.0850077 0.0490792 0.035 101986
0.0866416 0.0500226 0.035 101800
0.0882842 0.0509709 0.035 101658
0.0899348 0.0519239 0.035 101487
0.0915911 0.0528801 0.035 101356
0.0932563 0.0538416 0.035 101222
0.0949268 0.054806 0.035 101180
0.0966067 0.0557759 0.035 101121
0.0982939 0.05675 0.035 101348
0.0999887 0.0577286 0.035 101644
0.101694 0.0587128 0.035 101948
0.103404 0.0597003 0.035 102409
0.105124 0.0606937 0.035 102742
0.106851 0.0616907 0.035 102965
0.108589 0.0626936 0.035 103054
0.110336 0.0637025 0.035 102942
0.11209 0.0647152 0.035 102772
0.113855 0.0657342 0.035 102367
0.115626 0.0667569 0.035 102129
0.117409 0.0677863 0.035 101807
0.119202 0.0688211 0.035 101724
0.121003 0.069861 0.035 101795
0.122816 0.0709077 0.035 101883
0.124635 0.0719584 0.035 102046
0.126467 0.0730161 0.035 102126
0.128308 0.0740787 0.035 102405
0.13016 0.0751479 0.035 102368
0.132024 0.0762243 0.035 102498
0.133897 0.0773051 0.035 102461
0.135782 0.0783935 0.035 102411
0.137675 0.0794865 0.035 102277
0.139581 0.0805871 0.035 102139
0.1415 0.081695 0.035 102017
0.143428 0.0828082 0.035 102068
0.145371 0.0839295 0.035 102180
0.147321 0.0850557 0.035 102291
0.149285 0.08619 0.035 102381
0.151261 0.0873308 0.035 102422
0.153249 0.0884787 0.035 102355
0.155253 0.0896352 0.035 102602
0.157264 0.0907968 0.035 102575
0.159292 0.0919673 0.035 102651
0.161329 0.093143 0.035 102721
