# wallHeatFlux  FACE_DATA 212
# x  y  z  wallHeatFlux
-0.809577 0 0.035 -1.0835e+06
-0.807489 0 0.035 -212900
-0.805219 0 0.035 -121445
-0.802746 0 0.035 -89438.3
-0.800052 0 0.035 -77495.5
-0.797114 0 0.035 -82431.8
-0.793909 0 0.035 -88642.1
-0.790405 0 0.035 -92145.3
-0.786574 0 0.035 -93790.7
-0.782377 0 0.035 -94427.7
-0.777777 0 0.035 -94427.7
-0.772724 0 0.035 -94215.4
-0.767167 0 0.035 -93313
-0.761044 0 0.035 -92145.3
-0.754285 0 0.035 -91030.6
-0.746806 0 0.035 -89969
-0.738515 0 0.035 -88801.3
-0.729297 0 0.035 -87421.3
-0.719017 0 0.035 -86200.4
-0.707518 0 0.035 -84979.6
-0.694609 0 0.035 -83705.7
-0.680056 0 0.035 -82538
-0.663575 0 0.035 -81317.2
-0.644813 0 0.035 -80043.3
-0.624813 0 0.035 -78856.5
-0.605117 0 0.035 -77811.3
-0.586017 0 0.035 -76804.8
-0.567487 0 0.035 -75850.7
-0.549504 0 0.035 -75053.8
-0.532047 0 0.035 -74311.4
-0.515094 0 0.035 -73673.8
-0.498626 0 0.035 -73090.6
-0.482623 0 0.035 -72612.2
-0.467067 0 0.035 -72135.3
-0.451943 0 0.035 -71604.5
-0.437233 0 0.035 -71126.8
-0.422924 0 0.035 -70702.2
-0.409002 0 0.035 -70383.7
-0.395453 0 0.035 -70118.3
-0.382267 0 0.035 -69853
-0.369432 0 0.035 -69535.4
-0.356936 0 0.035 -69216.1
-0.344773 0 0.035 -68845.5
-0.332933 0 0.035 -68526.1
-0.321409 0 0.035 -68261.7
-0.310192 0 0.035 -68049.4
-0.299278 0 0.035 -67890.3
-0.288661 0 0.035 -67783.1
-0.278335 0 0.035 -67679.2
-0.268297 0 0.035 -67517.7
-0.258541 0 0.035 -67360.9
-0.249066 0 0.035 -67147.4
-0.239868 0 0.035 -66882.1
-0.230945 0 0.035 -66668.6
-0.222294 0 0.035 -66457.6
-0.213914 0 0.035 -66245.4
-0.205804 0 0.035 -66086.2
-0.197961 0 0.035 -65927.1
-0.190386 0 0.035 -65819.5
-0.183077 0 0.035 -65768
-0.176032 0 0.035 -65715.1
-0.169252 0 0.035 -65715.2
-0.162736 0 0.035 -65713.6
-0.156483 0 0.035 -65717.3
-0.150493 0 0.035 -65713.8
-0.144764 0 0.035 -65713.9
-0.139298 0 0.035 -65656.8
-0.134091 0 0.035 -65567.1
-0.129093 0 0.035 -65492.9
-0.124253 0 0.035 -65393.4
-0.119563 0 0.035 -65340.4
-0.115017 0 0.035 -65287.3
-0.110611 0 0.035 -65181.1
-0.106339 0 0.035 -65075
-0.102196 0 0.035 -65021.9
-0.0981766 0 0.035 -64915.7
-0.094276 0 0.035 -64809.6
-0.0904897 0 0.035 -64703.4
-0.086813 0 0.035 -64597.2
-0.0832415 0 0.035 -64544.2
-0.0797709 0 0.035 -64438
-0.0763968 0 0.035 -64384.9
-0.0731154 0 0.035 -64278.8
-0.0699225 0 0.035 -64225.7
-0.0668143 0 0.035 -64172.6
-0.0637871 0 0.035 -64066.5
-0.0608371 0 0.035 -64013.4
-0.0579609 0 0.035 -63960.3
-0.0551548 0 0.035 -63960.3
-0.0524156 0 0.035 -63907.2
-0.0497398 0 0.035 -63854.1
-0.0471243 0 0.035 -63854.1
-0.0445659 0 0.035 -63748
-0.0420615 0 0.035 -62367.9
-0.0396081 0 0.035 -51380.6
-0.0372026 0 0.035 -45329.5
-0.0348422 0 0.035 -63217.2
-0.032524 0 0.035 -73939.2
-0.0302452 0 0.035 -81582.6
-0.028003 0 0.035 -87049.7
-0.0257948 0 0.035 -91773.7
-0.0236178 0 0.035 -95807.7
-0.0214695 0 0.035 -99788.7
-0.0193471 0 0.035 -103398
-0.0172482 0 0.035 -106689
-0.0151702 0 0.035 -109714
-0.0131106 0 0.035 -112368
-0.0110667 0 0.035 -115022
-0.00903637 0 0.035 -118260
-0.00701697 0 0.035 -123037
-0.00500605 0 0.035 -130681
-0.00300121 0 0.035 -143844
-0.001 0 0.035 -160246
0.000866025 0.0005 0.035 -119884
0.0025844 0.00149211 0.035 -186017
0.0042763 0.00246893 0.035 -218807
0.00594322 0.00343132 0.035 -246670
0.00758636 0.00437998 0.035 -279453
0.00920737 0.00531588 0.035 -318834
0.0108073 0.00623962 0.035 -367194
0.0123876 0.00715197 0.035 -425671
0.0139495 0.00805371 0.035 -493904
0.0154937 0.00894529 0.035 -574054
0.017022 0.00982768 0.035 -667211
0.0185348 0.0107011 0.035 -774209
0.0200339 0.0115665 0.035 -889202
0.0215202 0.0124247 0.035 -1.03742e+06
0.0229941 0.0132756 0.035 -1.19035e+06
0.0244573 0.0141204 0.035 -1.35891e+06
0.0259099 0.0149591 0.035 -1.54816e+06
0.0273538 0.0157927 0.035 -1.76275e+06
0.0287897 0.0166217 0.035 -2.02759e+06
0.0302178 0.0174463 0.035 -2.30105e+06
0.0316401 0.0182674 0.035 -2.5325e+06
0.0330561 0.0190849 0.035 -2.8431e+06
0.0344679 0.0199001 0.035 -2.95487e+06
0.0358755 0.0207127 0.035 -3.25631e+06
0.0372803 0.0215238 0.035 -3.26976e+06
0.0386833 0.0223338 0.035 -3.30026e+06
0.0400841 0.0231425 0.035 -2.99469e+06
0.041485 0.0239514 0.035 -2.95064e+06
0.0428849 0.0247596 0.035 -2.7876e+06
0.0442867 0.025569 0.035 -2.43674e+06
0.0456908 0.0263796 0.035 -2.21022e+06
0.0470966 0.0271912 0.035 -2.10529e+06
0.0485064 0.0280052 0.035 -1.99133e+06
0.0499192 0.0288209 0.035 -1.95268e+06
0.0513378 0.0296399 0.035 -1.91215e+06
0.0527619 0.0304621 0.035 -1.81369e+06
0.0541923 0.031288 0.035 -1.81929e+06
0.0556307 0.0321184 0.035 -1.75687e+06
0.057076 0.0329529 0.035 -1.72166e+06
0.0585312 0.033793 0.035 -1.65629e+06
0.0599949 0.034638 0.035 -1.70541e+06
0.0614698 0.0354896 0.035 -1.7323e+06
0.062957 0.0363482 0.035 -1.57907e+06
0.064455 0.0372131 0.035 -1.59621e+06
0.0659672 0.0380862 0.035 -1.56366e+06
0.0674915 0.0389663 0.035 -1.57139e+06
0.0690319 0.0398556 0.035 -1.57627e+06
0.0705882 0.0407541 0.035 -1.57432e+06
0.0721604 0.0416619 0.035 -1.58618e+06
0.0737453 0.0425769 0.035 -1.55506e+06
0.0753344 0.0434943 0.035 -1.51128e+06
0.0769309 0.0444161 0.035 -1.509e+06
0.0785326 0.0453408 0.035 -1.50707e+06
0.0801411 0.0462695 0.035 -1.4955e+06
0.0817575 0.0472026 0.035 -1.48679e+06
0.0833785 0.0481386 0.035 -1.45092e+06
0.0850077 0.0490792 0.035 -1.59974e+06
0.0866416 0.0500226 0.035 -1.50899e+06
0.0882842 0.0509709 0.035 -1.50952e+06
0.0899348 0.0519239 0.035 -1.48066e+06
0.0915911 0.0528801 0.035 -1.47935e+06
0.0932563 0.0538416 0.035 -1.42561e+06
0.0949268 0.054806 0.035 -1.41847e+06
0.0966067 0.0557759 0.035 -1.37852e+06
0.0982939 0.05675 0.035 -1.44351e+06
0.0999887 0.0577286 0.035 -1.43258e+06
0.101694 0.0587128 0.035 -1.43619e+06
0.103404 0.0597003 0.035 -1.41056e+06
0.105124 0.0606937 0.035 -1.39886e+06
0.106851 0.0616907 0.035 -1.42571e+06
0.108589 0.0626936 0.035 -1.39981e+06
0.110336 0.0637025 0.035 -1.41039e+06
0.11209 0.0647152 0.035 -1.41784e+06
0.113855 0.0657342 0.035 -1.38484e+06
0.115626 0.0667569 0.035 -1.36416e+06
0.117409 0.0677863 0.035 -1.27125e+06
0.119202 0.0688211 0.035 -1.32788e+06
0.121003 0.069861 0.035 -1.36425e+06
0.122816 0.0709077 0.035 -1.28784e+06
0.124635 0.0719584 0.035 -1.2855e+06
0.126467 0.0730161 0.035 -1.27438e+06
0.128308 0.0740787 0.035 -1.29619e+06
0.13016 0.0751479 0.035 -1.27016e+06
0.132024 0.0762243 0.035 -1.25916e+06
0.133897 0.0773051 0.035 -1.34569e+06
0.135782 0.0783935 0.035 -1.33732e+06
0.137675 0.0794865 0.035 -1.2977e+06
0.139581 0.0805871 0.035 -1.20248e+06
0.1415 0.081695 0.035 -1.184e+06
0.143428 0.0828082 0.035 -1.26658e+06
0.145371 0.0839295 0.035 -1.2605e+06
0.147321 0.0850557 0.035 -1.26833e+06
0.149285 0.08619 0.035 -1.26773e+06
0.151261 0.0873308 0.035 -1.20882e+06
0.153249 0.0884787 0.035 -1.20177e+06
0.155253 0.0896352 0.035 -1.23932e+06
0.157264 0.0907968 0.035 -1.20144e+06
0.159292 0.0919673 0.035 -1.15906e+06
0.161329 0.093143 0.035 -993809
