# Wall heat-flux
# Time        	patch         	min           	max           	integral      
2000          	base	-1.270625e+04	3.262353e+04	3.714904e+02
