# p  FACE_DATA 398
# x  y  z  p
-0.7975 0 0.025 4472.58
-0.79239 0 0.025 3681.98
-0.787056 0 0.025 2933.71
-0.781492 0 0.025 2836.84
-0.775691 0 0.025 2790.55
-0.769649 0 0.025 2789.57
-0.763362 0 0.025 2816.84
-0.756822 0 0.025 2840.77
-0.750025 0 0.025 2855.51
-0.742968 0 0.025 2862.76
-0.735648 0 0.025 2867.46
-0.72806 0 0.025 2868.5
-0.720203 0 0.025 2868.25
-0.712076 0 0.025 2867.42
-0.703677 0 0.025 2867.02
-0.695006 0 0.025 2865.64
-0.686065 0 0.025 2864.1
-0.676855 0 0.025 2863.29
-0.667379 0 0.025 2860.83
-0.65764 0 0.025 2856.53
-0.647644 0 0.025 2854.79
-0.637397 0 0.025 2854.8
-0.626906 0 0.025 2850.24
-0.616179 0 0.025 2848.9
-0.605224 0 0.025 2846.67
-0.594054 0 0.025 2844.85
-0.582678 0 0.025 2842.14
-0.57111 0 0.025 2840.42
-0.559364 0 0.025 2838.23
-0.547454 0 0.025 2837.31
-0.535396 0 0.025 2834.71
-0.523205 0 0.025 2833.53
-0.510901 0 0.025 2831.26
-0.4985 0 0.025 2828.61
-0.486021 0 0.025 2827.36
-0.473483 0 0.025 2826.09
-0.460905 0 0.025 2824.93
-0.448308 0 0.025 2823.74
-0.435709 0 0.025 2821.31
-0.42313 0 0.025 2818.56
-0.41059 0 0.025 2817.75
-0.39811 0 0.025 2817.89
-0.385706 0 0.025 2817.05
-0.373398 0 0.025 2815.26
-0.361205 0 0.025 2814.2
-0.349141 0 0.025 2812.99
-0.337226 0 0.025 2811.02
-0.325475 0 0.025 2809.08
-0.313901 0 0.025 2808.04
-0.30252 0 0.025 2807.94
-0.291343 0 0.025 2808.04
-0.280382 0 0.025 2807.37
-0.269646 0 0.025 2806.58
-0.259148 0 0.025 2805.71
-0.248893 0 0.025 2805.29
-0.23889 0 0.025 2804.35
-0.229143 0 0.025 2803.33
-0.219659 0 0.025 2802.01
-0.210441 0 0.025 2800.68
-0.201491 0 0.025 2798.93
-0.192812 0 0.025 2797.11
-0.184405 0 0.025 2795.37
-0.176269 0 0.025 2794.49
-0.168404 0 0.025 2794.02
-0.160808 0 0.025 2794.23
-0.15348 0 0.025 2794.81
-0.146415 0 0.025 2795.77
-0.13961 0 0.025 2796.76
-0.133063 0 0.025 2797.9
-0.126767 0 0.025 2798.77
-0.120718 0 0.025 2799.45
-0.11491 0 0.025 2799.65
-0.109339 0 0.025 2799.34
-0.103997 0 0.025 2798.58
-0.0988805 0 0.025 2797.57
-0.0939808 0 0.025 2796.36
-0.0892928 0 0.025 2795.09
-0.0848096 0 0.025 2793.81
-0.0805248 0 0.025 2792.56
-0.0764316 0 0.025 2791.36
-0.0725237 0 0.025 2790.24
-0.0687943 0 0.025 2789.19
-0.065237 0 0.025 2788.24
-0.0618454 0 0.025 2787.38
-0.058613 0 0.025 2786.6
-0.0555337 0 0.025 2785.9
-0.0526013 0 0.025 2785.26
-0.0498099 0 0.025 2784.72
-0.0471536 0 0.025 2784.25
-0.0446266 0 0.025 2783.89
-0.0422235 0 0.025 2783.63
-0.039939 0 0.025 2783.47
-0.0377676 0 0.025 2783.4
-0.0357044 0 0.025 2783.36
-0.0337445 0 0.025 2783.49
-0.0318832 0 0.025 2783.3
-0.0301159 0 0.025 2796.95
-0.0284383 0 0.025 3037.67
-0.0268461 0 0.025 4068.96
-0.0253353 0 0.025 5391.89
-0.023902 0 0.025 6385.19
-0.0225426 0 0.025 7140.65
-0.0212532 0 0.025 7697.53
-0.0200306 0 0.025 8167.81
-0.0188715 0 0.025 8569.54
-0.0177728 0 0.025 8923.05
-0.0167313 0 0.025 9233.86
-0.0157444 0 0.025 9508.54
-0.0148092 0 0.025 9752.21
-0.0139232 0 0.025 9972.96
-0.0130838 0 0.025 10176.3
-0.0122887 0 0.025 10365.4
-0.0115356 0 0.025 10540.8
-0.0108223 0 0.025 10703.5
-0.0101469 0 0.025 10854.4
-0.00950727 0 0.025 10994.4
-0.00890168 0 0.025 11123.4
-0.00832835 0 0.025 11241.5
-0.00778557 0 0.025 11348.8
-0.00727176 0 0.025 11446.1
-0.0067854 0 0.025 11533.9
-0.00632507 0 0.025 11613.4
-0.00588937 0 0.025 11685.8
-0.00547703 0 0.025 11752.7
-0.0050868 0 0.025 11815.6
-0.00471753 0 0.025 11876.1
-0.0043681 0 0.025 11935.7
-0.00403746 0 0.025 11995.8
-0.00372461 0 0.025 12058.9
-0.0034286 0 0.025 12124.8
-0.00314855 0 0.025 12194.6
-0.0028836 0 0.025 12269.3
-0.00263294 0 0.025 12352.5
-0.00239581 0 0.025 12440.4
-0.0021715 0 0.025 12530.8
-0.00195929 0 0.025 12626.6
-0.00175856 0 0.025 12726.9
-0.00156869 0 0.025 12830.6
-0.00138908 0 0.025 12937.1
-0.0012192 0 0.025 13045.4
-0.00105853 0 0.025 13154.2
-0.000906546 0 0.025 13262
-0.000762803 0 0.025 13365.9
-0.000626848 0 0.025 13462.3
-0.000498265 0 0.025 13545
-0.000376656 0 0.025 13606.1
-0.000261642 0 0.025 13638.9
-0.00015287 0 0.025 13646.4
-5e-05 0 0.025 13737.8
4.14519e-05 2.79596e-05 0.025 13320.2
0.000125371 8.45641e-05 0.025 13420.4
0.000211347 0.000142556 0.025 13387.7
0.000299429 0.000201968 0.025 13322.2
0.000389669 0.000262835 0.025 13246.2
0.000482118 0.000325193 0.025 13169.7
0.000576831 0.000389077 0.025 13098.4
0.000673861 0.000454524 0.025 13036
0.000773265 0.000521574 0.025 12985.1
0.0008751 0.000590262 0.025 12946.8
0.000979426 0.000660632 0.025 12922.5
0.0010863 0.000732721 0.025 12908.5
0.00119579 0.000806572 0.025 12909.5
0.00130795 0.000882227 0.025 12922.9
0.00142285 0.00095973 0.025 12947.6
0.00154056 0.00103912 0.025 12983.4
0.00166115 0.00112046 0.025 13030.1
0.00178467 0.00120378 0.025 13087.4
0.00191121 0.00128913 0.025 13154.2
0.00204083 0.00137656 0.025 13230.9
0.00217362 0.00146612 0.025 13316.5
0.00230964 0.00155787 0.025 13411.3
0.00244897 0.00165185 0.025 13514.1
0.00259169 0.00174812 0.025 13626
0.00273789 0.00184673 0.025 13746.4
0.00288765 0.00194774 0.025 13875
0.00304105 0.00205122 0.025 14012.4
0.00319818 0.00215719 0.025 14158.5
0.00335912 0.00226575 0.025 14313.3
0.00352397 0.00237695 0.025 14477.1
0.00369283 0.00249085 0.025 14650.3
0.00386579 0.00260751 0.025 14833.2
0.00404294 0.00272699 0.025 15026.3
0.00422438 0.00284938 0.025 15229.9
0.00441022 0.00297474 0.025 15444.8
0.00460056 0.00310312 0.025 15671.6
0.00479552 0.00323462 0.025 15911.3
0.00499519 0.0033693 0.025 16164.1
0.00519968 0.00350723 0.025 16431.6
0.00540911 0.00364849 0.025 16714.5
0.00562361 0.00379318 0.025 17014
0.00584329 0.00394134 0.025 17331.3
0.00606826 0.00409309 0.025 17667.6
0.00629865 0.00424849 0.025 18024.3
0.0065346 0.00440764 0.025 18403.5
0.00677623 0.00457063 0.025 18805.9
0.00702368 0.00473753 0.025 19234.6
0.00727707 0.00490844 0.025 19690.4
0.00753655 0.00508347 0.025 20176.5
0.00780227 0.00526269 0.025 20694.9
0.00807436 0.00544622 0.025 21248
0.00835298 0.00563415 0.025 21839.2
0.00863826 0.00582659 0.025 22471.1
0.00893038 0.00602362 0.025 23147.3
0.00922949 0.00622537 0.025 23870.6
0.00953574 0.00643195 0.025 24644.9
0.00984929 0.00664345 0.025 25473.3
0.0101703 0.00686 0.025 26361.6
0.0104991 0.00708171 0.025 27311.2
0.0108356 0.00730871 0.025 28329
0.0111801 0.0075411 0.025 29420.9
0.0115329 0.00777902 0.025 30592.7
0.011894 0.00802259 0.025 31850.9
0.0122637 0.00827194 0.025 33207.9
0.0126421 0.00852719 0.025 34666.1
0.0130295 0.0087885 0.025 36242.1
0.013426 0.00905597 0.025 37942.8
0.013832 0.00932978 0.025 39778.4
0.0142475 0.00961003 0.025 41763
0.0146727 0.0098969 0.025 43904.5
0.0151081 0.0101905 0.025 46219.5
0.0155536 0.010491 0.025 48727.2
0.0160097 0.0107986 0.025 51450.1
0.0164764 0.0111134 0.025 54396.8
0.016954 0.0114356 0.025 57596.6
0.0174427 0.0117653 0.025 61061.1
0.0179429 0.0121026 0.025 64818.1
0.0184548 0.0124479 0.025 68877.3
0.0189786 0.0128013 0.025 73261.9
0.0195146 0.0131628 0.025 78013
0.020063 0.0135327 0.025 83145.9
0.0206242 0.0139112 0.025 88700.9
0.0211983 0.0142984 0.025 94765.5
0.0217857 0.0146947 0.025 101412
0.0223867 0.0151 0.025 108668
0.0230015 0.0155147 0.025 116487
0.0236304 0.0159389 0.025 124939
0.0242738 0.0163729 0.025 133954
0.0249318 0.0168167 0.025 143295
0.025605 0.0172708 0.025 152293
0.0262935 0.0177352 0.025 159717
0.0269977 0.0182102 0.025 164574
0.0277178 0.0186959 0.025 166324
0.0284544 0.0191927 0.025 166269
0.0292075 0.0197008 0.025 164127
0.0299777 0.0202203 0.025 162457
0.0307653 0.0207514 0.025 159873
0.0315704 0.0212945 0.025 157249
0.0323937 0.0218499 0.025 154424
0.0332354 0.0224176 0.025 151237
0.0340959 0.022998 0.025 147787
0.0349755 0.0235913 0.025 144244
0.0358747 0.0241978 0.025 140935
0.0367938 0.0248178 0.025 137905
0.0377331 0.0254513 0.025 135337
0.0386932 0.0260989 0.025 133236
0.0396743 0.0267606 0.025 131585
0.0406769 0.0274369 0.025 130188
0.0417013 0.0281279 0.025 129043
0.042748 0.0288339 0.025 128256
0.0438175 0.0295552 0.025 127695
0.04491 0.0302922 0.025 127209
0.0460262 0.031045 0.025 126724
0.0471662 0.031814 0.025 126462
0.0483306 0.0325995 0.025 126877
0.0495199 0.0334016 0.025 127376
0.0507344 0.0342208 0.025 127487
0.0519746 0.0350573 0.025 127130
0.0532409 0.0359114 0.025 126790
0.0545339 0.0367835 0.025 126699
0.0558538 0.0376739 0.025 126969
0.0572012 0.0385827 0.025 127029
0.0585766 0.0395104 0.025 126759
0.0599804 0.0404573 0.025 126354
0.061413 0.0414236 0.025 126696
0.0628748 0.0424096 0.025 127620
0.0643665 0.0434157 0.025 128437
0.0658883 0.0444422 0.025 128506
0.0674408 0.0454894 0.025 128167
0.0690245 0.0465576 0.025 127826
0.0706398 0.0476471 0.025 127711
0.0722871 0.0487582 0.025 128178
0.0739669 0.0498912 0.025 128789
0.0756797 0.0510466 0.025 129096
0.0774258 0.0522244 0.025 129122
0.0792059 0.053425 0.025 129044
0.0810203 0.0546489 0.025 129085
0.0828694 0.0558961 0.025 129156
0.0847537 0.0571671 0.025 129304
0.0866737 0.0584622 0.025 129405
0.0886298 0.0597816 0.025 129492
0.0906224 0.0611256 0.025 129716
0.0926518 0.0624944 0.025 130033
0.0947185 0.0638884 0.025 130381
0.096823 0.065308 0.025 130495
0.0989659 0.0667532 0.025 130537
0.101147 0.0682245 0.025 129915
0.103367 0.0697219 0.025 129362
0.105626 0.0712458 0.025 129047
0.107926 0.0727965 0.025 128508
0.110265 0.074374 0.025 128075
0.112644 0.0759789 0.025 127339
0.115063 0.0776111 0.025 127627
0.117524 0.0792709 0.025 127799
0.120026 0.0809585 0.025 128499
0.122569 0.0826741 0.025 129568
0.125155 0.0844179 0.025 130299
0.127782 0.0861901 0.025 130333
0.130451 0.0879908 0.025 129726
0.133163 0.08982 0.025 129346
0.135918 0.0916781 0.025 128948
0.138716 0.0935651 0.025 129145
0.141556 0.095481 0.025 129576
0.14444 0.097426 0.025 129889
0.147367 0.0994004 0.025 129278
0.150337 0.101404 0.025 129652
0.153351 0.103437 0.025 128750
0.156408 0.105498 0.025 127153
0.159508 0.107589 0.025 127688
0.162651 0.10971 0.025 126634
0.165838 0.111859 0.025 124255
0.169069 0.114039 0.025 127454
0.172343 0.116247 0.025 125503
0.175659 0.118483 0.025 125092
0.179018 0.120749 0.025 124365
0.182421 0.123045 0.025 123290
0.185866 0.125368 0.025 122789
0.189353 0.12772 0.025 122226
0.192882 0.1301 0.025 122051
0.196453 0.132509 0.025 122211
0.200065 0.134946 0.025 121606
0.203718 0.13741 0.025 121637
0.207412 0.139901 0.025 121970
0.211146 0.14242 0.025 121199
0.214919 0.144965 0.025 120471
0.218732 0.147537 0.025 121314
0.222583 0.150134 0.025 121126
0.226472 0.152757 0.025 122562
0.230399 0.155406 0.025 122162
0.234362 0.15808 0.025 122190
0.238362 0.160777 0.025 120956
0.242396 0.163498 0.025 120924
0.246466 0.166244 0.025 120172
0.250569 0.169012 0.025 121160
0.254706 0.171801 0.025 120326
0.258874 0.174613 0.025 120448
0.263074 0.177446 0.025 120046
0.267304 0.180299 0.025 120760
0.271564 0.183172 0.025 121303
0.275852 0.186064 0.025 120790
0.280168 0.188975 0.025 121392
0.28451 0.191904 0.025 121000
0.288876 0.19485 0.025 120328
0.293268 0.197812 0.025 121046
0.297683 0.20079 0.025 119894
0.302119 0.203782 0.025 119383
0.306577 0.206788 0.025 120319
0.311054 0.209808 0.025 119480
0.315549 0.212841 0.025 120224
0.320063 0.215885 0.025 119526
0.324591 0.218939 0.025 121067
0.329134 0.222003 0.025 121573
0.333691 0.225077 0.025 121012
0.33826 0.228159 0.025 121921
0.342839 0.231248 0.025 121520
0.347428 0.234343 0.025 122490
0.352025 0.237444 0.025 121032
0.356628 0.240548 0.025 121326
0.361237 0.243658 0.025 121338
0.36585 0.246769 0.025 119692
0.370465 0.249882 0.025 122070
0.375082 0.252996 0.025 120903
0.379698 0.25611 0.025 120081
0.384313 0.259223 0.025 121342
0.388926 0.262333 0.025 120527
0.393534 0.265442 0.025 120954
0.398136 0.268546 0.025 121258
0.40273 0.271645 0.025 120514
0.407317 0.274739 0.025 120396
0.411894 0.277826 0.025 119903
0.41646 0.280906 0.025 121458
0.421014 0.283977 0.025 120579
0.425554 0.28704 0.025 120322
0.430079 0.290092 0.025 120870
0.434588 0.293133 0.025 120610
0.439079 0.296162 0.025 121416
0.443551 0.299179 0.025 121049
0.448004 0.302183 0.025 120959
0.452437 0.305172 0.025 121081
0.456846 0.308146 0.025 121396
0.461232 0.311105 0.025 121269
0.465593 0.314047 0.025 121443
0.469929 0.316971 0.025 121022
0.474238 0.319878 0.025 122181
0.47852 0.322766 0.025 121841
0.482773 0.325635 0.025 121947
0.486996 0.328483 0.025 121507
0.491189 0.331311 0.025 120740
0.49535 0.334118 0.025 122058
