# y+ ()       
# Time        	patch         	min           	max           	average       
800           	base	3.386453e-02	6.105911e-01	2.450234e-01
