# Wall heat-flux
# Time        	patch         	min           	max           	integral      
2000          	base	-2.555080e+06	-1.960472e+04	-8.134205e+03
