/*--------------------------------*- C++ -*----------------------------------*\
| =========                 |                                                 |
| \\      /  F ield         | OpenFOAM: The Open Source CFD Toolbox           |
|  \\    /   O peration     | Version:  v2012                                 |
|   \\  /    A nd           | Website:  www.openfoam.com                      |
|    \\/     M anipulation  |                                                 |
\*---------------------------------------------------------------------------*/
FoamFile
{
    version     2.0;
    format      ascii;
    class       volScalarField;
    location    "13380";
    object      alphat;
}
// * * * * * * * * * * * * * * * * * * * * * * * * * * * * * * * * * * * * * //

dimensions      [1 -1 -1 0 0 0 0];


internalField   nonuniform List<scalar> 
31383
(
1.56804e-11
1.58633e-11
1.56532e-11
1.47183e-11
2.95671e-11
3.08491e-11
1.39069e-11
2.71826e-11
3.4838e-10
1.45271e-10
1.33131e-11
2.54792e-11
3.1783e-10
2.69961e-09
6.37634e-10
1.28317e-11
2.42367e-11
2.9587e-10
2.46128e-09
1.29749e-08
2.23453e-09
1.24271e-11
2.32332e-11
2.79888e-10
2.28974e-09
1.18299e-08
4.63512e-08
6.5999e-09
1.209e-11
2.23975e-11
2.6701e-10
2.16489e-09
1.10046e-08
4.22813e-08
1.35944e-07
1.72708e-08
1.18067e-11
2.17028e-11
2.56355e-10
2.0643e-09
1.04037e-08
3.93417e-08
1.24158e-07
3.45197e-07
4.14046e-08
1.15575e-11
2.11189e-11
2.47509e-10
1.9811e-09
9.9194e-09
3.71994e-08
1.15615e-07
3.16008e-07
7.80638e-07
9.29263e-08
1.1334e-11
2.06091e-11
2.40076e-10
1.91203e-09
9.51876e-09
3.54716e-08
1.09378e-07
2.94724e-07
7.17367e-07
1.59572e-06
1.97896e-07
1.11269e-11
2.01516e-11
2.33619e-10
1.85399e-09
9.18614e-09
3.40418e-08
1.04342e-07
2.79143e-07
6.70809e-07
1.47439e-06
2.97387e-06
4.02988e-07
1.09367e-11
1.97293e-11
2.27826e-10
1.8036e-09
8.90663e-09
3.28541e-08
1.0017e-07
2.66535e-07
6.36585e-07
1.38396e-06
2.76674e-06
5.09111e-06
7.86776e-07
1.07607e-11
1.93422e-11
2.2249e-10
1.75839e-09
8.66391e-09
3.18557e-08
9.67024e-08
2.5607e-07
6.0879e-07
1.31711e-06
2.60966e-06
4.77282e-06
8.08044e-06
1.47235e-06
1.06025e-11
1.89848e-11
2.17608e-10
1.71676e-09
8.44623e-09
3.09887e-08
9.3785e-08
2.47359e-07
5.85647e-07
1.26254e-06
2.49282e-06
4.5267e-06
7.63357e-06
1.20246e-05
2.63436e-06
1.04608e-11
1.86652e-11
2.13107e-10
1.67869e-09
8.24583e-09
3.02112e-08
9.12502e-08
2.40021e-07
5.66352e-07
1.21688e-06
2.39685e-06
4.34247e-06
7.28049e-06
1.14413e-05
1.68007e-05
4.48849e-06
1.03347e-11
1.83799e-11
2.09098e-10
1.6436e-09
8.06254e-09
2.94953e-08
8.89769e-08
2.3364e-07
5.50057e-07
1.17877e-06
2.31603e-06
4.19006e-06
7.01469e-06
1.09686e-05
1.61607e-05
2.23917e-05
7.28548e-06
1.02217e-11
1.81258e-11
2.05529e-10
1.61235e-09
7.89366e-09
2.88406e-08
8.68828e-08
2.27914e-07
5.35867e-07
1.14647e-06
2.24852e-06
4.06082e-06
6.79316e-06
1.0611e-05
1.56107e-05
2.16308e-05
2.91836e-05
1.12363e-05
1.0122e-11
1.78995e-11
2.02347e-10
1.58454e-09
7.74322e-09
2.82373e-08
8.49678e-08
2.22634e-07
5.23126e-07
1.11827e-06
2.19103e-06
3.95279e-06
6.6041e-06
1.03108e-05
1.5195e-05
2.09464e-05
2.82843e-05
3.73963e-05
1.64232e-05
1.00328e-11
1.76993e-11
1.99526e-10
1.55974e-09
7.60934e-09
2.76999e-08
8.32027e-08
2.17806e-07
5.11344e-07
1.09294e-06
2.14065e-06
3.86029e-06
6.44572e-06
1.00532e-05
1.48096e-05
2.04231e-05
2.74313e-05
3.6347e-05
4.71819e-05
2.2735e-05
9.95339e-12
1.75213e-11
1.97025e-10
1.53777e-09
7.48999e-09
2.72216e-08
8.16302e-08
2.13352e-07
5.00576e-07
1.06943e-06
2.09537e-06
3.77889e-06
6.30971e-06
9.83678e-06
1.44767e-05
1.99815e-05
2.67788e-05
3.52952e-05
4.6007e-05
5.87505e-05
2.9055e-05
9.88257e-12
1.7363e-11
1.94813e-10
1.51829e-09
7.3842e-09
2.67951e-08
8.023e-08
2.09382e-07
4.90633e-07
1.04797e-06
2.0532e-06
3.7058e-06
6.18943e-06
9.6508e-06
1.41963e-05
1.96016e-05
2.62329e-05
3.44957e-05
4.47421e-05
5.74899e-05
7.2312e-05
3.61589e-05
9.81945e-12
1.72219e-11
1.92845e-10
1.50105e-09
7.29044e-09
2.64171e-08
7.89814e-08
2.05845e-07
4.81762e-07
1.02809e-06
2.01471e-06
3.63738e-06
6.08157e-06
9.48566e-06
1.39556e-05
1.92809e-05
2.5766e-05
3.38242e-05
4.37737e-05
5.59787e-05
7.10319e-05
8.80713e-05
4.4191e-05
9.76279e-12
1.70962e-11
1.91094e-10
1.48572e-09
7.20747e-09
2.60821e-08
7.78743e-08
2.0269e-07
4.73848e-07
1.01034e-06
1.97897e-06
3.57485e-06
5.98018e-06
9.33759e-06
1.37413e-05
1.90065e-05
2.53701e-05
3.32485e-05
4.29581e-05
5.48179e-05
6.9246e-05
8.68901e-05
0.00010624
5.32211e-05
9.71166e-12
1.69838e-11
1.89534e-10
1.47208e-09
7.13368e-09
2.57856e-08
7.68927e-08
1.9989e-07
4.66789e-07
9.94461e-07
1.94697e-06
3.51665e-06
5.88728e-06
9.19803e-06
1.35486e-05
1.87597e-05
2.50328e-05
3.27601e-05
4.22577e-05
5.38362e-05
6.78653e-05
8.48011e-05
0.000105318
0.000127044
6.31967e-05
9.66479e-12
1.68822e-11
1.88141e-10
1.45992e-09
7.06801e-09
2.55219e-08
7.60239e-08
1.97408e-07
4.60518e-07
9.80301e-07
1.91827e-06
3.46447e-06
5.80071e-06
9.06982e-06
1.33672e-05
1.85354e-05
2.47288e-05
3.23431e-05
4.16615e-05
5.29921e-05
6.66928e-05
8.31711e-05
0.000102902
0.000126416
0.000150634
7.39974e-05
9.62158e-12
1.67892e-11
1.86883e-10
1.44908e-09
7.00951e-09
2.52871e-08
7.5251e-08
1.95209e-07
4.54952e-07
9.67702e-07
1.89271e-06
3.41753e-06
5.72292e-06
8.95044e-06
1.31999e-05
1.83254e-05
2.44519e-05
3.19704e-05
4.1151e-05
5.22725e-05
6.56829e-05
8.17837e-05
0.000100998
0.000123672
0.000149674
0.000176753
8.54755e-05
9.58187e-12
1.67035e-11
1.8573e-10
1.43928e-09
6.95729e-09
2.50779e-08
7.45627e-08
1.93253e-07
4.50022e-07
9.56515e-07
1.86986e-06
3.37578e-06
5.65279e-06
8.84288e-06
1.30442e-05
1.81323e-05
2.41931e-05
3.16293e-05
4.06987e-05
5.16549e-05
6.48261e-05
8.05861e-05
9.93736e-05
0.000121485
0.000146665
0.000175791
0.000205548
9.73098e-05
9.54551e-12
1.66249e-11
1.84671e-10
1.4303e-09
6.91014e-09
2.48912e-08
7.39495e-08
1.9151e-07
4.45632e-07
9.46595e-07
1.84958e-06
3.33829e-06
5.5904e-06
8.74574e-06
1.29038e-05
1.79519e-05
2.3954e-05
3.13119e-05
4.02852e-05
5.11078e-05
6.40884e-05
7.95708e-05
9.79685e-05
0.000119615
0.000144236
0.000172442
0.000205327
0.000237705
0.000108786
9.5125e-12
1.65531e-11
1.83699e-10
1.42206e-09
6.8669e-09
2.47226e-08
7.3402e-08
1.89957e-07
4.4172e-07
9.37757e-07
1.83158e-06
3.30504e-06
5.53422e-06
8.65917e-06
1.27768e-05
1.77897e-05
2.37326e-05
3.10165e-05
3.98988e-05
5.06111e-05
6.34337e-05
7.86999e-05
9.67733e-05
0.000117994
0.000142155
0.000169688
0.000201647
0.000238648
0.000273464
0.00011873
9.48252e-12
1.64879e-11
1.82813e-10
1.41449e-09
6.82721e-09
2.4568e-08
7.29076e-08
1.88569e-07
4.3823e-07
9.29872e-07
1.81553e-06
3.27541e-06
5.48441e-06
8.58115e-06
1.26635e-05
1.76431e-05
2.35313e-05
3.07437e-05
3.95387e-05
5.01444e-05
6.28393e-05
7.79244e-05
9.57535e-05
0.000116611
0.00014035
0.000167315
0.000198544
0.000234666
0.000276151
0.000313053
0.000126553
9.45571e-12
1.6429e-11
1.82009e-10
1.40759e-09
6.79078e-09
2.44261e-08
7.2454e-08
1.87317e-07
4.35112e-07
9.22833e-07
1.80119e-06
3.24899e-06
5.43988e-06
8.51198e-06
1.25613e-05
1.7512e-05
2.33499e-05
3.04956e-05
3.92046e-05
4.97114e-05
6.22824e-05
7.72174e-05
9.48426e-05
0.000115432
0.000138805
0.000165253
0.00019585
0.000231195
0.000271931
0.000318265
0.000356666
0.000135969
9.43176e-12
1.63763e-11
1.81285e-10
1.40133e-09
6.75754e-09
2.42958e-08
7.20376e-08
1.86167e-07
4.32295e-07
9.16543e-07
1.78838e-06
3.22536e-06
5.40019e-06
8.44999e-06
1.24707e-05
1.73944e-05
2.31876e-05
3.02718e-05
3.89031e-05
4.93089e-05
6.17658e-05
7.65581e-05
9.40099e-05
0.000114378
0.000137484
0.000163485
0.000193503
0.000228151
0.000268078
0.000313913
0.000365442
0.000404446
0.000152291
9.41019e-12
1.63293e-11
1.80637e-10
1.39569e-09
6.72738e-09
2.41769e-08
7.16554e-08
1.85112e-07
4.2971e-07
9.10855e-07
1.77692e-06
3.20424e-06
5.36464e-06
8.39475e-06
1.23894e-05
1.729e-05
2.30419e-05
3.00716e-05
3.86302e-05
4.8946e-05
6.12842e-05
7.59456e-05
9.32342e-05
0.000113413
0.000136303
0.000161973
0.000191488
0.00022549
0.000264655
0.000309677
0.000361132
0.000418151
0.000456444
0.000163372
9.39023e-12
1.6287e-11
1.8006e-10
1.39065e-09
6.70023e-09
2.40691e-08
7.1307e-08
1.84142e-07
4.27336e-07
9.05634e-07
1.76656e-06
3.18534e-06
5.33282e-06
8.34518e-06
1.23169e-05
1.71957e-05
2.29121e-05
2.98916e-05
3.8386e-05
4.86183e-05
6.08508e-05
7.53742e-05
9.25126e-05
0.000112514
0.000135223
0.000160621
0.000189764
0.0002232
0.000261648
0.000305848
0.000356528
0.000414148
0.000476873
0.000512568
0.00016412
9.37171e-12
1.62478e-11
1.79539e-10
1.38616e-09
6.67593e-09
2.39719e-08
7.09907e-08
1.83259e-07
4.25156e-07
9.00838e-07
1.75703e-06
3.16821e-06
5.30432e-06
8.30079e-06
1.22518e-05
1.71121e-05
2.2796e-05
2.97314e-05
3.81664e-05
4.8324e-05
6.04599e-05
7.48607e-05
9.18416e-05
0.000111677
0.000134217
0.000159382
0.00018822
0.000221239
0.000259055
0.000302464
0.000352273
0.000409222
0.000473568
0.000542079
0.00057253
0.000160654
9.35297e-12
1.62115e-11
1.79058e-10
1.3821e-09
6.6543e-09
2.38849e-08
7.07056e-08
1.82456e-07
4.23167e-07
8.96431e-07
1.74828e-06
3.15247e-06
5.27848e-06
8.26101e-06
1.21934e-05
1.70366e-05
2.26923e-05
2.95883e-05
3.7971e-05
4.806e-05
6.01083e-05
7.43978e-05
9.12378e-05
0.000110901
0.000133282
0.00015823
0.000186805
0.000219481
0.000256831
0.000299538
0.000348482
0.000404529
0.000468405
0.000540037
0.000614221
0.000634265
0.000152741
9.33715e-12
1.61745e-11
1.78613e-10
1.37836e-09
6.63477e-09
2.38075e-08
7.04503e-08
1.81734e-07
4.21361e-07
8.92411e-07
1.74024e-06
3.138e-06
5.25472e-06
8.2249e-06
1.2141e-05
1.69697e-05
2.25989e-05
2.946e-05
3.77957e-05
4.78249e-05
5.97932e-05
7.39814e-05
9.06936e-05
0.000110201
0.000132415
0.000157158
0.000185489
0.000217869
0.000254835
0.000297023
0.00034519
0.000400302
0.000463275
0.00053478
0.000614234
0.000693691
0.000695469
0.000140386
9.38637e-12
1.6144e-11
1.78155e-10
1.37489e-09
6.61673e-09
2.37376e-08
7.02231e-08
1.81086e-07
4.19733e-07
8.88757e-07
1.7329e-06
3.12469e-06
5.23282e-06
8.19164e-06
1.20935e-05
1.6909e-05
2.25154e-05
2.93447e-05
3.76389e-05
4.76134e-05
5.95125e-05
7.36075e-05
9.02038e-05
0.00010957
0.000131633
0.000156166
0.000184264
0.000216369
0.000253003
0.000294763
0.000342355
0.000396613
0.000458589
0.000529238
0.000609107
0.00069686
0.000780793
0.000756203
0.000123909
1.53872e-11
1.6149e-11
1.77784e-10
1.37132e-09
6.60005e-09
2.3673e-08
7.00178e-08
1.80509e-07
4.18274e-07
8.85462e-07
1.72622e-06
3.11254e-06
5.21268e-06
8.16098e-06
1.20497e-05
1.68543e-05
2.24406e-05
2.92412e-05
3.74982e-05
4.74245e-05
5.92599e-05
7.32751e-05
8.97637e-05
0.000109001
0.000130927
0.00015527
0.00018313
0.000214973
0.000251298
0.000292686
0.000339804
0.000393428
0.000454474
0.000524079
0.000603211
0.000692201
0.000788625
0.000875696
0.000815613
0.000104051
9.9301e-12
6.83198e-11
1.77004e-10
1.36844e-09
6.58289e-09
2.36133e-08
6.98279e-08
1.79988e-07
4.16974e-07
8.82511e-07
1.72018e-06
3.10149e-06
5.19432e-06
8.13281e-06
1.20094e-05
1.68035e-05
2.23726e-05
2.91488e-05
3.73718e-05
4.72552e-05
5.90341e-05
7.29758e-05
8.9373e-05
0.000108491
0.000130291
0.000154462
0.000182107
0.000213681
0.00024971
0.000290753
0.000337455
0.000390557
0.00045091
0.000519513
0.000597582
0.000686059
0.000784925
0.00089022
0.00097837
0.00087223
8.21348e-05
1.00942e-11
2.0503e-11
1.0382e-09
1.36189e-09
6.569e-09
2.35519e-08
6.96525e-08
1.79505e-07
4.15799e-07
8.79879e-07
1.71477e-06
3.09147e-06
5.17759e-06
8.10712e-06
1.19723e-05
1.67569e-05
2.23095e-05
2.90643e-05
3.72585e-05
4.71032e-05
5.88318e-05
7.27079e-05
8.90213e-05
0.000108037
0.000129721
0.000153735
0.000181185
0.000212516
0.000248241
0.000288951
0.000335267
0.000387908
0.00044769
0.000515542
0.000592546
0.000679981
0.000778708
0.000888179
0.00100229
0.00108851
0.000924149
6.00409e-05
1.20098e-11
2.21282e-11
2.53797e-10
7.81069e-09
6.53708e-09
2.35022e-08
6.9472e-08
1.7906e-07
4.14713e-07
8.77499e-07
1.70996e-06
3.08249e-06
5.16245e-06
8.0837e-06
1.19384e-05
1.67141e-05
2.22518e-05
2.89868e-05
3.71552e-05
4.6966e-05
5.86505e-05
7.24676e-05
8.87056e-05
0.000107629
0.000129212
0.000153082
0.000180355
0.000211466
0.000246917
0.000287284
0.000333228
0.000385438
0.000444711
0.00051194
0.000588141
0.000674467
0.000772241
0.000882156
0.00100289
0.00112537
0.00120546
0.000969337
4.00225e-05
1.08974e-11
3.58509e-11
2.88319e-10
1.9856e-09
3.63548e-08
2.33867e-08
6.93261e-08
1.78601e-07
4.13707e-07
8.75296e-07
1.7056e-06
3.07449e-06
5.1489e-06
8.06248e-06
1.19075e-05
1.66751e-05
2.21985e-05
2.89152e-05
3.70606e-05
4.68415e-05
5.84862e-05
7.22528e-05
8.84227e-05
0.000107262
0.000128754
0.000152499
0.000179609
0.00021052
0.000245725
0.000285783
0.000331339
0.000383132
0.000441928
0.000508601
0.00058413
0.000669612
0.000766261
0.000875407
0.00099746
0.00112997
0.00125985
0.00132808
0.0010059
2.41526e-05
9.62497e-12
2.89823e-11
5.51845e-10
2.28615e-09
9.51319e-09
1.26838e-07
6.89815e-08
1.78231e-07
4.12667e-07
8.73258e-07
1.70157e-06
3.06725e-06
5.1368e-06
8.04355e-06
1.18796e-05
1.66393e-05
2.215e-05
2.88493e-05
3.69729e-05
4.67271e-05
5.83373e-05
7.20582e-05
8.81695e-05
0.000106933
0.000128343
0.000151975
0.000178944
0.000209671
0.000244649
0.000284431
0.000329641
0.000380998
0.000439328
0.000505474
0.000580398
0.000665168
0.000760949
0.000868999
0.000990602
0.00112571
0.00127031
0.0014059
0.00145462
0.00103245
1.34875e-05
9.40738e-12
2.07552e-11
4.15332e-10
4.40701e-09
1.1116e-08
3.37153e-08
3.66079e-07
1.77334e-07
4.11827e-07
8.71137e-07
1.69783e-06
3.06055e-06
5.12583e-06
8.02664e-06
1.18546e-05
1.66071e-05
2.21057e-05
2.87893e-05
3.68923e-05
4.66213e-05
5.82002e-05
7.18815e-05
8.79405e-05
0.000106638
0.000127973
0.000151505
0.000178345
0.000208914
0.000243685
0.000283211
0.000328111
0.00037908
0.000436921
0.000502549
0.000576895
0.000661012
0.000756052
0.000863237
0.000983844
0.00111902
0.00126805
0.00142469
0.00156332
0.0015826
0.00104876
7.51044e-06
9.20869e-12
1.97315e-11
2.58369e-10
3.25363e-09
2.14051e-08
3.99668e-08
9.86782e-08
9.20925e-07
4.09736e-07
8.69429e-07
1.69396e-06
3.05435e-06
5.11567e-06
8.01121e-06
1.18324e-05
1.65785e-05
2.20658e-05
2.87347e-05
3.68186e-05
4.6524e-05
5.80736e-05
7.17191e-05
8.77323e-05
0.000106371
0.000127642
0.000151081
0.000177808
0.000208232
0.000242824
0.000282118
0.00032673
0.000377353
0.000434759
0.000499841
0.000573615
0.000657102
0.000751447
0.000857878
0.000977666
0.00111205
0.00126191
0.00142556
0.00159375
0.00173147
0.00169728
0.00105744
4.65674e-06
9.17161e-12
1.60457e-11
2.38468e-10
1.98148e-09
1.55963e-08
7.69854e-08
1.17473e-07
2.51622e-07
2.07022e-06
8.65009e-07
1.69086e-06
3.04794e-06
5.10627e-06
7.99692e-06
1.1812e-05
1.65529e-05
2.203e-05
2.86852e-05
3.6752e-05
4.64351e-05
5.79571e-05
7.15685e-05
8.75414e-05
0.000106128
0.000127342
0.000150702
0.000177324
0.00020762
0.000242049
0.000281141
0.000325492
0.000375792
0.000432812
0.000497408
0.000570575
0.000653432
0.000747099
0.000852804
0.000971851
0.00110552
0.00125494
0.00142057
0.00159933
0.00177786
0.00190908
0.00179047
0.00106659
3.47679e-06
9.15821e-12
1.57898e-11
1.75052e-10
1.80967e-09
9.3871e-09
5.55285e-08
2.27271e-07
2.97432e-07
5.75023e-07
4.18974e-06
1.68236e-06
3.04282e-06
5.09651e-06
7.98373e-06
1.17932e-05
1.65296e-05
2.19982e-05
2.86408e-05
3.66913e-05
4.63545e-05
5.78509e-05
7.14302e-05
8.73636e-05
0.000105906
0.00012707
0.000150358
0.00017689
0.000207068
0.000241354
0.000280262
0.000324388
0.000374395
0.000431053
0.000495218
0.000567844
0.000650028
0.000743005
0.000847991
0.000966297
0.00109928
0.00124818
0.00141392
0.00159631
0.0017903
0.00197704
0.00209414
0.00186656
0.00108526
3.07707e-06
9.14868e-12
1.57525e-11
1.71843e-10
1.33769e-09
8.50451e-09
3.30691e-08
1.62689e-07
5.81597e-07
6.68079e-07
1.19533e-06
7.63439e-06
3.02799e-06
5.08874e-06
7.96999e-06
1.17757e-05
1.6508e-05
2.19693e-05
2.86015e-05
3.66371e-05
4.62813e-05
5.77544e-05
7.1304e-05
8.72007e-05
0.000105698
0.000126819
0.000150047
0.000176498
0.000206574
0.000240726
0.000279474
0.000323393
0.000373148
0.000429479
0.00049324
0.000565386
0.000646972
0.000739204
0.000843443
0.000960997
0.00109325
0.00124158
0.00140713
0.00159045
0.00179039
0.00199919
0.00219079
0.0022836
0.00192755
0.00106832
2.97231e-06
9.13419e-12
1.57294e-11
1.7098e-10
1.31242e-09
6.38915e-09
2.97343e-08
9.57353e-08
4.14256e-07
1.32547e-06
1.35878e-06
2.27823e-06
1.25618e-05
5.06518e-06
7.95914e-06
1.17575e-05
1.6488e-05
2.19425e-05
2.85657e-05
3.6589e-05
4.6216e-05
5.76668e-05
7.11895e-05
8.70518e-05
0.000105509
0.000126587
0.000149759
0.000176141
0.000206127
0.000240164
0.000278762
0.0003225
0.000372025
0.000428073
0.00049147
0.000563166
0.00064422
0.000735792
0.000839213
0.00095597
0.00108746
0.00123511
0.00140028
0.00158391
0.00178599
0.00200399
0.00222644
0.00241789
0.00247321
0.00197227
0.000961086
2.96071e-06
9.12024e-12
1.56963e-11
1.70506e-10
1.30344e-09
6.26316e-09
2.27749e-08
8.54319e-08
2.40225e-07
9.42283e-07
2.71479e-06
2.53536e-06
4.00338e-06
1.89019e-05
7.92487e-06
1.17432e-05
1.64668e-05
2.19177e-05
2.85322e-05
3.65451e-05
4.61581e-05
5.75889e-05
7.10856e-05
8.69171e-05
0.000105335
0.000126373
0.000149492
0.000175812
0.00020572
0.000239656
0.000278124
0.000321695
0.000371017
0.000426808
0.00048989
0.00056118
0.000641734
0.00073272
0.000835415
0.000951281
0.00108193
0.00122882
0.00139342
0.00157699
0.00178012
0.00200199
0.00223808
0.002472
0.0026562
0.00265013
0.00199654
0.00081973
2.97174e-06
9.11043e-12
1.56647e-11
1.69912e-10
1.29864e-09
6.21155e-09
2.23075e-08
6.70038e-08
2.1328e-07
5.388e-07
1.93473e-06
4.9989e-06
4.36825e-06
6.52881e-06
2.6475e-05
1.1697e-05
1.64505e-05
2.18912e-05
2.85015e-05
3.6504e-05
4.61049e-05
5.75196e-05
7.09933e-05
8.67947e-05
0.000105178
0.000126178
0.000149247
0.000175507
0.000205344
0.000239192
0.000277547
0.000320973
0.000370106
0.000425671
0.000488466
0.000559405
0.000639509
0.000729944
0.000831997
0.000947069
0.00107675
0.00122278
0.00138667
0.00156986
0.00177341
0.0019974
0.0022398
0.00249335
0.00273516
0.00290239
0.00278063
0.00199546
0.000651739
2.9858e-06
9.10217e-12
1.56427e-11
1.69333e-10
1.29295e-09
6.18434e-09
2.20996e-08
6.55868e-08
1.71967e-07
4.79113e-07
1.10158e-06
3.59153e-06
8.2985e-06
6.99924e-06
9.97061e-06
3.51074e-05
1.63981e-05
2.1871e-05
2.84687e-05
3.64663e-05
4.60554e-05
5.74558e-05
7.09112e-05
8.6686e-05
0.000105035
0.000126001
0.000149024
0.000175227
0.000204996
0.000238764
0.000277021
0.000320319
0.000369289
0.000424645
0.000487187
0.000557808
0.000637522
0.00072746
0.000828905
0.000943278
0.0010721
0.0012171
0.00138012
0.0015627
0.00176618
0.00199129
0.00223733
0.00250057
0.00277004
0.00301432
0.00315163
0.0028729
0.0019679
0.000469191
2.99997e-06
9.09411e-12
1.56248e-11
1.68934e-10
1.28733e-09
6.15304e-09
2.1991e-08
6.49227e-08
1.6827e-07
3.97053e-07
9.86577e-07
2.07708e-06
6.0454e-06
1.25713e-05
1.05265e-05
1.44093e-05
4.46773e-05
2.18067e-05
2.84436e-05
3.64262e-05
4.60096e-05
5.73966e-05
7.08354e-05
8.65895e-05
0.000104908
0.00012584
0.000148821
0.000174971
0.000204676
0.000238368
0.000276535
0.000319723
0.000368552
0.000423723
0.000486033
0.000556373
0.000635734
0.000725239
0.000826139
0.000939847
0.00106791
0.001212
0.00137394
0.00155569
0.00175873
0.00198422
0.00223238
0.00250139
0.00278514
0.0030677
0.00330667
0.00339742
0.00293237
0.00192261
0.000293755
3.01263e-06
9.08682e-12
1.56076e-11
1.68636e-10
1.28347e-09
6.12198e-09
2.18682e-08
6.4578e-08
1.66475e-07
3.88527e-07
8.38435e-07
1.87704e-06
3.63184e-06
9.33124e-06
1.76989e-05
1.5015e-05
1.97515e-05
5.51141e-05
2.83642e-05
3.63951e-05
4.5961e-05
5.73416e-05
7.07652e-05
8.65001e-05
0.000104795
0.000125696
0.000148637
0.00017474
0.000204385
0.000238005
0.000276085
0.000319174
0.000367878
0.000422891
0.000484996
0.000555077
0.000634128
0.000723243
0.000823666
0.000936777
0.00106412
0.00120739
0.00136837
0.00154901
0.00175132
0.00197667
0.00222588
0.00249841
0.00279085
0.00309388
0.00338498
0.00360793
0.00362498
0.00296049
0.00187965
0.000152639
3.02287e-06
9.08096e-12
1.5592e-11
1.68362e-10
1.2807e-09
6.1006e-09
2.17459e-08
6.4194e-08
1.65551e-07
3.84278e-07
8.20793e-07
1.63255e-06
3.31379e-06
5.91966e-06
1.34419e-05
2.36072e-05
2.02367e-05
2.60627e-05
6.63858e-05
3.63009e-05
4.59232e-05
5.72833e-05
7.06997e-05
8.64176e-05
0.000104691
0.000125568
0.000148472
0.000174529
0.00020412
0.000237672
0.000275671
0.000318662
0.000367255
0.000422131
0.000484058
0.000553913
0.000632676
0.000721448
0.000821444
0.000934031
0.00106073
0.00120322
0.00136334
0.00154297
0.00174418
0.00196897
0.00221848
0.00249302
0.00279094
0.00310663
0.00342649
0.00371938
0.003912
0.00378131
0.00295435
0.00183958
6.41756e-05
3.02959e-06
9.07685e-12
1.55797e-11
1.68119e-10
1.2782e-09
6.08563e-09
2.16617e-08
6.3808e-08
1.64524e-07
3.82108e-07
8.11845e-07
1.59962e-06
2.94402e-06
5.45268e-06
9.05926e-06
1.84035e-05
3.03049e-05
2.64551e-05
3.37302e-05
7.84908e-05
4.58167e-05
5.72377e-05
7.06304e-05
8.63402e-05
0.000104595
0.00012545
0.000148325
0.00017434
0.00020388
0.000237371
0.000275294
0.000318192
0.000366676
0.000421427
0.000483203
0.000552859
0.000631371
0.000719826
0.000819445
0.000931565
0.00105769
0.00119948
0.00135877
0.00153751
0.00173771
0.00196145
0.00221068
0.00248618
0.00278746
0.00311133
0.00344918
0.00378172
0.00406683
0.00421055
0.00387526
0.00290575
0.00163824
2.33019e-05
3.03305e-06
9.06881e-12
1.55705e-11
1.67937e-10
1.27603e-09
6.07232e-09
2.16038e-08
6.35439e-08
1.63498e-07
3.79705e-07
8.07301e-07
1.58271e-06
2.88834e-06
4.93672e-06
8.41642e-06
1.31352e-05
2.42954e-05
3.78744e-05
3.39891e-05
4.30264e-05
9.14552e-05
5.71162e-05
7.0576e-05
8.62585e-05
0.000104504
0.00012534
0.00014819
0.000174172
0.000203665
0.000237098
0.000274953
0.000317766
0.000366145
0.000420773
0.000482409
0.000551898
0.00063019
0.000718368
0.000817637
0.000929346
0.00105496
0.00119614
0.00135467
0.00153254
0.00173183
0.00195459
0.00220292
0.00247858
0.00278177
0.00311087
0.00346055
0.00381819
0.00415706
0.00442123
0.00449267
0.00391167
0.00280806
0.00131666
8.75133e-06
3.03374e-06
8.87583e-12
1.55548e-11
1.67803e-10
1.27445e-09
6.06087e-09
2.15527e-08
6.33648e-08
1.6279e-07
3.77292e-07
8.02289e-07
1.57418e-06
2.85951e-06
4.85078e-06
7.744e-06
1.22907e-05
1.8214e-05
3.12094e-05
4.51717e-05
4.2998e-05
5.41767e-05
0.00010534
7.04316e-05
8.61942e-05
0.000104409
0.000125237
0.000148064
0.000174018
0.000203474
0.000236854
0.000274642
0.000317379
0.000365663
0.000420172
0.000481672
0.000551005
0.000629112
0.000717049
0.000816012
0.000927338
0.00105251
0.00119313
0.00135101
0.00152809
0.00172647
0.00194836
0.00219579
0.0024708
0.00277481
0.00310714
0.00346461
0.00383897
0.00421228
0.00454828
0.00477407
0.00468929
0.00389101
0.00267803
0.000945428
4.39023e-06
3.03327e-06
5.49271e-12
1.53363e-11
1.67607e-10
1.27332e-09
6.05265e-09
2.15092e-08
6.32068e-08
1.62315e-07
3.75635e-07
7.97237e-07
1.56477e-06
2.84505e-06
4.80607e-06
7.62143e-06
1.14588e-05
1.70876e-05
2.40657e-05
3.87841e-05
5.40296e-05
5.37378e-05
6.74267e-05
0.000120254
8.60158e-05
0.000104333
0.000125128
0.000147946
0.000173874
0.000203297
0.000236637
0.000274365
0.000317026
0.000365225
0.000419629
0.000480995
0.000550176
0.000628111
0.000715843
0.000814541
0.000925532
0.00105029
0.00119043
0.00134772
0.0015241
0.00172167
0.00194264
0.00218928
0.00246357
0.00276733
0.00310143
0.00346397
0.00384958
0.00424611
0.00462868
0.00494901
0.00511395
0.00479672
0.00381238
0.00256915
0.000576933
3.22213e-06
3.03163e-06
1.08454e-13
1.09048e-11
1.66405e-10
1.27177e-09
6.04702e-09
2.14783e-08
6.30729e-08
1.619e-07
3.7453e-07
7.93772e-07
1.55526e-06
2.82912e-06
4.78383e-06
7.55746e-06
1.12941e-05
1.61302e-05
2.26278e-05
3.11071e-05
4.73144e-05
6.49481e-05
6.64328e-05
8.29594e-05
0.000135954
0.000104108
0.000125045
0.00014782
0.000173739
0.000203133
0.000236437
0.000274119
0.000316714
0.000364827
0.000419134
0.000480382
0.000549414
0.000627179
0.00071472
0.000813196
0.000923896
0.00104829
0.00118798
0.00134475
0.00152051
0.00171736
0.00193751
0.00218328
0.00245691
0.00276026
0.00309474
0.00346039
0.00385357
0.00426599
0.0046803
0.00506276
0.00535021
0.00541623
0.00482206
0.00367777
0.00246932
0.000282564
2.93721e-06
3.02914e-06
1.19105e-12
2.3147e-12
1.3271e-10
1.26329e-09
6.03947e-09
2.14575e-08
6.29791e-08
1.61549e-07
3.73573e-07
7.9148e-07
1.54874e-06
2.81291e-06
4.75916e-06
7.52583e-06
1.12084e-05
1.59279e-05
2.14764e-05
2.93455e-05
3.93268e-05
5.77659e-05
7.79558e-05
8.13465e-05
0.000100463
0.000151622
0.000124764
0.000147724
0.000173595
0.000202979
0.000236249
0.000273893
0.000316435
0.000364475
0.000418685
0.000479825
0.000548724
0.000626323
0.000713678
0.000811943
0.0009224
0.00104647
0.00118577
0.00134206
0.00151728
0.00171348
0.00193291
0.00217788
0.00245074
0.00275367
0.0030882
0.00345514
0.0038533
0.00427666
0.00471301
0.00513827
0.00550747
0.00573958
0.00560038
0.00476461
0.00349512
0.00200042
0.000106584
2.87312e-06
3.02741e-06
1.62772e-12
7.9673e-11
4.65644e-11
1.01533e-09
5.99946e-09
2.14306e-08
6.29175e-08
1.61305e-07
3.72761e-07
7.89499e-07
1.54447e-06
2.80182e-06
4.73419e-06
7.4908e-06
1.11664e-05
1.58247e-05
2.1221e-05
2.79612e-05
3.73806e-05
4.92408e-05
7.03424e-05
9.31116e-05
9.87064e-05
0.000120053
0.000170475
0.000147394
0.000173485
0.000202815
0.000236073
0.00027368
0.000316179
0.000364159
0.000418289
0.00047932
0.000548098
0.000625549
0.000712719
0.000810777
0.000921005
0.00104481
0.00118377
0.00133964
0.00151435
0.00171
0.00192877
0.00217304
0.00244517
0.00274749
0.00308198
0.00344967
0.00385041
0.00428129
0.00473312
0.00518847
0.00561463
0.00595277
0.00610089
0.00567544
0.00462282
0.00329987
0.00144032
3.35891e-05
2.85997e-06
3.02643e-06
1.98766e-12
6.10124e-11
1.90191e-09
3.63901e-10
4.82394e-09
2.12895e-08
6.28385e-08
1.61148e-07
3.72197e-07
7.8782e-07
1.54076e-06
2.79465e-06
4.71698e-06
7.45524e-06
1.11199e-05
1.57716e-05
2.10918e-05
2.76397e-05
3.58199e-05
4.69497e-05
6.11127e-05
8.51697e-05
0.000110573
0.00011855
0.000142388
0.000193542
0.000173094
0.000202688
0.000235887
0.00027348
0.000315938
0.000363869
0.000417933
0.000478874
0.000547532
0.000624847
0.000711851
0.000809704
0.000919706
0.00104326
0.00118193
0.00133744
0.00151171
0.00170683
0.00192505
0.00216867
0.00244017
0.00274189
0.00307606
0.00344425
0.00384676
0.00428204
0.00474482
0.00522163
0.00568831
0.00610129
0.00638479
0.00635011
0.00564298
0.00440363
0.00313083
0.000867867
1.06983e-05
2.85718e-06
3.02574e-06
2.27251e-12
6.54612e-11
1.24523e-09
1.6429e-08
1.72671e-09
1.71279e-08
6.24333e-08
1.60948e-07
3.71842e-07
7.86657e-07
1.53765e-06
2.78839e-06
4.70602e-06
7.43078e-06
1.10723e-05
1.57124e-05
2.10281e-05
2.74771e-05
3.54165e-05
4.52418e-05
5.83698e-05
7.51649e-05
0.000102405
0.000130546
0.000140337
0.00016778
0.000221029
0.000202226
0.000235742
0.000273268
0.000315712
0.000363598
0.000417607
0.000478475
0.000547031
0.000624213
0.000711065
0.000808734
0.000918508
0.00104182
0.00118022
0.00133543
0.00150931
0.00170397
0.00192166
0.00216475
0.00243565
0.00273685
0.00307064
0.00343895
0.00384275
0.00428125
0.00475092
0.00524327
0.00573924
0.00620608
0.00658662
0.0067853
0.00646474
0.00549947
0.00412976
0.00269944
0.000406385
4.59586e-06
2.85682e-06
3.02509e-06
2.54476e-12
7.42899e-11
1.32922e-09
1.00438e-08
8.06716e-08
6.13139e-09
5.03336e-08
1.59953e-07
3.71396e-07
7.85937e-07
1.53552e-06
2.78315e-06
4.69647e-06
7.41537e-06
1.10399e-05
1.56522e-05
2.0961e-05
2.74014e-05
3.5218e-05
4.47488e-05
5.6449e-05
7.18727e-05
9.1621e-05
0.00012208
0.000153163
0.000165022
0.000196577
0.000252911
0.000235194
0.000273103
0.000315472
0.000363344
0.000417302
0.000478109
0.000546583
0.000623652
0.000710356
0.000807857
0.000917427
0.00104049
0.00117862
0.00133354
0.00150711
0.00170138
0.00191859
0.00216116
0.00243158
0.00273228
0.00306574
0.00343402
0.00383858
0.00427951
0.00475437
0.005257
0.00577457
0.00628085
0.00673206
0.00705471
0.00707194
0.00644848
0.00524864
0.0038658
0.00197313
0.000141912
3.13222e-06
2.85712e-06
3.02444e-06
2.76521e-12
9.1876e-11
1.50942e-09
1.05122e-08
5.17787e-08
2.84086e-07
1.81176e-08
1.29557e-07
3.69263e-07
7.8504e-07
1.53419e-06
2.77958e-06
4.68842e-06
7.40189e-06
1.10196e-05
1.5611e-05
2.08921e-05
2.73199e-05
3.51265e-05
4.45085e-05
5.58486e-05
6.96815e-05
8.77093e-05
0.000110533
0.000143637
0.000178062
0.000193022
0.000229167
0.000288886
0.000272454
0.000315283
0.000363072
0.000417015
0.000477766
0.000546174
0.000623151
0.00070973
0.000807068
0.00091645
0.00103928
0.00117715
0.00133178
0.00150505
0.00169899
0.00191581
0.00215792
0.00242785
0.00272816
0.00306129
0.00342954
0.00383459
0.00427717
0.00475605
0.00526657
0.00579896
0.00633475
0.00683835
0.00725252
0.00748471
0.00720539
0.00629685
0.00491732
0.00363958
0.00120599
4.01024e-05
2.81143e-06
2.85766e-06
3.02387e-06
3.00472e-12
1.10654e-10
1.87197e-09
1.1941e-08
5.28806e-08
1.97759e-07
8.05924e-07
4.72175e-08
3.01614e-07
7.81041e-07
1.53255e-06
2.77739e-06
4.68296e-06
7.39048e-06
1.10017e-05
1.55852e-05
2.08442e-05
2.72379e-05
3.50258e-05
4.44019e-05
5.55653e-05
6.89523e-05
8.52009e-05
0.000106062
0.0001313
0.000167888
0.000205736
0.000224729
0.000265977
0.00032865
0.000314514
0.000362857
0.000416707
0.000477443
0.00054579
0.000622694
0.000709171
0.000806369
0.000915571
0.0010382
0.00117581
0.00133015
0.00150312
0.00169676
0.00191326
0.00215498
0.00242448
0.00272438
0.00305725
0.00342542
0.00383089
0.00427471
0.00475653
0.00527324
0.00581715
0.00637377
0.0069171
0.00739992
0.00774889
0.00777799
0.00718668
0.00600957
0.00456352
0.00295696
0.000564904
1.13149e-05
2.74663e-06
2.85824e-06
3.02339e-06
3.25804e-12
1.25275e-10
2.27157e-09
1.4875e-08
5.98564e-08
2.01432e-07
6.12062e-07
1.95699e-06
1.12595e-07
6.46414e-07
1.52601e-06
2.77467e-06
4.67967e-06
7.38284e-06
1.09865e-05
1.55626e-05
2.08167e-05
2.71803e-05
3.49255e-05
4.42851e-05
5.54328e-05
6.86156e-05
8.43214e-05
0.000103252
0.000126687
0.000154856
0.000195336
0.000236926
0.000260582
0.000307479
0.000373411
0.000361949
0.000416465
0.000477097
0.000545428
0.000622264
0.000708662
0.000805748
0.000914795
0.00103722
0.00117461
0.00132868
0.00150134
0.00169466
0.00191085
0.00215227
0.00242141
0.00272095
0.00305354
0.00342168
0.00382745
0.00427231
0.00475643
0.00527784
0.00583088
0.00640383
0.00697584
0.00751143
0.00794912
0.0081957
0.00790293
0.00700784
0.00561203
0.0042381
0.00202636
0.000190186
4.45772e-06
2.73462e-06
2.85883e-06
3.0228e-06