/*--------------------------------*- C++ -*----------------------------------*\
| =========                 |                                                 |
| \\      /  F ield         | OpenFOAM: The Open Source CFD Toolbox           |
|  \\    /   O peration     | Version:  v2012                                 |
|   \\  /    A nd           | Website:  www.openfoam.com                      |
|    \\/     M anipulation  |                                                 |
\*---------------------------------------------------------------------------*/
FoamFile
{
    version     2.0;
    format      ascii;
    class       volScalarField;
    location    "13380";
    object      betann;
}
// * * * * * * * * * * * * * * * * * * * * * * * * * * * * * * * * * * * * * //

dimensions      [0 0 0 0 0 0 0];


internalField   nonuniform List<scalar> 
31383
(
0.982849
0.982486
1.00653
0.98253
1.00625
1.00674
0.982563
1.00627
1.00581
1.00665
0.982588
1.00628
1.00584
1.00485
1.00649
0.982609
1.00629
1.00587
1.00492
1.0036
1.00628
0.982627
1.00629
1.00589
1.00497
1.0037
1.00207
1.00602
0.982642
1.0063
1.00591
1.00501
1.00379
1.00222
1.00025
1.0057
0.982655
1.0063
1.00592
1.00504
1.00385
1.00234
1.00046
0.997359
1.00531
0.982667
1.00631
1.00594
1.00507
1.0039
1.00244
1.00063
0.997798
0.992382
1.00484
0.982677
1.00631
1.00595
1.00509
1.00395
1.00251
1.00076
0.998151
0.993192
0.9859
1.00427
0.982687
1.00632
1.00596
1.00511
1.00398
1.00258
1.00086
0.998422
0.993846
0.986832
0.979339
1.00359
0.982695
1.00632
1.00596
1.00513
1.00402
1.00263
1.00095
0.998648
0.99435
0.987598
0.980345
0.973148
1.00279
0.982703
1.00632
1.00597
1.00514
1.00404
1.00268
1.00103
0.998838
0.994772
0.988191
0.981189
0.974165
0.968084
1.00186
0.98271
1.00633
1.00598
1.00516
1.00407
1.00272
1.0011
0.999002
0.995124
0.988687
0.981843
0.975039
0.968705
0.96579
1.00081
0.982717
1.00633
1.00599
1.00517
1.00409
1.00276
1.00116
0.999145
0.995328
0.989108
0.982396
0.975718
0.969561
0.965915
0.967733
0.99969
0.982722
1.00633
1.00599
1.00518
1.00412
1.0028
1.00121
0.999269
0.995506
0.989468
0.982869
0.976294
0.970226
0.966312
0.967072
0.968785
0.998516
0.982728
1.00633
1.006
1.0052
1.00414
1.00283
1.00126
0.999382
0.995661
0.989784
0.983266
0.976793
0.970796
0.966624
0.966548
0.968808
0.967937
0.997309
0.982733
1.00634
1.006
1.00521
1.00415
1.00286
1.0013
0.999461
0.995802
0.99006
0.983621
0.977208
0.971292
0.966898
0.966142
0.968276
0.968227
0.96748
0.9961
0.982737
1.00634
1.00601
1.00521
1.00417
1.00289
1.00134
0.99952
0.995932
0.99031
0.983931
0.977581
0.971703
0.96714
0.965803
0.967864
0.968561
0.967725
0.967323
0.99459
0.982741
1.00634
1.00601
1.00522
1.00419
1.00291
1.00138
0.999574
0.996051
0.990545
0.984211
0.977911
0.972074
0.967336
0.965513
0.967519
0.968823
0.968032
0.96753
0.967384
0.992988
0.982744
1.00634
1.00601
1.00523
1.0042
1.00293
1.00141
0.999623
0.996162
0.990753
0.984476
0.978204
0.972405
0.967518
0.965264
0.967226
0.969046
0.968272
0.967816
0.96756
0.967603
0.991067
0.982747
1.00634
1.00602
1.00524
1.00421
1.00295
1.00144
0.999667
0.996261
0.99095
0.984707
0.978483
0.972693
0.967723
0.965419
0.966973
0.96876
0.968475
0.968039
0.967831
0.96775
0.967928
0.989397
0.98275
1.00634
1.00602
1.00524
1.00422
1.00297
1.00147
0.999706
0.99635
0.991126
0.984928
0.978727
0.972971
0.967995
0.965561
0.966753
0.968505
0.968656
0.968228
0.968043
0.968012
0.968049
0.968324
0.987987
0.982753
1.00634
1.00602
1.00525
1.00423
1.00299
1.0015
0.999742
0.996432
0.991285
0.985125
0.978959
0.973214
0.968259
0.96568
0.966559
0.968283
0.968803
0.968394
0.968221
0.968215
0.968305
0.968418
0.968764
0.986835
0.982755
1.00634
1.00602
1.00525
1.00424
1.003
1.00152
0.999774
0.996504
0.99143
0.985306
0.979167
0.973442
0.968488
0.9658
0.966388
0.968088
0.968936
0.96853
0.968377
0.968386
0.968502
0.968669
0.968825
0.969228
0.985937
0.982758
1.00635
1.00603
1.00526
1.00425
1.00301
1.00154
0.999803
0.99657
0.991559
0.985467
0.979359
0.973649
0.968703
0.965901
0.966232
0.967915
0.969058
0.968652
0.968505
0.968535
0.968669
0.968864
0.969074
0.969252
0.969703
0.985278
0.98276
1.00635
1.00603
1.00526
1.00426
1.00302
1.00155
0.999829
0.996629
0.991676
0.985613
0.979528
0.97384
0.968898
0.965997
0.966093
0.96776
0.96916
0.968764
0.968619
0.968657
0.968813
0.969028
0.969268
0.969499
0.969684
0.970181
0.984843
0.982762
1.00635
1.00603
1.00527
1.00426
1.00303
1.00157
0.999852
0.996682
0.991781
0.985745
0.979684
0.974007
0.969078
0.966083
0.965966
0.96762
0.969119
0.968859
0.968724
0.968766
0.968932
0.969169
0.969431
0.969693
0.969931
0.970117
0.970658
0.984618
0.982763
1.00635
1.00603
1.00527
1.00427
1.00304
1.00159
0.999874
0.996729
0.991876
0.985864
0.979824
0.974163
0.969236
0.966166
0.965851
0.967493
0.968979
0.968946
0.968812
0.968866
0.969038
0.969287
0.969571
0.969856
0.970125
0.970362
0.970546
0.971135
0.984608
0.982765
1.00635
1.00603
1.00527
1.00427
1.00305
1.0016
0.999893
0.996773
0.991961
0.985971
0.97995
0.974303
0.969385
0.966235
0.965746
0.967378
0.968853
0.969019
0.968893
0.96895
0.969134
0.969391
0.969688
0.969996
0.970288
0.970556
0.970789
0.970968
0.971609
0.984872
0.982767
1.00635
1.00604
1.00527
1.00428
1.00306
1.00161
0.99991
0.996811
0.992039
0.986068
0.980064
0.974429
0.969517
0.966303
0.965652
0.967273
0.968738
0.969085
0.96896
0.969026
0.969216
0.969485
0.969791
0.970113
0.970429
0.97072
0.970983
0.971209
0.971384
0.972081
0.985588
0.982768
1.00635
1.00604
1.00528
1.00428
1.00307
1.00162
0.999926
0.996847
0.992108
0.986156
0.980167
0.974543
0.969638
0.966362
0.965565
0.967178
0.968634
0.969145
0.96902
0.96909
0.969289
0.969565
0.969885
0.970216
0.970546
0.970861
0.971148
0.971403
0.97162
0.971792
0.972553
0.986862
0.982769
1.00635
1.00604
1.00528
1.00429
1.00308
1.00163
0.999941
0.996879
0.992172
0.986235
0.980262
0.974648
0.969746
0.966417
0.965486
0.967091
0.968539
0.969201
0.969075
0.969145
0.96935
0.969636
0.969964
0.970309
0.97065
0.97098
0.97129
0.971568
0.971814
0.972023
0.972193
0.973026
0.988433
0.982771
1.00635
1.00604
1.00528
1.00429
1.00308
1.00164
0.999955
0.996909
0.99223
0.986307
0.980346
0.974743
0.969846
0.966466
0.965414
0.967011
0.968452
0.96925
0.969126
0.969196
0.969403
0.969696
0.970035
0.970389
0.970744
0.971084
0.971409
0.971711
0.971979
0.972215
0.972415
0.972587
0.973501
0.990192
0.982772
1.00635
1.00604
1.00528
1.0043
1.00309
1.00165
0.999967
0.996937
0.992284
0.986374
0.980424
0.974828
0.969938
0.966511
0.965348
0.966939
0.968373
0.969296
0.96917
0.969243
0.969451
0.969747
0.970093
0.970459
0.970823
0.971178
0.971514
0.971831
0.972122
0.972381
0.972606
0.972799
0.972975
0.973978
0.991645
0.982773
1.00635
1.00604
1.00529
1.0043
1.00309
1.00166
0.999979
0.996963
0.992334
0.986435
0.980495
0.974907
0.97002
0.966553
0.965288
0.966872
0.968301
0.969337
0.969212
0.969284
0.969496
0.969794
0.970144
0.970517
0.970894
0.971258
0.971608
0.971936
0.972243
0.972524
0.972772
0.972987
0.973173
0.973357
0.974462
0.993119
0.982774
1.00635
1.00604
1.00529
1.0043
1.0031
1.00167
0.999989
0.996986
0.99238
0.986492
0.980561
0.97498
0.970096
0.966591
0.965233
0.966811
0.968234
0.969377
0.96925
0.969324
0.969534
0.969837
0.97019
0.970568
0.970953
0.971329
0.971689
0.972031
0.972349
0.972645
0.972915
0.973152
0.973358
0.973538
0.973736
0.974957
0.994737
0.982776
1.00635
1.00604
1.00529
1.0043
1.0031
1.00167
0.999999
0.997007
0.992422
0.986544
0.980622
0.975046
0.970166
0.966625
0.965182
0.966756
0.968173
0.969412
0.969286
0.969359
0.969572
0.969875
0.970233
0.970614
0.971003
0.971388
0.971761
0.972113
0.972445
0.972752
0.973037
0.973295
0.973521
0.973719
0.973896
0.974114
0.975471
0.996261
0.980928
1.00635
1.00604
1.00529
1.00431
1.00311
1.00168
1.00001
0.997026
0.99246
0.986592
0.980678
0.975108
0.97023
0.966657
0.965136
0.966705
0.968117
0.969377
0.969319
0.969392
0.969605
0.969911
0.97027
0.970656
0.971049
0.97144
0.97182
0.972185
0.972527
0.972848
0.973144
0.973417
0.973664
0.97388
0.97407
0.974248
0.974493
0.976013
0.997502
0.982655
1.00568
1.00605
1.00529
1.00431
1.00311
1.00168
1.00002
0.997044
0.992495
0.986635
0.98073
0.975165
0.97029
0.966687
0.965094
0.966658
0.968066
0.969321
0.96935
0.969423
0.969638
0.969943
0.970305
0.970693
0.971092
0.971486
0.971872
0.972245
0.9726
0.972931
0.97324
0.973524
0.973785
0.974022
0.974229
0.974414
0.974594
0.974875
0.976596
0.998832
0.9826
1.00629
1.00443
1.0053
1.00431
1.00311
1.00169
1.00002
0.99706
0.992527
0.986676
0.980778
0.975218
0.970345
0.966714
0.965072
0.966615
0.968019
0.96927
0.969378
0.969452
0.969667
0.969975
0.970337
0.970728
0.971129
0.971529
0.971919
0.972298
0.972661
0.973004
0.973323
0.97362
0.973892
0.974143
0.97437
0.974569
0.97475
0.974937
0.975264
0.977236
1.00023
0.982218
1.00625
1.00589
1.0025
1.00433
1.00312
1.00169
1.00003
0.997076
0.992556
0.986712
0.980821
0.975266
0.970396
0.966739
0.965095
0.966575
0.967976
0.969223
0.969405
0.969479
0.969695
0.970003
0.970368
0.97076
0.971164
0.971566
0.971962
0.972345
0.972714
0.973066
0.973397
0.973704
0.973989
0.97425
0.97449
0.974708
0.974901
0.975081
0.975277
0.975664
0.977953
1.00163
0.982384
1.00601
1.0058
1.00503
0.999899
1.00314
1.0017
1.00004
0.99709
0.992584
0.986746
0.980861
0.97531
0.970443
0.966763
0.965116
0.966538
0.967936
0.96918
0.969429
0.969504
0.969721
0.970031
0.970396
0.970791
0.971196
0.971602
0.972
0.972388
0.972762
0.97312
0.973459
0.973778
0.974073
0.974346
0.974596
0.974827
0.975037
0.975226
0.975406
0.975618
0.976079
0.977985
1.00295
0.982629
1.00611
1.00518
1.00486
1.00393
0.994747
1.00173
1.00004
0.997105
0.99261
0.986778
0.980898
0.975351
0.970487
0.966785
0.965136
0.966504
0.967898
0.96914
0.969452
0.969527
0.969745
0.970056
0.970423
0.970819
0.971227
0.971634
0.972035
0.972426
0.972805
0.973167
0.973514
0.973841
0.974148
0.974431
0.974693
0.974932
0.975155
0.975358
0.975544
0.975728
0.975962
0.976515
0.977419
1.00406
0.98266
1.00626
1.00543
1.00373
1.00366
1.00261
0.986303
1.00009
0.997116
0.992637
0.986808
0.980933
0.97539
0.970526
0.966804
0.965155
0.966472
0.967864
0.969103
0.969473
0.969549
0.969767
0.970079
0.970448
0.970846
0.971255
0.971665
0.972068
0.972462
0.972844
0.973212
0.973562
0.973896
0.974211
0.974505
0.974777
0.975028
0.975259
0.975474
0.975672
0.975857
0.976049
0.976311
0.976975
0.976923
1.00487
0.982781
1.00627
1.00582
1.00421
1.00192
1.00223
1.00104
0.977223
0.997223
0.992658
0.986839
0.980965
0.975426
0.970564
0.966823
0.965172
0.966442
0.967831
0.969068
0.969492
0.969569
0.969788
0.970101
0.970471
0.97087
0.971282
0.971693
0.972099
0.972495
0.97288
0.97325
0.973606
0.973944
0.974266
0.974569
0.974851
0.975112
0.975354
0.975576
0.975785
0.97598
0.976167
0.97637
0.976669
0.97747
0.978212
1.00537
0.982788
1.00635
1.00587
1.00493
1.00268
0.999423
1.00057
0.998918
0.967977
0.992844
0.986863
0.981
0.97546
0.9706
0.96684
0.965188
0.966413
0.967801
0.969036
0.96951
0.969587
0.969807
0.970121
0.970493
0.970894
0.971307
0.97172
0.972128
0.972526
0.972913
0.973287
0.973646
0.973989
0.974315
0.974624
0.974916
0.975187
0.975438
0.97567
0.975886
0.97609
0.976284
0.976475
0.976694
0.97704
0.978017
0.979864
1.00563
0.98279
1.00636
1.00605
1.00501
1.00379
1.00086
0.994948
0.997881
0.995311
0.959854
0.987076
0.981025
0.975495
0.970634
0.966857
0.965203
0.966387
0.967772
0.969005
0.969528
0.969604
0.969825
0.97014
0.970513
0.970915
0.97133
0.971745
0.972155
0.972555
0.972945
0.97332
0.973682
0.974029
0.97436
0.974673
0.974971
0.975251
0.975512
0.975753
0.975978
0.976188
0.976389
0.976584
0.976783
0.977023
0.977428
0.978462
0.981925
1.00573
0.98279
1.00636
1.00605
1.0053
1.00394
1.00245
0.997713
0.987659
0.99378
0.989602
0.961781
0.981261
0.975521
0.970669
0.966872
0.965218
0.966362
0.967745
0.968976
0.969544
0.969621
0.969841
0.970157
0.970532
0.970935
0.971352
0.971768
0.97218
0.972583
0.972974
0.973352
0.973716
0.974066
0.9744
0.974718
0.97502
0.975307
0.975576
0.975827
0.97606
0.976278
0.976484
0.976684
0.976883
0.977093
0.977361
0.97784
0.978009
0.984248
1.00576
0.982791
1.00636
1.00605
1.00532
1.00434
1.00266
1.00089
0.992807
0.979976
0.987925
0.98357
0.958597
0.975774
0.970695
0.966889
0.965232
0.966338
0.96772
0.968949
0.969559
0.969636
0.969857
0.970174
0.970549
0.970954
0.971372
0.97179
0.972204
0.972608
0.973001
0.973382
0.973748
0.9741
0.974437
0.974758
0.975065
0.975356
0.975632
0.975891
0.976133
0.976359
0.976572
0.976776
0.976977
0.977181
0.977407
0.97771
0.978281
0.977431
0.986682
1.00576
0.982792
1.00636
1.00606
1.00532
1.00435
1.00316
1.00117
0.998638
0.986115
0.972407
0.981961
0.977708
0.956445
0.970957
0.9669
0.965247
0.966315
0.967695
0.968923
0.969574
0.969651
0.969872
0.970189
0.970565
0.970971
0.97139
0.97181
0.972225
0.972632
0.973027
0.973409
0.973778
0.974132
0.974471
0.974796
0.975105
0.975401
0.975681
0.975947
0.976197
0.976432
0.976652
0.976861
0.977063
0.977268
0.977482
0.977728
0.978076
0.978565
0.977382
0.990623
1.00577
0.982793
1.00636
1.00606
1.00532
1.00436
1.00318
1.00176
0.999297
0.995144
0.979299
0.9656
0.976263
0.97241
0.955308
0.967092
0.965257
0.966291
0.967672
0.968898
0.969589
0.969665
0.969886
0.970204
0.97058
0.970987
0.971408
0.971829
0.972246
0.972654
0.973051
0.973435
0.973806
0.974161
0.974503
0.97483
0.975143
0.975441
0.975726
0.975996
0.976252
0.976495
0.976723
0.976938
0.977145
0.977349
0.977559
0.977786
0.978059
0.978463
0.978259
0.978471
0.99415
1.00576
0.982793
1.00636
1.00606
1.00532
1.00436
1.00319
1.0018
1.00013
0.99592
0.989574
0.972841
0.961192
0.971199
0.967958
0.954891
0.965444
0.966274
0.967648
0.968875
0.969603
0.969679
0.9699
0.970218
0.970594
0.971002
0.971423
0.971846
0.972265
0.972674
0.973073
0.973459
0.973831
0.97419
0.974533
0.974862
0.975177
0.975478
0.975766
0.97604
0.976301
0.976549
0.976785
0.977007
0.97722
0.977426
0.977634
0.977853
0.978097
0.978404
0.978464
0.977848
0.97982
0.997172
1.00576
0.982794
1.00636
1.00606
1.00532
1.00437
1.0032
1.00181
1.00018
0.997292
0.990861
0.983737
0.967213
0.963017
0.967012
0.965455
0.954964
0.96621
0.96763
0.968851
0.969616
0.969693
0.969914
0.970231
0.970608
0.971016
0.971439
0.971862
0.972282
0.972694
0.973094
0.973482
0.973856
0.974216
0.974561
0.974892
0.975209
0.975513
0.975803
0.97608
0.976345
0.976597
0.976839
0.977068
0.977287
0.977498
0.977706
0.977919
0.978151
0.978363
0.978394
0.978267
0.977319
0.981516
0.999636
1.00576
0.982794
1.00636
1.00606
1.00533
1.00437
1.0032
1.00182
1.0002
0.997401
0.992988
0.985105
0.978004
0.962754
0.964122
0.964984
0.965548
0.955363
0.96756
0.968833
0.969631
0.969706
0.969927
0.970245
0.970622
0.97103
0.971453
0.971878
0.972298
0.972711
0.973113
0.973502
0.973878
0.97424
0.974587
0.97492
0.975239
0.975545
0.975837
0.976117
0.976385
0.976641
0.976886
0.977122
0.977347
0.977563
0.977773
0.977985
0.978131
0.978221
0.978275
0.978253
0.978007
0.977712
0.983629
1.00195
1.00576
0.982794
1.00636
1.00606
1.00533
1.00437
1.00321
1.00183
1.00021
0.997449
0.99318
0.987249
0.97938
0.972741
0.963396
0.963252
0.965722
0.96698
0.955979
0.968758
0.96964
0.969721
0.96994
0.970258
0.970635
0.971044
0.971467
0.971892
0.972314
0.972728
0.973131
0.973522
0.973899
0.974263
0.974612
0.974947
0.975268
0.975575
0.975869
0.976151
0.976421
0.976681
0.976929
0.977168
0.977399
0.97762
0.977788
0.977897
0.977999
0.978088
0.97815
0.978164
0.978077
0.977649
0.978621
0.986065
1.00386
1.00576
0.982795
1.00636
1.00606
1.00533
1.00437
1.00321
1.00184
1.00022
0.997473
0.993268
0.987466
0.981448
0.974052
0.968241
0.965026
0.962886
0.967124
0.968251
0.956739
0.969802
0.969729
0.969955
0.970271
0.970648
0.971057
0.971481
0.971906
0.972328
0.972743
0.973147
0.97354
0.973919
0.974284
0.974634
0.974971
0.975294
0.975603
0.975899
0.976183
0.976455
0.976717
0.976968
0.977211
0.977444
0.977582
0.977685
0.977785
0.97788
0.977963
0.978028
0.978058
0.978025
0.977859
0.977505
0.979779
0.990275
1.00515
1.00576
0.982795
1.00636
1.00606
1.00533
1.00438
1.00322
1.00184
1.00023
0.997501
0.993311
0.987566
0.981676
0.975953
0.969433
0.965348
0.966091
0.962867
0.968371
0.969157
0.957591
0.969885
0.969963
0.970285
0.970661
0.97107
0.971494
0.97192
0.972342
0.972758
0.973163
0.973556
0.973937
0.974303
0.974656
0.974994
0.975318
0.975629
0.975927
0.976213
0.976487
0.97675
0.977004
0.977249
0.977399
0.977498
0.977593
0.977685
0.977771
0.97785
0.977913
0.97795
0.977943
0.977854
0.977582
0.978089
0.981253
0.993951
1.00587
1.00576
0.982799
1.00636
1.00606
1.00533
1.00438
1.00322
1.00185
1.00024
0.997528
0.993361
0.987615
0.981782
0.976177
0.97111
0.966042
0.965084
0.965674
0.963112
0.969216
0.969134
0.958502
0.970113
0.970293
0.970675
0.971083
0.971507
0.971933
0.972356
0.972772
0.973178
0.973572
0.973954
0.974322
0.974676
0.975015
0.975341
0.975654
0.975953
0.976241
0.976516
0.976781
0.977037
0.977229
0.977328
0.977422
0.977511
0.977595
0.977674
0.977746
0.977806
0.977846
0.977852
0.9778
0.977644
0.977707
0.978834
0.983158
0.997231
1.00619
1.00576
0.982881
1.00636
1.00606
1.00533
1.00438
1.00322
1.00185
1.00025
0.997546
0.99341
0.987672
0.981833
0.976281
0.971316
0.96713
0.964764
0.966544
0.965575
0.963537
0.969286
0.96927
0.959446
0.970437
0.970684
0.971097
0.97152
0.971947
0.97237
0.972785
0.973192
0.973587
0.973969
0.974338
0.974694
0.975035
0.975363
0.975677
0.975978
0.976267
0.976544
0.97681
0.977067
0.977168
0.977263
0.977352
0.977437
0.977515
0.977587
0.977652
0.977708
0.977747
0.97776
0.97773
0.977626
0.977507
0.978203
0.979814
0.985593
0.999916
1.0063
1.00576
0.973911
1.00633
1.00605
1.00533
1.00438
1.00322
1.00185
1.00025
0.997559
0.993443
0.987728
0.981894
0.976331
0.971411
0.96731
0.965394
0.966246
0.967844
0.965708
0.964098
0.969511
0.969511
0.960407
0.970822
0.971106
0.971534
0.971959
0.972383
0.972799
0.973205
0.973601
0.973984
0.974354
0.974711
0.975054
0.975383
0.975698
0.976001
0.976291
0.97657
0.976838
0.977014
0.977112
0.977203
0.977289
0.977369
0.977442
0.97751
0.977569
0.977619
0.977656
0.977672
0.977654
0.97758
0.977413
0.977976
0.978791
0.981121
0.990018
1.00238
1.00633
1.00576
0.945256
1.00221
1.00596
1.00532
1.00438
1.00323
1.00186
1.00026
0.99757
0.993466
0.987766
0.981953
0.976392
0.971456
0.967391
0.965483
0.96599
0.967573
0.968953
0.96601
0.964756
0.969839
0.969815
0.961385
0.971239
0.971543
0.971974
0.972396
0.972812
0.973219
0.973615
0.973998
0.974369
0.974727
0.975071
0.975401
0.975718
0.976022
0.976314
0.976594
0.976863
0.976965
0.977059
0.977148
0.97723
0.977306
0.977376
0.977439
0.977494
0.977539
0.977572
0.977588
0.977577
0.977522
0.977398
0.9778
0.978462
0.979537
0.982855
0.993829
1.00429
1.00634
1.00576
0.962928
0.949291
0.991203
1.00516
1.00437
1.00323
1.00186
1.00026
0.99758
0.993487
0.987792
0.981995
0.976449
0.971511
0.967428
0.96552
0.965927
0.967345
0.968748
0.968926
0.966435
0.965467
0.97023
0.970155
0.962371
0.971672
0.971982
0.97241
0.972825
0.973233
0.973628
0.974012
0.974383
0.974742
0.975086
0.975418
0.975737
0.976042
0.976335
0.976616
0.976822
0.976919
0.97701
0.977096
0.977176
0.977249
0.977315
0.977375
0.977426
0.977467
0.977497
0.977511
0.977502
0.97746
0.977362
0.977673
0.978271
0.979001
0.980523
0.985114
0.997281
1.00549
1.00634
1.00576
0.966385
0.975703
1.53782
0.975771
1.00413
1.00321
1.00186
1.00026
0.997587
0.993504
0.987816
0.982022
0.97649
0.971562
0.967475
0.965534
0.965895
0.967286
0.968548
0.969284
0.969078
0.966943
0.966198
0.970654
0.970514
0.963352
0.972108
0.972419
0.97284
0.973246
0.973642
0.974026
0.974397
0.974756
0.975102
0.975434
0.975754
0.976061
0.976355
0.976638
0.976783
0.976877
0.976965
0.977048
0.977125
0.977196
0.977259
0.977316
0.977364
0.977402
0.977429
0.97744
0.977433
0.977396
0.977317
0.977592
0.978112
0.978761
0.979656
0.981857
0.989485
1.00012
1.00614
1.00634
1.00576
0.966564
0.9843
0.944163
2.14244
0.961834
1.0029
1.00184
1.00027
0.997592
0.993517
0.987836
0.982047
0.976516
0.9716
0.967518
0.965554
0.965878
0.967257
0.968494
0.969604
0.969412
0.969355
0.967496
0.966929
0.971092
0.97088
0.964316
0.972542
0.972849
0.97326
0.973655
0.974039
0.974411
0.97477
0.975116
0.975449
0.975769
0.976077
0.976373
0.976647
0.976746
0.976838
0.976924
0.977004
0.977078
0.977146
0.977207
0.977261
0.977307
0.977343
0.977367
0.977377
0.977368
0.977336
0.977267
0.977539
0.977998
0.978585
0.97929
0.9805
0.983673
0.993359
1.00268
1.00642
1.00634
1.00576
0.964024
0.984937
0.946566
1.03355
2.53563
0.949891
1.00147
1.00024
0.997598
0.993526
0.98785
0.982068
0.97654
0.971623
0.96755
0.965571
0.965856
0.967242
0.968468
0.969555
0.969806
0.969674
0.969712
0.968066
0.967648
0.971533
0.971248
0.965249
0.972969
0.973269
0.97367
0.974053
0.974425
0.974783
0.975129
0.975463
0.975784
0.976093
0.97639
0.976615
0.976711
0.976801
0.976885
0.976963
0.977034
0.9771
0.977159
0.977211
0.977254
0.977288
0.97731
0.977319
0.97731
0.977278
0.977217
0.977506
0.977922
0.978442
0.979081
0.979916
0.981635
0.98655
0.997043
1.00457
1.00651
1.00634
1.00576
0.960892
0.979551
0.946963
0.953216
1.43099
2.74489
0.947814
0.999417
0.997498
0.993536
0.987861
0.982083
0.976561
0.971645
0.967569
0.965584
0.965836
0.967221
0.968455
0.969532
0.969848
0.970029
0.970025
0.970113
0.968638
0.968347
0.971968
0.971612
0.966146
0.973388
0.973679
0.974067
0.974438
0.974797
0.975143
0.975477
0.975799
0.976108
0.976406
0.976585
0.97668
0.976767
0.976849
0.976924
0.976994
0.977057
0.977114
0.977164
0.977205
0.977237
0.977258
0.977266
0.977256
0.977226
0.977168
0.977484
0.97787
0.978336
0.978921
0.979617
0.980708
0.983206
0.990939
1.00001
1.00572
1.00654
1.00634
1.00576
0.959474
0.972834
0.941811
0.952485
1.20544
1.77267
2.90413
0.944568
0.99599
0.993367
0.987872
0.982095
0.976576
0.971664
0.967589
0.965591
0.965821
0.967202
0.968435
0.96952
0.969857
0.970069
0.97035
0.970428
0.970537
0.969201
0.969021
0.972394
0.971969
0.967006
0.973796
0.974077
0.974452
0.97481
0.975157
0.97549
0.975812
0.976122
0.976421
0.976557
0.97665
0.976736
0.976815
0.976889
0.976956
0.977018
0.977072
0.97712
0.97716
0.97719
0.97721
0.977217
0.977207
0.977178
0.977144
0.977469
0.977833
0.978261
0.978789
0.979424
0.980244
0.981761
0.985347
0.995033
1.00268
1.0063
1.00654
1.00634
1.00576
0.958364
0.96978
0.944972
0.955143
1.18001
1.52689
2.05701
3.03171
0.94276
0.990912
0.987676
0.982106
0.976588
0.971678
0.967605
0.965599
0.965811
0.967189
0.968418
0.969502
0.969858
0.970076
0.97039
0.970732
0.970857
0.970968
0.96975
0.969671
0.972808
0.972319
0.96783
0.974193
0.974462
0.974825
0.97517
0.975504
0.975826
0.976136
0.976431
0.976531
0.976623
0.976707
0.976784
0.976856
0.976921
0.976981
0.977034
0.977079
0.977118
0.977147
0.977165
0.977171
0.977162
0.977134
0.977141
0.977457
0.977807
0.978207
0.978688
0.979277
0.979974
0.98103
0.983218
0.989906
0.998296
1.00464
1.00655
1.00654
1.00634
1.00576
0.957166
0.967393
0.946387
1.04605
1.29718
1.49608
1.80603
2.30174
3.13648
0.944459
0.984895
0.981882
0.976599
0.971689
0.967618
0.965606
0.965801
0.967179
0.968406
0.969486
0.969862
0.970076
0.970396
0.970774
0.971145
0.971296
0.971398
0.970284
0.970295
0.973208
0.97266
0.968619
0.974578
0.974835
0.975185
0.975517
0.975839
0.976149
0.976407
0.976506
0.976596
0.976679
0.976756
0.976825
0.976889
0.976946
0.976997
0.977042
0.977078
0.977106
0.977124
0.977129
0.97712
0.977092
0.977139
0.977447
0.977784
0.978166
0.978611
0.979152
0.979792
0.98062
0.982072
0.985239
0.99384
1.00129
1.00581
1.00662
1.00654
1.00634
1.00576
0.956168
0.964806
0.947478
1.09607
1.42409
1.61829
1.7717
2.04445
2.4997
3.24748
0.946008
0.978707
0.976345
0.9717
0.967629
0.965612
0.965792
0.967169
0.968397
0.969475
0.969862
0.970079
0.970396
0.97078
0.97119
0.971573
0.971734
0.971821
0.970802
0.970895
0.973593
0.972992
0.969377
0.97495
0.975194
0.975532
0.975852
0.976162
0.976383
0.976482
0.976572
0.976654
0.976728
0.976797
0.976858
0.976914
0.976964
0.977006
0.977041
0.977068
0.977085
0.97709
0.97708
0.977054
0.977138
0.977439
0.977767
0.978132
0.978552
0.979053
0.97965
0.980363
0.981434
0.983519
0.989733
0.997477
1.00375
1.00638
1.00664
1.00654
1.00634
1.00576
0.955436
0.962648
0.948649
1.13427
1.47849
1.74362
1.88972
2.00758
2.25076
2.62221
3.34353
0.94742
0.972694
0.971417
0.967638
0.965617
0.965786
0.967161
0.968387
0.969467
0.969864
0.970077
0.970399
0.970781
0.971199
0.971622
0.972003
0.972166
0.972235
0.971302
0.971472
0.973962
0.973316
0.970105
0.97531
0.975542
0.975867
0.976175
0.97636
0.976459
0.976548
0.976629
0.976703
0.97677
0.97683
0.976885
0.976932
0.976974
0.977007
0.977033
0.977048
0.977053
0.977044
0.977018
0.977137
0.977433
0.977752
0.978105
0.978505
0.978973
0.979534
0.980184
0.981047
0.982519
0.985718
0.993615
1.0006
1.00536
1.00661
1.00664
1.00654
1.00634
1.00576
0.954937
0.961062
0.949619
1.17477
1.51962
1.79658
2.00648
2.11681
2.20822
2.43511
2.72441
3.42047
0.947861
0.967234
0.96733
0.965621
0.965781
0.967155
0.96838
0.969458
0.969865
0.970079
0.970396
0.970783
0.9712
0.971634
0.972057
0.97243
0.972588
0.972637
0.971785
0.972026
0.974315
0.973633
0.970804
0.975657
0.975877
0.97619
0.976338
0.976436
0.976525
0.976606
0.976679
0.976745
0.976804
0.976857
0.976903
0.976943
0.976975
0.977
0.977014
0.977018
0.977009
0.976984
0.977138
0.977428
0.977739
0.978081
0.978465
0.978908
0.979435
0.980045
0.98079
0.981918
0.984034
0.990157
0.997331
1.00331
1.00621
1.00668
1.00664
1.00654
1.00634
1.00576
0.954525
0.959976
0.950327
1.20803
1.56279
1.83646
2.05566
2.22453
2.31488
2.3898
2.55082
2.80917
3.48192
0.947811
0.962618
0.965316
0.965775
0.96715
0.968374
0.96945
0.969868
0.97008
0.970397
0.970781
0.971203
0.971636
0.972071
0.972489
0.972849
0.972998
0.973025
0.972251
0.972557
0.974652
0.973945
0.971477
0.975993
0.9762
0.976315
0.976414
0.976503
0.976583
0.976656
0.976721
0.976779
0.976831
0.976876
0.976914
0.976946
0.976969
0.976983
0.976986
0.976976
0.976952
0.977138
0.977424
0.977729
0.978062
0.978432
0.978855
0.979351
0.979932
0.980605
0.981529
0.98309
0.986819
0.994096
1.00052
1.00515
1.00658
1.00669
1.00664
1.00654
1.00634
1.00576
0.954158
0.959078
0.950809
1.23223
1.59801
1.87799
2.09269
2.27292
2.41704
2.48004
2.51846
2.63703
2.87963
3.50662
0.947594
0.96203
0.965722
0.967145
0.968369
0.969445
0.96987
0.970082
0.970399
0.970781
0.971201
0.971639
0.972075
0.972506
0.972913
0.973257
0.973394
0.9734
0.972701
0.973067
0.974974
0.974252
0.972125
0.9761
0.976298
0.976391
0.976481
0.976561
0.976633
0.976698
0.976756
0.976807
0.976851
0.976888
0.976918
0.97694
0.976953
0.976956
0.976946
0.976922
0.97714
0.977421
0.97772
0.978045
0.978404
0.978809
0.979279
0.979833
0.980465
0.98126
0.982485
0.984741
0.991044
0.997708
1.00332
1.00613
1.0067
1.0067
1.00664
1.00654
1.00634
1.00576
0.953832
0.95828
0.951206
1.24874
1.62353
1.91181
2.13104
2.30934
2.46023
2.54126
2.57449
2.60258
2.70837
2.93885
3.51825
0.947212
0.963628
0.967099
0.968364
0.96944
0.969873
0.970084
0.970401
0.970782
0.971201
0.971637
0.972079
0.972511
0.972934
0.973327
0.973654
0.973777
0.973762
0.973135
0.973555
0.97528
0.974556
0.972748
0.976185
0.976374
0.976458
0.97654
0.976612
0.976676
0.976734
0.976784
0.976827
0.976863
0.976892
0.976913
0.976925
0.976928
0.976918
0.976894
0.977142
0.977419
0.977713
0.978031
0.97838
0.97877
0.979218
0.979745
0.980348
0.981065
0.982078
0.983794
0.988397
0.995144
1.00095
1.0052
1.00657
1.00673
1.0067
1.00664
1.00654
1.00634
1.00576
0.953572
0.95757
0.951558
1.26233
1.64095
1.93631
2.16229
2.34693
2.48538
2.5672
2.62868
2.65172
2.672
2.7681
2.98951
3.52741
0.946683
0.965034
0.968326
0.969435
0.969877
0.970087
0.970403
0.970784
0.971202
0.971637
0.972077
0.972516
0.97294
0.973351
0.973729
0.974036
0.974144
0.97411
0.973555
0.974022
0.975573
0.974859
0.973347
0.97626
0.976441
0.976517
0.976591
0.976655
0.976712
0.976762
0.976804
0.97684
0.976868
0.976888
0.976899
0.976901
0.976891
0.976882
0.977145
0.977418
0.977708
0.978018
0.978359
0.978737
0.979168
0.979669
0.980246
0.980912
0.98179
0.983159
0.98591
0.992345
0.998511
1.0037
1.00618
1.00672
1.00673
1.0067
1.00664
1.00654
1.00634
1.00576
0.953424
0.957009
0.951871
1.27436
1.65527
1.95307
2.18493
2.37753
2.50819
2.58675
2.65157
2.70007
2.71542
2.73006
2.81896
3.03372
3.53457
0.946037
0.96449
0.969405
0.969879
0.970091
0.970405
0.970786
0.971204
0.971638
0.972078
0.972515
0.972946
0.97336
0.973757
0.974118
0.974404
0.974495
0.974446
0.97396
0.974469
0.975852
0.975162
0.973922
0.976327
0.9765
0.976569
0.976634
0.976691
0.976741
0.976783
0.976818
0.976845
0.976864
0.976875
0.976876
0.976866
0.976887
0.977147
0.977418
0.977704
0.978009
0.97834
0.978708
0.979123
0.979603
0.980158
0.980787
0.981573
0.982719
0.984675
0.990189
0.996383
1.00176
1.00545
1.0066
1.00675
1.00673
1.0067
1.00664
1.00654
1.00634
1.00576
0.953452
0.956697
0.952117
1.28501
1.66793
1.96686
2.2006
2.39968
2.52677
2.60695
2.66877
2.72038
2.75906
2.7688
2.77949
2.86312
3.07309
3.54003
0.945312
0.964294
0.969604
0.970093
0.970409
0.970789
0.971206
0.971641
0.972079
0.972516
0.972946
0.973367
0.973769
0.97415
0.974493
0.974757
0.974832
0.974769
0.974352
0.974897
0.97612
0.975466
0.974475
0.976386
0.976551
0.976613
0.976671
0.97672
0.976763
0.976797
0.976824
0.976842
0.976852
0.976853
0.976842
0.976893
0.977151
0.977419
0.9777
0.978001
0.978325
0.978683
0.979084
0.979545
0.980079
0.980681
0.981401
0.982395
0.983982
0.988024
0.994055
0.999667
1.00431
1.00632
1.00674
1.00676
1.00673
1.0067
1.00664
1.00654
1.00634
1.00576
0.953716
0.956775
0.952253
1.29345
1.67915
1.97907
2.21443
2.41492
2.54017
2.62339
2.68669
2.73563
2.77727
2.80866
2.8144
2.82238
2.90219
3.10933
3.54397
0.947179
0.964365
0.969828
0.970411
0.970793
0.971208
0.971643
0.972082
0.972518
0.972947
0.973367
0.973777
0.974164
0.97453
0.974853
0.975095
0.975155
0.975082
0.974732
0.975305
0.976377
0.975771
0.975007
0.976438
0.976595
0.976649
0.9767
0.976743
0.976777
0.976804
0.976822
0.976831
0.976831
0.97682
0.976898
0.977155
0.97742
0.977698
0.977994
0.978313
0.978662
0.979051
0.979495
0.980008
0.980589
0.981262
0.982147
0.983481
0.98613
0.991967
0.99771
1.0028
1.0058
1.00666
1.00677
1.00676
1.00673
1.0067
1.00664
1.00654
1.00634
1.00576
0.954235
0.957371
0.952218
1.29817
1.68806
1.98991
2.22673
2.42741
2.54939
2.63517
2.70126
2.75166
2.79097
2.8252
2.85118
2.85409
2.86029
2.93739
3.15538
3.54648
0.949225
0.964634
0.970159
0.970795
0.971212
0.971645
0.972084
0.97252
0.97295
0.97337
0.973778
0.974174
0.974546
0.974895