/*--------------------------------*- C++ -*----------------------------------*\
| =========                 |                                                 |
| \\      /  F ield         | OpenFOAM: The Open Source CFD Toolbox           |
|  \\    /   O peration     | Version:  v2012                                 |
|   \\  /    A nd           | Website:  www.openfoam.com                      |
|    \\/     M anipulation  |                                                 |
\*---------------------------------------------------------------------------*/
FoamFile
{
    version     2.0;
    format      ascii;
    class       volScalarField;
    location    "13380";
    object      Fs;
}
// * * * * * * * * * * * * * * * * * * * * * * * * * * * * * * * * * * * * * //

dimensions      [0 0 0 0 0 0 0];


internalField   nonuniform List<scalar> 
31383
(
1.06524e-06
4.587e-05
1.06585e-06
4.07936e-05
4.47624e-05
1.05022e-06
3.48217e-05
4.0653e-05
4.34108e-05
1.04067e-06
3.0666e-05
3.72805e-05
3.98093e-05
4.29215e-05
1.02226e-06
2.76406e-05
3.48233e-05
3.76599e-05
3.86402e-05
4.22578e-05
1.00042e-06
2.59772e-05
3.29501e-05
3.60518e-05
3.67871e-05
3.77932e-05
4.15269e-05
9.75337e-07
2.44186e-05
3.19049e-05
3.48039e-05
3.53957e-05
3.62441e-05
3.68758e-05
4.13259e-05
9.49912e-07
2.36089e-05
3.08832e-05
3.4123e-05
3.43223e-05
3.50479e-05
3.55619e-05
3.59484e-05
3.99743e-05
9.30056e-07
2.31158e-05
3.03596e-05
3.34341e-05
3.37568e-05
3.41114e-05
3.45209e-05
3.48394e-05
3.49141e-05
3.97991e-05
9.18892e-07
2.28151e-05
3.00548e-05
3.31e-05
3.31791e-05
3.36294e-05
3.3701e-05
3.39351e-05
3.399e-05
3.37749e-05
3.88234e-05
9.76836e-07
2.24976e-05
2.98783e-05
3.29262e-05
3.29185e-05
3.31199e-05
3.32956e-05
3.32203e-05
3.32157e-05
3.30251e-05
3.25575e-05
3.80723e-05
1.1304e-06
2.24677e-05
2.96767e-05
3.28397e-05
3.28023e-05
3.29024e-05
3.2852e-05
3.28882e-05
3.26067e-05
3.23782e-05
3.19722e-05
3.13557e-05
3.75922e-05
1.30837e-06
2.23875e-05
2.96919e-05
3.27225e-05
3.27613e-05
3.28182e-05
3.26798e-05
3.25066e-05
3.23519e-05
3.1876e-05
3.1451e-05
3.09178e-05
3.03051e-05
3.696e-05
1.49339e-06
2.24107e-05
2.96601e-05
3.27771e-05
3.26847e-05
3.27978e-05
3.2632e-05
3.23788e-05
3.20378e-05
3.17036e-05
3.10558e-05
3.05167e-05
2.99859e-05
2.95829e-05
3.72479e-05
1.714e-06
2.24881e-05
2.97047e-05
3.27872e-05
3.27687e-05
3.27433e-05
3.26377e-05
3.23673e-05
3.19594e-05
3.146e-05
3.09649e-05
3.02157e-05
2.96892e-05
2.93594e-05
2.93213e-05
3.70476e-05
1.84199e-06
2.25585e-05
2.9782e-05
3.28548e-05
3.28087e-05
3.28373e-05
3.26114e-05
3.23977e-05
3.19892e-05
3.14356e-05
3.07984e-05
3.01939e-05
2.94713e-05
2.91399e-05
2.9127e-05
2.93375e-05
3.77427e-05
1.997e-06
2.27424e-05
2.98566e-05
3.29427e-05
3.28996e-05
3.28923e-05
3.27206e-05
3.24001e-05
3.20484e-05
3.15109e-05
3.08316e-05
3.01132e-05
2.95128e-05
2.89417e-05
2.89606e-05
2.90775e-05
2.93983e-05
3.77906e-05
2.17816e-06
2.2973e-05
3.00142e-05
3.30307e-05
3.30095e-05
3.29893e-05
3.27954e-05
3.25224e-05
3.20849e-05
3.16025e-05
3.09562e-05
3.02032e-05
2.95094e-05
2.90411e-05
2.87753e-05
2.89641e-05
2.90777e-05
2.95795e-05
3.88716e-05
2.45444e-06
2.31333e-05
3.02021e-05
3.31803e-05
3.31185e-05
3.3103e-05
3.29055e-05
3.26163e-05
3.2223e-05
3.16755e-05
3.10814e-05
3.03749e-05
2.9652e-05
2.91012e-05
2.89226e-05
2.89901e-05
2.90286e-05
2.92491e-05
2.994e-05
3.928e-05
2.72984e-06
2.32845e-05
3.03339e-05
3.33483e-05
3.32819e-05
3.32188e-05
3.30275e-05
3.27381e-05
3.23385e-05
3.18349e-05
3.11872e-05
3.05351e-05
2.98606e-05
2.92857e-05
2.90305e-05
2.91908e-05
2.92861e-05
2.92653e-05
2.96176e-05
3.04257e-05
4.04785e-05
3.05195e-06
2.3537e-05
3.04599e-05
3.34732e-05
3.34598e-05
3.33833e-05
3.31539e-05
3.28703e-05
3.24756e-05
3.19747e-05
3.13776e-05
3.06713e-05
3.00557e-05
2.95236e-05
2.92471e-05
2.93319e-05
2.95541e-05
2.95443e-05
2.96956e-05
3.01234e-05
3.09946e-05
4.10764e-05
3.41594e-06
2.37905e-05
3.06614e-05
3.35935e-05
3.36025e-05
3.35605e-05
3.3325e-05
3.30075e-05
3.26224e-05
3.21308e-05
3.15421e-05
3.08951e-05
3.0221e-05
2.97468e-05
2.9505e-05
2.95744e-05
2.97405e-05
2.98729e-05
2.99516e-05
3.02602e-05
3.07215e-05
3.15699e-05
4.21935e-05
3.81598e-06
2.40668e-05
3.08638e-05
3.37716e-05
3.37374e-05
3.3701e-05
3.35065e-05
3.3186e-05
3.27734e-05
3.22948e-05
3.172e-05
3.10842e-05
3.04698e-05
2.99342e-05
2.97403e-05
2.98422e-05
3.00074e-05
3.01122e-05
3.03157e-05
3.05383e-05
3.09174e-05
3.13371e-05
3.20717e-05
4.28436e-05
4.23139e-06
2.43417e-05
3.10785e-05
3.39511e-05
3.39246e-05
3.38356e-05
3.36492e-05
3.33731e-05
3.29611e-05
3.24619e-05
3.19023e-05
3.12841e-05
3.06807e-05
3.02013e-05
2.99426e-05
3.00767e-05
3.02879e-05
3.04057e-05
3.05943e-05
3.09215e-05
3.12263e-05
3.15955e-05
3.18928e-05
3.23916e-05
4.36231e-05
4.67505e-06
2.46065e-05
3.12927e-05
3.41375e-05
3.41141e-05
3.40205e-05
3.37889e-05
3.35223e-05
3.31559e-05
3.26616e-05
3.20871e-05
3.1482e-05
3.09001e-05
3.04271e-05
3.02174e-05
3.02886e-05
3.05261e-05
3.07059e-05
3.09137e-05
3.12274e-05
3.1626e-05
3.1946e-05
3.22182e-05
3.22807e-05
3.2717e-05
4.41312e-05
5.14483e-06
2.48316e-05
3.1498e-05
3.43202e-05
3.43096e-05
3.42084e-05
3.39772e-05
3.36688e-05
3.33146e-05
3.28648e-05
3.2303e-05
3.1687e-05
3.11114e-05
3.06602e-05
3.04508e-05
3.05602e-05
3.07444e-05
3.09571e-05
3.12328e-05
3.15672e-05
3.1954e-05
3.23655e-05
3.26156e-05
3.26728e-05
3.26668e-05
3.35325e-05
4.50989e-05
5.64296e-06
2.50418e-05
3.16748e-05
3.44945e-05
3.44969e-05
3.43974e-05
3.41682e-05
3.38622e-05
3.34705e-05
3.30348e-05
3.25143e-05
3.1918e-05
3.13333e-05
3.08828e-05
3.06888e-05
3.07927e-05
3.10172e-05
3.11844e-05
3.1494e-05
3.19011e-05
3.23097e-05
3.27161e-05
3.30602e-05
3.3118e-05
3.31118e-05
3.35051e-05
3.47005e-05
4.6272e-05
6.18418e-06
2.53006e-05
3.18382e-05
3.46483e-05
3.46749e-05
3.45816e-05
3.43574e-05
3.40589e-05
3.36703e-05
3.32023e-05
3.26972e-05
3.21403e-05
3.1575e-05
3.11145e-05
3.09165e-05
3.10296e-05
3.12475e-05
3.14632e-05
3.17313e-05
3.2168e-05
3.26546e-05
3.30865e-05
3.34368e-05
3.3588e-05
3.35927e-05
3.39778e-05
3.46716e-05
3.57237e-05
4.74573e-05
6.81998e-06
2.55247e-05
3.2034e-05
3.47901e-05
3.48346e-05
3.47569e-05
3.45442e-05
3.42507e-05
3.38732e-05
3.34122e-05
3.28772e-05
3.23349e-05
3.18086e-05
3.13643e-05
3.11514e-05
3.12562e-05
3.14841e-05
3.16967e-05
3.2014e-05
3.24124e-05
3.29252e-05
3.34401e-05
3.38237e-05
3.399e-05
3.40763e-05
3.44721e-05
3.51568e-05
3.56988e-05
3.65753e-05
4.85041e-05
7.62497e-06
2.56834e-05
3.22032e-05
3.49544e-05
3.49815e-05
3.49155e-05
3.4722e-05
3.44419e-05
3.40702e-05
3.3622e-05
3.30983e-05
3.25283e-05
3.20137e-05
3.16035e-05
3.14049e-05
3.14877e-05
3.17082e-05
3.1936e-05
3.22512e-05
3.26967e-05
3.31746e-05
3.37143e-05
3.41863e-05
3.4394e-05
3.44911e-05
3.49506e-05
3.56511e-05
3.61989e-05
3.65582e-05
3.7346e-05
4.95675e-05
8.62318e-06
2.58602e-05
3.23232e-05
3.50966e-05
3.51495e-05
3.50598e-05
3.48837e-05
3.46238e-05
3.42665e-05
3.38251e-05
3.33185e-05
3.27597e-05
3.22202e-05
3.18167e-05
3.16436e-05
3.17391e-05
3.19379e-05
3.21593e-05
3.24921e-05
3.29353e-05
3.3459e-05
3.39675e-05
3.44662e-05
3.47657e-05
3.49021e-05
3.53595e-05
3.61151e-05
3.66938e-05
3.70738e-05
3.7332e-05
3.80353e-05
5.05717e-05
9.4299e-06
2.6029e-05
3.24537e-05
3.5199e-05
3.52956e-05
3.52238e-05
3.50301e-05
3.47905e-05
3.44531e-05
3.40286e-05
3.35278e-05
3.29899e-05
3.24618e-05
3.20328e-05
3.18601e-05
3.19737e-05
3.2186e-05
3.23906e-05
3.27146e-05
3.31763e-05
3.36969e-05
3.42527e-05
3.47258e-05
3.5052e-05
3.52728e-05
3.57604e-05
3.65099e-05
3.71456e-05
3.75696e-05
3.78592e-05
3.80183e-05
3.8662e-05
5.13409e-05
9.45571e-06
2.61833e-05
3.25767e-05
3.53066e-05
3.54035e-05
3.53667e-05
3.51957e-05
3.49403e-05
3.46264e-05
3.42211e-05
3.37391e-05
3.32092e-05
3.26967e-05
3.22821e-05
3.20782e-05
3.21883e-05
3.24143e-05
3.26369e-05
3.29455e-05
3.33957e-05
3.39368e-05
3.449e-05
3.50143e-05
3.53208e-05
3.55571e-05
3.61119e-05
3.68938e-05
3.75288e-05
3.80102e-05
3.83526e-05
3.85529e-05
3.86334e-05
3.92356e-05
5.1815e-05
9.63426e-06
2.63555e-05
3.26929e-05
3.5405e-05
3.55152e-05
3.54726e-05
3.53397e-05
3.51076e-05
3.47811e-05
3.44021e-05
3.39394e-05
3.3427e-05
3.29271e-05
3.25197e-05
3.23295e-05
3.24025e-05
3.26249e-05
3.28601e-05
3.31891e-05
3.36242e-05
3.41517e-05
3.47275e-05
3.52527e-05
3.56149e-05
3.58247e-05
3.6377e-05
3.7219e-05
3.78994e-05
3.83834e-05
3.87809e-05
3.90406e-05
3.9169e-05
3.91854e-05
3.97628e-05
5.2217e-05
1.02484e-05
2.64683e-05
3.28189e-05
3.54993e-05
3.56149e-05
3.55811e-05
3.54478e-05
3.52546e-05
3.4951e-05
3.4563e-05
3.41281e-05
3.3635e-05
3.31504e-05
3.27557e-05
3.25672e-05
3.26503e-05
3.284e-05
3.30692e-05
3.34068e-05
3.38629e-05
3.43762e-05
3.49383e-05
3.54898e-05
3.58585e-05
3.61169e-05
3.66238e-05
3.74586e-05
3.8203e-05
3.87424e-05
3.91434e-05
3.94559e-05
3.96479e-05
3.97157e-05
3.96818e-05
4.024e-05
5.2428e-05
1.12855e-05
2.65399e-05
3.29009e-05
3.55984e-05
3.5703e-05
3.56789e-05
3.55565e-05
3.53659e-05
3.51007e-05
3.47373e-05
3.42967e-05
3.38326e-05
3.33635e-05
3.29824e-05
3.28041e-05
3.2883e-05
3.30824e-05
3.32861e-05
3.36152e-05
3.40733e-05
3.46082e-05
3.51589e-05
3.56989e-05
3.60999e-05
3.63576e-05
3.68955e-05
3.76798e-05
3.84224e-05
3.90269e-05
3.94902e-05
3.98071e-05
4.00492e-05
4.01825e-05
4.02005e-05
4.01282e-05
4.06762e-05
5.22209e-05
1.27132e-05
2.66196e-05
3.2958e-05
3.5663e-05
3.57962e-05
3.57648e-05
3.56543e-05
3.54765e-05
3.52179e-05
3.48906e-05
3.44764e-05
3.4009e-05
3.35694e-05
3.31989e-05
3.30294e-05
3.31166e-05
3.33085e-05
3.35242e-05
3.3829e-05
3.42787e-05
3.48097e-05
3.5384e-05
3.59174e-05
3.63132e-05
3.65976e-05
3.71123e-05
3.79253e-05
3.86261e-05
3.92287e-05
3.97553e-05
4.01413e-05
4.03885e-05
4.05691e-05
4.06522e-05
4.06295e-05
4.05285e-05
4.11145e-05
5.16548e-05
1.47088e-05
2.74626e-05
3.30183e-05
3.57132e-05
3.58588e-05
3.58557e-05
3.5743e-05
3.55753e-05
3.53315e-05
3.50136e-05
3.46348e-05
3.41941e-05
3.3753e-05
3.34103e-05
3.32469e-05
3.33364e-05
3.3537e-05
3.37449e-05
3.40631e-05
3.44878e-05
3.501e-05
3.55764e-05
3.61372e-05
3.6536e-05
3.68106e-05
3.73318e-05
3.81155e-05
3.88532e-05
3.9417e-05
3.99401e-05
4.03874e-05
4.07097e-05
4.08962e-05
4.10239e-05
4.10636e-05
4.10067e-05
4.08868e-05
4.14974e-05
5.05481e-05
1.74833e-05
2.65411e-05
3.36907e-05
3.57652e-05
3.59119e-05
3.59177e-05
3.58348e-05
3.56633e-05
3.5432e-05
3.51318e-05
3.47638e-05
3.43584e-05
3.39433e-05
3.36001e-05
3.3459e-05
3.35502e-05
3.37504e-05
3.39701e-05
3.4277e-05
3.4716e-05
3.52138e-05
3.5771e-05
3.63219e-05
3.67555e-05
3.70338e-05
3.75232e-05
3.8311e-05
3.90282e-05
3.96287e-05
4.01126e-05
4.05561e-05
4.09368e-05
4.12038e-05
4.13388e-05
4.14202e-05
4.14215e-05
4.1336e-05
4.12063e-05
4.19204e-05
4.89705e-05
2.13906e-05
2.69233e-05
3.25326e-05
3.63665e-05
3.59654e-05
3.59721e-05
3.58962e-05
3.57537e-05
3.55203e-05
3.52356e-05
3.48866e-05
3.44937e-05
3.41134e-05
3.37945e-05
3.365e-05
3.37581e-05
3.39577e-05
3.41773e-05
3.44977e-05
3.49213e-05
3.54337e-05
3.59686e-05
3.651e-05
3.69406e-05
3.72507e-05
3.7725e-05
3.84774e-05
3.92109e-05
3.97911e-05
4.03091e-05
4.0714e-05
4.10907e-05
4.14125e-05
4.16328e-05
4.17232e-05
4.17634e-05
4.17299e-05
4.16199e-05
4.14894e-05
4.27828e-05
4.65582e-05
2.67538e-05
2.74383e-05
3.3213e-05
3.47718e-05
3.66278e-05
3.60258e-05
3.59498e-05
3.58145e-05
3.56098e-05
3.53249e-05
3.49928e-05
3.46223e-05
3.42538e-05
3.39672e-05
3.38447e-05
3.39455e-05
3.41608e-05
3.43783e-05
3.46978e-05
3.5135e-05
3.563e-05
3.6179e-05
3.67012e-05
3.71274e-05
3.74362e-05
3.79202e-05
3.86541e-05
3.93663e-05
3.99644e-05
4.04587e-05
4.0895e-05
4.12336e-05
4.15527e-05
4.18238e-05
4.20039e-05
4.20555e-05
4.20579e-05
4.19924e-05
4.18605e-05
4.1737e-05
4.35435e-05
4.29943e-05
3.36358e-05
2.77242e-05
3.35392e-05
3.59111e-05
3.43482e-05
3.67694e-05
3.60036e-05
3.58697e-05
3.56702e-05
3.5414e-05
3.50852e-05
3.47299e-05
3.43873e-05
3.41132e-05
3.4017e-05
3.41364e-05
3.43465e-05
3.45769e-05
3.48929e-05
3.53262e-05
3.58356e-05
3.63669e-05
3.69018e-05
3.7319e-05
3.76227e-05
3.80867e-05
3.88239e-05
3.95308e-05
4.01115e-05
4.06219e-05
4.10338e-05
4.14e-05
4.16812e-05
4.19513e-05
4.21782e-05
4.23233e-05
4.23403e-05
4.23075e-05
4.22117e-05
4.20594e-05
4.1949e-05
4.43014e-05
3.79107e-05
4.22447e-05
2.79247e-05
3.37243e-05
3.62579e-05
3.60835e-05
3.40269e-05
3.68433e-05
3.59242e-05
3.5727e-05
3.54741e-05
3.51741e-05
3.48243e-05
3.44966e-05
3.42484e-05
3.41652e-05
3.4305e-05
3.45319e-05
3.47614e-05
3.50849e-05
3.5513e-05
3.60169e-05
3.65642e-05
3.70821e-05
3.75153e-05
3.78152e-05
3.82547e-05
3.89665e-05
3.96894e-05
4.02659e-05
4.076e-05
4.11868e-05
4.15274e-05
4.18334e-05
4.20664e-05
4.22943e-05
4.24823e-05
4.25963e-05
4.25817e-05
4.25153e-05
4.23899e-05
4.22176e-05
4.21244e-05
4.43443e-05
3.10457e-05
5.40486e-05
2.81891e-05
3.37312e-05
3.62399e-05
3.64564e-05
3.60719e-05
3.35632e-05
3.68595e-05
3.5783e-05
3.5532e-05
3.52339e-05
3.49126e-05
3.45913e-05
3.43584e-05
3.42998e-05
3.44524e-05
3.46959e-05
3.49414e-05
3.52641e-05
3.56974e-05
3.61934e-05
3.67355e-05
3.72711e-05
3.76949e-05
3.80078e-05
3.84282e-05
3.91119e-05
3.98203e-05
4.04155e-05
4.09032e-05
4.13176e-05
4.16715e-05
4.19503e-05
4.22039e-05
4.23963e-05
4.2588e-05
4.27419e-05
4.28272e-05
4.27834e-05
4.26838e-05
4.25288e-05
4.23354e-05
4.22598e-05
4.39217e-05
2.28857e-05
6.69638e-05
2.8305e-05
3.40836e-05
3.62033e-05
3.63354e-05
3.64966e-05
3.5961e-05
3.30065e-05
3.68096e-05
3.55911e-05
3.52922e-05
3.49723e-05
3.46781e-05
3.44528e-05
3.4409e-05
3.45829e-05
3.48409e-05
3.51017e-05
3.54385e-05
3.58706e-05
3.63696e-05
3.69012e-05
3.74319e-05
3.78804e-05
3.81858e-05
3.85987e-05
3.92605e-05
3.9956e-05
4.05369e-05
4.10417e-05
4.14498e-05
4.17945e-05
4.20852e-05
4.23118e-05
4.25206e-05
4.26783e-05
4.28385e-05
4.29613e-05
4.30196e-05
4.29479e-05
4.28153e-05
4.26298e-05
4.24128e-05
4.23503e-05
4.31398e-05
1.43704e-05
7.77143e-05
2.85015e-05
3.41805e-05
3.66732e-05
3.61723e-05
3.62787e-05
3.64537e-05
3.57676e-05
3.24528e-05
3.66856e-05
3.53568e-05
3.50309e-05
3.47372e-05
3.45362e-05
3.45012e-05
3.46875e-05
3.49676e-05
3.52443e-05
3.55941e-05
3.60371e-05
3.65364e-05
3.70686e-05
3.75869e-05
3.80369e-05
3.83683e-05
3.87546e-05
3.94054e-05
4.0093e-05
4.06649e-05
4.11534e-05
4.1579e-05
4.19165e-05
4.22013e-05
4.24371e-05
4.2619e-05
4.27896e-05
4.2918e-05
4.30501e-05
4.31443e-05
4.31766e-05
4.30775e-05
4.29112e-05
4.26936e-05
4.24489e-05
4.23827e-05
4.17149e-05
8.76908e-06
8.18858e-05
2.8809e-05
3.4399e-05
3.67444e-05
3.68276e-05
3.60455e-05
3.61755e-05
3.63093e-05
3.5498e-05
3.19043e-05
3.64912e-05
3.51021e-05
3.47977e-05
3.45939e-05
3.45793e-05
3.47764e-05
3.50655e-05
3.53687e-05
3.57338e-05
3.61872e-05
3.66933e-05
3.72275e-05
3.77455e-05
3.81874e-05
3.85232e-05
3.89173e-05
3.95374e-05
4.02257e-05
4.0793e-05
4.12727e-05
4.1683e-05
4.20371e-05
4.23142e-05
4.25476e-05
4.27364e-05
4.28794e-05
4.30167e-05
4.31196e-05
4.32266e-05
4.32942e-05
4.33006e-05
4.3174e-05
4.29733e-05
4.27208e-05
4.24423e-05
4.23292e-05
3.93982e-05
5.23506e-06
7.47166e-05
2.90419e-05
3.46342e-05
3.68444e-05
3.69183e-05
3.68505e-05
3.58142e-05
3.59695e-05
3.61099e-05
3.51626e-05
3.15023e-05
3.62403e-05
3.48742e-05
3.46576e-05
3.46341e-05
3.48478e-05
3.51503e-05
3.54589e-05
3.58548e-05
3.63225e-05
3.6838e-05
3.73754e-05
3.78969e-05
3.83429e-05
3.86721e-05
3.90537e-05
3.96749e-05
4.035e-05
4.09152e-05
4.13906e-05
4.17949e-05
4.21344e-05
4.24273e-05
4.26523e-05
4.2842e-05
4.29901e-05
4.30993e-05
4.32073e-05
4.32874e-05
4.3371e-05
4.34132e-05
4.33936e-05
4.32393e-05
4.30023e-05
4.27111e-05
4.23937e-05
4.21376e-05
3.62057e-05
3.21582e-06
6.87745e-05
2.92541e-05
3.48141e-05
3.70303e-05
3.70118e-05
3.69682e-05
3.68041e-05
3.54892e-05
3.57425e-05
3.58517e-05
3.4779e-05
3.13637e-05
3.59813e-05
3.47338e-05
3.47003e-05
3.48981e-05
3.5215e-05
3.55402e-05
3.59367e-05
3.64388e-05
3.69674e-05
3.75131e-05
3.80367e-05
3.84923e-05
3.88245e-05
3.91868e-05
3.97872e-05
4.04742e-05
4.10322e-05
4.15011e-05
4.19038e-05
4.22395e-05
4.25191e-05
4.27592e-05
4.29394e-05
4.30915e-05
4.32041e-05
4.32835e-05
4.33648e-05
4.34248e-05
4.34861e-05
4.3504e-05
4.34578e-05
4.32742e-05
4.29987e-05
4.26631e-05
4.23059e-05
4.17513e-05
3.21542e-05
2.43092e-06
6.60502e-05
2.95036e-05
3.49656e-05
3.71927e-05
3.71984e-05
3.70713e-05
3.69451e-05
3.66918e-05
3.51268e-05
3.55051e-05
3.55412e-05
3.43952e-05
3.15258e-05
3.57887e-05
3.47701e-05
3.4965e-05
3.52597e-05
3.55974e-05
3.60141e-05
3.65129e-05
3.70772e-05
3.76365e-05
3.8167e-05
3.86289e-05
3.89727e-05
3.932e-05
3.98987e-05
4.05756e-05
4.11471e-05
4.16077e-05
4.20048e-05
4.23398e-05
4.2618e-05
4.28459e-05
4.30403e-05
4.3182e-05
4.33014e-05
4.33829e-05
4.3436e-05
4.34931e-05
4.35339e-05
4.35739e-05
4.35683e-05
4.3494e-05
4.32791e-05
4.29622e-05
4.25751e-05
4.21771e-05
4.10673e-05
2.77763e-05
2.42368e-06
6.42974e-05
2.9746e-05
3.51458e-05
3.73209e-05
3.73559e-05
3.7266e-05
3.70392e-05
3.68634e-05
3.65278e-05
3.47353e-05
3.53038e-05
3.52413e-05
3.40938e-05
3.1954e-05
3.57677e-05
3.50291e-05
3.53268e-05
3.56375e-05
3.60635e-05
3.65838e-05
3.7145e-05
3.77389e-05
3.82847e-05
3.87566e-05
3.9107e-05
3.94539e-05
4.0011e-05
4.06762e-05
4.12412e-05
4.17125e-05
4.21031e-05
4.24319e-05
4.27103e-05
4.29389e-05
4.31228e-05
4.32778e-05
4.33868e-05
4.34779e-05
4.35315e-05
4.35598e-05
4.35948e-05
4.36173e-05
4.36362e-05
4.36073e-05
4.35036e-05
4.32549e-05
4.28922e-05
4.24436e-05
4.19945e-05
3.98861e-05
2.35511e-05
2.99158e-06
6.24656e-05
3.00344e-05
3.53195e-05
3.74665e-05
3.74841e-05
3.74181e-05
3.72506e-05
3.69662e-05
3.67568e-05
3.63458e-05
3.43841e-05
3.51954e-05
3.50209e-05
3.39706e-05
3.25555e-05
3.59636e-05
3.5387e-05
3.57053e-05
3.60988e-05
3.66256e-05
3.7207e-05
3.78e-05
3.83812e-05
3.88704e-05
3.92334e-05
3.95733e-05
4.01271e-05
4.07801e-05
4.13334e-05
4.17973e-05
4.21985e-05
4.25233e-05
4.27943e-05
4.30238e-05
4.32108e-05
4.33577e-05
4.3479e-05
4.3559e-05
4.36243e-05
4.36529e-05
4.36581e-05
4.36721e-05
4.36763e-05
4.36739e-05
4.36216e-05
4.3488e-05
4.32019e-05
4.27872e-05
4.22634e-05
4.17152e-05
3.81057e-05
1.93422e-05
4.25913e-06
6.03317e-05
3.03379e-05
3.55239e-05
3.76115e-05
3.76293e-05
3.75474e-05
3.73987e-05
3.71984e-05
3.68468e-05
3.66073e-05
3.60865e-05
3.41063e-05
3.52739e-05
3.49486e-05
3.414e-05
3.32382e-05
3.62461e-05
3.57641e-05
3.61658e-05
3.66558e-05
3.72424e-05
3.78537e-05
3.84353e-05
3.89629e-05
3.93447e-05
3.96896e-05
4.02295e-05
4.08872e-05
4.14304e-05
4.18794e-05
4.22748e-05
4.26099e-05
4.28797e-05
4.31017e-05
4.32897e-05
4.34412e-05
4.35563e-05
4.36476e-05
4.37018e-05
4.37439e-05
4.37496e-05
4.3733e-05
4.37252e-05
4.37133e-05
4.3689e-05
4.36122e-05
4.3446e-05
4.31183e-05
4.26446e-05
4.20311e-05
4.127e-05
3.57398e-05
1.53807e-05
6.87176e-06
5.72966e-05
3.05685e-05
3.57354e-05
3.77809e-05
3.77737e-05
3.76948e-05
3.75313e-05
3.73401e-05
3.70993e-05
3.66848e-05
3.64263e-05
3.58402e-05
3.397e-05
3.54555e-05
3.51086e-05
3.46504e-05
3.39367e-05
3.65241e-05
3.62241e-05
3.67204e-05
3.72668e-05
3.7883e-05
3.84827e-05
3.9012e-05
3.94332e-05
3.97943e-05
4.03327e-05
4.09822e-05
4.15296e-05
4.19675e-05
4.23478e-05
4.26786e-05
4.29587e-05
4.31814e-05
4.33622e-05
4.35147e-05
4.36353e-05
4.37225e-05
4.37876e-05
4.38192e-05
4.384e-05
4.38233e-05
4.3786e-05
4.37601e-05
4.3729e-05
4.36829e-05
4.3581e-05
4.33781e-05
4.30028e-05
4.24603e-05
4.17476e-05
4.05599e-05
3.27703e-05
1.18688e-05
1.24651e-05
5.42412e-05
3.08078e-05
3.59018e-05
3.79517e-05
3.79414e-05
3.7839e-05
3.76825e-05
3.74751e-05
3.72343e-05
3.69551e-05
3.64884e-05
3.62467e-05
3.56505e-05
3.40994e-05
3.57975e-05
3.55328e-05
3.53294e-05
3.46004e-05
3.67602e-05
3.67896e-05
3.73284e-05
3.79015e-05
3.85044e-05
3.90536e-05
3.94786e-05
3.98762e-05
4.04281e-05
4.1078e-05
4.16177e-05
4.20566e-05
4.2428e-05
4.27435e-05
4.30209e-05
4.32537e-05
4.34368e-05
4.3582e-05
4.3704e-05
4.37976e-05
4.38614e-05
4.39031e-05
4.39132e-05
4.39125e-05
4.38771e-05
4.38192e-05
4.37734e-05
4.37227e-05
4.36542e-05
4.35256e-05
4.32852e-05
4.28541e-05
4.22288e-05
4.14115e-05
3.94331e-05
2.92236e-05
8.96243e-06
2.25792e-05
5.18732e-05
3.10342e-05
3.60712e-05
3.80907e-05
3.81098e-05
3.80057e-05
3.78277e-05
3.76315e-05
3.73712e-05
3.70865e-05
3.67738e-05
3.62729e-05
3.60939e-05
3.55076e-05
3.44423e-05
3.62338e-05
3.59493e-05
3.60761e-05
3.52364e-05
3.70048e-05
3.74257e-05
3.79604e-05
3.85183e-05
3.90682e-05
3.95159e-05
3.99164e-05
4.05014e-05
4.11661e-05
4.17062e-05
4.21365e-05
4.25073e-05
4.28166e-05
4.30786e-05
4.33104e-05
4.35031e-05
4.36523e-05
4.3767e-05
4.38628e-05
4.39333e-05
4.39763e-05
4.39947e-05
4.39867e-05
4.39685e-05
4.39115e-05
4.38324e-05
4.3765e-05
4.36976e-05
4.36046e-05
4.34463e-05
4.31636e-05
4.2668e-05
4.19425e-05
4.09828e-05
3.78165e-05
2.53715e-05
6.79963e-06
3.53213e-05
5.03033e-05
3.12662e-05
3.62325e-05
3.82294e-05
3.82497e-05
3.81725e-05
3.7996e-05
3.77782e-05
3.7531e-05
3.72291e-05
3.69035e-05
3.65771e-05
3.60855e-05
3.60248e-05
3.55757e-05
3.49697e-05
3.66938e-05
3.62132e-05
3.71115e-05
3.57607e-05
3.75448e-05
3.80771e-05
3.85746e-05
3.90774e-05
3.95264e-05
3.99494e-05
4.05346e-05
4.12318e-05
4.17877e-05
4.22169e-05
4.25804e-05
4.28871e-05
4.31459e-05
4.33618e-05
4.3555e-05
4.37135e-05
4.38339e-05
4.39233e-05
4.39961e-05
4.40451e-05
4.40678e-05
4.4069e-05
4.4041e-05
4.4004e-05
4.39265e-05
4.38277e-05
4.37424e-05
4.36539e-05
4.35349e-05
4.33436e-05
4.30116e-05
4.24392e-05
4.15937e-05
4.03711e-05
3.57133e-05
2.16471e-05
5.75983e-06
4.31312e-05
4.95211e-05
3.19179e-05
3.63993e-05
3.83626e-05
3.83882e-05
3.83134e-05
3.81632e-05
3.79466e-05
3.76812e-05
3.73924e-05
3.70539e-05
3.67061e-05
3.64011e-05
3.59762e-05
3.61141e-05
3.58676e-05
3.57967e-05
3.72425e-05
3.65455e-05
3.84616e-05
3.59832e-05
3.84044e-05
3.87003e-05
3.91315e-05
3.95316e-05
3.99562e-05
4.05601e-05
4.12584e-05
4.18466e-05
4.22921e-05
4.26544e-05
4.29545e-05
4.32087e-05
4.34238e-05
4.36011e-05
4.37612e-05
4.3891e-05
4.39872e-05
4.40545e-05
4.41053e-05
4.41364e-05
4.41417e-05
4.41231e-05
4.40761e-05
4.40195e-05
4.39258e-05
4.38073e-05
4.37011e-05
4.35907e-05
4.34433e-05
4.32143e-05
4.28266e-05
4.21599e-05
4.11821e-05
3.94458e-05
3.30441e-05
1.81943e-05
6.46162e-06
4.45899e-05
4.90447e-05
3.24224e-05
3.68679e-05
3.85008e-05
3.85213e-05
3.84525e-05
3.83054e-05
3.81161e-05
3.78496e-05
3.75465e-05
3.72236e-05
3.68632e-05
3.65308e-05
3.62951e-05
3.60249e-05
3.63941e-05
3.63225e-05
3.69041e-05
3.75857e-05
3.70373e-05
3.98361e-05
3.59927e-05
3.93512e-05
3.92679e-05
3.9582e-05
3.9959e-05
4.0561e-05
4.12771e-05
4.18682e-05
4.23447e-05
4.27244e-05
4.3023e-05
4.32707e-05
4.34801e-05
4.36581e-05
4.38031e-05
4.39357e-05
4.40405e-05
4.41155e-05
4.41618e-05
4.41965e-05
4.42087e-05
4.41964e-05
4.41579e-05
4.40961e-05
4.40233e-05
4.39096e-05
4.37699e-05
4.36423e-05
4.3508e-05
4.33289e-05
4.30561e-05
4.26008e-05
4.18209e-05
4.06933e-05
3.80568e-05
2.97627e-05
1.48409e-05
9.99312e-06
4.53589e-05
4.8712e-05
2.90328e-05
3.77563e-05
3.89035e-05
3.86603e-05
3.85861e-05
3.84467e-05
3.82612e-05
3.8024e-05
3.77169e-05
3.73814e-05
3.70391e-05
3.66913e-05
3.64237e-05
3.63355e-05
3.62744e-05
3.6727e-05
3.6804e-05
3.78799e-05
3.76932e-05
3.76699e-05
4.09936e-05
3.59435e-05
4.02812e-05
3.9731e-05
4.00036e-05
4.05605e-05
4.12719e-05
4.18828e-05
4.23622e-05
4.27723e-05
4.3088e-05
4.33342e-05
4.35372e-05
4.37087e-05
4.38559e-05
4.39736e-05
4.40828e-05
4.41659e-05
4.42224e-05
4.42529e-05
4.42681e-05
4.42621e-05
4.42334e-05
4.4181e-05
4.41016e-05
4.40107e-05
4.38777e-05
4.37162e-05
4.35658e-05
4.3405e-05
4.31898e-05
4.28652e-05
4.23291e-05
4.14116e-05
4.00403e-05
3.61577e-05
2.60018e-05
1.18127e-05
1.8024e-05
4.59475e-05
4.84217e-05
7.62232e-05
3.28243e-05
4.03265e-05
3.90836e-05
3.87266e-05
3.85819e-05
3.8405e-05
3.81744e-05
3.78967e-05
3.75553e-05
3.72012e-05
3.68713e-05
3.65849e-05
3.64621e-05
3.6563e-05
3.6607e-05
3.70343e-05
3.73462e-05
3.85263e-05
3.77942e-05
3.84001e-05
4.22655e-05
3.56454e-05
4.11158e-05
4.01667e-05
4.05977e-05
4.12675e-05
4.18737e-05
4.23737e-05
4.27872e-05
4.31323e-05
4.33949e-05
4.35964e-05
4.37617e-05
4.39017e-05
4.40228e-05
4.41175e-05
4.42049e-05
4.42698e-05
4.43107e-05
4.43246e-05
4.4321e-05
4.43013e-05
4.42583e-05
4.41887e-05
4.40925e-05
4.39834e-05
4.38305e-05
4.36459e-05
4.34709e-05
4.32801e-05
4.30233e-05
4.26368e-05
4.20011e-05
4.09236e-05
3.90452e-05
3.37864e-05
2.22486e-05
9.60217e-06
3.01219e-05
4.60661e-05
4.81238e-05
0.000842507
6.01633e-05
3.38942e-05
4.10701e-05
3.91758e-05
3.87253e-05
3.85422e-05
3.83213e-05
3.80527e-05
3.77404e-05
3.73787e-05
3.70356e-05
3.67689e-05
3.6611e-05
3.66861e-05
3.68677e-05
3.69652e-05
3.7385e-05
3.8002e-05
3.90848e-05
3.79488e-05
3.91594e-05
4.35826e-05
3.50992e-05
4.18972e-05
4.07747e-05
4.1296e-05
4.18671e-05
4.23621e-05
4.27961e-05
4.31461e-05
4.34362e-05
4.36532e-05
4.38169e-05
4.39508e-05
4.40646e-05
4.41635e-05
4.42373e-05
4.43089e-05
4.43565e-05
4.43802e-05
4.43781e-05
4.43625e-05
4.43272e-05
4.42687e-05
4.41828e-05
4.40695e-05
4.39418e-05
4.37681e-05
4.35588e-05
4.33564e-05
4.3131e-05
4.28253e-05
4.23609e-05
4.16047e-05
4.03289e-05
3.76008e-05
3.08874e-05
1.90403e-05
9.23555e-06
3.98781e-05
4.59268e-05
4.82667e-05
0.000653213
0.000251089
5.44086e-05
3.39492e-05
4.2192e-05
3.92067e-05
3.86893e-05
3.84612e-05
3.82036e-05
3.79009e-05
3.75674e-05
3.7215e-05
3.69359e-05
3.67894e-05
3.68192e-05
3.69894e-05
3.71909e-05
3.7413e-05
3.77794e-05
3.87045e-05
3.9569e-05
3.80772e-05
3.98442e-05
4.50888e-05
3.4613e-05
4.28743e-05
4.14872e-05
4.18866e-05
4.23546e-05
4.27825e-05
4.31531e-05
4.34497e-05
4.36923e-05
4.38706e-05
4.40025e-05
4.41101e-05
4.42017e-05
4.42803e-05
4.43391e-05
4.43937e-05
4.44254e-05
4.44351e-05
4.44214e-05
4.43903e-05
4.43398e-05
4.42661e-05
4.41638e-05
4.40331e-05
4.38859e-05
4.36901e-05
4.34537e-05
4.32205e-05
4.29545e-05
4.2591e-05
4.20303e-05
4.11304e-05
3.9528e-05
3.57182e-05
2.74582e-05
1.62371e-05
1.20511e-05
4.34685e-05
4.58106e-05
4.8537e-05
0.000352572
0.000205132
0.0001635
5.44254e-05
3.38035e-05
4.40124e-05
3.92061e-05
3.86125e-05
3.83469e-05
3.80563e-05
3.77324e-05
3.74069e-05
3.71151e-05
3.69526e-05
3.69863e-05
3.71358e-05
3.73137e-05
3.75835e-05
3.79456e-05
3.82485e-05
3.93677e-05
3.99553e-05
3.8143e-05
4.05809e-05
4.63907e-05
3.42785e-05
4.39979e-05
4.20932e-05
4.23651e-05
4.27752e-05
4.3139e-05
4.34558e-05
4.37061e-05
4.39078e-05
4.40532e-05
4.41588e-05
4.42443e-05
4.43157e-05
4.43798e-05
4.44225e-05
4.44601e-05
4.4479e-05
4.44778e-05
4.44508e-05
4.44056e-05
4.43401e-05
4.42512e-05
4.41321e-05
4.39833e-05
4.38153e-05
4.35956e-05
4.33292e-05
4.30606e-05
4.27463e-05
4.23119e-05
4.1635e-05
4.05584e-05
3.8368e-05
3.33505e-05
2.39264e-05
1.36019e-05
2.00456e-05
4.44366e-05
4.57322e-05
4.88378e-05
0.000244746
0.000143307
0.000139098
0.000158066
5.37573e-05
3.367e-05
4.54522e-05
3.91687e-05
3.85033e-05
3.82035e-05
3.78928e-05
3.75769e-05
3.73084e-05
3.71287e-05
3.71393e-05
3.73159e-05
3.74736e-05
3.77132e-05
3.80496e-05
3.85308e-05
3.88142e-05
3.9985e-05
4.02478e-05
3.80538e-05
4.14988e-05
4.74629e-05
3.40006e-05
4.54271e-05
4.25882e-05
4.27766e-05
4.31319e-05
4.34423e-05
4.37122e-05
4.39228e-05
4.40891e-05
4.42065e-05
4.429e-05
4.4355e-05
4.4413e-05
4.44611e-05
4.44883e-05
4.45153e-05
4.45217e-05
4.45077e-05
4.44682e-05
4.44092e-05
4.43288e-05
4.42242e-05
4.40878e-05
4.39197e-05
4.37295e-05
4.34835e-05
4.3183e-05
4.28733e-05
4.25008e-05
4.19762e-05
4.1158e-05
3.98157e-05
3.67714e-05
3.0479e-05
2.08608e-05
1.20211e-05
3.25038e-05
4.4865e-05
4.58249e-05
4.92284e-05
0.00020377
0.000116201
0.000107965
0.000133879
0.000149619
5.32558e-05
3.35028e-05
4.69951e-05
3.91018e-05
3.83655e-05
3.80442e-05
3.77409e-05
3.74827e-05
3.73214e-05
3.73108e-05
3.74747e-05
3.76632e-05
3.78577e-05
3.81911e-05
3.85671e-05
3.9136e-05
3.93782e-05
4.0536e-05
4.05292e-05
3.79438e-05
4.2584e-05
4.83352e-05
3.37314e-05
4.64853e-05
4.30173e-05
4.31262e-05
4.34359e-05
4.37004e-05
4.39298e-05
4.41059e-05
4.42417e-05
4.43352e-05
4.43986e-05
4.44507e-05
4.44924e-05
4.45251e-05
4.45428e-05
4.45576e-05
4.4552e-05
4.4526e-05
4.44742e-05
4.44017e-05
4.43061e-05
4.41853e-05
4.40308e-05
4.38419e-05
4.36274e-05
4.33522e-05
4.30123e-05
4.26535e-05
4.22102e-05
4.1576e-05
4.05814e-05
3.87629e-05
3.47259e-05
2.71719e-05
1.8289e-05
1.35287e-05
4.13534e-05
4.50154e-05
4.58698e-05
4.97326e-05
0.000186202
0.000105221
9.18837e-05
0.000104558
0.000127122
0.00014229
5.28303e-05
3.33042e-05
4.8074e-05
3.9009e-05
3.82115e-05
3.78972e-05
3.76482e-05
3.7496e-05
3.74987e-05
3.76475e-05
3.78296e-05
3.80333e-05
3.83175e-05
3.87174e-05
3.90997e-05
3.97101e-05
3.98628e-05
4.10846e-05
4.10036e-05
3.80739e-05
4.33291e-05
4.90235e-05
3.35747e-05
4.73119e-05
4.33844e-05
4.34243e-05
4.36949e-05
4.39201e-05
4.41144e-05
4.42604e-05
4.43701e-05
4.44428e-05
4.44916e-05
4.45281e-05
4.45548e-05
4.45782e-05
4.45848e-05
4.45883e-05
4.45714e-05
4.45336e-05
4.44694e-05
4.43834e-05
4.42722e-05
4.41343e-05
4.39605e-05
4.37491e-05
4.35074e-05
4.3199e-05
4.28134e-05
4.23953e-05
4.18615e-05
4.11003e-05
3.98396e-05
3.73146e-05
3.22043e-05
2.39438e-05
1.58616e-05
2.05057e-05
4.44487e-05
4.49558e-05
4.58786e-05
5.03767e-05
0.000171288
9.93666e-05
8.48013e-05
8.93771e-05
0.000100298
0.000121102
0.000131687
5.22448e-05
3.29745e-05
4.92613e-05
3.89029e-05
3.80684e-05
3.78086e-05
3.76617e-05
3.76704e-05
3.78297e-05
3.8003e-05
3.81891e-05
3.84773e-05
3.88335e-05
3.92568e-05
3.96271e-05
4.01619e-05
4.03088e-05
4.17982e-05
4.16035e-05
3.83369e-05
4.41004e-05
4.95435e-05
3.35923e-05
4.78675e-05
4.36997e-05
4.3678e-05
4.39161e-05
4.41076e-05
4.42714e-05
4.43912e-05
4.44779e-05
4.45328e-05
4.45671e-05
4.45882e-05
4.46074e-05
4.46192e-05
4.46155e-05
4.46082e-05
4.45805e-05
4.45308e-05
4.44541e-05
4.43543e-05
4.42269e-05
4.40711e-05
4.38763e-05
4.364e-05
4.33672e-05
4.30207e-05
4.25812e-05
4.20905e-05
4.1445e-05
4.05193e-05
3.88125e-05
3.54539e-05
2.92504e-05
2.13015e-05
1.45524e-05
3.2671e-05
4.52183e-05
4.48668e-05
4.58837e-05
5.12409e-05
0.000157905
9.3902e-05
8.09671e-05
8.2729e-05
8.60583e-05
9.64476e-05
0.000115143
0.000117827
5.39339e-05
3.28065e-05
5.06138e-05
3.88083e-05
3.79834e-05
3.78236e-05
3.78339e-05
3.79975e-05
3.81801e-05
3.83536e-05
3.86219e-05
3.89781e-05
3.93672e-05
3.97794e-05
4.01241e-05
4.05183e-05
4.09007e-05
4.25862e-05
4.21054e-05
3.85267e-05
4.47924e-05
4.99103e-05
3.37687e-05
4.81383e-05
4.39724e-05
4.38944e-05
4.41054e-05
4.42681e-05
4.44051e-05