/*--------------------------------*- C++ -*----------------------------------*\
| =========                 |                                                 |
| \\      /  F ield         | OpenFOAM: The Open Source CFD Toolbox           |
|  \\    /   O peration     | Version:  v2012                                 |
|   \\  /    A nd           | Website:  www.openfoam.com                      |
|    \\/     M anipulation  |                                                 |
\*---------------------------------------------------------------------------*/
FoamFile
{
    version     2.0;
    format      ascii;
    class       volScalarField;
    location    "13380";
    object      I1;
}
// * * * * * * * * * * * * * * * * * * * * * * * * * * * * * * * * * * * * * //

dimensions      [0 0 0 0 0 0 0];


internalField   nonuniform List<scalar> 
31383
(
4.17816e-13
1.24248e-10
7.42252e-10
1.07067e-10
1.36605e-07
5.21385e-08
9.56594e-11
1.18061e-07
9.11994e-06
9.98238e-07
8.7714e-11
1.05688e-07
7.93323e-06
0.000145485
9.39909e-06
8.15241e-11
9.7039e-08
7.14062e-06
0.000127471
0.00100481
5.53528e-05
7.64951e-11
9.02938e-08
6.57958e-06
0.000115532
0.000895104
0.00395948
0.000231284
7.24254e-11
8.48119e-08
6.13548e-06
0.000107372
0.000812847
0.00364534
0.0107227
0.000759916
6.90912e-11
8.03641e-08
5.77658e-06
0.000100661
0.000759073
0.00337506
0.00987428
0.0228657
0.00204881
6.62235e-11
7.67101e-08
5.48841e-06
9.48962e-05
0.000721487
0.00312975
0.00951668
0.0205231
0.0383994
0.00482296
6.37013e-11
7.35696e-08
5.24834e-06
9.04128e-05
0.000685605
0.00297506
0.00904712
0.0194979
0.0364046
0.051378
0.0108292
6.14089e-11
7.0811e-08
5.03809e-06
8.69322e-05
0.000651538
0.00288807
0.0084446
0.0194674
0.0331783
0.05275
0.0645078
0.0210503
5.93398e-11
6.82975e-08
4.85565e-06
8.37144e-05
0.000627316
0.00277859
0.00813373
0.018793
0.0321595
0.0512043
0.0628632
0.08075
0.0309467
5.74572e-11
6.60226e-08
4.69226e-06
8.06708e-05
0.000610351
0.00264917
0.0080715
0.0175473
0.0329345
0.0469441
0.0662726
0.0732522
0.0883427
0.0444027
5.579e-11
6.39562e-08
4.54181e-06
7.8082e-05
0.000591449
0.0025708
0.0078446
0.0170891
0.0321464
0.0460155
0.0651459
0.0722927
0.0873643
0.0852681
0.0623075
5.43172e-11
6.21297e-08
4.40213e-06
7.59146e-05
0.000570368
0.0025357
0.00746256
0.0173214
0.0299416
0.0481174
0.0597678
0.0773754
0.0796732
0.09233
0.0878178
0.0687502
5.30232e-11
6.05116e-08
4.28057e-06
7.37618e-05
0.000554753
0.00246996
0.00728966
0.0169566
0.0294055
0.047308
0.0590554
0.0766205
0.0791428
0.0918428
0.0873587
0.0978685
0.068735
5.18769e-11
5.90852e-08
4.17535e-06
7.16813e-05
0.000543899
0.00237765
0.00729946
0.016044
0.0303668
0.0439061
0.0626389
0.0702437
0.0854768
0.0839066
0.095025
0.089135
0.0989288
0.0741768
5.08763e-11
5.78245e-08
4.08061e-06
6.99898e-05
0.000531008
0.00232349
0.00714717
0.0157564
0.0298996
0.0433701
0.0620078
0.0697266
0.0849934
0.0835833
0.0947212
0.0888995
0.0985815
0.0906987
0.0893159
4.99884e-11
5.67275e-08
3.99435e-06
6.86538e-05
0.000516313
0.00230515
0.00684666
0.0160397
0.0281024
0.0455188
0.0573125
0.074837
0.0778777
0.0907656
0.0865608
0.0969416
0.0900271
0.098953
0.0905397
0.0947328
4.92048e-11
5.57506e-08
3.92094e-06
6.73237e-05
0.000506276
0.002261
0.00672444
0.0157776
0.0277054
0.0450374
0.056823
0.0743941
0.0775493
0.0905008
0.0863863
0.0967738
0.0899325
0.0989181
0.0903365
0.0985574
0.0900747
4.85113e-11
5.48844e-08
3.85782e-06
6.60124e-05
0.000500387
0.00219331
0.00676661
0.0150132
0.0286754
0.0419765
0.0604312
0.0684608
0.0838691
0.0828753
0.0941039
0.0884359
0.0982292
0.0903989
0.0988084
0.0898949
0.0979107
0.0927792
4.78972e-11
5.41206e-08
3.80016e-06
6.49799e-05
0.000492471
0.00215902
0.00666581
0.014811
0.0283318
0.0415714
0.0599674
0.0680962
0.0835522
0.0826806
0.0939434
0.0883157
0.0981144
0.0903581
0.0988059
0.0899326
0.0975671
0.0889289
0.103761
4.73491e-11
5.34477e-08
3.74707e-06
6.42069e-05
0.000482498
0.00215616
0.00643017
0.0151382
0.0267453
0.0436891
0.0555745
0.0731512
0.076711
0.0898487
0.0859788
0.0963551
0.0896561
0.0987669
0.0903373
0.098361
0.0893159
0.0966948
0.0882731
0.104792
4.68574e-11
5.28438e-08
3.70183e-06
6.33942e-05
0.000476302
0.0021287
0.00635316
0.0149672
0.0264844
0.0433373
0.0552165
0.0727798
0.0764672
0.0896496
0.085878
0.0962518
0.0895753
0.0987187
0.0903239
0.0983833
0.0893542
0.0967697
0.0876649
0.0956909
0.0957008
4.64088e-11
5.22985e-08
3.66334e-06
6.25376e-05
0.000473608
0.002078
0.00642448
0.0143248
0.0274917
0.0405638
0.0587883
0.0671323
0.0827065
0.0821797
0.0935612
0.0880401
0.0978507
0.0902283
0.0987748
0.0899832
0.0977183
0.0886149
0.0958198
0.0869206
0.0950252
0.0955872
4.59971e-11
5.18041e-08
3.62703e-06
6.18951e-05
0.000468673
0.00205669
0.00636099
0.0141958
0.0272692
0.0402918
0.058444
0.0668611
0.0824587
0.0820272
0.0934486
0.0879636
0.0977894
0.0901928
0.098769
0.0899955
0.0977518
0.0886648
0.0958851
0.0869736
0.0943588
0.0866456
0.104542
4.56203e-11
5.13535e-08
3.59201e-06
6.14492e-05
0.000461527
0.00206329
0.00616794
0.0145593
0.0258554
0.0424272
0.0543367
0.0718598
0.0758075
0.0891365
0.0855715
0.0959873
0.0894033
0.0986055
0.0902966
0.0984279
0.0894434
0.0969342
0.0878442
0.0950061
0.086479
0.0940828
0.0864702
0.103952
4.52767e-11
5.09381e-08
3.56159e-06
6.09201e-05
0.000457588
0.00204597
0.00611908
0.0144511
0.025688
0.0421867
0.054088
0.0716161
0.075627
0.0889855
0.0854809
0.0959068
0.0893486
0.0985706
0.0902892
0.0984348
0.0894719
0.0969688
0.0878931
0.0950563
0.0865041
0.0940936
0.0860349
0.0942938
0.0944263
4.4966e-11
5.05561e-08
3.53557e-06
6.03054e-05
0.000456649
0.00200543
0.00620851
0.0138858
0.0267283
0.0396292
0.0576416
0.0661862
0.0818374
0.0816367
0.093139
0.0877472
0.0976014
0.0901115
0.098735
0.090021
0.0978304
0.0887707
0.0960454
0.0871063
0.0944419
0.0862348
0.0938864
0.0858754
0.0942381
0.0952113
4.46846e-11
5.02133e-08
3.51015e-06
5.98615e-05
0.000453306
0.00199141
0.00616759
0.013803
0.0265843
0.0394518
0.0574242
0.0660055
0.0816698
0.0815263
0.0930528
0.0876844
0.0975494
0.090081
0.0987275
0.0900288
0.0978453
0.0887966
0.0960832
0.0871401
0.0944667
0.0862472
0.0938985
0.0858717
0.093539
0.0863207
0.106734
4.44337e-11
4.99061e-08
3.48535e-06
5.9582e-05
0.000447637
0.00200294
0.0059993
0.0141887
0.0252823
0.0416041
0.0535002
0.0709872
0.0751771
0.0886124
0.0852477
0.095692
0.0892045
0.0984786
0.090267
0.0984528
0.0895206
0.0970607
0.087994
0.0951721
0.0865686
0.0941342
0.0860632
0.0937056
0.0857171
0.0934003
0.0863291
0.106345
4.42102e-11
4.96294e-08
3.46452e-06
5.92138e-05
0.000444861
0.00199088
0.00596581
0.0141165
0.0251726
0.0414472
0.0533423
0.0708194
0.0750506
0.0885082
0.0851803
0.0956287
0.0891641
0.0984535
0.0902593
0.0984602
0.0895342
0.0970857
0.0880214
0.0952007
0.0865838
0.0941455
0.0860739
0.0937165
0.0857288
0.0933647
0.0855087
0.094277
0.0906253
4.40094e-11
4.93798e-08
3.44771e-06
5.87567e-05
0.000444904
0.00195583
0.00606375
0.0135961
0.0262289
0.0390182
0.0568957
0.0655513
0.0812473
0.0812556
0.0928276
0.0875233
0.0974079
0.0900148
0.0987032
0.0900451
0.0978982
0.0888608
0.0961778
0.087217
0.0945201
0.0862778
0.0939325
0.0859019
0.093539
0.0855909
0.0932329
0.085426
0.0943515
0.0853682
4.3824e-11
4.91581e-08
3.43115e-06
5.846e-05
0.000442605
0.001946
0.0060347
0.0135378
0.026129
0.0388981
0.0567518
0.0654288
0.0811335
0.0811811
0.0927693
0.0874816
0.0973706
0.0899944
0.0986953
0.090049
0.0979117
0.0888837
0.0962062
0.0872407
0.0945357
0.0862854
0.0939403
0.0859098
0.0935461
0.0855974
0.093234
0.0853624
0.0931222
0.0865064
0.0901357
4.36522e-11
4.89565e-08
3.41451e-06
5.83171e-05
0.000438029
0.00196075
0.00588138
0.0139324
0.0248926
0.0410526
0.0529493
0.0704064
0.0747463
0.0882563
0.0850235
0.0954779
0.08906
0.098386
0.0902401
0.0984732
0.089573
0.0971541
0.0880981
0.0952807
0.0866251
0.0941715
0.0860974
0.0937409
0.0857511
0.0933842
0.0854727
0.0931113
0.0852733
0.0930774
0.0866545
0.0879193
4.34787e-11
4.87669e-08
3.40076e-06
5.80782e-05
0.000436212
0.00195263
0.00585816
0.0138814
0.0248138
0.0409409
0.0528382
0.0702912
0.074663
0.0881862
0.0849774
0.0954371
0.0890299
0.0983641
0.0902352
0.0984756
0.0895832
0.0971716
0.0881188
0.0953057
0.0866383
0.0941798
0.0861045
0.0937469
0.0857563
0.0933891
0.0854759
0.0931115
0.0852665
0.0929322
0.0853045
0.0950496
0.0784529
4.33329e-11
4.85722e-08
3.3897e-06
5.77371e-05
0.00043707
0.00192199
0.00596286
0.0133916
0.0258759
0.0385902
0.0563824
0.0651199
0.0808477
0.0809966
0.0926173
0.087369
0.097269
0.0899424
0.0986745
0.0900575
0.0979442
0.0889304
0.0962798
0.0873041
0.0945803
0.0863084
0.0939628
0.085928
0.0935626
0.0856116
0.0932421
0.0853633
0.0930014
0.0851857
0.0928656
0.0853107
0.095807
0.076176
4.37965e-11
4.84116e-08
3.37675e-06
5.75329e-05
0.000435543
0.00191558
0.0059437
0.013352
0.025806
0.0385043
0.056278
0.0650314
0.0807666
0.0809437
0.0925751
0.0873403
0.0972414
0.0899272
0.0986679
0.090059
0.0979531
0.0889429
0.096299
0.0873212
0.0945929
0.0863153
0.0939705
0.0859339
0.0935668
0.085615
0.0932446
0.0853649
0.092999
0.0851815
0.0928373
0.0850946
0.0931091
0.0885165
0.0800632
1.07259e-10
4.89146e-08
3.36428e-06
5.74449e-05
0.00043166
0.0019328
0.00580207
0.0137562
0.0246181
0.0406597
0.0525552
0.0699946
0.0744472
0.0880082
0.0848664
0.0953299
0.0889565
0.0983139
0.0902165
0.0984812
0.0896049
0.0972142
0.0881697
0.0953643
0.0866725
0.0942031
0.0861241
0.0937664
0.0857695
0.0933985
0.085484
0.0931128
0.0852647
0.0929013
0.0851102
0.0927756
0.0850643
0.0931828
0.08947
0.0767705
4.86911e-11
2.34956e-07
3.39647e-06
5.72724e-05
0.000430236
0.00192719
0.00578652
0.0137226
0.0245657
0.0405827
0.0524787
0.0699113
0.0743861
0.0879576
0.0848357
0.0953018
0.0889353
0.0982977
0.0902116
0.0984805
0.0896101
0.0972248
0.0881824
0.0953803
0.0866823
0.0942092
0.0861294
0.0937723
0.0857751
0.0934026
0.0854865
0.0931132
0.085264
0.0928984
0.0851037
0.0927592
0.0850187
0.0927695
0.085496
0.0991036
0.0673716
5.01692e-11
6.67793e-08
1.31234e-05
5.76362e-05
0.000431501
0.00189853
0.00589547
0.0132549
0.0256365
0.0382927
0.0560171
0.0648103
0.0805582
0.0808103
0.0924662
0.0872626
0.0971708
0.0898895
0.0986481
0.0900594
0.0979698
0.0889716
0.0963437
0.0873629
0.0946253
0.0863326
0.0939881
0.0859497
0.0935828
0.085626
0.0932522
0.085369
0.0929953
0.0851742
0.0928116
0.08504
0.0927043
0.0849868
0.0927751
0.0856207
0.100398
0.0633027
6.9737e-11
6.93039e-08
5.19814e-06
0.000202228
0.000434541
0.0018939
0.00588033
0.0132274
0.0255893
0.0382357
0.0559466
0.0647479
0.0805
0.0807725
0.0924348
0.0872408
0.0971499
0.0898785
0.098643
0.0900597
0.0979737
0.0889781
0.0963558
0.0873734
0.0946336
0.0863372
0.0939926
0.0859535
0.0935875
0.0856289
0.0932558
0.0853707
0.0929956
0.0851725
0.0928062
0.0850347
0.092687
0.0849624
0.0926734
0.0850724
0.0936257
0.0927707
0.0625178
5.78604e-11
9.53352e-08
5.45575e-06
9.18214e-05
0.00135055
0.00192733
0.00574537
0.0136331
0.0244332
0.0403941
0.0522845
0.0697045
0.0742329
0.087828
0.0847543
0.0952256
0.0888843
0.0982604
0.0901958
0.0984812
0.089621
0.0972482
0.0882128
0.095417
0.0867051
0.094225
0.0861418
0.0937851
0.0857864
0.0934145
0.0854951
0.0931194
0.0852651
0.0928906
0.0850931
0.0927307
0.0849802
0.0926408
0.0849348
0.0926684
0.0851139
0.0938444
0.0939706
0.0547815
4.56736e-11
7.7862e-08
7.35733e-06
9.85654e-05
0.000669285
0.00533399
0.00576794
0.0136087
0.0243918
0.0403404
0.0522309
0.0696487
0.0741902
0.0877921
0.0847312
0.0952048
0.0888691
0.09825
0.0901915
0.0984805
0.0896241
0.0972549
0.0882203
0.0954266
0.0867116
0.094229
0.0861449
0.0937883
0.0857896
0.0934168
0.0854976
0.0931215
0.0852671
0.0928897
0.0850911
0.092724
0.0849725
0.0926268
0.0849129
0.0926159
0.0849665
0.0929349
0.0861594
0.104628
0.0419325
4.36976e-11
6.08135e-08
5.91977e-06
0.000129143
0.000750814
0.00277578
0.0143077
0.0132094
0.0254636
0.0380833
0.0557685
0.0645953
0.0803574
0.0806779
0.0923562
0.0871841
0.097099
0.0898505
0.0986271
0.0900591
0.0979848
0.0889948
0.096382
0.0873996
0.0946547
0.0863484
0.0940029
0.0859624
0.0935968
0.0856379
0.0932623
0.0853775
0.0929995
0.0851729
0.0927968
0.0850211
0.092658
0.0849253
0.0925878
0.08489
0.0926117
0.0849879
0.0930465
0.0865143
0.105834
0.0307282
4.21457e-11
5.7628e-08
4.58432e-06
0.000103388
0.00095966
0.00320033
0.00811105
0.0277447
0.0254984
0.0380408
0.0557128
0.0645521
0.0803173
0.0806517
0.0923347
0.0871682
0.0970833
0.089842
0.098623
0.0900588
0.0979877
0.088999
0.0963895
0.0874065
0.0946606
0.0863512
0.0940058
0.0859645
0.0935989
0.0856405
0.0932646
0.0853786
0.0930002
0.0851737
0.0927969
0.0850189
0.092652
0.0849165
0.0925721
0.0848729
0.0925692
0.0849162
0.0927554
0.085393
0.0955183
0.0964112
0.0172146
4.18225e-11
4.76559e-08
4.29291e-06
8.03781e-05
0.000767558
0.00405226
0.00917816
0.0177358
0.0449234
0.0402595
0.0520882
0.0694989
0.074084
0.0877032
0.0846733
0.09515
0.0888304
0.0982209
0.0901797
0.0984798
0.0896315
0.0972708
0.0882389
0.0954504
0.0867271
0.0942392
0.0861519
0.0937956
0.0857961
0.0934243
0.0855033
0.0931252
0.0852703
0.0928914
0.0850903
0.092715
0.0849573
0.092595
0.0848762
0.0925405
0.0848555
0.0925689
0.0849337
0.092824
0.0855487
0.0972305
0.0949663
0.00404246
4.17045e-11
4.63389e-08
3.27148e-06
7.47152e-05
0.000601171
0.00331932
0.0112085
0.0202633
0.0298695
0.0665552
0.0520872
0.0694581
0.0740501
0.0876776
0.0846577
0.0951345
0.0888198
0.0982136
0.090176
0.0984793
0.0896333
0.0972753
0.0882448
0.0954564
0.0867316
0.094242
0.0861538
0.0937969
0.0857977
0.0934255
0.0855043
0.0931257
0.0852707
0.0928909
0.08509
0.0927137
0.0849556
0.0925883
0.0848681
0.092524
0.0848374
0.092536
0.0848809
0.0926855
0.0851535
0.093613
0.0906066
0.0996766
0.000518772
4.16194e-11
4.61158e-08
3.19091e-06
5.5183e-05
0.000559802
0.00259346
0.00967323
0.023584
0.0347568
0.0443393
0.0820456
0.064452
0.0802107
0.0805824
0.0922786
0.0871275
0.0970462
0.0898209
0.0986103
0.0900575
0.0979942
0.0890107
0.0964075
0.0874242
0.0946754
0.0863589
0.0940117
0.0859694
0.0936027
0.085644
0.0932676
0.0853809
0.0930006
0.085174
0.0927945
0.0850163
0.092642
0.0849022
0.0925397
0.0848344
0.0924996
0.0848258
0.0925412
0.0848994
0.0927427
0.08525
0.0938804
0.0923795
0.0922474
7.76018e-05
4.14892e-11
4.5977e-08
3.16788e-06
5.38504e-05
0.00041538
0.00239063
0.00774711
0.0203444
0.0422008
0.0474726
0.0623506
0.0847993
0.0801715
0.0805634
0.0922615
0.0871154
0.0970347
0.0898143
0.0986064
0.0900565
0.0979956
0.0890138
0.0964125
0.0874292
0.0946799
0.0863609
0.0940134
0.0859709
0.0936046
0.0856442
0.0932683
0.0853811
0.0930004
0.0851736
0.0927934
0.0850148
0.0926399
0.0848994
0.0925346
0.0848257
0.0924842
0.0848067
0.0925087
0.0848604
0.0926466
0.0850695
0.093185
0.086252
0.103368
0.0777109
2.00144e-05
4.13641e-11
4.5793e-08
3.15296e-06
5.34727e-05
0.000403507
0.0018453
0.00694699
0.017069
0.0353129
0.0609128
0.0607806
0.0749677
0.0898877
0.0875881
0.0846143
0.0950938
0.0887905
0.0981921
0.0901659
0.0984757
0.0896368
0.0972851
0.0882579
0.0954741
0.086743
0.0942492
0.0861584
0.0938014
0.085801
0.0934282
0.085506
0.0931265
0.0852705
0.0928889
0.0850877
0.0927083
0.0849499
0.0925778
0.0848535
0.0924939
0.0847981
0.0924665
0.0848004
0.0925198
0.0848824
0.0927021
0.0851473
0.0933705
0.0869291
0.105179
0.0717009
6.02886e-06
4.12765e-11
4.56108e-08
3.13654e-06
5.32019e-05
0.000399508
0.00180539
0.00554624
0.015689
0.0287666
0.055193
0.0711627
0.0772488
0.0774701
0.10096
0.0845816
0.0950825
0.0887824
0.0981855
0.0901632
0.0984745
0.0896368
0.0972869
0.0882611
0.0954782
0.0867468
0.0942513
0.0861595
0.0938026
0.0858015
0.0934287
0.0855066
0.093126
0.0852706
0.0928878
0.0850866
0.0927063
0.0849482
0.0925737
0.0848504
0.0924876
0.0847914
0.0924506
0.0847823
0.092487
0.0848457
0.0926316
0.0850299
0.0930374
0.0857066
0.0967032
0.0969063
0.0704134
2.44564e-06
4.12025e-11
4.54799e-08
3.1218e-06
5.27792e-05
0.000399505
0.00176662
0.0055523
0.0127722
0.0281065
0.0427217
0.0713426
0.0810712
0.0857124
0.0826688
0.101815
0.0870594
0.0970066
0.0897978
0.098596
0.0900535
0.0979969
0.0890187
0.0964229
0.087441
0.0946911
0.0863668
0.0940174
0.0859741
0.0936076
0.0856467
0.0932693
0.0853816
0.0929989
0.0851719
0.0927888
0.0850106
0.0926316
0.0848916
0.0925205
0.0848116
0.0924546
0.08477
0.0924396
0.0847812
0.0925041
0.0848721
0.0926899
0.0851022
0.0931833
0.085918
0.099036
0.0979477
0.0606518
1.22664e-06
4.11303e-11
4.53804e-08
3.11043e-06
5.2463e-05
0.000396991
0.00175707
0.00549929
0.0125631
0.0247933
0.0405495
0.0602953
0.0767269
0.0946633
0.0835845
0.0935205
0.0928783
0.0969644
0.0897934
0.0985927
0.0900525
0.0979976
0.0890202
0.0964245
0.0874435
0.094694
0.0863681
0.0940187
0.0859751
0.0936083
0.085648
0.0932697
0.0853819
0.0929985
0.0851711
0.0927876
0.0850089
0.0926285
0.0848891
0.0925162
0.0848068
0.0924485
0.0847623
0.0924267
0.0847625
0.0924728
0.0848355
0.0926261
0.0850195
0.0929774
0.0854989
0.0941886
0.0924848
0.108118
0.0451414
4.84349e-07
4.10649e-11
4.52883e-08
3.10057e-06
5.23462e-05
0.000392335
0.00176648
0.00536104
0.0128546
0.0234135
0.0393837
0.0542465
0.0730623
0.0832094
0.0976468
0.0863642
0.0956579
0.092396
0.0981436
0.0901561
0.0984718
0.0896383
0.0972911
0.0882667
0.0954864
0.0867539
0.0942565
0.0861626
0.0938058
0.0858046
0.0934306
0.085508
0.0931262
0.08527
0.0928852
0.0850833
0.0927
0.0849416
0.0925632
0.0848401
0.0924711
0.0847745
0.0924231
0.0847468
0.0924224
0.0847667
0.0924958
0.0848667
0.092689
0.0850918
0.0931106
0.0856617
0.09493
0.0945815
0.104965
0.0312252
1.20255e-07
4.10124e-11
4.52041e-08
3.0929e-06
5.21895e-05
0.000390598
0.00175541
0.00533114
0.0127933
0.0232449
0.0389553
0.0512679
0.0712584
0.0761854
0.0945165
0.0901557
0.0963838
0.0888207
0.100414
0.0901321
0.0984728
0.0896387
0.0972928
0.088268
0.0954889
0.0867548
0.0942575
0.0861633
0.0938063
0.085805
0.0934315
0.0855082
0.0931264
0.0852696
0.0928846
0.0850824
0.0926977
0.0849398
0.0925596
0.0848364
0.0924661
0.0847696
0.0924143
0.0847399
0.0924088
0.0847514
0.0924646
0.0848309
0.0926277
0.0850201
0.0929668
0.0854211
0.0937969
0.0881856
0.106413
0.0892049
0.0149702
1.41565e-08
4.09756e-11
4.51371e-08
3.08774e-06
5.19451e-05
0.000391505
0.0017279
0.00540849
0.0123382
0.024175
0.0366473
0.0543058
0.0637406
0.0813903
0.0818485
0.0962408
0.0900643
0.0978362
0.0893946
0.0995928
0.0900216
0.0980009
0.0890238
0.0964305
0.0874482
0.0946992
0.0863707
0.0940205
0.0859773
0.0936104
0.0856496
0.0932711
0.0853823
0.0929978
0.0851696
0.0927837
0.0850045
0.0926204
0.0848807
0.092503
0.0847944
0.0924288
0.0847437
0.0923962
0.0847306
0.0924113
0.0847608
0.0924937
0.0848666
0.092696
0.0850949
0.0930977
0.0855646
0.0940633
0.0902625
0.108569
0.0820717
0.00237925
3.17441e-10
4.09037e-11
4.50922e-08
3.08279e-06
5.18242e-05
0.000390422
0.00172264
0.00538671
0.0122748
0.0240693
0.0365346
0.0540612
0.0633857
0.079563
0.0811622
0.0929708
0.0886358
0.0984621
0.0900462
0.0976456
0.0903063
0.0979634
0.0890267
0.0964322
0.08745
0.0947
0.0863714
0.0940205
0.0859775
0.0936109
0.0856501
0.0932716
0.0853827
0.0929975
0.0851693
0.0927823
0.0850035
0.0926182
0.0848782
0.092499
0.0847902
0.0924222
0.0847382
0.0923874
0.0847212
0.0923989
0.0847452
0.0924671
0.0848313
0.0926368
0.085028
0.0929761
0.085404
0.0936543
0.0865257
0.101857
0.099711
0.0798023
0.000144659
1.73992e-15
3.91846e-11
4.50148e-08
3.07799e-06
5.18388e-05
0.0003874
0.00173777
0.00526385
0.0126164
0.0229524
0.0384646
0.0505235
0.0680263
0.0731854
0.0871749
0.0849142
0.0952355
0.088851
0.0992556
0.0900725
0.09708
0.0896232
0.0972645
0.0882746
0.0954944
0.0867585
0.0942589
0.0861638
0.093807
0.0858063
0.0934323
0.0855092
0.0931271
0.0852698
0.0928827
0.0850801
0.0926927
0.0849345
0.0925503
0.0848268
0.0924505
0.0847548
0.0923923
0.0847183
0.092376
0.0847177
0.0924086
0.0847604
0.0925031
0.0848723
0.0927113
0.0851076
0.0931098
0.0855423
0.093888
0.087722
0.104874
0.0996575
0.0641898
1.42598e-05
1.31338e-11
1.50959e-11
4.31715e-08
3.07252e-06
5.17815e-05
0.000386748
0.00173383
0.00525056
0.0125848
0.0228827
0.0383286
0.0503977
0.0679151
0.0730401
0.0869774
0.0843386
0.0952068
0.0885125
0.0976041
0.091325
0.0981089
0.0880735
0.097343
0.0882512
0.0954984
0.08676
0.0942597
0.0861636
0.093807
0.0858059
0.0934325
0.0855093
0.0931266
0.08527
0.0928826
0.0850795
0.0926916
0.0849325
0.0925478
0.084824
0.0924461
0.0847503
0.0923851
0.0847114
0.0923666
0.0847079
0.0923932
0.0847472
0.0924769
0.0848424
0.0926542
0.0850426
0.0929999
0.085412
0.0936223
0.0861534
0.098379
0.0976796
0.105727
0.0406396
1.29091e-06
6.62538e-11
5.54157e-15
1.71339e-08
2.95412e-06
5.15907e-05
0.000388423
0.00171142
0.00534634
0.0121741
0.0238402
0.0361978
0.0536504
0.062982
0.0790126
0.0798901
0.0918144
0.0868718
0.0969593
0.0893178
0.098223
0.091111
0.0974461
0.0871914
0.097133
0.0874444
0.0947068
0.0863729
0.0940209
0.0859769
0.0936105
0.0856498
0.0932712
0.0853829
0.0929972
0.085169
0.0927803
0.0850003
0.0926124
0.0848717
0.0924886
0.0847796
0.0924054
0.084721
0.092362
0.0846974
0.0923624
0.0847103
0.0924105
0.084769
0.0925205
0.0848895
0.092736
0.0851275
0.0931392
0.0855498
0.0938389
0.0867589
0.101269
0.0997308
0.0961685
0.0183694
1.32955e-08
4.31858e-12
8.1383e-14
1.30181e-11
1.2286e-06
4.97296e-05
0.000387794
0.00170971
0.00533865
0.0121525
0.0237988
0.0361416
0.0535587
0.0628631
0.0789128
0.0798363
0.0917419
0.0868131
0.0968061
0.0896345
0.0980788
0.0899179
0.0987808
0.0883877
0.0944121
0.0890662
0.0947158
0.0863749
0.0940211
0.085977
0.0936097
0.0856494
0.0932704
0.0853824
0.0929968
0.0851684
0.0927799
0.0849998
0.0926109
0.0848702
0.0924852
0.0847766
0.0924005
0.0847163
0.0923544
0.0846898
0.0923514
0.0847007
0.0923944
0.0847534
0.0924981
0.0848605
0.0926868
0.0850651
0.0930354
0.0854367
0.093634
0.0860439
0.0965763
0.0948615
0.111564
0.0773285
0.00251829
8.87648e-16
3.59753e-14
4.82692e-13
5.20916e-11
1.78715e-09
2.20947e-05
0.000373262
0.00172682
0.00522771
0.0125192
0.0227651
0.0381223
0.0501195
0.0675775
0.0727834
0.0867353
0.084132
0.0947043
0.0885679
0.0980404
0.0899764
0.0980421
0.0894468
0.0976234
0.0875348
0.0939589
0.0890281
0.0942796
0.0861658
0.0938069
0.0858051
0.0934306
0.0855079
0.093125
0.0852688
0.0928811
0.0850784
0.092689
0.0849295
0.0925411
0.0848168
0.0924342
0.0847386
0.0923668
0.0846931
0.0923384
0.0846818
0.0923547
0.0847096
0.0924195
0.0847821
0.0925505
0.084914
0.0927767
0.0851557
0.093181
0.0855769
0.0938464
0.0864412
0.0990997
0.0976596
0.109297
0.0630451
4.84305e-05
5.84975e-11
3.23215e-17
8.51697e-13
4.4414e-10
4.41451e-09
5.9591e-08
0.000179366
0.00167823
0.00522117
0.0125096
0.0227415
0.0380755
0.0500673
0.0675107
0.0727212
0.0866649
0.0840944
0.0946803
0.0885421
0.0980409
0.0900746
0.0983122
0.0892301
0.0968421
0.0884225
0.0947731
0.0858476
0.0966849
0.086175
0.0938092
0.0858051
0.0934306
0.0855071
0.093124
0.0852679
0.09288
0.0850778
0.0926879
0.0849287
0.0925398
0.084815
0.0924312
0.0847348
0.0923614
0.0846878
0.0923308
0.0846739
0.0923424
0.0846987
0.092404
0.0847655
0.0925254
0.0848906
0.0927289
0.0851023
0.0930827
0.0854719
0.0936766
0.0860364
0.0958337
0.0928941
0.11079
0.0920748
0.042539
2.77783e-07
5.43673e-11
1.00344e-16
1.13241e-12
8.52544e-10
2.70566e-08
9.91953e-08
8.93963e-07
0.000873324
0.00520146
0.0121158
0.0237237
0.0360237
0.0533839
0.0626817
0.0786913
0.0796691
0.0916097
0.0867199
0.0967355
0.0896742
0.0985355
0.0900008
0.0978506
0.0885044
0.0957609
0.0876361
0.0942757
0.0855759
0.0958219
0.085992
0.0936125
0.0856483
0.0932684
0.0853798
0.0929938
0.0851662
0.0927767
0.0849976
0.0926075
0.0848666
0.0924788
0.0847686
0.0923875
0.084703
0.0923349
0.0846707
0.0923221
0.0846722
0.0923532
0.0847144
0.0924376
0.0848014
0.0925873
0.0849525
0.0928282
0.0851997
0.0932358
0.0856173
0.0938904
0.0863893
0.0980401
0.0958255
0.112079
0.0821329
0.0129623
8.9493e-11
2.11561e-12
3.32132e-16
1.29303e-12
1.15916e-09
5.47473e-08
5.15334e-07
8.06759e-07
8.08892e-06
0.00300032
0.0118872
0.0237032
0.0360065
0.053351
0.0626442
0.0786502
0.079642
0.0915746
0.0866957
0.0967119
0.0896682
0.0985397
0.0900494
0.097952
0.0888636
0.095688
0.0868991
0.0949598
0.0861217
0.093034
0.0870618
0.0936377
0.0856508
0.0932679
0.0853794
0.0929925
0.0851648
0.0927755
0.0849963
0.092606
0.0848655
0.0924771
0.0847669
0.0923841
0.0846993
0.0923288
0.0846649
0.0923137
0.0846645
0.092341
0.084702
0.0924208
0.0847859
0.0925607
0.0849271
0.0927885
0.0851482
0.0931501
0.0855164
0.0937386
0.0860618
0.0956489
0.0918299
0.10923
0.0981186
0.0740375
0.000558163
1.10049e-11
2.03633e-14
4.08959e-17
1.36492e-12
1.32764e-09
7.58085e-08
1.00078e-06
5.97086e-06
2.86758e-06
5.12866e-05
0.00777594
0.0223764
0.0380029
0.0499761
0.067382
0.0726112
0.0865566
0.084012
0.0946053
0.0884993
0.098014
0.0901102
0.0984843
0.0896612
0.0972454
0.0880559
0.0947836
0.0864289
0.0944802
0.0859098
0.0927727
0.0866709
0.0934589
0.0855092
0.0931215
0.0852649
0.0928757
0.0850739
0.0926837
0.0849251
0.092535
0.084811
0.092424
0.0847269
0.0923478
0.0846736
0.0923094
0.0846537
0.0923123
0.0846693
0.0923599
0.0847246
0.0924635
0.0848297
0.0926327
0.0849973
0.0928985
0.0852531
0.0933128
0.0856653
0.0939567
0.0864239
0.0977031
0.0947242
0.111748
0.0906328
0.0465379
3.08215e-06
5.03109e-11
4.25114e-15
1.59334e-16
1.53391e-12
1.40121e-09
8.7698e-08
1.40059e-06
1.07227e-05
4.376e-05
4.46951e-06
0.000247529
0.015643
0.037577
0.049955
0.0673652
0.0725928
0.0865326
0.0839978
0.09459
0.0884903
0.0979921
0.0901075
0.0984782
0.0896711
0.0973343
0.0882162
0.0952227
0.0863604
0.094039
0.0863503
0.0935013
0.0849162
0.0944767
0.0855243
0.0931255
0.0852639
0.092875
0.0850724
0.0926814
0.0849237
0.092533
0.0848093
0.092422
0.0847249
0.0923447
0.08467
0.0923036
0.0846475
0.0923033
0.0846607
0.0923478
0.0847128
0.0924444
0.0848134
0.0926079
0.0849709
0.0928574
0.0852123
0.0932308
0.0855798
0.0938086
0.0861163
0.0957435
0.0914469
0.108117
0.0999561
0.0879431
0.0126973
2.40167e-09
3.36714e-11
3.00786e-15
6.17394e-15
1.73638e-12
1.57377e-09
9.51944e-08
1.66917e-06
1.48774e-05
7.69849e-05
0.000212048
1.94808e-06
0.000942751
0.0270177
0.0528749
0.062583
0.0785816
0.079585
0.0915301
0.0866564
0.0966612
0.0896281
0.0985225
0.0900501
0.0980422
0.08907
0.0964729
0.0873716
0.0945015
0.0860916
0.0938265
0.0862235
0.0932618
0.0847491
0.0944165
0.0853951
0.0929952
0.0851614
0.0927709
0.0849915
0.0925999
0.0848608
0.0924708
0.0847616
0.0923767
0.0846913
0.0923157
0.0846503
0.0922914
0.0846425
0.0923096
0.0846721
0.0923751
0.0847429
0.0924967
0.0848654
0.0926908
0.0850504
0.0929792
0.0853266
0.0934027
0.0857324
0.0940246
0.086544
0.0978273
0.0943271
0.111212
0.0945748
0.0675085
0.00041848
1.8423e-17
1.45263e-12
8.00015e-17
8.27215e-15
1.9238e-12
1.78156e-09
1.08174e-07
2.00451e-06
1.92992e-05
0.000105614
0.000377468
0.000692171
2.6105e-09
0.00286147
0.0428144
0.0622395
0.0785656
0.079579
0.0915184
0.086649
0.0966566
0.0896335
0.098521
0.0900639
0.0980471
0.0890926
0.096521
0.0874654
0.0946137
0.0862472
0.0936602
0.0858358
0.0939734
0.0853032
0.0921826
0.0864078
0.0930154
0.0851655
0.0927687
0.0849903
0.0925978
0.0848584
0.0924685
0.0847595
0.0923738
0.0846893
0.0923123
0.084647
0.0922856
0.0846364
0.0922999
0.0846631
0.092362
0.0847309
0.0924784
0.0848471
0.0926645
0.0850259
0.0929373
0.0852851
0.0933358
0.0856526
0.0939043
0.0862193
0.0960634
0.091552
0.107749
0.100483
0.0942817
0.0315481
1.04147e-06
3.04002e-11
5.03602e-14
7.26367e-17
5.42941e-16
2.11133e-12
1.97236e-09
1.23563e-07
2.39197e-06
2.45207e-05
0.000141393
0.000506649
0.00126666
0.00155263
3.94259e-06
0.00715554
0.057492
0.0722967
0.0864987
0.083972
0.0945654
0.0884619
0.0979842
0.0901048
0.0985025
0.0896951
0.0974052
0.0883615
0.09559
0.0867541
0.0941904
0.0860317
0.093415
0.0856869
0.0938467
0.0851232
0.0920435
0.0863783
0.0928948
0.0850745
0.0926756
0.0849184
0.0925258
0.0848029
0.0924143
0.0847186
0.092336
0.0846621
0.0922905
0.0846335
0.0922807
0.0846378
0.0923141
0.0846815
0.0923983
0.0847687
0.092541
0.0849085
0.0927591
0.0851154
0.0930726
0.0854082
0.093518
0.0858086
0.0941199
0.0868289
0.0982906
0.0944685
0.111004
0.0959311
0.0773736
0.00429631
1.72333e-11
2.67434e-12
8.04692e-16
2.10981e-16
7.21643e-16
2.31172e-12
2.16235e-09
1.38076e-07
2.83085e-06
2.97066e-05
0.000181302
0.000666768
0.00166652
0.00289893
0.00247264
0.000112308
0.0153428
0.0651473
0.0862948
0.0839677
0.0945599
0.0884605
0.0979817
0.0900983
0.0984991
0.0897012
0.0974081
0.0883761
0.0956035
0.0868149
0.0942453
0.0861023
0.093629
0.0854538
0.0933127
0.0858808
0.0926242
0.0844052
0.0943296
0.0850756
0.0926825
0.0849157
0.092524
0.0848006
0.0924109
0.0847164
0.0923329
0.0846593
0.0922872
0.08463
0.0922754
0.0846318
0.0923046
0.0846717
0.0923845
0.084756
0.0925221
0.0848911
0.0927308
0.08509
0.0930323
0.085369
0.0934515
0.085747
0.0940106
0.0863685
0.0966423
0.0920145
0.107975
0.100323
0.0964803
0.0428092
1.60785e-05
1.8165e-11
1.53473e-15
1.49178e-15
3.25375e-17
2.18315e-14
2.52222e-12
2.36632e-09
1.52471e-07
3.28077e-06
3.55269e-05
0.000217159
0.000837446
0.00206954
0.00374356
0.00476974
0.00288578
0.000604473
0.0269255
0.0738623
0.0913788
0.0866371
0.0966426
0.0896225
0.098524
0.090068
0.098075
0.0891104
0.0965742
0.0875446
0.0947847
0.0863884
0.0939992
0.0858994
0.0934069
0.0852777
0.0931844
0.0857777
0.0924376
0.0843385
0.0943317
0.0849871
0.0926008
0.0848516
0.0924605
0.0847521
0.0923645
0.0846819
0.0923026
0.0846383
0.0922728
0.0846228
0.0922782
0.0846399
0.092327
0.0846975
0.0924304
0.0848025
0.0925956
0.0849618
0.0928381
0.0851899
0.0931803
0.0855022
0.093643
0.0859045
0.0942739
0.087227
0.0990402
0.0950149
0.111068
0.0957536
0.0810029
0.00893321
4.03187e-10
3.92175e-13
3.42703e-18
2.3431e-15
3.15147e-18
3.86388e-14
2.73172e-12
2.58114e-09
1.67683e-07
3.72903e-06
4.15995e-05
0.000256662
0.000980749
0.00244961
0.00440618
0.0058763
0.00604739
0.00263191
0.00169329
0.0381942
0.0868963
0.0865551
0.0966414
0.0896214
0.0985235
0.0900686
0.0980774
0.0891139
0.0965716
0.087568
0.0947859
0.0864026
0.0940161
0.0859488
0.0934899
0.0854571
0.0928027
0.0853516
0.0935021
0.0846296
0.0918214
0.0863593
0.092592
0.0848579
0.092456
0.08475
0.092361
0.0846788
0.0922992
0.0846355
0.0922687
0.0846195
0.0922727
0.0846344
0.0923179
0.0846877
0.0924157
0.084789
0.0925762
0.0849432
0.0928111
0.0851634
0.0931398
0.0854633
0.0935848
0.0858461
0.0941358
0.0866677
0.097445
0.0927802
0.108632
0.0997004
0.0965382
0.0466804
7.0873e-05