/*--------------------------------*- C++ -*----------------------------------*\
| =========                 |                                                 |
| \\      /  F ield         | OpenFOAM: The Open Source CFD Toolbox           |
|  \\    /   O peration     | Version:  v2012                                 |
|   \\  /    A nd           | Website:  www.openfoam.com                      |
|    \\/     M anipulation  |                                                 |
\*---------------------------------------------------------------------------*/
FoamFile
{
    version     2.0;
    format      ascii;
    class       volScalarField;
    location    "13380";
    object      I2;
}
// * * * * * * * * * * * * * * * * * * * * * * * * * * * * * * * * * * * * * //

dimensions      [0 0 0 0 0 0 0];


internalField   nonuniform List<scalar> 
31383
(
4.17782e-13
8.28322e-11
7.4223e-10
7.1378e-11
1.36632e-07
3.47599e-08
9.566e-11
7.87073e-08
9.13496e-06
6.65538e-07
8.77145e-11
7.0459e-08
7.94543e-06
9.69898e-05
9.41715e-06
5.43494e-11
9.70556e-08
4.76042e-06
0.000128259
0.000669872
5.56013e-05
5.09968e-11
9.03088e-08
4.3864e-06
0.000116212
0.000596739
0.00409872
0.000154234
7.24258e-11
5.65413e-08
6.1438e-06
7.1582e-05
0.000825624
0.00243025
0.0113542
0.000506806
6.90916e-11
5.35761e-08
5.78418e-06
6.71079e-05
0.0007706
0.00225007
0.0104314
0.0152439
0.00210259
4.4149e-11
7.67219e-08
3.65895e-06
9.54027e-05
0.000480996
0.00322739
0.00634455
0.0222249
0.0255999
0.0050175
4.24675e-11
7.35807e-08
3.49891e-06
9.08839e-05
0.000457075
0.0030655
0.00603152
0.0210714
0.0242703
0.0583773
0.00722417
6.14092e-11
4.72074e-08
5.04429e-06
5.79552e-05
0.000660702
0.00192541
0.00888396
0.0129786
0.0367381
0.0351676
0.0744825
0.014043
5.93401e-11
4.55318e-08
4.86152e-06
5.58101e-05
0.000635972
0.00185243
0.00854878
0.012529
0.0355525
0.0341373
0.0724474
0.0538344
0.0342057
3.83048e-11
6.60321e-08
3.12819e-06
8.1068e-05
0.000406906
0.00272509
0.00538112
0.0188867
0.021957
0.0530313
0.0441833
0.0854238
0.0588964
0.0500803
3.71934e-11
6.39652e-08
3.02788e-06
7.84602e-05
0.000394304
0.00264336
0.00522985
0.0183754
0.0214316
0.0519174
0.0434323
0.0842164
0.0582455
0.100708
0.0415678
5.43175e-11
4.14199e-08
4.4072e-06
5.06102e-05
0.000577872
0.0016905
0.00782676
0.0115479
0.0329814
0.0320794
0.0686279
0.0515859
0.093559
0.0615565
0.10399
0.0458688
5.30235e-11
4.03412e-08
4.28543e-06
4.91749e-05
0.00056195
0.00164667
0.00764114
0.0113048
0.0323621
0.0315399
0.0677518
0.0510828
0.0928845
0.0612319
0.103407
0.0652471
0.0799374
3.45846e-11
5.90932e-08
2.78358e-06
7.2014e-05
0.000362604
0.00244214
0.00486643
0.0172122
0.0202453
0.0493947
0.0417611
0.0816442
0.0569876
0.0989695
0.0633538
0.105701
0.0659541
0.0868021
3.39175e-11
5.78323e-08
2.72042e-06
7.03108e-05
0.00035401
0.00238578
0.0047649
0.0168927
0.0199337
0.0487555
0.0413404
0.0809965
0.0566653
0.0985556
0.0631515
0.105397
0.0657255
0.107715
0.0595932
4.99887e-11
3.78184e-08
3.99874e-06
4.57696e-05
0.000522773
0.00153679
0.00716625
0.0106935
0.03086
0.0303471
0.065613
0.0498938
0.0912775
0.0605141
0.102381
0.0646322
0.106857
0.0659735
0.10751
0.0632061
4.92051e-11
3.71671e-08
3.92521e-06
4.48829e-05
0.000512549
0.00150736
0.00703543
0.0105187
0.0304034
0.0300262
0.0650136
0.0495986
0.0908608
0.0603376
0.102156
0.0645204
0.106735
0.0659507
0.10726
0.0657053
0.107191
3.23409e-11
5.48916e-08
2.57189e-06
6.63065e-05
0.000333596
0.00225041
0.00451119
0.0160688
0.0191176
0.0470967
0.0402894
0.0794128
0.0559159
0.0976495
0.0627401
0.104799
0.0654911
0.10734
0.0658779
0.10669
0.0652737
0.110711
3.19315e-11
5.41276e-08
2.53345e-06
6.52671e-05
0.000328318
0.00221478
0.00444399
0.015845
0.0188886
0.0466153
0.0399801
0.0789574
0.0557046
0.0974004
0.0626331
0.104644
0.0654146
0.107288
0.0658764
0.10674
0.0650505
0.105427
0.0692221
4.73493e-11
3.56319e-08
3.75106e-06
4.2805e-05
0.000488333
0.00143747
0.00672076
0.0100924
0.0293011
0.0291273
0.063487
0.04877
0.0897979
0.0599029
0.101632
0.0642414
0.106378
0.06585
0.107262
0.0655801
0.105944
0.0644693
0.104581
0.0699067
4.68576e-11
3.52293e-08
3.70574e-06
4.22631e-05
0.000482024
0.00141916
0.00663848
0.00997843
0.0290019
0.0288927
0.06305
0.0485224
0.089489
0.0597701
0.101503
0.0641725
0.106273
0.0658179
0.107245
0.065595
0.105994
0.0645197
0.103816
0.0637913
0.114544
3.09392e-11
5.23052e-08
2.44224e-06
6.28087e-05
0.000315743
0.00213063
0.0042831
0.0153075
0.0183285
0.04542
0.039194
0.0777544
0.0551408
0.0967599
0.0623783
0.104289
0.0652388
0.107119
0.0658556
0.106805
0.0651519
0.10504
0.0638869
0.10286
0.0633465
0.114404
3.06647e-11
5.18107e-08
2.41803e-06
6.21621e-05
0.000312453
0.00210851
0.00424077
0.015165
0.0181802
0.0450978
0.0389645
0.0774163
0.0549757
0.096565
0.0623033
0.10419
0.0651979
0.107073
0.0658518
0.106821
0.0651742
0.105104
0.0639305
0.102929
0.0629128
0.102485
0.0697295
4.56205e-11
3.42357e-08
3.59575e-06
4.09665e-05
0.000466986
0.00137555
0.00644075
0.00970652
0.0282817
0.028286
0.061977
0.047909
0.0886539
0.0594281
0.101109
0.0639961
0.106051
0.0657424
0.107209
0.0656246
0.106108
0.0646293
0.104047
0.0633449
0.102293
0.0627284
0.102258
0.069331
4.52769e-11
3.39588e-08
3.56528e-06
4.06138e-05
0.000462976
0.00136401
0.00638862
0.00963435
0.0280902
0.0281256
0.061674
0.0477466
0.0884255
0.0593274
0.100992
0.0639425
0.10598
0.0657191
0.107199
0.0656291
0.106145
0.0646523
0.10411
0.0633782
0.102324
0.0627363
0.101721
0.0628535
0.112906
2.99773e-11
5.05625e-08
2.35706e-06
6.05622e-05
0.000304437
0.00205531
0.00413911
0.0148229
0.0178195
0.0443136
0.0384296
0.0765755
0.0545614
0.0960661
0.0620969
0.103911
0.0650726
0.106968
0.065829
0.106853
0.0652264
0.10524
0.0640371
0.103097
0.0629686
0.101977
0.0625979
0.101516
0.0628141
0.113932
2.97897e-11
5.02196e-08
2.34011e-06
6.01155e-05
0.000302208
0.00204077
0.00411184
0.0147316
0.0177235
0.0441038
0.0382846
0.0763506
0.0544497
0.095925
0.0620394
0.10383
0.0650379
0.106928
0.065824
0.106863
0.0652363
0.105273
0.0640622
0.10314
0.062985
0.101992
0.0626059
0.101511
0.0623648
0.102063
0.0711661
4.44339e-11
3.32708e-08
3.48893e-06
3.97217e-05
0.00045285
0.00133532
0.00626088
0.00945942
0.0276265
0.0277373
0.0609586
0.0473273
0.0878565
0.0590787
0.100693
0.0637993
0.105793
0.0656577
0.10717
0.065641
0.106207
0.0647134
0.104238
0.0634551
0.102405
0.062763
0.101755
0.062477
0.101313
0.0622719
0.102073
0.0709008
4.42103e-11
3.30864e-08
3.46807e-06
3.94762e-05
0.000450026
0.00132728
0.00622518
0.0094113
0.0275012
0.0276326
0.0607664
0.0472155
0.0876967
0.0590092
0.100606
0.0637571
0.105741
0.065641
0.10716
0.065646
0.106224
0.0647301
0.104273
0.063474
0.102423
0.0627704
0.101767
0.062484
0.101326
0.0622492
0.101046
0.0628313
0.10799
2.93396e-11
4.93859e-08
2.29849e-06
5.90036e-05
0.000296607
0.00200387
0.00404261
0.0145036
0.0174866
0.0435915
0.0379323
0.0757855
0.054168
0.0955794
0.0618893
0.103622
0.0649436
0.106842
0.0658078
0.106884
0.0652715
0.105355
0.064125
0.103237
0.0630202
0.102029
0.062628
0.101546
0.0623654
0.101149
0.062161
0.100941
0.0628778
0.101214
2.9216e-11
4.91643e-08
2.28744e-06
5.87051e-05
0.000295074
0.00199367
0.00402324
0.0144393
0.01742
0.0434497
0.0378363
0.0756332
0.0540922
0.0954842
0.0618504
0.103568
0.0649187
0.106816
0.0658025
0.106889
0.0652805
0.105384
0.0641438
0.103268
0.0630306
0.102038
0.0626331
0.101555
0.0623699
0.101155
0.0621617
0.100858
0.0620847
0.102304
0.0600911
4.36523e-11
3.26378e-08
3.41798e-06
3.88784e-05
0.000443075
0.00130719
0.00613521
0.00928858
0.0271816
0.0273696
0.0602887
0.0469401
0.0873123
0.0588413
0.100405
0.0636565
0.105606
0.065596
0.107135
0.0656546
0.106274
0.0647755
0.104371
0.0635271
0.102475
0.0627874
0.101795
0.0624998
0.10135
0.0622617
0.100995
0.0620795
0.100744
0.062054
0.102497
0.0586089
4.34789e-11
3.25114e-08
3.40421e-06
3.87192e-05
0.000441227
0.00130178
0.00611047
0.00925453
0.0270917
0.0272951
0.0601537
0.0468633
0.0872069
0.0587945
0.100345
0.0636293
0.105568
0.0655814
0.107129
0.0656562
0.106287
0.0647872
0.104398
0.0635438
0.102492
0.0627929
0.101804
0.0625037
0.101356
0.0622648
0.100997
0.0620794
0.100733
0.0619593
0.100788
0.0633335
0.0923527
2.88886e-11
4.85782e-08
2.25981e-06
5.79777e-05
0.000291384
0.00196878
0.00397535
0.0142783
0.0172513
0.0430863
0.0375901
0.0752492
0.0539016
0.0952488
0.061749
0.103423
0.064851
0.106749
0.0657886
0.1069
0.065302
0.105444
0.0641928
0.103348
0.0630601
0.102066
0.0626479
0.101576
0.0623805
0.101169
0.0621664
0.100853
0.0620057
0.100629
0.0619144
0.100797
0.0638354
0.0894386
2.91977e-11
4.84176e-08
2.25118e-06
5.77722e-05
0.000290366
0.00196213
0.00396257
0.0142347
0.0172046
0.0429849
0.0375205
0.0751393
0.0538475
0.0951813
0.0617209
0.103386
0.0648326
0.106729
0.0657842
0.106901
0.065308
0.10546
0.0642056
0.10337
0.0630685
0.102075
0.0626529
0.101583
0.0623833
0.101173
0.0621679
0.100853
0.0620039
0.100621
0.0618956
0.100518
0.0620715
0.104921
0.0533507
1.0726e-10
3.26098e-08
3.36768e-06
3.82969e-05
0.000436596
0.00128856
0.00605073
0.00917109
0.0268685
0.0271076
0.05981
0.0466655
0.0869345
0.0586759
0.100203
0.0635578
0.105473
0.0655479
0.107104
0.0656599
0.106315
0.0648155
0.104463
0.0635827
0.102535
0.0628083
0.101828
0.0625166
0.101371
0.0622708
0.101004
0.0620797
0.100724
0.0619384
0.10053
0.061854
0.10048
0.0621189
0.106169
0.0511469
4.86914e-11
1.56638e-07
3.3999e-06
3.8182e-05
0.000435147
0.00128482
0.00603417
0.00914868
0.0268088
0.0270563
0.059717
0.04661
0.0868573
0.0586421
0.100163
0.0635391
0.105445
0.0655371
0.107098
0.0656594
0.106321
0.0648225
0.104479
0.0635933
0.102547
0.0628123
0.101834
0.0625204
0.101378
0.0622734
0.101007
0.0620799
0.100722
0.0619362
0.10052
0.061843
0.100418
0.0618482
0.101037
0.0660286
0.0782446
3.34462e-11
6.6789e-08
8.74895e-06
5.7876e-05
0.000287671
0.00194446
0.00393042
0.0141279
0.0170916
0.0427354
0.0373465
0.0748647
0.0537086
0.095011
0.0616483
0.103286
0.0647855
0.10668
0.0657709
0.106902
0.065319
0.105497
0.0642352
0.103423
0.0630899
0.102096
0.0626645
0.101603
0.0623938
0.101186
0.0621728
0.100856
0.0620009
0.100607
0.061878
0.100439
0.061806
0.100378
0.061851
0.101197
0.0668938
0.0731359
4.64913e-11
6.93141e-08
3.46544e-06
0.000203807
0.000289698
0.00193966
0.00392033
0.0140976
0.0170602
0.0426681
0.0372995
0.0747872
0.0536698
0.0949629
0.0616274
0.103258
0.0647716
0.106666
0.0657675
0.106902
0.0653216
0.105505
0.0642433
0.103436
0.0630954
0.102102
0.0626675
0.101607
0.0623968
0.101189
0.0621752
0.100857
0.0620011
0.100604
0.0618742
0.10043
0.0617943
0.100344
0.0617843
0.100497
0.0624032
0.110561
0.041624
5.78607e-11
6.35569e-08
5.46274e-06
6.12148e-05
0.00137803
0.00128491
0.00599036
0.00908905
0.0266578
0.0269305
0.0594813
0.0464722
0.0866639
0.0585557
0.100059
0.0634883
0.105379
0.0655122
0.107077
0.0656599
0.106335
0.0648381
0.104518
0.0636176
0.102576
0.0628227
0.10185
0.0625288
0.101391
0.0622812
0.101017
0.0620839
0.100721
0.0619308
0.100502
0.0618235
0.100361
0.0617631
0.10031
0.0617803
0.100554
0.0625457
0.112204
0.0364634
4.56738e-11
5.19081e-08
7.36827e-06
6.57109e-05
0.000678833
0.00355608
0.0060143
0.00907279
0.0266106
0.0268947
0.0594163
0.0464349
0.0866102
0.0585318
0.100029
0.0634744
0.10536
0.0655053
0.107072
0.0656594
0.106339
0.0648425
0.104527
0.0636239
0.102584
0.0628254
0.101853
0.0625309
0.101395
0.0622827
0.101019
0.0620853
0.100724
0.0619303
0.100499
0.061819
0.100349
0.0617536
0.100279
0.0617456
0.10036
0.0619539
0.10191
0.0697587
0.0470516
2.91318e-11
6.08219e-08
3.94653e-06
0.000129949
0.00050055
0.00285728
0.00953875
0.0140775
0.0169764
0.0424884
0.0371808
0.0745977
0.0535747
0.0948422
0.061575
0.103185
0.0647376
0.106629
0.0657569
0.106901
0.065329
0.105526
0.0642606
0.10347
0.0631094
0.102116
0.0626743
0.101618
0.0624029
0.1012
0.0621794
0.100865
0.0620037
0.100602
0.0618681
0.100409
0.0617747
0.100289
0.0617272
0.100251
0.0617424
0.100391
0.0620267
0.102385
0.0706067
0.0338788
2.80971e-11
5.76357e-08
3.05623e-06
0.000103965
0.000639784
0.00330136
0.00540749
0.0304492
0.0169998
0.0424383
0.0371436
0.0745441
0.053548
0.0948087
0.0615607
0.103164
0.0647272
0.106618
0.0657542
0.106901
0.0653309
0.105532
0.0642656
0.103478
0.0631133
0.102119
0.0626761
0.10162
0.0624043
0.101202
0.0621808
0.100866
0.0620041
0.100603
0.0618681
0.100406
0.0617708
0.100276
0.0617166
0.100227
0.0617141
0.100294
0.0618361
0.100927
0.063655
0.11592
0.0114478
4.18226e-11
3.17706e-08
4.2978e-06
5.35859e-05
0.000779292
0.00270157
0.00967695
0.0118242
0.0506119
0.0268412
0.059243
0.0463351
0.0864761
0.0584725
0.099955
0.0634379
0.10531
0.0654859
0.107056
0.0656589
0.106349
0.0648531
0.104551
0.0636398
0.102604
0.0628321
0.101862
0.0625357
0.101403
0.0622875
0.101025
0.0620876
0.100726
0.0619313
0.100496
0.0618132
0.100327
0.0617325
0.100226
0.0616952
0.100206
0.0617135
0.100321
0.0618809
0.101136
0.0647976
0.114265
0.00268695
4.17047e-11
3.08927e-08
3.27474e-06
4.98106e-05
0.000609295
0.00221293
0.0118846
0.0135094
0.0328991
0.0443727
0.0592396
0.0463079
0.0864334
0.0584555
0.0999349
0.0634276
0.105296
0.065481
0.107052
0.0656585
0.106351
0.064856
0.104558
0.0636437
0.10261
0.062834
0.101864
0.0625365
0.101405
0.0622883
0.101027
0.0620878
0.100726
0.0619309
0.100495
0.0618123
0.100324
0.0617281
0.100215
0.0616843
0.10018
0.0616915
0.100249
0.0617899
0.10062
0.0623984
0.107808
0.0666765
0.000523974
2.77463e-11
4.61214e-08
2.12728e-06
5.54078e-05
0.000373207
0.00266701
0.006449
0.0256907
0.0231722
0.0499136
0.0547008
0.0744167
0.0534769
0.0947204
0.0615232
0.103112
0.0647024
0.106591
0.0657457
0.106899
0.0653353
0.105547
0.0642776
0.103501
0.0631231
0.102129
0.06268
0.101626
0.0624066
0.101206
0.0621827
0.100868
0.0620042
0.100602
0.0618663
0.100401
0.0617643
0.100256
0.0616954
0.100173
0.0616677
0.100168
0.0616945
0.100277
0.0618275
0.100752
0.0625747
0.110196
0.0617672
7.7643e-05
2.76595e-11
4.59826e-08
2.11193e-06
5.40671e-05
0.000276924
0.00245566
0.00516487
0.0220246
0.0281352
0.0536674
0.0415686
0.100121
0.0534517
0.0946961
0.0615119
0.103096
0.0646948
0.106583
0.0657431
0.106898
0.0653361
0.10555
0.0642809
0.103507
0.0631261
0.102132
0.0626811
0.101628
0.0624079
0.101206
0.0621831
0.100867
0.062004
0.100601
0.0618656
0.100398
0.0617628
0.100252
0.0616921
0.100161
0.0616576
0.100142
0.0616728
0.100222
0.0617639
0.100513
0.0621183
0.102091
0.0689205
0.0923829
1.32477e-05
4.13643e-11
3.05287e-08
3.15604e-06
3.56487e-05
0.000407967
0.00123023
0.00727376
0.0113797
0.039234
0.0406107
0.0698764
0.0499805
0.106682
0.0583967
0.0998792
0.0634004
0.105258
0.0654667
0.107039
0.0656561
0.106355
0.0648625
0.104575
0.0636554
0.102624
0.0628388
0.10187
0.0625394
0.101408
0.06229
0.101028
0.0620883
0.100725
0.0619294
0.10049
0.0618085
0.100315
0.0617212
0.100194
0.0616648
0.100127
0.0616455
0.100136
0.0616798
0.100255
0.0618005
0.100622
0.0622405
0.102998
0.0701487
0.0846908
3.98485e-06
4.12767e-11
3.04073e-08
3.13959e-06
3.54682e-05
0.000403902
0.00120362
0.00577848
0.0104597
0.0316255
0.036797
0.0827975
0.0515024
0.0907639
0.067313
0.0998331
0.0633929
0.105248
0.0654623
0.107035
0.0656554
0.106355
0.0648638
0.104579
0.0636581
0.102629
0.0628402
0.101871
0.0625402
0.101409
0.0622903
0.101028
0.0620879
0.100725
0.0619286
0.100489
0.0618071
0.100312
0.0617184
0.100189
0.0616606
0.100118
0.0616352
0.100112
0.0616582
0.100204
0.0617536
0.100463
0.0620222
0.101375
0.0644564
0.116481
0.0471617
2.42451e-06
2.74684e-11
4.54854e-08
2.08121e-06
5.29894e-05
0.00026634
0.00180782
0.00370163
0.0135972
0.0187383
0.0479837
0.0475642
0.0953424
0.0571454
0.0973889
0.0678838
0.10302
0.0646761
0.106561
0.0657362
0.106894
0.065337
0.105557
0.0642878
0.103522
0.0631335
0.102139
0.0626837
0.101631
0.0624099
0.101209
0.0621837
0.100867
0.0620029
0.100598
0.0618623
0.100391
0.0617571
0.10024
0.0616826
0.100141
0.0616384
0.100092
0.0616276
0.100113
0.0616693
0.100243
0.0617921
0.100565
0.0621188
0.101667
0.0660163
0.118026
0.0405956
1.21373e-06
2.74202e-11
4.53858e-08
2.07363e-06
5.26714e-05
0.000264664
0.00179794
0.00366629
0.0133675
0.0165295
0.0454032
0.0401986
0.0898214
0.0631136
0.0985578
0.0623508
0.110566
0.0646484
0.106556
0.065734
0.106893
0.0653375
0.105559
0.0642889
0.103525
0.0631354
0.102141
0.0626846
0.101633
0.0624103
0.10121
0.0621839
0.100867
0.0620026
0.100596
0.0618614
0.100388
0.0617549
0.100236
0.0616797
0.100134
0.0616343
0.100082
0.0616192
0.100089
0.0616488
0.100193
0.0617496
0.100451
0.0619829
0.101112
0.0627824
0.110399
0.0722251
0.0513825
3.18483e-07
4.10651e-11
3.01923e-08
3.10357e-06
3.48978e-05
0.000396611
0.00117768
0.00558164
0.00856998
0.0254972
0.0262569
0.0618672
0.0487105
0.098081
0.065103
0.102128
0.0637762
0.109941
0.0654346
0.107026
0.0656536
0.106357
0.0648667
0.104586
0.0636636
0.102638
0.0628435
0.101875
0.0625423
0.101412
0.0622915
0.10103
0.0620879
0.100723
0.0619267
0.100483
0.0618027
0.100302
0.0617111
0.100174
0.0616495
0.100094
0.0616171
0.100064
0.0616162
0.100098
0.0616639
0.100238
0.0617912
0.100554
0.0620714
0.10134
0.0632773
0.11325
0.0701854
0.0347126
7.86318e-08
4.10125e-11
3.01361e-08
3.09589e-06
3.47933e-05
0.000394845
0.00117029
0.00554988
0.00852914
0.0253056
0.0259713
0.0582487
0.0475081
0.0891333
0.0630155
0.107022
0.0642605
0.105298
0.0669498
0.106994
0.0656542
0.106358
0.0648678
0.104588
0.0636653
0.102639
0.0628442
0.101876
0.0625426
0.101413
0.0622921
0.10103
0.062088
0.100722
0.0619263
0.100482
0.0618012
0.100299
0.0617087
0.100169
0.061646
0.100086
0.0616112
0.100054
0.0616072
0.100077
0.0616436
0.10019
0.0617508
0.100454
0.0619759
0.101015
0.0625258
0.104717
0.0709798
0.107313
0.00998314
1.36774e-08
2.73171e-11
4.51425e-08
2.0585e-06
5.21504e-05
0.000261007
0.00176775
0.00360576
0.0131208
0.0161173
0.0407987
0.0362056
0.0735374
0.0542633
0.0963378
0.0641655
0.106905
0.0652289
0.106039
0.0664026
0.106853
0.0653397
0.105564
0.064293
0.103532
0.0631389
0.102144
0.0626858
0.101635
0.0624116
0.101212
0.0621847
0.100867
0.062002
0.100594
0.0618587
0.100382
0.0617494
0.100224
0.0616707
0.100116
0.0616209
0.100055
0.0615989
0.100045
0.0616087
0.100093
0.0616628
0.100242
0.061796
0.100561
0.062063
0.101219
0.0627032
0.107482
0.0724477
0.0982635
0.00158693
2.89475e-10
2.72691e-11
4.50976e-08
2.0552e-06
5.20289e-05
0.000260285
0.00176231
0.00359123
0.0130514
0.0160468
0.0406664
0.0360426
0.0730974
0.0530451
0.0954598
0.0619846
0.105061
0.0656469
0.106885
0.0651026
0.107236
0.0653133
0.105567
0.0642941
0.103534
0.0631396
0.102145
0.0626858
0.101635
0.0624119
0.101212
0.062185
0.100868
0.0620018
0.100593
0.0618578
0.10038
0.0617478
0.10022
0.061668
0.100109
0.0616164
0.100047
0.061593
0.100031
0.0616004
0.100072
0.0616455
0.100196
0.0617573
0.100469
0.061982
0.100997
0.0624335
0.102544
0.0679135
0.120494
0.0535325
0.000146238
2.68349e-17
3.91847e-11
3.00099e-08
3.08096e-06
3.45595e-05
0.000391595
0.00115854
0.00547841
0.00841123
0.0249735
0.0256442
0.0573475
0.0453532
0.0853428
0.0581202
0.100264
0.0634949
0.105337
0.066176
0.106921
0.0647256
0.106356
0.0648464
0.104596
0.0636691
0.102644
0.0628453
0.101876
0.062543
0.101414
0.0622925
0.101031
0.0620884
0.100722
0.061925
0.100478
0.0617978
0.100291
0.0617023
0.100155
0.0616354
0.100065
0.0615963
0.100023
0.0615852
0.10003
0.0616067
0.100096
0.0616695
0.100255
0.0618069
0.100582
0.0620711
0.101195
0.0625894
0.104146
0.0699426
0.12067
0.0430355
1.43558e-05
1.07329e-11
1.5096e-11
2.8781e-08
3.07549e-06
3.45213e-05
0.000390933
0.00115591
0.0054643
0.00839014
0.0248944
0.0255535
0.0571953
0.0452791
0.0851599
0.0579886
0.0995256
0.0634758
0.104899
0.0650748
0.108542
0.0654107
0.104323
0.0649035
0.104567
0.0636715
0.102646
0.0628458
0.101876
0.062543
0.101414
0.0622925
0.10103
0.062088
0.100722
0.0619249
0.100477
0.0617971
0.100289
0.0617007
0.100151
0.0616324
0.100059
0.0615914
0.100013
0.0615787
0.100016
0.0615964
0.100077
0.0616522
0.100215
0.0617695
0.100495
0.0619984
0.101012
0.0624134
0.102062
0.065591
0.117573
0.0707278
0.046097
8.64254e-07
7.49917e-11
3.69457e-15
1.71353e-08
1.96942e-06
5.17939e-05
0.000258952
0.0017507
0.00356432
0.0129409
0.0158941
0.0402709
0.0357687
0.0725975
0.0526782
0.0938379
0.0612137
0.102782
0.0646445
0.10594
0.0654877
0.108268
0.0649686
0.103181
0.0647641
0.103527
0.0631438
0.102147
0.0626862
0.101635
0.0624117
0.101212
0.0621846
0.100867
0.0620014
0.100592
0.0618564
0.100375
0.061744
0.100211
0.0616609
0.100094
0.061605
0.100022
0.0615757
0.0999972
0.0615758
0.100022
0.0616078
0.10011
0.0616812
0.100284
0.0618241
0.100616
0.0620914
0.10121
0.0625585
0.102891
0.0675284
0.120486
0.0644433
0.0199798
8.93273e-09
5.48541e-12
5.42552e-14
1.30187e-11
8.19068e-07
4.99219e-05
0.000258533
0.00174893
0.00355919
0.0129173
0.0158665
0.040205
0.0357075
0.0724503
0.0526116
0.0937696
0.0611654
0.102706
0.0645423
0.106349
0.0653916
0.106715
0.0658603
0.104746
0.0629472
0.105652
0.0631437
0.102149
0.0626864
0.101635
0.0624112
0.101211
0.0621842
0.100867
0.0620011
0.100591
0.061856
0.100375
0.0617429
0.100209
0.0616586
0.10009
0.0616017
0.100015
0.0615705
0.0999863
0.0615683
0.100008
0.061597
0.100088
0.0616662
0.100244
0.0617919
0.100532
0.0620231
0.101053
0.0624217
0.101928
0.06439
0.113748
0.0745167
0.0923483
0.00168287
3.28564e-16
5.98219e-14
4.82166e-13
3.47271e-11
1.78728e-09
1.47298e-05
0.000377227
0.00115123
0.00544005
0.00834644
0.024761
0.025416
0.056859
0.0450541
0.0848368
0.0578272
0.0992605
0.0631408
0.10497
0.0653655
0.106793
0.0653674
0.106105
0.065089
0.103646
0.0626444
0.10561
0.0628512
0.101879
0.0625431
0.101413
0.0622914
0.101029
0.0620869
0.10072
0.0619237
0.100475
0.0617952
0.100284
0.0616961
0.100141
0.0616243
0.100042
0.0615789
0.099987
0.0615596
0.0999785
0.0615703
0.100024
0.0616136
0.100131
0.0617012
0.100322
0.0618521
0.100662
0.0621205
0.101255
0.0625644
0.102485
0.0660808
0.117599
0.0730701
0.0740887
3.25477e-05
5.62942e-11
1.04179e-15
8.51207e-13
2.96089e-10
4.41086e-09
3.97277e-08
0.000180699
0.0011188
0.0054331
0.00834
0.0247343
0.0253848
0.056796
0.0450095
0.0847585
0.0577803
0.0992123
0.0631248
0.104937
0.0653659
0.10692
0.0655477
0.105826
0.0645683
0.104798
0.0631853
0.101432
0.0644684
0.101886
0.0625442
0.101413
0.0622915
0.101028
0.0620862
0.100719
0.0619229
0.100474
0.0617944
0.100283
0.0616952
0.100138
0.0616223
0.100037
0.0615753
0.0999795
0.0615545
0.0999672
0.061562
0.100008
0.0616031
0.100107
0.0616842
0.100288
0.0618206
0.10059
0.062056
0.10111
0.0624516
0.101928
0.0638963
0.111129
0.073961
0.111236
0.0285206
2.85858e-07
3.49683e-11
1.21113e-16
7.54939e-13
8.52365e-10
1.80369e-08
9.90909e-08
5.95949e-07
0.00088769
0.00346754
0.012877
0.0158164
0.0400667
0.035591
0.0722258
0.052464
0.0935567
0.0610773
0.102587
0.0644953
0.106401
0.0656959
0.106825
0.0652402
0.104888
0.063848
0.103788
0.0628528
0.101075
0.0638941
0.101644
0.0624126
0.10121
0.062183
0.100864
0.0619991
0.100588
0.0618538
0.100371
0.0617405
0.100203
0.0616543
0.100079
0.061593
0.0999967
0.0615573
0.0999591
0.0615484
0.0999676
0.061569
0.100032
0.0616254
0.10016
0.0617255
0.100378
0.0618871
0.10073
0.0621587
0.101322
0.0625956
0.102428
0.0653752
0.11512
0.0748715
0.0985857
0.00867211
1.07513e-10
1.32238e-12
3.31837e-17
8.62016e-13
1.159e-09
3.64967e-08
5.15299e-07
5.37701e-07
8.10204e-06
0.00200009
0.0126261
0.0158027
0.0400465
0.0355691
0.0721795
0.0524365
0.0935222
0.0610539
0.102556
0.0644795
0.106394
0.0656986
0.106888
0.0653072
0.105355
0.0637987
0.102819
0.063315
0.10182
0.0620258
0.103098
0.062416
0.101213
0.0621828
0.100863
0.0619983
0.100586
0.0618529
0.100369
0.0617394
0.100201
0.0616531
0.100076
0.0615907
0.0999918
0.0615533
0.099951
0.0615427
0.0999566
0.0615607
0.100014
0.0616139
0.100137
0.0617077
0.100341
0.0618605
0.10066
0.0621025
0.101183
0.0624951
0.101978
0.0637752
0.109728
0.0729043
0.118944
0.0497411
0.000569484
4.98095e-12
1.52399e-14
4.28224e-18
1.36452e-12
8.85078e-10
7.58078e-08
6.67121e-07
5.97486e-06
1.91101e-06
5.14931e-05
0.00518342
0.024319
0.0253362
0.0566859
0.0449238
0.0846201
0.0577081
0.0991067
0.0630747
0.104882
0.0653479
0.106966
0.0656619
0.106386
0.0648362
0.104313
0.063196
0.102213
0.0629957
0.101545
0.061851
0.102604
0.0622944
0.10103
0.0620849
0.100716
0.0619202
0.100469
0.0617914
0.100277
0.0616918
0.100132
0.0616175
0.100026
0.0615662
0.0999599
0.0615401
0.0999386
0.0615415
0.0999657
0.061573
0.100048
0.0616422
0.100201
0.0617558
0.100442
0.0619342
0.100811
0.0622119
0.101401
0.0626424
0.102494
0.0651529
0.113655
0.0746298
0.109436
0.0312489
3.13399e-06
2.61249e-11
3.00795e-15
1.12662e-20
1.5335e-12
9.34119e-10
8.76996e-08
9.33645e-07
1.07368e-05
2.91623e-05
4.45826e-06
0.000164961
0.0167734
0.0250489
0.0566601
0.0449125
0.084597
0.0576921
0.0990885
0.0630646
0.10487
0.0653333
0.106963
0.0656578
0.106399
0.0648956
0.104519
0.0634891
0.102121
0.0627007
0.102143
0.0623329
0.100207
0.0630007
0.101029
0.0620865
0.100714
0.0619197
0.100467
0.0617899
0.100275
0.0616904
0.100129
0.061616
0.100023
0.0615641
0.0999548
0.0615362
0.09993
0.0615355
0.0999535
0.0615648
0.100031
0.0616293
0.100177
0.0617388
0.100404
0.0619064
0.100752
0.0621577
0.101283
0.0625448
0.10207
0.0638423
0.109239
0.0721561
0.121274
0.0590323
0.0136827
1.75639e-09
2.51774e-11
2.53218e-15
8.96085e-20
1.15758e-12
1.57362e-09
6.34603e-08
1.66996e-06
9.91675e-06
7.73016e-05
0.000141283
1.93762e-06
0.000628166
0.0296281
0.0352456
0.0721034
0.0523908
0.0934497
0.0610242
0.102505
0.0644457
0.106342
0.0656872
0.106889
0.0653673
0.105623
0.0643214
0.103431
0.0630083
0.101771
0.0625591
0.101983
0.0621719
0.0999867
0.0629611
0.10086
0.0619992
0.100582
0.06185
0.100363
0.0617353
0.100194
0.0616486
0.100068
0.0615856
0.0999804
0.0615445
0.099931
0.0615278
0.0999258
0.0615394
0.0999715
0.0615828
0.100075
0.061664
0.100251
0.0617942
0.100518
0.0619882
0.100918
0.0622736
0.101509
0.0626913
0.102676
0.0652407
0.113144
0.0742636
0.114465
0.0453857
0.000426236
2.08736e-15
7.04856e-13
1.62761e-16
8.13415e-21
1.28253e-12
1.78141e-09
7.21134e-08
2.00561e-06
1.28642e-05
0.000106148
0.000251538
0.000701005
2.02893e-09
0.00294766
0.0285345
0.0716714
0.0523796
0.093442
0.0610164
0.102496
0.0644426
0.106349
0.0656862
0.106907
0.0653705
0.105652
0.0643533
0.103553
0.0630823
0.101979
0.0624464
0.101445
0.0626589
0.100753
0.0614563
0.102291
0.0619932
0.100585
0.0618488
0.100361
0.0617339
0.100191
0.0616471
0.100065
0.0615835
0.0999774
0.0615422
0.0999263
0.0615239
0.0999175
0.0615329
0.0999588
0.0615739
0.100057
0.0616515
0.100225
0.0617762
0.100482
0.0619599
0.100857
0.0622284
0.101397
0.0626119
0.102233
0.0640614
0.109408
0.0719125
0.121933
0.0632195
0.0354961
7.07695e-07
2.23338e-11
7.85751e-15
5.51997e-20
1.23444e-21
2.11094e-12
1.31489e-09
1.23572e-07
1.59451e-06
2.45783e-05
9.42394e-05
0.000512517
0.000843945
0.00158311
2.63803e-06
0.00750044
0.0383132
0.0842136
0.0576687
0.0990555
0.0630482
0.104834
0.065328
0.106959
0.065674
0.10643
0.0649427
0.104708
0.0637328
0.102637
0.0627998
0.1017
0.0622826
0.101253
0.062575
0.100518
0.0613635
0.10226
0.0619115
0.100468
0.0617864
0.100269
0.0616856
0.10012
0.0616106
0.100013
0.061558
0.0999435
0.0615274
0.0999107
0.0615204
0.0999218
0.0615421
0.0999863
0.0615979
0.100112
0.0616932
0.100312
0.0618395
0.10061
0.0620507
0.101036
0.0623515
0.101631
0.0627589
0.103079
0.0655569
0.113368
0.0741264
0.116198
0.0520005
0.00450094
1.52307e-11
1.46016e-12
2.61666e-18
4.49771e-18
1.19495e-20
2.31134e-12
1.44154e-09
1.3809e-07
1.88708e-06
2.97849e-05
0.000120839
0.000675736
0.00111048
0.00298119
0.00164606
0.000112686
0.0102153
0.0753499
0.0575159
0.0990491
0.0630445
0.104832
0.0653264
0.106951
0.0656718
0.106438
0.0649446
0.104727
0.0637417
0.102715
0.0628364
0.101793
0.0624259
0.100941
0.0622168
0.101556
0.0617428
0.0995341
0.0629028
0.100445
0.0617891
0.100265
0.0616844
0.100117
0.0616083
0.10001
0.0615558
0.0999393
0.0615251
0.0999056
0.0615168
0.0999136
0.0615358
0.0999727
0.0615885
0.100093
0.0616802
0.100287
0.0618202
0.100573
0.0620232
0.100978
0.0623063
0.101538
0.062686
0.102461
0.0644543
0.110061
0.0720728
0.121736
0.06466
0.0491352
1.08219e-05
1.31013e-11
1.22141e-21
1.48473e-17
2.31995e-19
3.42664e-24
1.68147e-12
2.3662e-09
1.01644e-07
3.28338e-06
2.36812e-05
0.000218801
0.000558106
0.00211968
0.00249418
0.0049449
0.00192038
0.000611044
0.0179227
0.086286
0.0609008
0.102479
0.0644333
0.106334
0.0656882
0.106912
0.0653891
0.105675
0.0643887
0.103655
0.063196
0.102166
0.062672
0.101531
0.0622778
0.10071
0.0621314
0.101427
0.0616172
0.0994481
0.0629034
0.10033
0.061734
0.100183
0.0616418
0.100055
0.061577
0.0999661
0.0615353
0.0999135
0.0615152
0.0998984
0.0615184
0.0999269
0.0615505
0.10001
0.0616189
0.10016
0.0617292
0.100387
0.061892
0.100716
0.0621226
0.101173
0.062436
0.101778
0.0628657
0.103638
0.0660655
0.114145
0.0741803
0.115972
0.0544193
0.00954933
3.01623e-10
1.3973e-13
9.27656e-16
7.03539e-19
5.80534e-20
2.99525e-19
1.82114e-12
2.58101e-09
1.11785e-07
3.73229e-06
2.77291e-05
0.000258788
0.000653614
0.00251453
0.00293576
0.00611976
0.00402696
0.00269745
0.0011231
0.0426806
0.0578854
0.102352
0.0644311
0.106333
0.0656878
0.106913
0.0653907
0.10568
0.064387
0.103685
0.0631968
0.102184
0.0626831
0.101596
0.0623322
0.100954
0.0618733
0.100821
0.0623464
0.0998699
0.0612176
0.102255
0.0617068
0.100188
0.0616391
0.100052
0.0615747
0.0999617
0.0615329
0.0999091
0.0615122
0.0998936
0.0615146
0.0999192
0.0615444
0.0999968
0.061609
0.10014
0.061716
0.10036
0.0618733
0.100676
0.0620948
0.101114
0.0623962
0.101688
0.0627722
0.102887
0.0649983
0.111126
0.0725258
0.12097
0.064693
0.0539152
4.77184e-05
3.68997e-12
4.15376e-16
2.47647e-16
1.55914e-18
9.04076e-19
1.14692e-17
2.93411e-12
1.86287e-09
1.83517e-07
2.7904e-06
4.76811e-05
0.00019922
0.00113988
0.0018629
0.00499982
0.00439724
0.00748753
0.00409072
0.00210433
0.00222264
0.0569544
0.060698
0.104721
0.0653226
0.106948
0.0656675
0.106447
0.0649464
0.104736
0.0637641
0.102749
0.0628732
0.101884
0.062536
0.101351
0.0621918
0.10074
0.0617665
0.100722
0.0622738
0.0996753
0.061203
0.102282
0.0616477
0.100116
0.0616016
0.0999987
0.0615483
0.0999264
0.0615171
0.0998916
0.0615073
0.099895
0.0615215
0.0999419
0.0615649
0.100045
0.061646
0.100218
0.0617727
0.100475
0.0619542
0.100835
0.0622031
0.101322
0.0625339
0.10193
0.0630366
0.104483
0.0667815
0.115378
0.074309
0.114498
0.0541832