/*--------------------------------*- C++ -*----------------------------------*\
| =========                 |                                                 |
| \\      /  F ield         | OpenFOAM: The Open Source CFD Toolbox           |
|  \\    /   O peration     | Version:  v2012                                 |
|   \\  /    A nd           | Website:  www.openfoam.com                      |
|    \\/     M anipulation  |                                                 |
\*---------------------------------------------------------------------------*/
FoamFile
{
    version     2.0;
    format      ascii;
    class       volScalarField;
    location    "13380";
    object      k;
}
// * * * * * * * * * * * * * * * * * * * * * * * * * * * * * * * * * * * * * //

dimensions      [0 2 -2 0 0 0 0];


internalField   nonuniform List<scalar> 
31383
(
0.811746
0.823591
0.132549
0.765841
0.260876
0.0882241
0.724226
0.240383
1.02413
0.193287
0.693471
0.225525
0.936517
3.66897
0.470101
0.668676
0.214595
0.872685
3.35302
9.75971
1.01418
0.647982
0.205809
0.825872
3.12267
8.91865
21.5616
1.97452
0.630634
0.198538
0.788316
2.95375
8.30505
19.7057
42.2003
3.57011
0.615884
0.192461
0.757411
2.81825
7.85507
18.3507
38.584
75.7434
6.11956
0.603007
0.1873
0.731628
2.70679
7.49408
17.3565
35.9397
69.3208
126.884
10.0821
0.591736
0.182823
0.709761
2.6138
7.19711
16.5589
33.9984
64.6122
116.348
199.788
16.1081
0.5816
0.178891
0.690871
2.53495
6.94937
15.9026
32.4402
61.1508
108.591
183.805
296.004
25.0767
0.57254
0.175351
0.674244
2.46686
6.73928
15.355
31.1577
58.37
102.874
171.951
273.658
412.483
38.0737
0.564329
0.172182
0.659265
2.40691
6.55787
14.8906
30.087
56.0792
98.2731
163.178
256.899
383.671
541.475
56.3326
0.556936
0.169306
0.645837
2.35291
6.39818
14.4896
29.1788
54.1653
94.4779
156.098
244.428
361.782
507.01
673.118
80.8044
0.550274
0.166731
0.633645
2.3045
6.25433
14.1366
28.3945
52.5409
91.3019
150.243
234.323
345.404
480.482
634.388
798.855
111.572
0.544321
0.16442
0.62277
2.26055
6.12538
13.8187
27.7042
51.138
88.6034
145.332
225.928
332.058
460.52
604.2
757.269
913.597
148.645
0.53891
0.162353
0.613043
2.22135
6.0083
13.5337
27.0824
49.9028
86.2719
141.152
218.884
320.907
444.15
581.356
724.476
870.106
1014.66
191.276
0.534064
0.160491
0.604335
2.1863
5.90389
13.2749
26.5249
48.79
84.2183
137.538
212.862
311.557
430.411
562.515
699.552
835.482
970.293
1100.5
237.744
0.529658
0.15882
0.596534
2.15492
5.81053
13.0441
26.0187
47.7923
82.3672
134.352
207.648
303.513
418.872
546.653
678.931
809.083
934.645
1056.13
1171.05
284.564
0.525669
0.157315
0.589531
2.12682
5.72695
12.8377
25.5674
46.8864
80.707
131.477
203.047
296.532
408.901
533.299
661.521
787.309
907.383
1020.11
1127.35
1227.32
329.485
0.522059
0.155956
0.583263
2.1016
5.65211
12.653
25.1637
46.0784
79.1998
128.902
198.888
290.381
400.212
521.72
646.829
768.884
884.891
992.482
1091.41
1184.76
1270.85
371.688
0.518796
0.15473
0.577614
2.07903
5.58494
12.4876
24.8023
45.3556
77.8547
126.56
195.174
284.802
392.59
511.598
634.054
753.297
865.816
969.687
1063.8
1149.23
1229.81
1303.43
409.89
0.515828
0.153623
0.572527
2.05869
5.52483
12.3391
24.4786
44.7081
76.6509
124.469
191.787
279.83
385.651
502.753
622.872
739.728
849.648
950.332
1041.02
1121.89
1194.89
1264.21
1326.78
443.03
0.51313
0.152622
0.567945
2.04038
5.47066
12.2063
24.1881
44.1282
75.572
122.595
188.759
275.287
379.471
494.681
613.121
727.831
835.563
933.899
1021.67
1099.34
1168
1230.03
1289.73
1342.51
470.35
0.510652
0.151712
0.563814
2.02389
5.4219
12.0865
23.9281
43.6075
74.6052
120.914
186.038
271.219
373.824
487.497
604.227
717.464
823.191
919.581
1005.21
1080.19
1145.82
1203.7
1256.35
1308.04
1352
491.408
0.508368
0.150877
0.560061
2.00903
5.37798
11.9787
23.6937
43.1414
73.7365
119.407
183.599
267.553
368.757
480.945
596.314
708.043
812.418
906.972
990.879
1063.88
1126.99
1181.98
1230.64
1275.51
1320.56
1356.39
506.124
0.506262
0.150109
0.556614
1.99553
5.33839
11.8816
23.4827
42.7212
72.9587
118.051
181.407
264.274
364.175
475.052
589.113
699.658
802.663
896.002
978.225
1049.67
1110.93
1163.54
1209.42
1250.43
1288.91
1328.5
1356.61
514.587
0.504304
0.149401
0.553451
1.98312
5.30244
11.7941
23.2927
42.3429
72.2572
116.837
179.431
261.31
360.08
469.706
582.625
692.046
793.986
886.102
967.218
1037.11
1096.95
1147.8
1191.41
1229.72
1264.48
1297.74
1332.63
1353.32
516.824
0.502492
0.148746
0.550538
1.97175
5.26941
11.7146
23.1213
42.002
71.6252
115.74
177.66
258.638
356.359
464.924
576.726
685.181
786.123
877.311
957.323
1026.18
1084.57
1134.09
1176.02
1212.14
1244.28
1273.97
1302.83
1333.54
1346.94
512.473
0.500805
0.148141
0.547851
1.96127
5.23912
11.6416
22.9657
41.6946
71.0554
114.752
176.059
256.236
353.008
460.562
571.442
678.933
779.03
869.36
948.552
1016.4
1073.8
1121.94
1162.6
1197.11
1227.14
1254.28
1279.73
1304.73
1331.66
1337.79
500.066
0.499243
0.147582
0.545375
1.9516
5.21121
11.5747
22.8227
41.4153
70.5416
113.86
174.614
254.06
349.98
456.63
566.609
673.324
772.568
862.185
940.644
1007.74
1064.19
1111.38
1150.72
1184.01
1212.48
1237.57
1260.57
1282.33
1303.92
1327.37
1326.11
476.97
0.497786
0.147066
0.543101
1.9427
5.18547
11.513
22.6916
41.1588
70.0747
113.055
173.309
252.095
347.237
453.065
562.243
668.181
766.758
855.641
933.496
999.953
1055.69
1101.97
1140.39
1172.39
1199.68
1223.27
1244.3
1263.71
1282.23
1300.78
1320.97
1312.11
443.043
0.496429
0.146589
0.541007
1.93453
5.16176
11.4561
22.5708
40.9235
69.6458
112.324
172.13
250.317
344.751
449.833
558.274
663.532
761.419
849.751
926.973
992.909
1048.08
1093.68
1131.2
1162.3
1188.34
1210.79
1230.37
1247.89
1264.17
1279.83
1295.63
1312.7
1295.91
402.939
0.495142
0.146145
0.539078
1.927
5.14
11.4036
22.4594
40.7067
69.2522
111.652
171.058
248.709
342.498
446.894
554.669
659.29
756.589
844.33
921.097
986.476
1041.19
1086.26
1123.12
1153.34
1178.49
1199.72
1218.2
1234.33
1248.8
1262.34
1275.45
1288.72
1302.73
1277.63
359.469
0.493924
0.145725
0.537288
1.92007
5.11996
11.3555
22.3568
40.5068
68.8896
111.035
170.072
247.245
340.459
444.224
551.382
655.425
752.163
839.419
915.68
980.678
1034.89
1079.54
1115.91
1145.47
1169.75
1190.1
1207.41
1222.49
1235.63
1247.44
1258.54
1269.34
1280.26
1291.22
1257.35
314.437
0.492699
0.14533
0.535601
1.91364
5.1015
11.3112
22.2626
40.3226
68.5551
110.466
169.167
245.898
338.598
441.804
548.387
651.894
748.121
834.901
910.767
975.326
1029.21
1073.39
1109.37
1138.46
1162.09
1181.58
1198.02
1211.97
1224.11
1234.66
1244.11
1253.04
1261.73
1270.42
1278.25
1235.03
268.811
0.49173
0.144929
0.534014
1.90759
5.08439
11.2704
22.1757
40.1534
68.2468
109.941
168.333
244.661
336.885
439.594
545.67
648.675
744.423
830.769
906.231
970.463
1023.95
1067.85
1103.38
1132.1
1155.27
1174.11
1189.71
1202.82
1213.88
1223.47
1231.73
1239.1
1246.06
1252.81
1259.34
1263.88
1210.44
223.453
0.493158
0.144616
0.532396
1.90189
5.06826
11.2325
22.0958
39.9975
67.9635
109.458
167.562
243.519
335.311
437.555
543.184
645.746
741.049
826.98
902.077
965.964
1019.18
1062.72
1097.99
1126.28
1149.08
1167.46
1182.44
1194.73
1204.97
1213.53
1220.89
1227.12
1232.62
1237.79
1242.71
1247.13
1248.14
1183.25
179.317
0.795091
0.144321
0.531147
1.89607
5.05311
11.1969
22.0217
39.8539
67.7024
109.013
166.851
242.465
333.857
435.681
540.891
643.062
737.969
823.521
898.26
961.836
1014.75
1058.04
1092.99
1121.03
1143.42
1161.45
1175.97
1187.65
1197.09
1204.86
1211.23
1216.63
1221.06
1224.86
1228.38
1231.55
1233.84
1230.99
1152.96
137.527
0.505492
0.503107
0.52758
1.89159
5.03764
11.1634
21.9517
39.7207
67.4617
108.602
166.195
241.489
332.513
433.95
538.783
640.587
735.145
820.355
894.772
958.036
1010.68
1053.7
1088.43
1116.17
1138.31
1155.94
1170.12
1181.36
1190.2
1197.2
1202.82
1207.27
1210.92
1213.74
1215.98
1217.94
1219.42
1219.53
1212.37
1118.97
99.4633
0.511805
0.168388
2.6548
1.87815
5.0257
11.1292
21.8861
39.595
67.2384
108.224
165.59
240.589
331.267
432.346
536.834
638.31
732.542
817.451
891.573
954.561
1006.92
1049.71
1084.18
1111.72
1133.58
1150.96
1164.76
1175.67
1184.09
1190.5
1195.37
1199.1
1201.87
1203.96
1205.3
1206.11
1206.59
1206.39
1204.22
1192.18
1080.45
66.6862
0.608982
0.180665
0.672345
9.23795
4.98968
11.1028
21.8191
39.477
67.0277
107.872
165.031
239.755
330.115
430.858
535.024
636.204
730.142
814.772
888.638
951.368
1003.49
1046.03
1080.28
1107.58
1129.24
1146.35
1159.92
1170.45
1178.56
1184.56
1188.86
1191.88
1193.96
1195.22
1195.9
1195.89
1195.35
1194.39
1192.5
1187.88
1170.27
1036.39
40.7017
0.558371
0.293067
0.756624
2.38869
23.7266
11.0227
21.7674
39.3565
66.8298
107.54
164.511
238.984
329.049
429.477
533.339
634.243
727.922
812.3
885.926
948.437
1000.33
1042.65
1076.67
1103.76
1125.21
1142.13
1155.43
1165.75
1173.49
1179.19
1183.09
1185.56
1186.95
1187.56
1187.48
1186.87
1185.6
1183.76
1181.39
1177.76
1170.48
1146.45
985.452
22.4023
0.497749
0.240579
1.45229
2.70507
6.30185
50.8236
21.6095
39.2637
66.6271
107.228
164.021
238.266
328.058
428.197
531.773
632.415
725.855
810.013
883.424
945.725
997.423
1039.53
1073.36
1100.24
1121.49
1138.19
1151.32
1161.38
1168.92
1174.27
1177.89
1179.97
1180.83
1180.79
1180.09
1178.78
1176.98
1174.52
1171.43
1167.63
1162.17
1151.96
1120.49
926.052
11.367
0.489275
0.174539
1.1172
5.23551
7.14417
13.8452
96.4653
38.9765
66.4709
106.908
163.559
237.588
327.132
427.005
530.318
630.711
723.923
807.881
881.109
943.225
994.734
1036.67
1070.3
1096.99
1118.04
1134.56
1147.48
1157.38
1164.68
1169.84
1173.12
1174.93
1175.41
1174.86
1173.54
1171.66
1169.23
1166.32
1162.7
1158.37
1153.12
1145.72
1132.21
1092.13
856.411
5.75726
0.480672
0.16732
0.707626
3.97413
13.8119
15.6524
27.0415
167.029
65.9802
106.661
163.086
236.949
326.256
425.884
528.958
629.123
722.115
805.884
878.947
940.909
992.256
1034.02
1067.49
1094
1114.87
1131.19
1143.93
1153.64
1160.78
1165.71
1168.81
1170.31
1170.53
1169.62
1167.81
1165.35
1162.39
1158.91
1154.94
1150.21
1144.63
1137.86
1128.35
1111.1
1060.81
775.071
3.26255
0.47941
0.142044
0.660963
2.476
10.3991
30.1828
30.3645
48.5951
266.742
105.866
162.724
236.295
325.43
424.822
527.674
627.634
720.427
804.01
876.919
938.745
989.96
1031.58
1064.88
1091.24
1111.94
1128.09
1140.64
1150.18
1157.15
1161.93
1164.81
1166.13
1166.06
1164.9
1162.75
1159.81
1156.31
1152.36
1147.9
1142.91
1137.06
1130.2
1121.83
1110
1088.46
1025.58
682.138
2.26727
0.479084
0.140706
0.518582
2.29651
6.43411
22.595
58.2753
54.0312
81.8161
393.362
161.501
235.796
324.584
423.82
526.455
626.223
718.838
802.258
875.012
936.712
987.811
1029.31
1062.48
1088.69
1109.24
1125.22
1137.61
1146.97
1153.78
1158.39
1161.14
1162.25
1162.02
1160.58
1158.2
1154.93
1150.99
1146.54
1141.65
1136.25
1130.24
1123.27
1115.08
1104.99
1090.58
1064.04
985.243
581.293
1.922
0.478757
0.140555
0.512241
1.83811
5.94178
13.9219
43.4865
102.713
89.8952
130.104
535.78
234.022
323.941
422.793
525.302
624.881
717.329
800.602
873.225
934.797
985.791
1027.19
1060.26
1086.33
1106.73
1122.58
1134.81
1144.02
1150.65
1155.12
1157.71
1158.69
1158.27
1156.67
1154.02
1150.55
1146.29
1141.42
1136.08
1130.32
1123.99
1116.97
1108.84
1099.25
1087.28
1069.95
1037.59
938.413
478.185
1.81154
0.47817
0.140435
0.510682
1.81487
4.86789
12.8188
26.7603
76.6753
167.679
141.146
195.756
678.301
321.515
422.017
524.12
623.609
715.89
799.024
871.529
932.996
983.884
1025.2
1058.17
1084.15
1104.43
1120.13
1132.23
1141.28
1147.77
1152.08
1154.53
1155.36
1154.82
1153.04
1150.25
1146.53
1142.08
1136.91
1131.19
1125.01
1118.39
1111.15
1103.1
1093.76
1082.66
1068.62
1047.98
1008.78
883.723
376.439
1.77597
0.477706
0.140226
0.509756
1.80715
4.80377
10.729
24.6028
47.3429
125.887
254.49
209.645
278.361
808.702
418.897
523.236
622.305
714.525
797.518
869.909
931.282
982.087
1023.31
1056.21
1082.1
1102.29
1117.87
1129.83
1138.76
1145.11
1149.27
1151.57
1152.28
1151.59
1149.71
1146.75
1142.9
1138.22
1132.87
1126.87
1120.34
1113.36
1105.9
1097.74
1088.62
1078
1065.27
1048.9
1024.45
977.141
819.911
280.381
1.76315
0.477346
0.140057
0.508466
1.80279
4.77904
10.582
20.998
43.5435
78.6107
193.553
359.02
294.329
373.925
921.603
519.433
621.335
713.123
796.087
868.36
929.642
980.371
1021.53
1054.35
1080.18
1100.28
1115.77
1127.62
1136.42
1142.64
1146.67
1148.84
1149.4
1148.6
1146.59
1143.53
1139.53
1134.72
1129.17
1123.01
1116.22
1108.92
1101.16
1092.86
1083.75
1073.52
1061.52
1046.99
1028.01
999.147
941.714
745.947
194.321
1.75777
0.477001
0.139932
0.507328
1.79714
4.76538
10.5202
20.7012
37.83
72.489
123.707
278.839
472.205
390.706
475.824
1016.61
616.897
712.089
794.615
866.889
928.072
978.727
1019.82
1052.59
1078.35
1098.39
1113.81
1125.57
1134.25
1140.36
1144.27
1146.31
1146.75
1145.81
1143.69
1140.52
1136.42
1131.48
1125.82
1119.47
1112.55
1105.01
1096.97
1088.43
1079.27
1069.18
1057.75
1044.27
1027.73
1005.79
971.754
901.192
661.365
122.02
1.75497
0.476623
0.139813
0.506515
1.792
4.74838
10.4865
20.5692
37.2846
64.001
114.578
185.026
376.87
584.323
492.06
577.032
1095.55
707.066
793.537
865.371
926.579
977.152
1018.19
1050.9
1076.62
1096.6
1111.96
1123.65
1132.25
1138.24
1142.04
1143.97
1144.29
1143.23
1140.99
1137.72
1133.52
1128.5
1122.72
1116.27
1109.18
1101.53
1093.27
1084.5
1075.17
1065.12
1053.99
1041.29
1026.16
1007.37
982.025
941.919
853.951
567.08
66.8824
1.75312
0.476304
0.139685
0.505847
1.78836
4.73267
10.4455
20.498
37.0327
63.0741
102.695
172.388
262.775
480.518
688.813
591.702
672.197
1160.79
788.001
864.269
925.034
975.651
1016.62
1049.28
1074.96
1094.9
1110.2
1121.84
1130.37
1136.28
1139.97
1141.8
1142.01
1140.85
1138.49
1135.11
1130.82
1125.71
1119.85
1113.3
1106.13
1098.34
1089.99
1081.03
1071.52
1061.38
1050.4
1038.16
1024.05
1007.1
985.777
956.494
909.163
798.264
466.752
30.7059
1.75189
0.476034
0.139574
0.505182
1.78553
4.72157
10.4073
20.413
36.898
62.6341
101.23
156.784
246.605
353.99
583.203
782.779
684.778
758.461
1214.57
858.292
923.922
974.094
1015.12
1047.72
1073.36
1093.27
1108.54
1120.11
1128.6
1134.45
1138.06
1139.78
1139.9
1138.63
1136.18
1132.69
1128.3
1123.11
1117.18
1110.57
1103.3
1095.45
1086.98
1077.96
1068.29
1058.03
1047.05
1035.07
1021.62
1005.98
986.991
962.766
928.904
872.486
732.598
367.365
11.6739
1.7512
0.475815
0.139481
0.504606
1.78279
4.71321
10.3804
20.3326
36.7382
62.4007
100.521
154.639
227.538
334.892
452.961
680.338
865.61
768.953
834.404
1258.78
917.579
972.983
1013.56
1046.24
1071.81
1091.69
1106.93
1118.48
1126.92
1132.72
1136.28
1137.92
1137.93
1136.58
1134.03
1130.45
1125.97
1120.68
1114.69
1108.01
1100.7
1092.77
1084.25
1075.14
1065.43
1055.05
1044.01
1032.13
1019.1
1004.32
986.969
965.681
938.129
898.9
830.505
655.963
273.08
3.97649
1.75087
0.475479
0.139401
0.504151
1.78046
4.70527
10.3605
20.2764
36.5874
62.1253
100.148
153.589
224.649
313.29
432.004
553.046
769.137
937.789
842.664
899.383
1294.97
966.352
1012.46
1044.69
1070.34
1090.17
1105.38
1116.91
1125.32
1131.08
1134.59
1136.18
1136.12
1134.67
1132.04
1128.37
1123.8
1118.43
1112.35
1105.62
1098.26
1090.29
1081.73
1072.58
1062.82
1052.43
1041.31
1029.45
1016.61
1002.41
986.177
966.91
943.007
911.613
866.067
781.439
568.174
187.068
1.45234
1.7511
0.464771
0.139288
0.503772
1.77867
4.69853
10.3418
20.2356
36.4812
61.8637
99.7083
153.039
223.226
309.729
409.219
531.399
648.588
848.188
1000.03
905.313
953.737
1324.38
1005.62
1043.6
1068.81
1088.72
1103.89
1115.39
1123.78
1129.52
1132.99
1134.54
1134.43
1132.9
1130.18
1126.43
1121.79
1116.35
1110.19
1103.39
1095.98
1087.98
1079.39
1070.21
1060.44
1050.02
1038.93
1027.04
1014.31
1000.43
984.956
967.091
945.663
918.768
882.911
829.484
723.267
470.511
113.898
0.7207
1.75156
0.27226
0.13716
0.503291
1.77722
4.69345
10.3261
20.1974
36.4051
61.6806
99.2894
152.39
222.482
307.969
405.187
508.746
627.234
735.926
917.176
1053.57
957.259
998.463
1347.99
1036.63
1067.73
1087.2
1102.46
1113.92
1122.29
1128.02
1131.47
1132.97
1132.83
1131.26
1128.47
1124.63
1119.91
1114.4
1108.18
1101.31
1093.85
1085.82
1077.21
1068.02
1058.24
1047.83
1036.75
1024.92
1012.22
998.541
983.533
966.639
946.946
923.065
892.725
851.65
787.781
654.05
368.909
59.0054
0.526504
1.75223
0.00349482
0.0923659
0.499077
1.77547
4.68951
10.3144
20.1654
36.3348
61.5503
98.9966
151.77
221.6
307.053
403.192
504.499
605.645
715.644
813.649
976.688
1098.01
999.418
1034.9
1366.54
1060.69
1086.14
1100.96
1112.51
1120.85
1126.56
1130
1131.49
1131.31
1129.71
1126.87
1122.97
1118.17
1112.59
1106.31
1099.38
1091.86
1083.79
1075.17
1065.97
1056.2
1045.8
1034.76
1022.98
1010.38
996.807
982.101
965.838
947.359
925.602
898.916
864.587
817.309
739.162
572.703
273.104
24.8999
0.479084
1.75308
0.022171
0.012787
0.3772
1.76155
4.68476
10.3055
20.1418
36.2758
61.4305
98.7895
151.337
220.756
305.949
402.155
502.41
601.412
695.555
794.829
880.871
1027.05
1133.57
1033
1064.51
1380.41
1079.06
1099.91
1111.04
1119.47
1125.15
1128.58
1130.07
1129.87
1128.23
1125.36
1121.42
1116.56
1110.9
1104.56
1097.58
1090.02
1081.9
1073.24
1064.05
1054.29
1043.93
1032.91
1021.2
1008.7
995.279
980.752
964.918
947.258
926.995
902.889
872.983
834.01
778.82
681.527
480.012
185.346
8.55574
0.468516
1.75373
0.0239848
0.260481
0.0868905
1.34254
4.64834
10.295
20.1242
36.2327
61.33
98.5995
151.032
220.167
304.905
400.891
501.326
599.349
691.475
776.545
863.559
937.743
1068.42
1161.32
1059.37
1088.63
1389.93
1092.83
1110.01
1118.02
1123.79
1127.2
1128.68
1128.48
1126.83
1123.93
1119.96
1115.06
1109.34
1102.93
1095.9
1088.3
1080.14
1071.45
1062.25
1052.5
1042.16
1031.21
1019.56
1007.15
993.87
979.559
963.995
946.91
927.683
905.402
878.609
844.984
800.583
734.675
612.776
380.642
110.229
2.60005
0.46646
1.75417
0.0261932
0.155927
1.84954
0.318623
3.54534
10.2153
20.1037
36.201
61.2565
98.4402
150.751
219.755
304.166
399.702
499.978
598.296
689.518
772.729
847.14
921.658
984.698
1101.56
1182.5
1079.83
1108.3
1395.1
1102.93
1117.01
1122.37
1125.87
1127.33
1127.13
1125.49
1122.57
1118.57
1113.65
1107.9
1101.42
1094.33
1086.68
1078.49
1069.79
1060.56
1050.81
1040.51
1029.6
1018.03
1005.71
992.569
978.451
963.172
946.461
927.981
906.985
882.404
852.524
814.586
763.445
682.915
531.605
283.221
54.6727
0.820263
0.46614
1.75448
0.0280583
0.149033
1.08923
6.35519
0.847226
7.79362
19.9492
36.1642
61.2035
98.324
150.517
219.371
303.656
398.857
498.721
596.93
688.533
770.938
843.649
906.906
969.635
1022.69
1127.67
1198.13
1095.54
1124.23
1396.25
1109.94
1121.37
1124.47
1126.04
1125.82
1124.17
1121.27
1117.26
1112.3
1106.53
1100.03
1092.88
1085.18
1076.95
1068.22
1058.98
1049.23
1038.95
1028.09
1016.59
1004.38
991.356
977.418
962.39
946.046
928.062
908.012
885.01
857.799
824.352
781.388
721.251
621.283
438.792
192.979
21.6347
0.351739
0.466145
1.75475
0.0298663
0.158375
1.03502
4.048
15.1794
1.87372
15.2323
35.891
61.1427
98.2409
150.348
219.053
303.178
398.277
497.826
595.682
687.201
770.039
842.05
903.743
956.264
1008.41
1052.96
1148.02
1209.15
1107.49
1137
1393.89
1114.32
1123.5
1124.66
1124.56
1122.89
1119.99
1116
1111.04
1105.24
1098.72
1091.54
1083.78
1075.51
1066.75
1057.5
1047.75
1037.48
1026.66
1015.23
1003.11
990.226
976.448
961.649
945.625
928.101
908.692
886.867
861.578
831.339
793.755
744.606
672.183
547.703
340.426
114.726
6.84619
0.2397
0.466221
1.75501
0.0313253
0.186552
1.09993
3.84413
10.7474
29.6904
3.68937
27.4587
60.6953
98.1466
150.225
218.823
302.779
397.726
497.212
594.788
686.008
768.775
841.253
902.342
953.392
996.171
1039.21
1076.87
1163.66
1216.39
1116.32
1147.07
1388.59
1116.47
1123.71
1123.21
1121.66
1118.75
1114.77
1109.82
1104.02
1097.47
1090.28
1082.5
1074.18
1065.38
1056.11
1046.36
1036.1
1025.31
1013.94
1001.92
989.147
975.537
960.943
945.204
928.078
909.241
888.226
864.382
836.472
802.733
760.332
702.966
614.027
461.559
245.992
56.1205
1.87333
0.21516
0.466316
1.75521
0.0330745
0.217408
1.302
4.0867
10.2923
23.1269
51.337
6.71644
46.6209
97.4671
150.088
218.657
302.49
397.263
496.613
594.164
685.156
767.666
840.081
901.646
952.171
993.531
1027.84
1063.31
1095.62
1175.52
1220.54
1122.53
1154.83
1380.78
1116.69
1122.28
1120.35
1117.56
1113.56
1108.63
1102.84
1096.3
1089.08
1081.29
1072.95
1064.11
1054.81
1045.05
1034.81
1024.04
1012.71
1000.77
988.125
974.661
960.27
944.785
928.01
909.66
889.348
866.516
840.364
809.436
771.632
723.267
654.722
544.528
366.611
159.173
21.541
0.52502
0.210221
0.466421
1.75538
0.034993
0.239402
1.52534
4.84965
10.9504
22.4944
43.2924
81.4266
11.5636
75.3993
149.136
218.472
302.281
396.927
496.113
593.547
684.549
766.874
839.084
900.577
951.58
992.469
1025.37
1052.59
1082
1110.31
1184.19
1222.06
1126.53
1160.6
1370.84
1115.28
1119.44
1116.28
1112.4
1107.46
1101.69
1095.17
1087.96
1080.14
1071.79
1062.93
1053.6
1043.82
1033.58
1022.84
1011.56
999.677
987.133
973.824
959.613
944.371
927.906
909.983
890.263
868.288
843.385
814.583
780.166
737.604
681.273
597.69
462.464
270.972
86.6693
6.44444
0.206632
0.209299
0.466528
1.75557
0.0368079
0.261219
1.68359
5.68536
13
23.9768
42.8283
73.2646
120.548
19.0933
116.687
217.256
302.05
396.679
495.745
593.032
683.935
766.305
838.364
899.713
950.619
991.973
1024.44
1050.2
1071.69
1096.36
1121.6
1190.1
1221.3
1128.68
1164.59
1359.01
1112.45
1115.38
1111.16
1106.34
1100.57
1094.07
1086.88
1079.07
1070.7
1061.83
1052.48
1042.68
1032.43
1021.71
1010.47
998.648
986.185
973.001
958.974
943.951
927.775
910.227
891.022
869.761
845.899
818.628
786.767
748.3
699.723
632.59
529.542
370.109
181.648
37.2722
1.61366
0.138689
0.209138
0.466643
1.75575
0.0385026
0.28357
1.84038
6.27778
15.1314
28.3182
45.7313
73.6256
114.224
167.887
30.494
172.771
300.654
396.411
495.467
592.65
683.423
765.704
837.841
899.072
949.876
991.117
1024.02
1049.37
1069.31
1086.26
1107.24
1130.03
1193.62
1218.54
1129.28
1167
1345.5
1108.42
1110.28
1105.13
1099.49
1092.98
1085.82
1078.04
1069.68
1060.8
1051.45
1041.63
1031.36
1020.64
1009.43
997.667
985.285
972.205
958.333
943.528
927.613
910.406
891.651
871.009
848.005
821.991
791.998
756.591
713.281
656.638
575.008
448.861
275.152
103.69
12.1925
0.404275
0.125428
0.209129
0.466758
1.75596
0.0401369
0.304109
2.00153
6.86506
16.6478
32.6345
53.5758
78.6629
116.272
165.433
221.126
47.2767
244.108
394.99
495.176
592.35
683.042
765.207
837.263
898.584
949.299
990.475
1023.23
1048.99
1068.52
1083.81
1097.22
1115.19
1136.03
1195.06
1214.04
1128.58
1167.98
1330.49
1103.33
1104.27
1098.31
1091.94
1084.78
1077.03
1068.7
1059.83
1050.47
1040.65
1030.37
1019.64
1008.44
996.73
984.424
971.445
957.702
943.082
927.426
910.527
892.175
872.069
849.805
824.82
796.338
763.203
723.672
674.08
606.516
506.199
357.847
185.928
46.6064
3.09305
0.144325
0.123027
0.209162
0.466863
1.75623
0.0416771
0.322658
2.14974
7.46876
18.1567
35.7405
61.0739
91.1567
124.023
169.877
223.914
277.288
71.1283
328.406
493.92
592.049
682.73
764.832
836.789
898.038
948.848
989.948
1022.68
1048.26
1068.17
1082.99
1094.65
1105.14
1120.66
1139.97
1194.68
1208.02
1126.78
1167.6
1314.16
1097.34
1097.47
1090.8
1083.78
1076.03
1067.73
1058.9
1049.55
1039.73
1029.45
1018.72
1007.52
995.838
983.595
970.711
957.091
942.629
927.192
910.598
892.607
872.975
851.348
827.246
799.998
768.675
731.894
687.274
629.226
547.089
424.917
264.295
106.708
15.6953
0.689626
0.0940979
0.1226
0.209208
0.466978
1.75647
0.0431129
0.339001
2.28342
8.02418
19.6985
38.8441
66.5371
102.643
141.676
180.437
230.951
285.693
333.825
103.48
420.94
591.15
682.424
764.514
836.426
897.589
948.342
989.528
1022.21
1047.78
1067.48
1082.65
1093.76
1102.41
1110.49
1124.04
1142.15
1192.69
1200.7
1124.07
1165.95
1296.68
1090.55
1089.98
1082.68
1075.07
1066.79
1057.99
1048.67
1038.87
1028.6
1017.87
1006.68
995.001
982.801
969.998
956.494
942.18
926.932
910.596
892.961
873.752
852.682
829.334
803.138
773.294
738.683
697.586
646.217
576.764
476.125
334.314
176.182
47.5847
3.95844
0.177548
0.085234
0.122513
0.209275
0.467065
1.75669
0.0444351
0.354035
2.40094
8.5251
21.1159
41.9882
72.0058
111.089
157.255
202.646
243.847
295.067
347.505
389.137
144.841
516.111
682.037
764.211
836.105
897.241
947.92
989.063
1021.82
1047.37
1067.05
1082
1093.41
1101.45
1107.57
1113.68
1125.64
1142.82
1189.28
1192.26
1120.58
1163.06
1278.2
1083.07
1081.88
1074.02
1065.87
1057.09
1047.82
1038.05
1027.79
1017.08
1005.9
994.232
982.054
969.31
955.906
941.73
926.658
910.546
893.214
874.418
853.843
831.15
805.845
777.254
744.417
705.988
659.334
598.858
514.376
392.93
242.531
98.1725
15.5809
0.830501
0.0816778
0.083761
0.122494
0.209347
0.46715
1.75693
0.0456286
0.36794
2.50902
8.96564
22.3979
44.8743
77.4881
119.527
168.771
221.505
269.251
309.619
358.825
407.466
442.471
194.345
609.001
764.421
835.808
896.921
947.585
988.667
1021.38
1047
1066.68
1081.6
1092.79
1101.07
1106.51
1110.55
1115.05
1125.75
1142.17
1184.61
1182.88
1116.42
1158.94
1258.91
1074.98
1073.23
1064.86
1056.21
1046.97
1037.25
1027.04
1016.34
1005.17
993.525
981.367
968.659
955.332
941.278
926.369
910.463
893.394
874.952
854.857
832.742
808.207
780.669
749.323
713.024
669.876
615.772
543.075
440.12
302.229
156.155
41.4519
3.73609
0.185873
0.0654246
0.0834953
0.122502
0.209421
0.467216
1.75731
0.0466703
0.380574
2.60899
9.37073
23.53
47.4902
82.4996
127.872
180.228
235.528
290.195
336.925
374.499
420.425
464.817
493.648
249.957
696.297
836.706
896.634
947.267
988.344
1021.01
1046.58
1066.34
1081.26
1092.42
1100.45
1106.09
1109.35
1111.66
1114.88
1124.58
1140.37
1178.81
1172.71
1111.67
1153.62
1238.94
1066.35
1064.09
1055.25
1046.14
1036.45
1026.29
1015.64
1004.5
992.868
980.737
968.06
954.785
940.826
926.064
910.348
893.52
875.386
855.701
834.143
810.286
783.653
753.552
719.021
678.596
629.205
565.053
476.526
354.359
212.662
81.5269
12.5434
0.733394
0.0711704
0.0628716
0.0834209
0.122527
0.209497
0.467297
1.75767
0.0475603
0.391503
2.69984
9.74545
24.5713
49.8096
87.041
135.441
191.389
249.449
305.923
359.004
402.888
436.921
479.242
519.452
542.802
309.323
776.296
898.261
946.991
988.027
1020.7
1046.23
1065.93
1080.95
1092.1
1100.11
1105.47
1108.87
1110.31
1111.19
1113.42
1122.34
1137.55
1171.99
1161.89
1106.39
1147.09
1218.46
1057.24
1054.51
1045.23
1035.67
1025.55
1014.96
1003.86
992.263
980.155
967.512
954.28
940.392
925.746
910.203
893.596
875.741
856.415
835.333
812.122
786.284
757.25
724.197
685.96
640.174
582.377
504.903
397.793
263.642
129.023
31.1526
2.74442
0.153997
0.0527874
0.0624551
0.0833865
0.122568
0.209573
0.467354
1.75813
0.0482804
0.400212
2.77837
10.0859
25.5334
51.9427
91.0748
142.274
201.411
262.838
321.572
375.815
425.57
465.998
496.44
535.275
571.574
590.212
370.491
848.368
949.33
987.761
1020.38
1045.92
1065.6
1080.56
1091.8
1099.79
1105.14
1108.23
1109.74
1109.66
1109.39
1110.86
1119.17
1133.81
1164.24
1150.55
1100.61
1139.36
1197.6
1047.7
1044.5
1034.81
1024.82
1014.27
1003.24
991.694
979.622
967.009
953.82
939.989
925.432
910.031
893.625
876.027
857.025
836.359
813.699
788.611
760.512
728.719
692.25
649.332
596.383
527.311
433.243
309.943
176.887
60.5682
8.33164
0.500604
0.0578246
0.0500675
0.0623478
0.0833741
0.12262
0.209642
0.467409
1.75859
0.0488422
0.406034
2.8409
10.3804
26.4067
53.9096
94.775
148.335
210.406
274.758
336.495
392.636
443.116
489.055
526.056
553.158
588.793
621.506
636.215
432.18
912.09
990.741
1020.12
1045.61
1065.31
1080.24
1091.42
1099.5
1104.82
1107.91
1109.07
1109
1107.66
1106.46
1107.39
1115.22
1129.21
1155.65
1138.79
1094.33
1130.43
1176.45
1037.78
1034.11
1024.02
1013.6
1002.62
991.139
979.123
966.552
953.402
939.625
925.141
909.849
893.612
876.249
857.542
837.251
815.073
790.624
763.395
732.704
697.729
657.082
607.944
545.361
461.679
350
221.191
97.8535
20.0363
1.62522
0.105275
0.0434592
0.0496489
0.0622919
0.0833809
0.12268
0.209702
0.467448
1.75907
0.0492781
0.40842
2.88224
10.6145
27.1628
55.6912
98.1748
153.866
218.362
285.404
349.71
408.607
460.801
507.18
549.425
583.293
607.396
640.147
669.596
681.168
493.683
967.5
1023.62
1045.35
1064.99
1079.95
1091.11
1099.13
1104.53
1107.59
1108.75
1108.28
1106.88
1104.51
1102.59
1103.15
1110.56
1123.81
1146.28
1126.71
1087.54
1120.33
1154.99
1027.53
1023.34
1012.85
1002
990.582
978.637
966.128
953.026
939.297
924.88
909.68
893.576
876.41
857.975
838.025
816.28
792.389
765.902
736.222
702.543
663.775
617.649
560.148
484.837
384.06
261.082
137.124
39.4225
4.57151
0.280522
0.0448173
0.0414706
0.0495398
0.0622569
0.0834039
0.122743
0.209751
0.467488
1.75957
0.0495991
0.40729
2.89835
10.7697
27.7671
57.2343
101.243
158.918
225.578
294.801
361.487
422.716
477.562
525.59
568.082
606.984
638.087
659.529
689.695
716.18
725.413
554.693
1014.92
1049.22
1064.73
1079.64
1090.83
1098.83
1104.18
1107.3
1108.43
1107.94
1106.09
1103.59
1100.39
1097.92
1098.24
1105.3
1117.66
1136.19
1114.38
1080.22
1109.09
1133.18
1017
1012.19
1001.32
990.025
978.148
965.714
952.68
939.007
924.65
909.53
893.54
876.533
858.33
838.693
817.341
793.951
768.112
739.294
706.793
669.623
625.948
572.482
503.825
412.857
297.546
175.297
65.6502
10.8315
0.793669
0.0655603
0.0364708
0.0411687
0.0494762
0.0622404
0.0834392
0.122806
0.2098
0.46751
1.7601
0.0498687
0.402784
2.8886
10.8303
28.1761
58.4754
103.896
163.451
232.123
303.285
371.879
435.285
492.357
543.029
587.169
626.177
662.143
690.835
709.922
737.769
761.575
769.278
615.12
1054.79
1068.77
1079.37
1090.51
1098.55
1103.88
1106.95
1108.12
1107.61
1105.74
1102.72
1099.31
1095.45
1092.58
1092.78
1099.47
1110.76
1125.42
1101.85
1072.3
1096.8
1111.04
1006.26
1000.68
989.407
977.655
965.298
952.344
938.745
924.452
909.406
893.513
876.643
858.629
839.261
818.271
795.333
770.074
742.009
710.515
674.753
633.137
582.935
519.63
436.746
329.829
210.344
96.2214
21.6817
2.07624
0.137036
0.0352877
0.0353843
0.0410761
0.0494301
0.062241
0.0834842
0.122866
0.209841
0.467523
1.7606
0.0501976
0.395685
2.85396
10.794
28.3529
59.3324
106.038
167.357
237.958
310.938
381.237
446.39
505.544
558.42
605.248
645.937
681.897
715.31
741.911
758.904
784.663
806.066
813.075
674.964
1087.57
1083.43
1090.25
1098.24
1103.61
1106.66
1107.78
1107.3
1105.39
1102.34
1098.34
1094.18
1089.81
1086.68
1086.82
1093.11
1103.15
1114.04
1089.17
1063.69
1083.53
1088.64
995.331
988.796
977.106
964.873
952.003
938.49
924.279
909.308
893.503
876.751
858.899
839.755
819.076
796.555
771.818
744.425
713.809
679.231
639.409
591.909
532.957
456.815
357.944
242.238
127.45
37.5894
4.8078
0.331055
0.0416105