/*--------------------------------*- C++ -*----------------------------------*\
| =========                 |                                                 |
| \\      /  F ield         | OpenFOAM: The Open Source CFD Toolbox           |
|  \\    /   O peration     | Version:  v2012                                 |
|   \\  /    A nd           | Website:  www.openfoam.com                      |
|    \\/     M anipulation  |                                                 |
\*---------------------------------------------------------------------------*/
FoamFile
{
    version     2.0;
    format      ascii;
    class       volScalarField;
    location    "13380";
    object      lamda2;
}
// * * * * * * * * * * * * * * * * * * * * * * * * * * * * * * * * * * * * * //

dimensions      [0 0 0 0 0 0 0];


internalField   nonuniform List<scalar> 
31383
(
1.0555e-06
1.82024e-05
4.44889e-05
1.68971e-05
0.000603586
0.00037288
1.59716e-05
0.000561096
0.00493355
0.00163161
1.52939e-05
0.000530882
0.00460126
0.0196967
0.00500914
1.47444e-05
0.000508717
0.00436368
0.0184655
0.0517638
0.0121643
1.42824e-05
0.000490718
0.00418875
0.0175782
0.0488565
0.103655
0.0248382
1.38973e-05
0.000475568
0.00404628
0.0169212
0.0467402
0.0985951
0.171569
0.0450247
1.35736e-05
0.00046293
0.00392612
0.0163839
0.0451617
0.0948697
0.164544
0.246933
0.0744192
1.32889e-05
0.000452301
0.00382568
0.015929
0.0438632
0.0920668
0.159305
0.238743
0.319999
0.114583
1.30334e-05
0.000442945
0.00374107
0.0155477
0.0427586
0.0897452
0.155326
0.23258
0.311579
0.382547
0.16999
1.27968e-05
0.000434545
0.0036665
0.0152257
0.0418291
0.087759
0.152004
0.227847
0.305327
0.375061
0.430492
0.237007
1.25793e-05
0.000426764
0.00359948
0.0149412
0.0410415
0.0860797
0.149144
0.223866
0.300475
0.369525
0.424759
0.464045
0.29486
1.23782e-05
0.000419611
0.00353734
0.0146851
0.0403438
0.0846511
0.146712
0.220408
0.296358
0.36511
0.420397
0.459975
0.485372
0.355085
1.21973e-05
0.000412992
0.00348016
0.0144473
0.0397142
0.0833807
0.144635
0.217456
0.292791
0.361361
0.416808
0.456824
0.482682
0.49797
0.407764
1.20352e-05
0.000407038
0.00342722
0.0142282
0.0391281
0.0822313
0.14278
0.214922
0.289655
0.358215
0.413765
0.454251
0.480612
0.496212
0.505719
0.42834
1.1891e-05
0.000401702
0.00337956
0.014025
0.038587
0.0811584
0.141096
0.212648
0.286983
0.355189
0.411198
0.45203
0.478938
0.494902
0.504351
0.51087
0.445459
1.17617e-05
0.000396953
0.00333681
0.0138418
0.0380843
0.0801656
0.13952
0.210578
0.284572
0.352712
0.408711
0.45003
0.477442
0.493811
0.503404
0.509705
0.51363
0.463543
1.16478e-05
0.000392695
0.00329874
0.0136773
0.0376303
0.079241
0.138056
0.208647
0.282374
0.350484
0.406647
0.448302
0.47609
0.492815
0.502599
0.509
0.51274
0.514355
0.488234
1.15457e-05
0.000388939
0.00326458
0.0135306
0.0372219
0.0784039
0.136691
0.206819
0.280392
0.348408
0.404856
0.446739
0.474924
0.491992
0.501935
0.508457
0.512379
0.513706
0.513884
0.502816
1.14548e-05
0.000385576
0.00323444
0.0133989
0.0368572
0.0776495
0.135451
0.205122
0.278354
0.346561
0.403059
0.445415
0.473878
0.491274
0.501405
0.508017
0.512098
0.513617
0.513308
0.512661
0.513149
1.13738e-05
0.000382581
0.00320742
0.0132826
0.0365292
0.0769746
0.134331
0.203578
0.276533
0.344629
0.401444
0.444044
0.472931
0.490627
0.50096
0.507608
0.511825
0.513493
0.513334
0.511995
0.510974
0.521186
1.13016e-05
0.000379909
0.00318336
0.0131782
0.0362391
0.0763665
0.133326
0.202178
0.274871
0.34291
0.3999
0.442811
0.472037
0.490024
0.500532
0.507247
0.511526
0.513372
0.513328
0.51211
0.5101
0.50907
0.526202
1.12368e-05
0.000377528
0.00316189
0.0130851
0.0359786
0.0758279
0.13242
0.200922
0.27337
0.341334
0.398442
0.441679
0.471195
0.489501
0.500165
0.506918
0.511272
0.513225
0.513314
0.512172
0.510269
0.507816
0.5071
0.528798
1.11783e-05
0.000375389
0.00314274
0.013002
0.0357461
0.0753436
0.131615
0.199784
0.272001
0.339957
0.39711
0.440556
0.470413
0.488959
0.499858
0.506646
0.51103
0.5131
0.513273
0.51223
0.510384
0.508015
0.505311
0.505139
0.529782
1.11246e-05
0.000373459
0.00312553
0.0129279
0.0355383
0.0749108
0.130891
0.198774
0.270765
0.3386
0.39595
0.439537
0.469642
0.488469
0.499513
0.506416
0.510838
0.512984
0.513247
0.51226
0.510497
0.508169
0.505517
0.503065
0.503375
0.529469
1.10752e-05
0.00037169
0.00311
0.0128612
0.0353527
0.0745233
0.130242
0.197861
0.269668
0.337428
0.394789
0.438611
0.468938
0.487994
0.499212
0.506185
0.510678
0.512878
0.513232
0.512296
0.510585
0.508318
0.50569
0.503227
0.501649
0.502181
0.528127
1.10297e-05
0.000370058
0.00309576
0.012801
0.0351857
0.0741768
0.129661
0.197043
0.268673
0.336369
0.393818
0.437763
0.468289
0.487558
0.498923
0.505949
0.510515
0.512805
0.51319
0.512346
0.510648
0.508446
0.505852
0.503368
0.501728
0.500913
0.501646
0.526616
1.09881e-05
0.000368558
0.00308262
0.0127458
0.0350348
0.073865
0.129141
0.196309
0.267782
0.335414
0.392883
0.43702
0.467707
0.487144
0.498646
0.505737
0.510351
0.512715
0.513168
0.512364
0.510733
0.508537
0.505997
0.503501
0.501802
0.500944
0.500375
0.501412
0.526127
1.09503e-05
0.000367185
0.00307054
0.0126948
0.0348962
0.0735828
0.128672
0.195652
0.266979
0.334557
0.392069
0.436302
0.467168
0.486778
0.498385
0.505532
0.510187
0.512635
0.513143
0.512371
0.510789
0.508633
0.506111
0.503623
0.501871
0.500982
0.500391
0.49989
0.501255
0.52842
1.0916e-05
0.000365938
0.00305948
0.012648
0.0347683
0.0733236
0.128247
0.195057
0.266259
0.333785
0.391329
0.435681
0.466689
0.486433
0.498154
0.505343
0.510051
0.512544
0.513124
0.512394
0.510828
0.50871
0.50621
0.503724
0.501936
0.501017
0.500423
0.499879
0.499459
0.501185
0.533539
1.08853e-05
0.000364806
0.00304944
0.012605
0.0346506
0.0730841
0.127857
0.194519
0.265608
0.33309
0.390665
0.435097
0.466252
0.486122
0.497933
0.50517
0.509919
0.512475
0.513101
0.51241
0.510877
0.508777
0.506298
0.503806
0.501992
0.501051
0.500456
0.499908
0.499408
0.499087
0.501208
0.532544
1.08579e-05
0.000363793
0.00304031
0.012566
0.0345427
0.0728637
0.127495
0.194024
0.265018
0.332461
0.390067
0.434582
0.465843
0.485836
0.497727
0.505003
0.509798
0.51241
0.513078
0.512429
0.510917
0.508842
0.50638
0.503881
0.502036
0.50108
0.500486
0.499936
0.499439
0.498996
0.498774
0.501324
0.514986
1.08332e-05
0.000362888
0.00303215
0.0125306
0.0344446
0.0726616
0.127163
0.193565
0.264474
0.33189
0.389524
0.434119
0.46548
0.485587
0.497551
0.504855
0.509681
0.512346
0.51306
0.512441
0.510966
0.508901
0.506458
0.503953
0.502077
0.501104
0.500512
0.49996
0.499461
0.499018
0.498642
0.498524
0.501509
0.499172
1.08104e-05
0.000362073
0.00302486
0.0124989
0.0343554
0.0724776
0.126858
0.193143
0.26397
0.331363
0.389031
0.433697
0.465154
0.485354
0.497395
0.50473
0.509583
0.512285
0.51304
0.512453
0.511001
0.508969
0.506533
0.504024
0.502118
0.501125
0.500532
0.499982
0.499479
0.499034
0.498645
0.498327
0.498336
0.501753
0.49027
1.07892e-05
0.000361318
0.00301828
0.0124705
0.0342757
0.0723102
0.12658
0.192755
0.263505
0.330875
0.388576
0.433313
0.464856
0.485144
0.497247
0.504605
0.509486
0.512234
0.51302
0.512463
0.511033
0.509021
0.506609
0.504092
0.502158
0.501148
0.500551
0.499999
0.499497
0.499046
0.498653
0.498315
0.498057
0.498213
0.502209
0.484186
1.07677e-05
0.000360618
0.0030122
0.0124449
0.0342043
0.0721604
0.126327
0.192401
0.263078
0.330424
0.388153
0.432959
0.464585
0.484952
0.497106
0.504497
0.509395
0.512177
0.513005
0.512469
0.511063
0.509067
0.506671
0.504158
0.502197
0.50117
0.500572
0.500015
0.49951
0.499058
0.498659
0.498315
0.498029
0.497832
0.49816
0.503323
0.477614
1.07496e-05
0.000359909
0.00300653
0.0124213
0.0341399
0.0720263
0.126101
0.192079
0.262688
0.33001
0.387763
0.43263
0.464334
0.484777
0.496987
0.504389
0.509317
0.512129
0.512986
0.512478
0.511085
0.509108
0.506726
0.504213
0.502236
0.501193
0.500591
0.500032
0.499522
0.499067
0.498664
0.498314
0.498019
0.497783
0.497652
0.498182
0.505314
0.470285
1.0807e-05
0.000359313
0.00300079
0.0123993
0.0340803
0.0719053
0.125898
0.19179
0.262333
0.329632
0.387404
0.432324
0.464101
0.484612
0.496874
0.504302
0.509245
0.512084
0.512968
0.512482
0.511109
0.509145
0.506776
0.504265
0.502269
0.501213
0.500611
0.500049
0.499533
0.499076
0.49867
0.498315
0.498012
0.497764
0.497577
0.497517
0.498283
0.507892
0.461955
1.69123e-05
0.000361163
0.002996
0.0123769
0.0340249
0.0717931
0.125715
0.191532
0.262014
0.329288
0.387076
0.432044
0.463884
0.484462
0.496766
0.504214
0.509175
0.512046
0.512949
0.512484
0.511127
0.509178
0.506822
0.504312
0.502299
0.501232
0.500629
0.500066
0.499546
0.499082
0.498675
0.498316
0.498009
0.497748
0.497547
0.497409
0.497428
0.498473
0.510791
0.452314
1.13949e-05
0.00079155
0.00301029
0.0123583
0.0339685
0.0716888
0.125544
0.191298
0.261729
0.328976
0.386783
0.431787
0.463685
0.484323
0.496671
0.504139
0.509111
0.512004
0.512935
0.512482
0.511142
0.509205
0.50686
0.504354
0.502328
0.501248
0.500644
0.500082
0.499562
0.499093
0.498681
0.498317
0.498003
0.49774
0.497522
0.497365
0.497278
0.497386
0.498754
0.51392
0.440874
1.15665e-05
0.000422009
0.00591572
0.0124104
0.0339218
0.0715827
0.125386
0.19108
0.26147
0.328698
0.386505
0.431559
0.463502
0.484194
0.496582
0.504067
0.50906
0.511971
0.512917
0.512483
0.511152
0.50923
0.506893
0.504389
0.502354
0.501264
0.500658
0.500095
0.499575
0.499106
0.49869
0.498321
0.498
0.497729
0.497506
0.497328
0.497216
0.497184
0.497397
0.499133
0.517277
0.426708
1.36369e-05
0.000429912
0.00372314
0.0232677
0.034041
0.0714949
0.125225
0.190878
0.261229
0.328446
0.386262
0.431343
0.463335
0.484075
0.496497
0.504001
0.509005
0.511938
0.512904
0.512483
0.511162
0.50925
0.506925
0.50442
0.502376
0.501277
0.50067
0.500106
0.499587
0.499114
0.498699
0.498325
0.498001
0.497721
0.497491
0.497307
0.497169
0.497102
0.497129
0.497468
0.499613
0.520845
0.408039
1.24215e-05
0.00050421
0.0038155
0.015648
0.0603172
0.0716913
0.125092
0.190673
0.261006
0.328211
0.386042
0.431148
0.463186
0.483966
0.496422
0.503938
0.508958
0.511907
0.512887
0.512484
0.511174
0.509266
0.506951
0.504451
0.502396
0.501289
0.50068
0.500115
0.499594
0.499124
0.498704
0.498333
0.498002
0.497718
0.497478
0.497287
0.497142
0.497044
0.497021
0.497113
0.497602
0.500183
0.524553
0.381908
1.10361e-05
0.000455667
0.00443105
0.0162125
0.0423972
0.119266
0.125339
0.190502
0.260779
0.327992
0.385837
0.430975
0.463048
0.483867
0.496351
0.503883
0.508912
0.51188
0.512874
0.512482
0.511183
0.509284
0.506973
0.504476
0.502415
0.5013
0.500689
0.500124
0.499603
0.49913
0.498711
0.498338
0.498007
0.497716
0.497471
0.497269
0.497114
0.497006
0.496947
0.496973
0.49714
0.497811
0.500822
0.528238
0.344468
1.07948e-05
0.000402717
0.00397317
0.0185865
0.044746
0.0866656
0.195333
0.190745
0.260587
0.327771
0.385646
0.430814
0.462924
0.483779
0.496286
0.503829
0.508872
0.511854
0.512862
0.512481
0.511191
0.509299
0.506994
0.504498
0.502432
0.50131
0.500697
0.500131
0.499611
0.499139
0.498716
0.498343
0.498011
0.497718
0.497466
0.497257
0.49709
0.496971
0.496899
0.496881
0.49696
0.497214
0.498103
0.501947
0.531438
0.29348
1.06013e-05
0.000392027
0.00349641
0.0166275
0.0505879
0.093108
0.147071
0.278559
0.260766
0.327582
0.385454
0.430664
0.462809
0.483696
0.496228
0.503781
0.508831
0.511829
0.512852
0.51248
0.511198
0.509312
0.507013
0.504519
0.502447
0.501318
0.500704
0.500137
0.499617
0.499146
0.498722
0.498345
0.498013
0.49772
0.497466
0.497249
0.497075
0.496941
0.496857
0.496822
0.496846
0.496983
0.497337
0.498492
0.504599
0.532829
0.213989
1.05606e-05
0.000356486
0.00338443
0.0146405
0.0454148
0.103953
0.158559
0.217478
0.356914
0.327665
0.38529
0.430512
0.462702
0.483622
0.496173
0.503738
0.508796
0.511804
0.512839
0.51248
0.511205
0.509325
0.507028
0.504538
0.502461
0.501327
0.500709
0.500143
0.499621
0.499149
0.498725
0.498348
0.498013
0.49772
0.497465
0.497245
0.497062
0.49692
0.49682
0.49677
0.496774
0.496844
0.497047
0.497518
0.498987
0.509107
0.529161
0.103672
1.05457e-05
0.000351526
0.00295437
0.0141153
0.0401744
0.0940836
0.175475
0.23246
0.289302
0.421297
0.38528
0.430385
0.462591
0.483551
0.496125
0.503697
0.508764
0.511785
0.512828
0.512478
0.51121
0.509337
0.507046
0.504554
0.502475
0.501334
0.500715
0.500146
0.499625
0.499152
0.498728
0.498349
0.498013
0.497718
0.497462
0.497242
0.497055
0.496903
0.496794
0.496727
0.496712
0.496755
0.496875
0.497152
0.497761
0.499594
0.514568
0.516436
0.0372645
1.05349e-05
0.000350689
0.00291704
0.0121431
0.0386371
0.0837503
0.160611
0.256324
0.304448
0.35451
0.467764
0.430308
0.462501
0.483479
0.496078
0.503658
0.508733
0.511766
0.512818
0.512476
0.511215
0.509347
0.507061
0.504571
0.502486
0.501341
0.50072
0.50015
0.499626
0.499154
0.498729
0.49835
0.498013
0.497717
0.497459
0.497237
0.497049
0.496893
0.496771
0.496693
0.49666
0.496682
0.496767
0.496942
0.497303
0.498075
0.500299
0.520017
0.49706
0.014372
1.05185e-05
0.000350161
0.00290649
0.0119955
0.0332821
0.0803856
0.143734
0.237685
0.335471
0.367231
0.407767
0.49657
0.462393
0.483419
0.496032
0.503621
0.508703
0.511746
0.512808
0.512473
0.511219
0.509355
0.507074
0.504586
0.502498
0.501347
0.500724
0.500154
0.499631
0.499155
0.498731
0.498349
0.498012
0.497715
0.497456
0.497231
0.497043
0.496883
0.496758
0.496665
0.496619
0.496619
0.49668
0.496812
0.497047
0.497506
0.498471
0.501252
0.525054
0.47769
0.00727946
1.05026e-05
0.000349449
0.00290035
0.0119413
0.0328935
0.0701492
0.137701
0.213351
0.315279
0.403042
0.417394
0.447127
0.511975
0.483308
0.495992
0.503589
0.508676
0.511729
0.512798
0.512469
0.51122
0.509363
0.507085
0.5046
0.502509
0.501353
0.500728
0.500158
0.499634
0.499159
0.498731
0.49835
0.49801
0.497712
0.497452
0.497226
0.497033
0.496875
0.496745
0.496648
0.496585
0.49657
0.496606
0.496708
0.49689
0.497194
0.497765
0.498961
0.50339
0.529712
0.458065
0.00399242
1.04915e-05
0.000348754
0.00289279
0.011911
0.0327296
0.0693863
0.122882
0.204545
0.283771
0.383651
0.45309
0.453883
0.473634
0.518895
0.495882
0.503559
0.508652
0.511712
0.51279
0.512466
0.511221
0.509367
0.507094
0.504611
0.50252
0.501359
0.500731
0.500161
0.499635
0.49916
0.498732
0.498349
0.49801
0.497709
0.497447
0.497221
0.497027
0.496864
0.496734
0.496631
0.496562
0.496529
0.496548
0.496621
0.496768
0.497005
0.497387
0.498085
0.499556
0.507765
0.534067
0.434335
0.00254217
1.04821e-05
0.000348263
0.00288528
0.0118754
0.0326399
0.0690364
0.121682
0.187511
0.273776
0.347773
0.436184
0.485007
0.478102
0.489996
0.52109
0.503442
0.50863
0.511697
0.512782
0.512464
0.511222
0.50937
0.507101
0.504621
0.502528
0.501365
0.500734
0.500163
0.499639
0.499161
0.498733
0.498349
0.498007
0.497707
0.497443
0.497215
0.497019
0.496854
0.49672
0.496617
0.496542
0.496501
0.496498
0.496552
0.496666
0.496861
0.49716
0.49763
0.498473
0.500249
0.513873
0.537458
0.402967
0.00179879
1.04729e-05
0.000347882
0.00288002
0.0118398
0.032537
0.0688484
0.1211
0.185944
0.257134
0.338539
0.400992
0.471255
0.502448
0.492821
0.499403
0.520857
0.508521
0.511684
0.512773
0.512462
0.511224
0.509375
0.507105
0.504629
0.502535
0.501368
0.500738
0.500166
0.499641
0.499165
0.498734
0.498349
0.498006
0.497704
0.497439
0.497208
0.497011
0.496845
0.496708
0.4966
0.496525
0.496476
0.496464
0.496493
0.496584
0.496742
0.496989
0.497359
0.497927
0.498931
0.501128
0.520479
0.537495
0.359546
0.00112869
1.04645e-05
0.000347518
0.00287615
0.0118149
0.0324337
0.0686347
0.120792
0.185148
0.255376
0.32408
0.393479
0.441409
0.491671
0.510306
0.501339
0.505079
0.519439
0.511604
0.512769
0.512459
0.511226
0.509379
0.507111
0.504633
0.502541
0.501372
0.50074
0.500169
0.499644
0.499165
0.498735
0.498349
0.498006
0.497701
0.497435
0.497203
0.497003
0.496835
0.496697
0.496586
0.496505
0.496456
0.496434
0.496452
0.496514
0.496644
0.49685
0.497157
0.497603
0.498283
0.499472
0.5031
0.526897
0.52985
0.296987
0.000560827
1.04578e-05
0.000347195
0.00287259
0.0117972
0.0323616
0.0684191
0.120451
0.184707
0.254434
0.322312
0.382138
0.435927
0.469509
0.502058
0.512761
0.506993
0.50877
0.517493
0.512695
0.512461
0.511227
0.509383
0.507116
0.50464
0.502544
0.501375
0.500741
0.50017
0.499645
0.499168
0.498736
0.498349
0.498004
0.4977
0.497431
0.497197
0.496996
0.496825
0.496684
0.496572
0.496488
0.496432
0.49641
0.496416
0.496465
0.496563
0.496736
0.496994
0.497366
0.497899
0.498701
0.500103
0.507417
0.532841
0.51343
0.199831
0.000190976
1.04532e-05
0.000346948
0.0028695
0.0117811
0.0323114
0.0682712
0.120096
0.184246
0.253908
0.32135
0.380555
0.42784
0.46589
0.48744
0.506618
0.512491
0.510799
0.510488
0.515374
0.51237
0.511232
0.509386
0.507121
0.504644
0.502549
0.501376
0.500742
0.500172
0.499646
0.499168
0.498737
0.498349
0.498004
0.497697
0.497428
0.497192
0.496989
0.496816
0.496672
0.496557
0.496471
0.496412
0.496382
0.496388
0.496422
0.496504
0.49664
0.49686
0.497176
0.497619
0.498249
0.499185
0.500812
0.513818
0.538322
0.492111
0.0796725
2.77836e-05
1.0444e-05
0.000346776
0.00286719
0.0117674
0.0322667
0.0681667
0.119854
0.183764
0.253352
0.320841
0.379698
0.426599
0.46063
0.485295
0.497934
0.508217
0.512433
0.512445
0.510304
0.513253
0.511129
0.509394
0.507126
0.504649
0.502552
0.501378
0.500743
0.500172
0.499647
0.499169
0.498739
0.49835
0.498003
0.497696
0.497425
0.497188
0.496982
0.496807
0.496661
0.496542
0.496453
0.496393
0.496359
0.496356
0.496389
0.496453
0.49657
0.496748
0.49702
0.497401
0.497924
0.498657
0.499734
0.502321
0.521204
0.542826
0.462742
0.0197153
1.03605e-08
1.02222e-05
0.000346468
0.00286565
0.0117575
0.0322285
0.0680745
0.11968
0.183426
0.252792
0.320276
0.379256
0.425926
0.459764
0.482163
0.496911
0.503964
0.508861
0.514494
0.512527
0.508824
0.511221
0.509299
0.507135
0.504655
0.502556
0.501379
0.500743
0.500172
0.499648
0.499169
0.498737
0.498351
0.498004
0.497695
0.497423
0.497183
0.496977
0.496799
0.496651
0.496529
0.496436
0.496372
0.496336
0.496327
0.496352
0.496414
0.496511
0.496667
0.496891
0.49722
0.497671
0.498282
0.499127
0.500357
0.506082
0.528933
0.543206
0.4149
0.00618407
6.55223e-06
6.34476e-06
0.000339299
0.00286311
0.011751
0.0322013
0.0679974
0.119528
0.183195
0.252399
0.319709
0.378767
0.425578
0.459288
0.481616
0.495146
0.503888
0.507841
0.510195
0.516251
0.51151
0.506497
0.509523
0.507066
0.504664
0.502561
0.501381
0.500743
0.500172
0.499647
0.499169
0.498737
0.498349
0.498004
0.497694
0.49742
0.49718
0.496971
0.496792
0.496641
0.496517
0.496421
0.496352
0.496312
0.496301
0.496319
0.496372
0.496466
0.496597
0.496795
0.49707
0.497462
0.497989
0.498693
0.499653
0.501181
0.512215
0.536467
0.531894
0.341048
0.00185931
1.41413e-05
1.21566e-07
0.000213758
0.00280672
0.0117408
0.032184
0.067943
0.119404
0.182997
0.252143
0.319316
0.378252
0.425185
0.459035
0.481302
0.494828
0.502882
0.508506
0.510259
0.511811
0.515622
0.509779
0.503821
0.508976
0.504632
0.502569
0.501383
0.500744
0.500171
0.499647
0.499168
0.498737
0.498349
0.498002
0.497694
0.497419
0.497177
0.496967
0.496785
0.496632
0.496506
0.496407
0.496334
0.496289
0.496274
0.496289
0.496334
0.496418
0.496545
0.496714
0.496958
0.497289
0.497751
0.498363
0.499164
0.500234
0.503138
0.519725
0.542808
0.507714
0.226585
0.000189026
3.82463e-06
4.65855e-07
5.89207e-06
0.00181005
0.0115269
0.0321579
0.0679088
0.119318
0.182832
0.251925
0.319061
0.377929
0.424768
0.458744
0.481133
0.494633
0.502704
0.508104
0.511207
0.511436
0.512051
0.513265
0.507483
0.501785
0.50959
0.502568
0.501388
0.500745
0.500172
0.499645
0.499167
0.498735
0.498347
0.498001
0.497691
0.497418
0.497175
0.496962
0.496779
0.496623
0.496496
0.496394
0.496318
0.496268
0.496248
0.496259
0.496301
0.496375
0.496491
0.496654
0.496864
0.49716
0.497551
0.498089
0.49879
0.499687
0.500865
0.507504
0.528009
0.545955
0.477603
0.0820455
2.96002e-08
4.8917e-07
1.13392e-06
1.17859e-05
6.90364e-05
0.00767589
0.0316333
0.0678597
0.119265
0.182718
0.251735
0.318848
0.377684
0.424519
0.458446
0.480946
0.49451
0.502556
0.508006
0.511334
0.512231
0.511341
0.510642
0.510251
0.504911
0.500577
0.509494
0.501403
0.500749
0.500173
0.499646
0.499165
0.498733
0.498345
0.497998
0.497689
0.497415
0.497173
0.49696
0.496774
0.496617
0.496485
0.496381
0.496302
0.49625
0.496224
0.496229
0.496267
0.496337
0.496442
0.496593
0.496794
0.49705
0.497402
0.497861
0.49848
0.499272
0.500257
0.502181
0.514124
0.536522
0.54063
0.429389
0.0114101
1.22522e-05
6.45535e-08
1.50661e-06
3.44145e-05
0.000108453
0.000398636
0.0219114
0.066897
0.119189
0.182647
0.251602
0.318652
0.37748
0.424309
0.458242
0.480751
0.494394
0.502493
0.507929
0.511335
0.512524
0.512046
0.509994
0.508206
0.507605
0.502734
0.49969
0.507813
0.500767
0.500177
0.499646
0.499165
0.498731
0.498342
0.497996
0.497686
0.497412
0.49717
0.496957
0.49677
0.49661
0.496477
0.496369
0.496288
0.496232
0.496204
0.496202
0.496234
0.4963
0.496399
0.496537
0.496726
0.496969
0.497275
0.497689
0.498221
0.498927
0.499806
0.500865
0.505554
0.522129
0.543915
0.522373
0.337761
0.000873027
1.18268e-05
1.79713e-08
1.73774e-06
4.76755e-05
0.000268603
0.000514023
0.00154396
0.0484583
0.117772
0.182551
0.251526
0.318525
0.377311
0.42413
0.4581
0.480607
0.494277
0.502421
0.507918
0.511327
0.512624
0.512305
0.510843
0.507814
0.505363
0.505245
0.501409
0.498844
0.505546
0.500194
0.49965
0.499165
0.49873
0.49834
0.497992
0.497683
0.497408
0.497166
0.496953
0.496766
0.496606
0.496469
0.496359
0.496273
0.496215
0.496183
0.496179
0.496204
0.496262
0.496358
0.496489
0.496662
0.496892
0.497182
0.497542
0.498023
0.498633
0.499428
0.500382
0.502047
0.511372
0.53106
0.547253
0.492888
0.186248
1.69322e-05
2.2999e-06
9.40691e-09
1.8569e-06
5.55934e-05
0.000382082
0.00117212
0.00146656
0.00464637
0.0894447
0.180789
0.251417
0.318447
0.377195
0.423998
0.457981
0.480521
0.494182
0.502348
0.507856
0.511309
0.512635
0.512451
0.511105
0.508902
0.505168
0.502968
0.503249
0.50061
0.4981
0.503625
0.499664
0.49917
0.49873
0.498339
0.497989
0.497679
0.497405
0.497162
0.496948
0.496762
0.496601
0.496463
0.496349
0.496261
0.496199
0.496164
0.496156
0.496177
0.496228
0.496315
0.496443
0.496609
0.496821
0.497095
0.497435
0.497855
0.498407
0.4991
0.49998
0.500983
0.505075
0.518955
0.540016
0.539461
0.446054
0.038844
4.46361e-06
2.01593e-07
4.13871e-09
1.90754e-06
5.95005e-05
0.000449599
0.00163355
0.00399029
0.00276478
0.0117067
0.143992
0.249522
0.318347
0.377125
0.423905
0.45788
0.48045
0.494141
0.502294
0.5078
0.511265
0.512631
0.512491
0.511293
0.509259
0.506472
0.502776
0.501539
0.501979
0.499958
0.497397
0.502462
0.499177
0.498735
0.498337
0.497988
0.497675
0.4974
0.497158
0.496943
0.496757
0.496596
0.496457
0.496342
0.496251
0.496185
0.496145
0.496134
0.496151
0.496199
0.496278
0.496396
0.496557
0.49676
0.497014
0.497336
0.497732
0.498216
0.498846
0.499618
0.500569
0.502202
0.510501
0.527802
0.546369
0.518291
0.353547
0.00289021
1.02225e-05
8.95612e-08
2.12285e-10
2.02221e-06
6.11267e-05
0.000483577
0.00193251
0.00534847
0.0108004
0.00344701
0.0256874
0.207921
0.316537
0.377041
0.423852
0.45782
0.480383
0.494097
0.502253
0.507774
0.511208
0.512623
0.512476
0.511322
0.509492
0.506955
0.503941
0.501321
0.500802
0.501374
0.499331
0.496776
0.501999
0.498733
0.498343
0.497985
0.497673
0.497396
0.497152
0.496939
0.496751
0.496589
0.496451
0.496335
0.496242
0.496173
0.49613
0.496114
0.496127
0.49617
0.496245
0.496355
0.496505
0.496703
0.496946
0.497246
0.49762
0.498075
0.498629
0.499337
0.500179
0.501202
0.505341
0.517841
0.537238
0.54451
0.485931
0.188091
8.38187e-05
8.19388e-06
1.00641e-07
4.88831e-10
2.15182e-06
6.47786e-05
0.000503827
0.0021099
0.00629817
0.0143404
0.0237725
0.00227267
0.0501265
0.274859
0.375476
0.423782
0.457781
0.480341
0.494062
0.502229
0.507723
0.511189
0.51259
0.512454
0.51134
0.509523
0.507233
0.504407
0.502029
0.500495
0.500236
0.500997
0.498686
0.496249
0.501841
0.498332
0.497993
0.49767
0.497393
0.497147
0.496932
0.496746
0.496583
0.496444
0.496329
0.496234
0.496163
0.496116
0.496096
0.496104
0.496143
0.496213
0.496318
0.496459
0.496645
0.496881
0.497169
0.497518
0.497948
0.498469
0.499093
0.499874
0.500765
0.502632
0.510845
0.526659
0.545027
0.529606
0.426078
0.0336199
9.13753e-08
1.37099e-06
2.55156e-08
1.47279e-10
2.26497e-06
6.89229e-05
0.000537079
0.00231219
0.00717334
0.0168009
0.0317199
0.0430816
9.00874e-05
0.0880158
0.337843
0.422551
0.457732
0.480322
0.49403
0.502206
0.507711
0.511205
0.512586
0.512495
0.511353
0.509591
0.507359
0.504693
0.502324
0.500987
0.499786
0.499723
0.500635
0.498078
0.495808
0.501723
0.497969
0.497678
0.497388
0.497144
0.496926
0.496738
0.496577
0.496437
0.496321
0.496227
0.496154
0.496105
0.49608
0.496084
0.496117
0.496183
0.496282
0.496418
0.496595
0.496818
0.497097
0.497432
0.497835
0.498325
0.498913
0.499607
0.500447
0.501585
0.506207
0.518228
0.53633
0.545928
0.50287
0.300242
0.00168249
7.71731e-06
1.77285e-07
3.83665e-10
7.02691e-11
2.37259e-06
7.25228e-05
0.000574015
0.00252548
0.00809036
0.0194154
0.036856
0.0581015
0.0646269
0.0032484
0.139806
0.391475
0.456816
0.480286
0.494018
0.502188
0.507688
0.511187
0.512615
0.512539
0.511394
0.509677
0.507396
0.504907
0.502539
0.501198
0.500325
0.49913
0.499266
0.5003
0.497516
0.495433
0.50165
0.49764
0.497398
0.497138
0.496923
0.496732
0.496568
0.49643
0.496312
0.496218
0.496146
0.496094
0.496068
0.496066
0.496094
0.496153
0.496248
0.496378
0.496548
0.496762
0.497027
0.497351
0.497737
0.4982
0.498751
0.499406
0.500162
0.501035
0.503581
0.512082
0.52716
0.544523
0.533444
0.456073
0.108578
7.8053e-06
1.97326e-06
3.23522e-09
3.46322e-09
2.18628e-10
2.48265e-06
7.59353e-05
0.000606796
0.00274742
0.00890554
0.0219854
0.0423007
0.0666477
0.0885113
0.0811434
0.0173099
0.202142
0.43291
0.479649
0.494002
0.502173
0.507684
0.51118
0.512596
0.51253
0.511413
0.509685
0.50744
0.504942
0.502725
0.501344
0.500547
0.499704
0.498523
0.498866
0.499984
0.496962
0.495166
0.501608
0.497343
0.497148
0.496915
0.496727
0.496561
0.49642
0.496304
0.496209
0.496136
0.496085
0.496055
0.496052
0.496074
0.496128
0.496216
0.496341
0.496504
0.49671
0.496965
0.497273
0.497647
0.498089
0.498613
0.499225
0.499942
0.500744
0.502124
0.507757
0.519713
0.536927
0.545503
0.508567
0.351809
0.00657933
5.91074e-06
6.98973e-11
6.29228e-09
9.63318e-10
3.02287e-12
2.59343e-06
7.94342e-05
0.000637634
0.00295827
0.00973266
0.0241067
0.0472485
0.0747192
0.0998835
0.113759
0.0876442
0.0402318
0.267751
0.46221
0.493562
0.502168
0.507674
0.511172
0.512594
0.512507
0.511426
0.509645
0.507499
0.504933
0.502776
0.501428
0.500687
0.499925
0.49911
0.497975
0.498523
0.499678
0.496456
0.49496
0.501611
0.49707
0.496927
0.496718
0.496555
0.496412
0.496294
0.4962
0.496126
0.496074
0.496045
0.496038
0.496058
0.496106
0.496187
0.496305
0.496463
0.496662
0.496907
0.497205
0.497562
0.497989
0.498488
0.499075
0.499744
0.500511
0.501461
0.504893
0.514064
0.528894
0.544721
0.532945
0.466559
0.157523
3.47346e-05
6.10421e-07
6.09149e-08
1.36971e-09
4.81886e-10
8.93719e-10
2.69899e-06
8.29614e-05
0.000668685
0.00315397
0.0105317
0.0262126
0.0511318
0.0813371
0.108365
0.126422
0.126917
0.0842237
0.0670254
0.328492
0.481188
0.501868
0.507666
0.511169
0.512593
0.512509
0.511432
0.509655
0.507492
0.505004
0.502779
0.501472
0.500732
0.50008
0.499328
0.498556
0.497487
0.498239
0.499385
0.49597
0.494844
0.50164
0.496817
0.496731
0.496545
0.496406
0.496285
0.496189
0.496116
0.496064
0.496033
0.496026
0.496043
0.496088
0.496163
0.496273
0.496423
0.496616
0.496854
0.497141
0.497487
0.497895
0.498377
0.498936
0.499584
0.500298
0.501087
0.503129
0.509895
0.522123
0.538612
0.543854
0.508696
0.368054
0.0138157
3.13686e-06
4.07616e-08
2.56981e-08
2.49731e-09
1.5527e-09
6.77323e-09
2.79719e-06
8.6322e-05
0.000699516
0.0033409
0.0112655
0.028229
0.0548828
0.0863227
0.114383
0.132623
0.139687
0.127917
0.0744497
0.0942899
0.377991
0.492739
0.507425
0.511166
0.512589
0.512513
0.511433
0.509692
0.507461
0.505031
0.502803
0.501491
0.50076
0.500144
0.499498
0.498766
0.498047
0.497057
0.498004
0.499094
0.495504
0.494785
0.501701
0.496579
0.496558
0.496393
0.496278
0.496179
0.496105
0.496053
0.496022
0.496013
0.49603
0.496071
0.496142
0.496246
0.496388
0.496572
0.496803
0.497082
0.497415
0.497812
0.498273
0.498811
0.499429
0.500136
0.50087
0.502142
0.506871
0.516842
0.531632
0.545193
0.52968
0.465546
0.168309
5.41332e-05
3.59943e-08
7.54734e-08
1.8361e-10
8.19992e-09
1.01282e-09
1.05176e-08
2.88712e-06
8.94443e-05
0.000728794
0.00351741
0.0119514
0.0300495
0.0583722
0.0909642
0.118772
0.135969
0.14272
0.140564
0.120963
0.0618249
0.120994
0.414343
0.499331
0.511012
0.512587
0.512515
0.511439
0.509697
0.507485
0.505016
0.502828
0.501483
0.500782
0.500179
0.499581
0.498972
0.49825
0.497567
0.496685
0.497821
0.498803
0.495083
0.494795
0.501783
0.496351
0.496409
0.496264
0.49617
0.496093
0.496041
0.496011
0.496001
0.496016
0.496056
0.496123
0.496223
0.496357
0.496533
0.496755
0.497026
0.49735
0.497732
0.498183
0.498699
0.499291
0.499962
0.500716
0.501643
0.504818
0.512772
0.525542
0.540918
0.540849
0.504766
0.357934
0.0125621
3.50466e-07
1.50888e-07
7.14313e-09
2.41027e-09
2.44086e-09
5.76487e-11
1.88388e-09
2.96859e-06
9.22979e-05
0.000755959
0.00368331
0.0125859
0.0317211
0.0614452
0.0950806
0.122649
0.138452
0.143401
0.141479
0.133844
0.110305
0.0486586
0.146563
0.438709
0.503349
0.512571
0.512517
0.511443
0.509702
0.507499
0.505024
0.502852
0.501509
0.500794
0.500198
0.499645
0.499061
0.4985
0.497768
0.497123
0.496374
0.497687
0.498513
0.494717
0.49485
0.501894
0.496125
0.49628
0.496155
0.496084
0.496028
0.495997
0.495989
0.496003
0.496041
0.496107
0.496202
0.496331
0.496498
0.496711
0.496973
0.497289
0.49766
0.498093
0.4986
0.499171
0.499813
0.500523
0.501301
0.503481
0.509672
0.520478
0.535386
0.545112
0.523763
0.453868
0.143909
8.13049e-05
2.61073e-08
4.82155e-08
3.15538e-10
4.24169e-09
1.79357e-09
2.15291e-11
4.28028e-10
3.04427e-06
9.48921e-05
0.000780743
0.00383733
0.0131773
0.0332469
0.0642077
0.09858
0.12583
0.140564
0.144074
0.140625
0.134079
0.123796
0.0984885
0.0360821
0.171489
0.454162
0.50617
0.512643
0.511454
0.509699
0.507502
0.505031
0.502847
0.501536
0.500816
0.500228
0.499661
0.499126
0.498596
0.498043
0.497314
0.49672
0.496116
0.497602
0.498221
0.494399
0.494944
0.50203
0.495894
0.496173
0.496066
0.496017
0.495983
0.495975
0.495989
0.496027
0.49609
0.496183
0.496308
0.496469
0.496672
0.496924
0.497231
0.497593