/*--------------------------------*- C++ -*----------------------------------*\
| =========                 |                                                 |
| \\      /  F ield         | OpenFOAM: The Open Source CFD Toolbox           |
|  \\    /   O peration     | Version:  v2012                                 |
|   \\  /    A nd           | Website:  www.openfoam.com                      |
|    \\/     M anipulation  |                                                 |
\*---------------------------------------------------------------------------*/
FoamFile
{
    version     2.0;
    format      ascii;
    class       volScalarField;
    location    "13380";
    object      lamda1;
}
// * * * * * * * * * * * * * * * * * * * * * * * * * * * * * * * * * * * * * //

dimensions      [0 0 0 0 0 0 0];


internalField   nonuniform List<scalar> 
31383
(
1.05556e-06
1.82024e-05
4.44912e-05
1.68971e-05
0.000603586
0.000372899
1.59716e-05
0.000561096
0.00493355
0.00163169
1.52939e-05
0.000530882
0.00460126
0.0196967
0.00500937
1.47444e-05
0.000508717
0.00436368
0.0184655
0.0517638
0.0121648
1.42824e-05
0.000490718
0.00418875
0.0175782
0.0488565
0.103655
0.0248392
1.38973e-05
0.000475568
0.00404629
0.0169212
0.0467402
0.0985951
0.171569
0.0450263
1.35736e-05
0.00046293
0.00392612
0.0163839
0.0451617
0.0948697
0.164544
0.246933
0.0744215
1.32889e-05
0.000452301
0.00382568
0.015929
0.0438632
0.0920668
0.159305
0.238743
0.319999
0.114586
1.30334e-05
0.000442945
0.00374107
0.0155477
0.0427586
0.0897452
0.155326
0.23258
0.311579
0.382547
0.169994
1.27968e-05
0.000434546
0.0036665
0.0152257
0.0418291
0.087759
0.152004
0.227847
0.305327
0.375061
0.430492
0.23701
1.25794e-05
0.000426764
0.00359948
0.0149412
0.0410415
0.0860797
0.149144
0.223866
0.300475
0.369525
0.424759
0.464045
0.294864
1.23782e-05
0.000419611
0.00353734
0.0146851
0.0403438
0.0846511
0.146712
0.220408
0.296358
0.36511
0.420397
0.459975
0.485372
0.355089
1.21973e-05
0.000412992
0.00348016
0.0144473
0.0397142
0.0833807
0.144635
0.217456
0.292791
0.361361
0.416808
0.456824
0.482682
0.49797
0.407767
1.20352e-05
0.000407038
0.00342722
0.0142282
0.0391281
0.0822313
0.14278
0.214922
0.289655
0.358215
0.413765
0.454251
0.480612
0.496212
0.505719
0.428344
1.1891e-05
0.000401702
0.00337956
0.014025
0.038587
0.0811584
0.141096
0.212648
0.286984
0.355189
0.411198
0.45203
0.478938
0.494902
0.504351
0.51087
0.445463
1.17617e-05
0.000396953
0.00333681
0.0138418
0.0380843
0.0801656
0.13952
0.210578
0.284572
0.352712
0.408711
0.45003
0.477442
0.493811
0.503404
0.509705
0.51363
0.463547
1.16478e-05
0.000392695
0.00329874
0.0136773
0.0376303
0.079241
0.138056
0.208647
0.282374
0.350484
0.406647
0.448302
0.47609
0.492815
0.502599
0.509
0.51274
0.514355
0.488239
1.15457e-05
0.000388939
0.00326458
0.0135306
0.0372219
0.0784039
0.136691
0.206819
0.280392
0.348408
0.404856
0.446739
0.474924
0.491992
0.501935
0.508457
0.512379
0.513706
0.513884
0.502821
1.14548e-05
0.000385576
0.00323444
0.0133989
0.0368572
0.0776495
0.135451
0.205122
0.278354
0.346561
0.403059
0.445415
0.473878
0.491274
0.501405
0.508017
0.512098
0.513617
0.513308
0.512661
0.513153
1.13738e-05
0.000382581
0.00320742
0.0132826
0.0365292
0.0769746
0.134331
0.203578
0.276533
0.344629
0.401444
0.444044
0.472931
0.490627
0.50096
0.507608
0.511825
0.513493
0.513334
0.511995
0.510974
0.521191
1.13016e-05
0.00037991
0.00318336
0.0131782
0.0362391
0.0763665
0.133326
0.202178
0.274871
0.34291
0.3999
0.442811
0.472037
0.490024
0.500532
0.507247
0.511526
0.513372
0.513328
0.51211
0.5101
0.50907
0.526208
1.12368e-05
0.000377528
0.00316189
0.0130851
0.0359786
0.0758279
0.13242
0.200922
0.27337
0.341334
0.398442
0.441679
0.471195
0.489501
0.500165
0.506918
0.511272
0.513225
0.513314
0.512172
0.510269
0.507816
0.507099
0.528804
1.11783e-05
0.000375389
0.00314274
0.013002
0.0357461
0.0753436
0.131615
0.199784
0.272001
0.339957
0.39711
0.440556
0.470413
0.488959
0.499858
0.506646
0.51103
0.5131
0.513273
0.51223
0.510384
0.508015
0.505311
0.505138
0.529789
1.11246e-05
0.000373459
0.00312553
0.0129279
0.0355383
0.0749108
0.130891
0.198774
0.270765
0.3386
0.39595
0.439537
0.469642
0.488469
0.499513
0.506416
0.510838
0.512984
0.513247
0.51226
0.510497
0.508169
0.505517
0.503065
0.503374
0.529477
1.10752e-05
0.00037169
0.00311
0.0128612
0.0353527
0.0745233
0.130242
0.197861
0.269668
0.337428
0.394789
0.438611
0.468938
0.487994
0.499212
0.506185
0.510678
0.512878
0.513232
0.512296
0.510585
0.508319
0.50569
0.503227
0.501649
0.50218
0.528135
1.10297e-05
0.000370058
0.00309576
0.012801
0.0351857
0.0741768
0.129661
0.197043
0.268673
0.336369
0.393818
0.437763
0.468289
0.487558
0.498923
0.505949
0.510515
0.512806
0.51319
0.512346
0.510648
0.508446
0.505852
0.503368
0.501728
0.500913
0.501646
0.526625
1.09881e-05
0.000368558
0.00308262
0.0127458
0.0350348
0.073865
0.129141
0.196309
0.267782
0.335414
0.392883
0.43702
0.467707
0.487144
0.498646
0.505737
0.510351
0.512715
0.513168
0.512364
0.510733
0.508537
0.505997
0.503501
0.501802
0.500944
0.500375
0.501411
0.526137
1.09503e-05
0.000367185
0.00307054
0.0126948
0.0348962
0.0735828
0.128672
0.195652
0.266979
0.334557
0.392069
0.436302
0.467168
0.486778
0.498385
0.505532
0.510187
0.512635
0.513143
0.512371
0.510789
0.508633
0.506111
0.503623
0.501871
0.500982
0.500391
0.49989
0.501254
0.528431
1.0916e-05
0.000365938
0.00305948
0.012648
0.0347683
0.0733236
0.128247
0.195057
0.266259
0.333785
0.391329
0.435681
0.466689
0.486433
0.498154
0.505343
0.510051
0.512544
0.513124
0.512394
0.510828
0.50871
0.50621
0.503724
0.501936
0.501017
0.500423
0.499879
0.499459
0.501183
0.533551
1.08853e-05
0.000364806
0.00304944
0.012605
0.0346506
0.0730841
0.127857
0.194519
0.265608
0.33309
0.390665
0.435097
0.466252
0.486122
0.497933
0.50517
0.509919
0.512475
0.513101
0.51241
0.510877
0.508777
0.506298
0.503806
0.501992
0.501051
0.500456
0.499908
0.499408
0.499087
0.501207
0.532557
1.08579e-05
0.000363793
0.00304031
0.012566
0.0345427
0.0728637
0.127495
0.194024
0.265018
0.332461
0.390067
0.434582
0.465843
0.485836
0.497727
0.505003
0.509798
0.51241
0.513078
0.512429
0.510917
0.508842
0.50638
0.503881
0.502036
0.50108
0.500486
0.499936
0.499439
0.498996
0.498775
0.501321
0.515002
1.08332e-05
0.000362888
0.00303215
0.0125306
0.0344446
0.0726616
0.127163
0.193565
0.264474
0.33189
0.389524
0.434119
0.46548
0.485587
0.497551
0.504855
0.509681
0.512346
0.51306
0.512441
0.510966
0.508901
0.506458
0.503953
0.502077
0.501104
0.500512
0.49996
0.499461
0.499018
0.498642
0.498524
0.501506
0.499192
1.08104e-05
0.000362073
0.00302486
0.0124989
0.0343554
0.0724776
0.126858
0.193143
0.26397
0.331364
0.389031
0.433697
0.465154
0.485354
0.497395
0.50473
0.509583
0.512285
0.51304
0.512453
0.511001
0.508969
0.506533
0.504024
0.502118
0.501125
0.500532
0.499982
0.49948
0.499034
0.498645
0.498327
0.498336
0.50175
0.490293
1.07892e-05
0.000361318
0.00301828
0.0124705
0.0342757
0.0723102
0.12658
0.192755
0.263505
0.330875
0.388576
0.433313
0.464856
0.485144
0.497247
0.504605
0.509486
0.512234
0.51302
0.512463
0.511033
0.509021
0.506609
0.504092
0.502158
0.501148
0.500551
0.499999
0.499497
0.499046
0.498653
0.498315
0.498057
0.498213
0.502205
0.484211
1.07677e-05
0.000360618
0.0030122
0.0124449
0.0342043
0.0721604
0.126327
0.192401
0.263078
0.330424
0.388153
0.432959
0.464585
0.484952
0.497106
0.504497
0.509395
0.512177
0.513005
0.512469
0.511063
0.509067
0.506671
0.504158
0.502197
0.50117
0.500572
0.500015
0.49951
0.499058
0.498659
0.498315
0.498029
0.497832
0.49816
0.503318
0.477641
1.07496e-05
0.000359909
0.00300653
0.0124213
0.0341399
0.0720263
0.126101
0.192079
0.262688
0.33001
0.387763
0.43263
0.464334
0.484777
0.496987
0.504389
0.509317
0.512129
0.512986
0.512478
0.511085
0.509108
0.506726
0.504214
0.502236
0.501193
0.500591
0.500032
0.499522
0.499067
0.498664
0.498314
0.498019
0.497783
0.497652
0.498182
0.505308
0.470313
1.0807e-05
0.000359313
0.00300079
0.0123993
0.0340803
0.0719053
0.125898
0.19179
0.262333
0.329632
0.387404
0.432324
0.464101
0.484612
0.496874
0.504302
0.509245
0.512084
0.512968
0.512482
0.511109
0.509145
0.506776
0.504265
0.502269
0.501213
0.500611
0.500049
0.499533
0.499076
0.49867
0.498315
0.498012
0.497764
0.497577
0.497517
0.498283
0.507886
0.461984
1.69123e-05
0.000361164
0.002996
0.0123769
0.0340249
0.0717931
0.125715
0.191532
0.262014
0.329288
0.387076
0.432044
0.463884
0.484462
0.496766
0.504214
0.509175
0.512046
0.512949
0.512484
0.511127
0.509178
0.506822
0.504312
0.502299
0.501232
0.500629
0.500066
0.499547
0.499082
0.498675
0.498316
0.498009
0.497749
0.497547
0.497409
0.497428
0.498473
0.510782
0.452343
1.13949e-05
0.00079155
0.00301029
0.0123583
0.0339685
0.0716888
0.125544
0.191298
0.261729
0.328976
0.386783
0.431787
0.463685
0.484323
0.496671
0.504139
0.509111
0.512004
0.512935
0.512482
0.511142
0.509205
0.50686
0.504354
0.502328
0.501248
0.500644
0.500082
0.499562
0.499093
0.498681
0.498317
0.498003
0.49774
0.497522
0.497365
0.497279
0.497386
0.498753
0.513911
0.440903
1.15665e-05
0.000422009
0.00591572
0.0124104
0.0339218
0.0715827
0.125386
0.19108
0.26147
0.328698
0.386505
0.431559
0.463502
0.484194
0.496582
0.504067
0.50906
0.511971
0.512917
0.512483
0.511152
0.50923
0.506893
0.504389
0.502354
0.501264
0.500658
0.500095
0.499575
0.499106
0.49869
0.498321
0.498
0.497729
0.497506
0.497328
0.497216
0.497184
0.497397
0.499133
0.517266
0.426737
1.36369e-05
0.000429912
0.00372314
0.0232677
0.0340411
0.0714949
0.125225
0.190878
0.261229
0.328446
0.386262
0.431343
0.463335
0.484075
0.496497
0.504001
0.509005
0.511938
0.512904
0.512483
0.511162
0.50925
0.506925
0.50442
0.502376
0.501277
0.50067
0.500106
0.499587
0.499114
0.498699
0.498325
0.498001
0.497721
0.497491
0.497307
0.497169
0.497102
0.497129
0.497468
0.499612
0.520832
0.408068
1.24215e-05
0.00050421
0.0038155
0.015648
0.0603172
0.0716914
0.125092
0.190673
0.261006
0.328211
0.386042
0.431148
0.463186
0.483966
0.496422
0.503938
0.508958
0.511907
0.512887
0.512484
0.511174
0.509266
0.506951
0.504451
0.502396
0.501289
0.50068
0.500115
0.499594
0.499124
0.498704
0.498333
0.498002
0.497718
0.497478
0.497287
0.497142
0.497044
0.497021
0.497113
0.497602
0.500181
0.524539
0.381936
1.10362e-05
0.000455667
0.00443105
0.0162125
0.0423972
0.119266
0.125339
0.190502
0.260779
0.327992
0.385837
0.430975
0.463048
0.483867
0.496351
0.503883
0.508912
0.51188
0.512874
0.512482
0.511183
0.509284
0.506973
0.504476
0.502415
0.5013
0.500689
0.500124
0.499603
0.49913
0.498711
0.498338
0.498007
0.497716
0.497471
0.497269
0.497114
0.497006
0.496947
0.496973
0.49714
0.497811
0.500821
0.528224
0.344498
1.07948e-05
0.000402717
0.00397318
0.0185865
0.044746
0.0866656
0.195333
0.190745
0.260587
0.327771
0.385646
0.430814
0.462924
0.483779
0.496286
0.503829
0.508872
0.511854
0.512862
0.512481
0.511191
0.509299
0.506994
0.504498
0.502432
0.50131
0.500697
0.500131
0.499611
0.499139
0.498716
0.498343
0.498011
0.497719
0.497466
0.497257
0.49709
0.496971
0.496899
0.496881
0.49696
0.497214
0.498103
0.501944
0.531427
0.293513
1.06013e-05
0.000392027
0.00349641
0.0166275
0.0505879
0.093108
0.147071
0.278559
0.260766
0.327582
0.385454
0.430664
0.462809
0.483696
0.496228
0.503781
0.508831
0.511829
0.512852
0.51248
0.511198
0.509312
0.507013
0.504519
0.502447
0.501318
0.500704
0.500137
0.499617
0.499146
0.498722
0.498345
0.498013
0.49772
0.497466
0.497249
0.497075
0.496941
0.496857
0.496822
0.496846
0.496983
0.497337
0.498492
0.504595
0.532825
0.214028
1.05606e-05
0.000356486
0.00338443
0.0146405
0.0454148
0.103953
0.158559
0.217478
0.356914
0.327665
0.38529
0.430512
0.462702
0.483622
0.496173
0.503738
0.508796
0.511804
0.512839
0.51248
0.511205
0.509325
0.507029
0.504538
0.502461
0.501327
0.500709
0.500143
0.499621
0.499149
0.498725
0.498348
0.498013
0.49772
0.497465
0.497245
0.497062
0.49692
0.49682
0.49677
0.496774
0.496844
0.497047
0.497518
0.498987
0.509103
0.529172
0.103717
1.05457e-05
0.000351526
0.00295437
0.0141153
0.0401744
0.0940836
0.175475
0.23246
0.289302
0.421297
0.38528
0.430385
0.462591
0.483551
0.496125
0.503697
0.508764
0.511785
0.512828
0.512478
0.51121
0.509337
0.507046
0.504554
0.502475
0.501334
0.500715
0.500146
0.499625
0.499152
0.498728
0.498349
0.498013
0.497718
0.497462
0.497242
0.497055
0.496903
0.496794
0.496727
0.496712
0.496755
0.496875
0.497152
0.49776
0.499593
0.514562
0.51647
0.0373063
1.05349e-05
0.00035069
0.00291704
0.0121431
0.0386371
0.0837503
0.160611
0.256324
0.304448
0.35451
0.467764
0.430308
0.462501
0.483479
0.496078
0.503658
0.508733
0.511766
0.512818
0.512476
0.511215
0.509347
0.507061
0.504571
0.502486
0.501341
0.50072
0.50015
0.499626
0.499154
0.498729
0.49835
0.498013
0.497717
0.497459
0.497237
0.497049
0.496893
0.496771
0.496693
0.49666
0.496682
0.496767
0.496942
0.497303
0.498075
0.500298
0.520009
0.497122
0.0144039
1.05185e-05
0.000350161
0.00290649
0.0119955
0.0332821
0.0803856
0.143734
0.237685
0.335471
0.367231
0.407767
0.49657
0.462393
0.483419
0.496032
0.503621
0.508703
0.511746
0.512808
0.512473
0.511219
0.509355
0.507074
0.504586
0.502498
0.501347
0.500724
0.500154
0.499631
0.499155
0.498731
0.498349
0.498012
0.497715
0.497456
0.497231
0.497043
0.496883
0.496758
0.496665
0.496619
0.496619
0.49668
0.496812
0.497047
0.497506
0.498471
0.501251
0.525044
0.477768
0.0073032
1.05026e-05
0.000349449
0.00290035
0.0119413
0.0328935
0.0701492
0.137701
0.213351
0.315279
0.403042
0.417394
0.447127
0.511975
0.483308
0.495992
0.503589
0.508677
0.511729
0.512798
0.512469
0.51122
0.509363
0.507085
0.504601
0.502509
0.501353
0.500728
0.500158
0.499634
0.499159
0.498731
0.49835
0.49801
0.497712
0.497452
0.497226
0.497033
0.496875
0.496745
0.496648
0.496585
0.49657
0.496606
0.496708
0.49689
0.497194
0.497764
0.498961
0.503388
0.529701
0.458147
0.00400981
1.04915e-05
0.000348754
0.00289279
0.011911
0.0327296
0.0693863
0.122882
0.204545
0.283771
0.383651
0.45309
0.453883
0.473634
0.518895
0.495882
0.503559
0.508652
0.511712
0.51279
0.512466
0.511221
0.509367
0.507094
0.504611
0.50252
0.501359
0.500731
0.500161
0.499636
0.49916
0.498732
0.498349
0.49801
0.497709
0.497447
0.497221
0.497027
0.496864
0.496734
0.496631
0.496562
0.496529
0.496548
0.496621
0.496768
0.497005
0.497387
0.498085
0.499556
0.507763
0.534056
0.434408
0.00255564
1.04821e-05
0.000348263
0.00288528
0.0118754
0.0326399
0.0690364
0.121682
0.187511
0.273776
0.347773
0.436184
0.485007
0.478102
0.489996
0.52109
0.503442
0.50863
0.511697
0.512782
0.512464
0.511222
0.50937
0.507101
0.504621
0.502528
0.501365
0.500734
0.500164
0.499639
0.499161
0.498733
0.498349
0.498007
0.497707
0.497443
0.497215
0.497019
0.496854
0.49672
0.496617
0.496542
0.496501
0.496498
0.496552
0.496666
0.496861
0.49716
0.49763
0.498473
0.500248
0.513869
0.53745
0.403017
0.00180964
1.04729e-05
0.000347882
0.00288002
0.0118398
0.032537
0.0688484
0.1211
0.185944
0.257134
0.338539
0.400992
0.471255
0.502448
0.492821
0.499403
0.520857
0.508521
0.511684
0.512773
0.512462
0.511224
0.509375
0.507105
0.504629
0.502535
0.501368
0.500738
0.500166
0.499641
0.499165
0.498734
0.498349
0.498006
0.497704
0.497439
0.497208
0.497011
0.496845
0.496708
0.4966
0.496525
0.496476
0.496464
0.496493
0.496584
0.496742
0.496989
0.497358
0.497927
0.498931
0.501127
0.520475
0.537494
0.359556
0.00113697
1.04646e-05
0.000347518
0.00287615
0.0118149
0.0324337
0.0686347
0.120792
0.185148
0.255376
0.32408
0.393479
0.441409
0.491671
0.510306
0.501339
0.505079
0.519439
0.511604
0.512768
0.512459
0.511226
0.509379
0.507111
0.504633
0.502541
0.501372
0.50074
0.500169
0.499644
0.499165
0.498735
0.498349
0.498006
0.497701
0.497435
0.497203
0.497003
0.496835
0.496697
0.496586
0.496504
0.496456
0.496434
0.496452
0.496514
0.496644
0.49685
0.497157
0.497603
0.498283
0.499471
0.503099
0.526893
0.529866
0.296953
0.000566634
1.04579e-05
0.000347195
0.00287259
0.0117972
0.0323616
0.0684191
0.120451
0.184707
0.254434
0.322312
0.382138
0.435927
0.469509
0.502058
0.512761
0.506993
0.50877
0.517493
0.512695
0.512461
0.511227
0.509383
0.507116
0.50464
0.502544
0.501375
0.500741
0.50017
0.499645
0.499168
0.498736
0.498349
0.498004
0.4977
0.497431
0.497197
0.496996
0.496825
0.496684
0.496572
0.496488
0.496432
0.49641
0.496416
0.496465
0.496563
0.496736
0.496994
0.497366
0.497899
0.498701
0.500103
0.507415
0.532838
0.513478
0.199767
0.000194426
1.04532e-05
0.000346948
0.0028695
0.0117811
0.0323114
0.0682712
0.120096
0.184246
0.253908
0.32135
0.380555
0.42784
0.46589
0.48744
0.506618
0.512491
0.510799
0.510488
0.515374
0.51237
0.511232
0.509386
0.507121
0.504644
0.502549
0.501376
0.500742
0.500172
0.499646
0.499168
0.498737
0.498349
0.498004
0.497697
0.497428
0.497192
0.496989
0.496816
0.496672
0.496557
0.496471
0.496412
0.496382
0.496388
0.496422
0.496504
0.49664
0.49686
0.497176
0.497619
0.498249
0.499185
0.500812
0.513816
0.538321
0.492201
0.0796142
2.91898e-05
1.0444e-05
0.000346776
0.00286719
0.0117674
0.0322667
0.0681667
0.119854
0.183764
0.253352
0.320841
0.379698
0.426599
0.46063
0.485295
0.497934
0.508217
0.512433
0.512444
0.510304
0.513254
0.511129
0.509394
0.507126
0.504649
0.502552
0.501378
0.500743
0.500172
0.499647
0.499169
0.498739
0.49835
0.498003
0.497696
0.497425
0.497188
0.496982
0.496807
0.496661
0.496542
0.496453
0.496392
0.496359
0.496356
0.496389
0.496453
0.49657
0.496748
0.49702
0.497401
0.497924
0.498657
0.499734
0.502321
0.521203
0.542827
0.462853
0.0196902
1.05154e-07
1.02222e-05
0.000346468
0.00286565
0.0117575
0.0322285
0.0680745
0.11968
0.183426
0.252792
0.320276
0.379256
0.425926
0.459764
0.482163
0.496911
0.503964
0.508861
0.514494
0.512527
0.508824
0.511222
0.509299
0.507135
0.504655
0.502556
0.501379
0.500743
0.500172
0.499648
0.499169
0.498737
0.498351
0.498004
0.497695
0.497423
0.497183
0.496977
0.496799
0.496651
0.496529
0.496436
0.496372
0.496336
0.496327
0.496352
0.496414
0.496511
0.496667
0.496891
0.49722
0.497671
0.498281
0.499127
0.500357
0.506082
0.528933
0.543214
0.41499
0.00617346
6.03895e-06
6.34476e-06
0.0003393
0.00286311
0.011751
0.0322013
0.0679974
0.119528
0.183195
0.252399
0.319709
0.378767
0.425578
0.459288
0.481616
0.495146
0.503888
0.507841
0.510195
0.516251
0.51151
0.506497
0.509523
0.507066
0.504664
0.502561
0.501381
0.500743
0.500172
0.499647
0.499169
0.498737
0.498349
0.498004
0.497694
0.49742
0.49718
0.496971
0.496792
0.496641
0.496517
0.496421
0.496352
0.496312
0.496301
0.496319
0.496372
0.496466
0.496597
0.496795
0.49707
0.497462
0.497989
0.498693
0.499653
0.501181
0.512215
0.536469
0.531923
0.341073
0.00185526
1.33308e-05
1.21576e-07
0.000213758
0.00280672
0.0117408
0.032184
0.067943
0.119404
0.182997
0.252143
0.319316
0.378252
0.425185
0.459035
0.481302
0.494828
0.502882
0.508506
0.510259
0.511812
0.515622
0.509779
0.503821
0.508976
0.504632
0.502569
0.501383
0.500744
0.500171
0.499647
0.499168
0.498737
0.498349
0.498002
0.497694
0.497419
0.497177
0.496967
0.496785
0.496632
0.496506
0.496407
0.496334
0.496289
0.496274
0.496289
0.496334
0.496418
0.496545
0.496714
0.496958
0.497289
0.497751
0.498363
0.499164
0.500234
0.503138
0.519725
0.542815
0.507788
0.226534
0.00018833
3.42301e-06
4.66685e-07
5.89198e-06
0.00181005
0.0115269
0.0321579
0.0679088
0.119318
0.182832
0.251925
0.319061
0.377929
0.424768
0.458744
0.481133
0.494633
0.502704
0.508104
0.511207
0.511436
0.512051
0.513265
0.507483
0.501785
0.50959
0.502568
0.501388
0.500745
0.500172
0.499645
0.499167
0.498735
0.498347
0.498001
0.497691
0.497418
0.497175
0.496962
0.496779
0.496623
0.496496
0.496394
0.496318
0.496268
0.496248
0.496259
0.496301
0.496375
0.496491
0.496654
0.496864
0.49716
0.497551
0.498089
0.49879
0.499687
0.500865
0.507504
0.528011
0.545968
0.477728
0.0819654
6.37909e-08
3.90591e-07
1.13483e-06
1.1795e-05
6.90348e-05
0.00767589
0.0316333
0.0678597
0.119265
0.182718
0.251735
0.318848
0.377684
0.424519
0.458446
0.480946
0.49451
0.502556
0.508006
0.511334
0.512231
0.511341
0.510642
0.510251
0.504911
0.500577
0.509494
0.501403
0.500748
0.500173
0.499646
0.499165
0.498733
0.498345
0.497998
0.497689
0.497415
0.497173
0.49696
0.496774
0.496617
0.496485
0.496381
0.496302
0.49625
0.496224
0.496229
0.496267
0.496337
0.496442
0.496593
0.496794
0.49705
0.497402
0.497861
0.49848
0.499272
0.500257
0.502181
0.514125
0.536528
0.540654
0.429527
0.0113694
1.24975e-05
9.18864e-08
1.50725e-06
3.44237e-05
0.000108512
0.000398628
0.0219114
0.066897
0.119189
0.182647
0.251602
0.318652
0.37748
0.424309
0.458242
0.480751
0.494394
0.502493
0.507929
0.511335
0.512524
0.512046
0.509994
0.508206
0.507605
0.502734
0.49969
0.507813
0.500767
0.500176
0.499646
0.499165
0.498731
0.498342
0.497996
0.497686
0.497412
0.49717
0.496957
0.49677
0.49661
0.496477
0.496369
0.496287
0.496232
0.496204
0.496202
0.496234
0.4963
0.496399
0.496537
0.496726
0.496969
0.497275
0.497689
0.498221
0.498927
0.499807
0.500865
0.505555
0.522132
0.543927
0.522427
0.337848
0.000861478
1.20585e-05
9.07834e-08
1.73823e-06
4.76818e-05
0.000268643
0.000514364
0.00154393
0.0484584
0.117772
0.182551
0.251526
0.318525
0.377311
0.42413
0.4581
0.480607
0.494277
0.502421
0.507918
0.511327
0.512624
0.512305
0.510843
0.507814
0.505363
0.505245
0.50141
0.498843
0.505546
0.500195
0.49965
0.499165
0.49873
0.49834
0.497992
0.497683
0.497408
0.497166
0.496953
0.496766
0.496606
0.496469
0.496359
0.496273
0.496215
0.496183
0.496179
0.496203
0.496262
0.496358
0.496489
0.496662
0.496892
0.497182
0.497542
0.498023
0.498633
0.499429
0.500383
0.502048
0.511373
0.531065
0.547273
0.493001
0.186241
1.55242e-05
2.40154e-06
1.10581e-07
1.85732e-06
5.55982e-05
0.000382109
0.00117228
0.00146777
0.00464633
0.089445
0.180789
0.251417
0.318447
0.377195
0.423998
0.457981
0.480521
0.494182
0.502348
0.507856
0.511309
0.512635
0.512451
0.511105
0.508902
0.505168
0.502968
0.503249
0.50061
0.498099
0.503625
0.499665
0.49917
0.49873
0.498339
0.497989
0.497679
0.497405
0.497162
0.496948
0.496762
0.496601
0.496463
0.496349
0.496261
0.496199
0.496164
0.496156
0.496177
0.496228
0.496315
0.496443
0.496608
0.49682
0.497095
0.497435
0.497855
0.498408
0.4991
0.499981
0.500984
0.505076
0.518957
0.540026
0.539494
0.446219
0.0388001
5.51059e-06
2.43146e-07
1.38864e-07
1.90795e-06
5.95048e-05
0.000449619
0.00163365
0.00399078
0.00276793
0.0117067
0.143992
0.249522
0.318347
0.377125
0.423905
0.45788
0.48045
0.494141
0.502294
0.507801
0.511265
0.512631
0.512491
0.511293
0.509259
0.506472
0.502776
0.501539
0.501979
0.499959
0.497397
0.502462
0.499178
0.498735
0.498337
0.497988
0.497675
0.4974
0.497158
0.496943
0.496757
0.496596
0.496457
0.496342
0.496251
0.496185
0.496145
0.496134
0.496151
0.496199
0.496278
0.496396
0.496557
0.49676
0.497014
0.497336
0.497731
0.498216
0.498847
0.499619
0.500571
0.502203
0.510503
0.527807
0.546387
0.518357
0.353696
0.0028702
1.16833e-05
1.17283e-07
1.82819e-07
2.0226e-06
6.11308e-05
0.000483596
0.00193258
0.00534875
0.0108016
0.00345335
0.0256875
0.207921
0.316537
0.377041
0.423852
0.45782
0.480383
0.494097
0.502253
0.507774
0.511208
0.512623
0.512476
0.511322
0.509492
0.506955
0.503941
0.501321
0.500802
0.501374
0.499332
0.496776
0.501998
0.498734
0.498343
0.497985
0.497673
0.497396
0.497152
0.496939
0.496751
0.496589
0.496451
0.496335
0.496242
0.496173
0.49613
0.496114
0.496127
0.49617
0.496245
0.496355
0.496505
0.496702
0.496946
0.497245
0.49762
0.498075
0.498629
0.499337
0.50018
0.501204
0.505343
0.517844
0.537247
0.544539
0.486062
0.188139
8.01319e-05
9.52828e-06
1.14871e-07
2.40081e-07
2.15219e-06
6.47824e-05
0.000503844
0.00210997
0.00629838
0.014341
0.0237748
0.00228294
0.0501268
0.27486
0.375477
0.423782
0.457781
0.480341
0.494062
0.502229
0.507723
0.511189
0.51259
0.512454
0.511341
0.509523
0.507233
0.504407
0.502029
0.500495
0.500236
0.500997
0.498687
0.496248
0.50184
0.498334
0.497992
0.49767
0.497393
0.497147
0.496932
0.496746
0.496583
0.496444
0.496329
0.496234
0.496163
0.496116
0.496096
0.496104
0.496142
0.496213
0.496317
0.496459
0.496645
0.496881
0.497169
0.497518
0.497948
0.498469
0.499094
0.499875
0.500766
0.502634
0.510849
0.526666
0.545043
0.529655
0.42627
0.0335903
1.22948e-08
2.02938e-06
3.93793e-08
2.90253e-07
2.26532e-06
6.89264e-05
0.000537095
0.00231226
0.00717354
0.0168014
0.031721
0.0430852
0.00010445
0.0880165
0.337845
0.422552
0.457732
0.480322
0.49403
0.502206
0.507711
0.511205
0.512586
0.512495
0.511353
0.509591
0.507359
0.504693
0.502324
0.500987
0.499786
0.499722
0.500635
0.498079
0.495806
0.501722
0.497971
0.497678
0.497388
0.497144
0.496926
0.496738
0.496577
0.496437
0.496321
0.496227
0.496154
0.496105
0.49608
0.496084
0.496116
0.496182
0.496282
0.496418
0.496594
0.496817
0.497096
0.497431
0.497834
0.498325
0.498912
0.499607
0.500449
0.501588
0.506211
0.518233
0.536341
0.545955
0.502967
0.300415
0.00166736
9.01036e-06
5.33882e-07
2.69235e-08
3.33659e-07
2.3729e-06
7.25259e-05
0.00057403
0.00252555
0.00809055
0.0194158
0.0368568
0.058103
0.0646321
0.00326287
0.139808
0.391478
0.456817
0.480286
0.494018
0.502188
0.507688
0.511187
0.512615
0.512539
0.511394
0.509677
0.507396
0.504907
0.502539
0.501198
0.500325
0.49913
0.499265
0.5003
0.497519
0.495431
0.501649
0.497643
0.497397
0.497138
0.496923
0.496732
0.496568
0.49643
0.496312
0.496218
0.496146
0.496094
0.496067
0.496066
0.496094
0.496153
0.496248
0.496378
0.496548
0.496762
0.497026
0.497351
0.497737
0.498199
0.49875
0.499405
0.500163
0.501037
0.503584
0.512087
0.527169
0.544541
0.533489
0.456242
0.108618
6.96587e-06
2.67428e-06
2.1755e-07
3.20339e-08
3.9631e-07
2.48294e-06
7.59381e-05
0.000606809
0.00274748
0.00890572
0.0219858
0.0423015
0.0666489
0.0885134
0.0811506
0.0173264
0.202145
0.432913
0.479651
0.494002
0.502173
0.507684
0.511181
0.512596
0.51253
0.511413
0.509685
0.50744
0.504942
0.502725
0.501344
0.500547
0.499704
0.498523
0.498865
0.499984
0.496965
0.495163
0.501606
0.497346
0.497148
0.496915
0.496727
0.496561
0.49642
0.496304
0.496209
0.496136
0.496085
0.496055
0.496052
0.496074
0.496128
0.496216
0.496341
0.496504
0.49671
0.496965
0.497273
0.497647
0.498088
0.498612
0.499224
0.499942
0.500744
0.502127
0.507762
0.519721
0.536942
0.545533
0.50865
0.352024
0.0065667
7.01233e-06
6.85445e-08
1.63588e-07
2.61656e-08
4.89266e-07
2.59373e-06
7.94368e-05
0.000637645
0.00295833
0.00973283
0.0241071
0.0472493
0.0747204
0.0998851
0.113761
0.0876539
0.0402551
0.267757
0.462215
0.493564
0.502168
0.507674
0.511172
0.512594
0.512507
0.511426
0.509645
0.507499
0.504933
0.502776
0.501428
0.500687
0.499925
0.499111
0.497975
0.498522
0.499678
0.496461
0.494956
0.501608
0.497074
0.496926
0.496718
0.496555
0.496412
0.496294
0.4962
0.496126
0.496074
0.496045
0.496038
0.496058
0.496106
0.496187
0.496305
0.496463
0.496662
0.496907
0.497205
0.497561
0.497988
0.498487
0.499074
0.499743
0.500511
0.501462
0.504897
0.514071
0.528906
0.544744
0.532994
0.466713
0.157655
3.28696e-05
1.06439e-06
3.81761e-09
1.72505e-07
1.83117e-08
6.15263e-07
2.6993e-06
8.29641e-05
0.000668696
0.00315402
0.0105318
0.0262129
0.0511324
0.0813383
0.108367
0.126424
0.12692
0.0842368
0.0670612
0.328502
0.481194
0.50187
0.507666
0.511169
0.512593
0.512509
0.511432
0.509655
0.507492
0.505004
0.502779
0.501472
0.500732
0.50008
0.499329
0.498556
0.497487
0.498237
0.499385
0.495976
0.494838
0.501636
0.496822
0.49673
0.496545
0.496406
0.496285
0.496189
0.496116
0.496064
0.496033
0.496026
0.496043
0.496088
0.496163
0.496273
0.496423
0.496616
0.496854
0.49714
0.497486
0.497894
0.498376
0.498935
0.499584
0.500298
0.501088
0.503131
0.509901
0.522133
0.538631
0.543891
0.508783
0.368271
0.0138061
3.75843e-06
1.09374e-07
9.75485e-09
1.97571e-07
1.8398e-08
7.83559e-07
2.79752e-06
8.63248e-05
0.000699527
0.00334094
0.0112656
0.0282294
0.0548834
0.0863238
0.114385
0.132626
0.13969
0.127922
0.0744679
0.0943457
0.378006
0.492748
0.507428
0.511166
0.512589
0.512513
0.511433
0.509692
0.507461
0.505031
0.502803
0.501491
0.50076
0.500144
0.499498
0.498766
0.498047
0.497057
0.498002
0.499094
0.495511
0.494778
0.501696
0.496585
0.496558
0.496393
0.496278
0.496179
0.496105
0.496053
0.496022
0.496013
0.49603
0.496071
0.496142
0.496245
0.496388
0.496572
0.496802
0.497082
0.497415
0.497811
0.498272
0.49881
0.499428
0.500135
0.50087
0.502143
0.506874
0.516851
0.531648
0.545222
0.529739
0.465702
0.168466
5.15436e-05
1.34484e-07
8.73183e-08
6.52495e-08
2.05473e-07
2.34478e-08
9.46157e-07
2.88746e-06
8.94471e-05
0.000728805
0.00351746
0.0119515
0.0300498
0.0583727
0.0909651
0.118773
0.135971
0.142723
0.140568
0.120969
0.0618501
0.121081
0.414366
0.499344
0.511016
0.512587
0.512515
0.511439
0.509697
0.507485
0.505016
0.502829
0.501483
0.500782
0.500179
0.499582
0.498972
0.49825
0.497568
0.496685
0.497818
0.498803
0.495093
0.494787
0.501777
0.496358
0.496408
0.496264
0.49617
0.496093
0.496041
0.49601
0.496001
0.496015
0.496056
0.496123
0.496222
0.496357
0.496533
0.496755
0.497026
0.49735
0.497731
0.498182
0.498698
0.49929
0.499961
0.500715
0.501643
0.504819
0.512777
0.525555
0.540941
0.540893
0.504869
0.358167
0.0125535
6.9976e-07
6.70185e-08
6.13772e-08
1.15676e-07
1.62245e-07
3.57022e-08
8.78468e-07
2.96893e-06
9.23008e-05
0.000755971
0.00368336
0.012586
0.0317214
0.0614457
0.0950815
0.12265
0.138454
0.143404
0.141483
0.133849
0.110311
0.0486952
0.146696
0.438744
0.503368
0.512577
0.512518
0.511443
0.509702
0.507499
0.505024
0.502852
0.501509
0.500794
0.500198
0.499645
0.499061
0.498501
0.497768
0.497124
0.496374
0.497683
0.498513
0.494729
0.49484
0.501887
0.496134
0.49628
0.496154
0.496084
0.496028
0.495997
0.495989
0.496002
0.49604
0.496107
0.496201
0.496331
0.496498
0.49671
0.496973
0.497288
0.497659
0.498092
0.498599
0.49917
0.499812
0.500522
0.501301
0.503482
0.509675
0.520487
0.535405
0.545147
0.523835
0.454047
0.14408
7.58592e-05
1.68842e-07
1.04473e-08
6.27944e-08
1.50805e-07
1.06199e-07
5.18764e-08
8.17991e-07
3.0446e-06
9.48948e-05
0.000780754
0.00383738
0.0131774
0.0332472
0.0642082
0.0985807
0.125832
0.140566
0.144077
0.140629
0.134084
0.123802
0.0984966
0.0361368
0.171687
0.454214
0.506196
0.51265
0.511454
0.509699
0.507502
0.505031
0.502847
0.501536
0.500816
0.500228
0.499661
0.499126
0.498596
0.498043
0.497314
0.496722
0.496116
0.497596
0.498221
0.494413
0.494932
0.502021
0.495905
0.496173
0.496066
0.496017
0.495983
0.495975
0.495989
0.496027
0.496089
0.496183
0.496307
0.496469
0.496672
0.496924