/*--------------------------------*- C++ -*----------------------------------*\
| =========                 |                                                 |
| \\      /  F ield         | OpenFOAM: The Open Source CFD Toolbox           |
|  \\    /   O peration     | Version:  v2012                                 |
|   \\  /    A nd           | Website:  www.openfoam.com                      |
|    \\/     M anipulation  |                                                 |
\*---------------------------------------------------------------------------*/
FoamFile
{
    version     2.0;
    format      ascii;
    class       volScalarField;
    location    "13380";
    object      Mg;
}
// * * * * * * * * * * * * * * * * * * * * * * * * * * * * * * * * * * * * * //

dimensions      [0 0 0 0 0 0 0];


internalField   nonuniform List<scalar> 
31383
(
3.54264e-07
1.48669e-06
9.35726e-07
1.38104e-06
4.92474e-06
2.24144e-06
1.30555e-06
4.55373e-06
2.93088e-05
7.10263e-06
1.25002e-06
4.2874e-06
2.69957e-05
0.000120076
2.00755e-05
1.20512e-06
4.09184e-06
2.53281e-05
0.000110561
0.000353957
4.8081e-05
1.16752e-06
3.93397e-06
2.41048e-05
0.000103694
0.000325943
0.000849959
0.000101466
1.13609e-06
3.80233e-06
2.31179e-05
9.86558e-05
0.0003057
0.000783128
0.00177505
0.000196906
1.10952e-06
3.69243e-06
2.22976e-05
9.45906e-05
0.000290838
0.000734742
0.00163775
0.00333139
0.000360076
1.08624e-06
3.59956e-06
2.16133e-05
9.12119e-05
0.000278843
0.000699179
0.00153799
0.0030816
0.00570412
0.000632538
1.06561e-06
3.51846e-06
2.1035e-05
8.83933e-05
0.00026887
0.000670451
0.00146451
0.00289939
0.00529566
0.00894318
0.00110034
1.04677e-06
3.44652e-06
2.05314e-05
8.60115e-05
0.00026055
0.000646555
0.00140507
0.00276464
0.00499843
0.00835467
0.0128659
0.00186518
1.02969e-06
3.38087e-06
2.00842e-05
8.39374e-05
0.000253519
0.000626609
0.00135557
0.00265537
0.00477737
0.00792341
0.0121231
0.0170912
0.00289422
1.01405e-06
3.32135e-06
1.96763e-05
8.2096e-05
0.000247396
0.000609746
0.0013142
0.00256412
0.00459734
0.00759812
0.0115655
0.0162414
0.0211593
0.00439622
9.99966e-07
3.26684e-06
1.93065e-05
8.04167e-05
0.00024196
0.000595055
0.0012792
0.00248776
0.00444709
0.00733253
0.0111386
0.0155907
0.0202637
0.0247629
0.00635552
9.87318e-07
3.21794e-06
1.89679e-05
7.88944e-05
0.000237003
0.000582017
0.0012487
0.00242306
0.00431979
0.00711295
0.0107886
0.0150912
0.0195682
0.023862
0.0278631
0.00807199
9.76038e-07
3.1741e-06
1.86648e-05
7.75007e-05
0.00023251
0.000570126
0.00122161
0.00236659
0.00421218
0.0069203
0.0104973
0.0146773
0.0190331
0.023156
0.0269574
0.0305128
0.00995902
9.65864e-07
3.13497e-06
1.83935e-05
7.62533e-05
0.000228397
0.000559348
0.0011969
0.00231644
0.00411807
0.00675954
0.0102416
0.0143242
0.0185839
0.0226082
0.0262466
0.029604
0.0326667
0.0121222
9.56824e-07
3.09982e-06
1.81512e-05
7.51369e-05
0.000224716
0.000549482
0.00117451
0.0022708
0.00403448
0.0066191
0.0100259
0.0140254
0.0181994
0.0221454
0.0256924
0.0288954
0.0317808
0.0343235
0.0148377
9.48669e-07
3.06855e-06
1.79342e-05
7.41401e-05
0.00022142
0.000540648
0.001154
0.00222911
0.00395945
0.00649325
0.00983944
0.0137648
0.0178734
0.0217546
0.0252303
0.028348
0.0311009
0.0334723
0.0355779
0.0172297
9.41352e-07
3.04045e-06
1.77409e-05
7.32471e-05
0.000218479
0.000532742
0.00113564
0.00219107
0.00388859
0.00638072
0.0096681
0.0135402
0.0175886
0.0214214
0.0248399
0.027893
0.0305734
0.0328265
0.0347503
0.0365051
0.0194007
9.34779e-07
3.01526e-06
1.75679e-05
7.24521e-05
0.000215844
0.000525683
0.0011192
0.00215699
0.00382499
0.00627408
0.009514
0.013333
0.017338
0.0211296
0.0245079
0.0275017
0.0301294
0.0323177
0.0341273
0.035685
0.0371716
0.0214
9.28879e-07
2.99266e-06
1.74128e-05
7.17401e-05
0.000213497
0.000519358
0.00110451
0.00212643
0.00376794
0.00617838
0.00937335
0.0131458
0.0171139
0.020871
0.0242146
0.0271666
0.0297432
0.0318913
0.0336386
0.0350847
0.0363459
0.0376409
0.023102
9.23548e-07
2.97238e-06
1.72738e-05
7.11021e-05
0.000211396
0.000513725
0.00109134
0.00209914
0.00371688
0.00609235
0.00924388
0.0129775
0.0169083
0.0206443
0.0239575
0.0268722
0.0294132
0.0315218
0.0332299
0.0346132
0.0357652
0.0367889
0.0379628
0.0244871
9.1872e-07
2.9541e-06
1.71491e-05
7.05302e-05
0.000209513
0.000508682
0.00107962
0.00207464
0.00367094
0.00601624
0.0091275
0.01282
0.0167228
0.0204325
0.0237329
0.0266148
0.0291223
0.0312052
0.0328769
0.0342206
0.0353098
0.0362245
0.0370659
0.0381733
0.0255819
9.14288e-07
2.93755e-06
1.70368e-05
7.00173e-05
0.000207825
0.000504161
0.00106911
0.00205281
0.00362977
0.00594559
0.00902434
0.0126786
0.0165502
0.0202429
0.0235225
0.0263898
0.0288681
0.0309273
0.0325749
0.0338823
0.0349323
0.035784
0.0365145
0.0372662
0.0383189
0.0263937
9.10205e-07
2.92235e-06
1.69352e-05
6.95558e-05
0.000206311
0.000500107
0.00105969
0.00203324
0.00359307
0.00588337
0.0089283
0.012551
0.0163945
0.0200677
0.023335
0.026183
0.028646
0.0306816
0.0323114
0.0335929
0.0346083
0.0354193
0.0360857
0.0367197
0.0374869
0.0384665
0.0269417
9.06445e-07
2.90836e-06
1.68419e-05
6.91378e-05
0.000204949
0.00049647
0.00105124
0.00201569
0.00356012
0.00582744
0.00884436
0.012436
0.0162531
0.0199092
0.0231627
0.0259953
0.028443
0.0304684
0.0320751
0.0333417
0.0343281
0.0351076
0.0357306
0.0362954
0.0369381
0.0377294
0.0386428
0.027309
9.02978e-07
2.89548e-06
1.67561e-05
6.87541e-05
0.000203715
0.000493198
0.00104366
0.00199994
0.00353054
0.00577731
0.00876704
0.0123332
0.0161263
0.0197641
0.0230058
0.0258247
0.0282596
0.0302732
0.0318697
0.0331162
0.0340865
0.0348367
0.0354282
0.0359435
0.0365117
0.0371806
0.0379444
0.0388109
0.0276122
8.99795e-07
2.88363e-06
1.66772e-05
6.84013e-05
0.000202582
0.000490233
0.00103684
0.00198579
0.00350396
0.00573225
0.00869856
0.0122385
0.0160107
0.0196342
0.0228622
0.0256693
0.0280914
0.0300989
0.0316843
0.0329177
0.0338702
0.0346019
0.0351659
0.0356444
0.0361572
0.0367542
0.0373994
0.0381214
0.0389472
0.0280143
8.96871e-07
2.87277e-06
1.66046e-05
6.80767e-05
0.00020154
0.000487512
0.00103066
0.00197305
0.00348008
0.0056917
0.0086366
0.0121545
0.0159069
0.019515
0.0227333
0.0255274
0.0279406
0.0299389
0.0315192
0.0327415
0.0336795
0.0343928
0.0349366
0.0353858
0.0358557
0.0363992
0.0369762
0.0375785
0.0382669
0.0390577
0.028483
8.94207e-07
2.86281e-06
1.65381e-05
6.77784e-05
0.000200582
0.00048501
0.00102498
0.00196151
0.00345855
0.00565521
0.00858086
0.0120775
0.0158127
0.0194073
0.0226147
0.0253994
0.0278023
0.0297955
0.0313694
0.0325842
0.0335106
0.0342097
0.0347334
0.0351589
0.0355956
0.0360971
0.0366239
0.0371588
0.0377249
0.0383869
0.0391465
0.0280399
8.91772e-07
2.85375e-06
1.64774e-05
6.75051e-05
0.000199701
0.000482708
0.00101976
0.00195091
0.00343903
0.00562228
0.00853062
0.0120086
0.0157267
0.0193094
0.0225067
0.0252812
0.0276773
0.0296645
0.0312333
0.0324429
0.0333601
0.0340471
0.0345562
0.0349583
0.0353676
0.0358366
0.0363241
0.036809
0.0373092
0.0378461
0.0384856
0.0392159
0.0257254
8.89538e-07
2.84549e-06
1.64222e-05
6.72555e-05
0.000198894
0.000480592
0.00101496
0.00194115
0.0034211
0.0055924
0.00848521
0.0119463
0.0156492
0.0192211
0.0224094
0.0251744
0.0275617
0.0295454
0.0311095
0.0323141
0.0332262
0.0339028
0.0343991
0.0347836
0.0351661
0.0356085
0.0360655
0.0365109
0.0369615
0.0374332
0.0379467
0.0385665
0.0392647
0.0235026
8.87442e-07
2.83792e-06
1.63719e-05
6.70284e-05
0.000198157
0.000478652
0.00101055
0.00193218
0.00340461
0.00556493
0.00844395
0.0118899
0.0155791
0.0191403
0.022321
0.0250776
0.0274578
0.0294357
0.030997
0.0321965
0.0331036
0.0337752
0.0342605
0.0346292
0.0349906
0.0354068
0.0358389
0.0362538
0.0366649
0.0370873
0.037535
0.0380276
0.0386324
0.0392928
0.0217826
8.85477e-07
2.83082e-06
1.63259e-05
6.68218e-05
0.000197486
0.00047688
0.0010065
0.00192393
0.00338942
0.00553964
0.00840598
0.0118386
0.0155154
0.019067
0.02224
0.0249884
0.0273617
0.0293365
0.0308932
0.03209
0.0329916
0.0336581
0.0341375
0.0344932
0.0348353
0.0352311
0.0356386
0.0360287
0.0364092
0.0367922
0.0371909
0.0376181
0.0380924
0.0386854
0.039322
0.0201948
8.83496e-07
2.82418e-06
1.62827e-05
6.66326e-05
0.000196877
0.000475268
0.0010028
0.00191636
0.00337545
0.00551635
0.00837101
0.0117913
0.0154573
0.0190003
0.0221656
0.0249073
0.0272737
0.0292441
0.0307991
0.0319914
0.0328903
0.0335509
0.034025
0.0343723
0.0346986
0.0350755
0.0354642
0.0358296
0.0361853
0.0365377
0.0368972
0.0372758
0.0376854
0.0381438
0.0387275
0.0394117
0.0184908
8.81886e-07
2.81745e-06
1.62423e-05
6.64552e-05
0.000196318
0.000473802
0.000999435
0.00190945
0.00336262
0.00549491
0.00833877
0.0117477
0.0154038
0.0189395
0.0220988
0.0248325
0.0271936
0.0291599
0.0307116
0.0319019
0.0327962
0.0334539
0.033922
0.034262
0.0345769
0.0349386
0.0353098
0.0356561
0.0359872
0.0363149
0.0366437
0.0369834
0.0373448
0.0377389
0.0381832
0.0387602
0.0395897
0.0166652
8.85526e-07
2.81204e-06
1.62013e-05
6.62894e-05
0.000195794
0.000472458
0.000996373
0.00190315
0.00335089
0.00547521
0.00830907
0.0117075
0.0153544
0.018883
0.0220372
0.0247653
0.0271203
0.0290825
0.0306314
0.0318187
0.0327107
0.033364
0.0338287
0.0341612
0.0344664
0.0348166
0.0351741
0.0355027
0.0358142
0.0361178
0.0364221
0.0367313
0.0370538
0.0374004
0.0377807
0.0382123
0.0387841
0.0398129
0.0147215
1.40787e-06
2.81653e-06
1.61686e-05
6.61205e-05
0.000195305
0.000471198
0.000993564
0.00189742
0.0033402
0.0054572
0.00828172
0.0116704
0.0153087
0.0188312
0.02198
0.024703
0.0270529
0.0290122
0.0305574
0.0317421
0.032631
0.0332818
0.0337423
0.03407
0.0343653
0.0347059
0.0350531
0.0353679
0.0356616
0.0359454
0.0362258
0.0365105
0.036803
0.0371107
0.0374443
0.0378122
0.0382321
0.0387999
0.0400368
0.0126709
9.20681e-07
7.86076e-06
1.61548e-05
6.59864e-05
0.000194806
0.000470021
0.000990929
0.00189215
0.00333046
0.00544069
0.00825685
0.0116361
0.0152666
0.0187833
0.0219278
0.024646
0.0269911
0.0289469
0.0304899
0.0316712
0.0325576
0.0332053
0.0336629
0.0339854
0.0342739
0.0346047
0.0349434
0.0352478
0.0355278
0.0357935
0.0360545
0.036315
0.036583
0.0368612
0.0371559
0.0374779
0.0378343
0.0382431
0.0388071
0.0402374
0.0105397
9.33395e-07
3.29386e-06
5.20458e-05
6.59069e-05
0.00019441
0.000468822
0.000988469
0.00188721
0.0033215
0.00542565
0.00823363
0.0116049
0.0152276
0.0187389
0.0218794
0.0245932
0.0269348
0.0288876
0.0304276
0.0316065
0.0324895
0.0331348
0.033589
0.0339076
0.0341893
0.0345132
0.034843
0.035139
0.0354084
0.0356604
0.0359035
0.0361446
0.0363884
0.0366421
0.0369076
0.0371908
0.0375021
0.0378478
0.0382466
0.0388048
0.040396
0.00837529
1.10589e-06
3.44435e-06
2.04158e-05
0.000210058
0.000194128
0.000467871
0.000985962
0.0018826
0.0033131
0.00541182
0.00821259
0.0115758
0.0151916
0.0186977
0.0218342
0.0245445
0.0268822
0.0288325
0.0303706
0.031547
0.0324271
0.0330693
0.0335209
0.0338352
0.0341116
0.0344284
0.0347521
0.0350394
0.0353006
0.0355414
0.0357708
0.0359939
0.0362185
0.0364482
0.0366897
0.0369439
0.0372169
0.0375182
0.0378536
0.0382428
0.0387906
0.0404851
0.00626268
1.01046e-06
4.75971e-06
2.19428e-05
8.47771e-05
0.000609976
0.00046705
0.000983976
0.0018779
0.00330524
0.00539881
0.00819322
0.011549
0.0151586
0.0186595
0.0217924
0.0244989
0.0268337
0.0287817
0.0303175
0.0314923
0.0323701
0.033009
0.0334577
0.0337686
0.0340393
0.0343506
0.0346679
0.0349492
0.0352015
0.0354343
0.0356524
0.0358619
0.0360685
0.0362789
0.0364966
0.0367273
0.0369716
0.0372351
0.0375267
0.0378518
0.0382318
0.03876
0.0404578
0.00433941
8.99058e-07
4.09471e-06
3.29358e-05
9.20695e-05
0.000250088
0.00144963
0.000981885
0.00187418
0.00329723
0.00538664
0.00817498
0.0115245
0.0151279
0.0186243
0.0217534
0.0244567
0.0267885
0.0287347
0.0302687
0.0314414
0.0323174
0.0329538
0.0333994
0.0337066
0.0339727
0.0342782
0.0345906
0.0348656
0.0351121
0.035336
0.0355457
0.0357444
0.0359369
0.0361294
0.0363278
0.036535
0.036756
0.0369911
0.0372456
0.0375279
0.0378428
0.0382134
0.0387059
0.0402378
0.00277394
8.81534e-07
3.2743e-06
2.72474e-05
0.000138618
0.000275527
0.000597433
0.00300554
0.00186938
0.00329084
0.00537421
0.0081579
0.0115014
0.0150995
0.0185917
0.0217173
0.0244171
0.0267463
0.0286909
0.0302235
0.0313946
0.0322685
0.0329029
0.0333457
0.0336497
0.0339108
0.0342115
0.0345187
0.0347889
0.0350293
0.0352473
0.0354481
0.0356382
0.03582
0.0359984
0.0361789
0.0363668
0.0365646
0.0367769
0.0370035
0.0372491
0.0375221
0.0378267
0.0381875
0.038678
0.0396881
0.0016779
8.65857e-07
3.16213e-06
2.02553e-05
0.000113236
0.000414561
0.000668665
0.00124722
0.0055965
0.0032809
0.0053643
0.00814049
0.0114797
0.0150727
0.018561
0.0216837
0.0243804
0.0267066
0.0286497
0.0301814
0.0313512
0.0322234
0.0328555
0.0332964
0.0335971
0.0338542
0.0341495
0.0344523
0.0347175
0.0349531
0.0351652
0.0353598
0.0355411
0.0357144
0.035882
0.0360484
0.0362185
0.0363972
0.0365865
0.0367906
0.0370091
0.037246
0.0375093
0.0378027
0.0381532
0.0388045
0.0385407
0.000938093
8.63051e-07
2.77567e-06
1.924e-05
8.30917e-05
0.000335602
0.00100675
0.00140598
0.00235388
0.00941953
0.00534572
0.00812672
0.0114575
0.0150475
0.0185322
0.0216519
0.0243461
0.0266698
0.0286109
0.0301415
0.0313107
0.0321816
0.0328121
0.0332503
0.0335488
0.0338018
0.0340927
0.0343905
0.0346516
0.0348821
0.0350895
0.0352779
0.0354531
0.0356178
0.0357769
0.0359323
0.0360882
0.0362493
0.0364198
0.0366014
0.0367978
0.0370082
0.0372362
0.0374896
0.0377706
0.0381084
0.0391145
0.0363182
0.000438236
8.62146e-07
2.74292e-06
1.58579e-05
7.8376e-05
0.000244267
0.000809555
0.00212372
0.00264486
0.00407805
0.0143058
0.00809559
0.0114402
0.0150217
0.018505
0.0216221
0.0243136
0.0266352
0.028575
0.0301041
0.0312724
0.0321425
0.0327717
0.0332083
0.0335037
0.0337536
0.0340401
0.034334
0.0345902
0.0348166
0.0350189
0.0352027
0.0353716
0.0355301
0.0356808
0.0358278
0.0359727
0.0361195
0.0362724
0.0364354
0.0366099
0.0367989
0.0370012
0.0372199
0.0374621
0.0377294
0.0380495
0.0394648
0.0326762
0.000205458
8.6141e-07
2.73811e-06
1.5655e-05
6.44042e-05
0.000229074
0.000584654
0.00170098
0.00402052
0.00452214
0.00652092
0.0196043
0.0113937
0.0150018
0.0184771
0.0215936
0.0242826
0.0266023
0.0285409
0.0300691
0.0312363
0.0321055
0.0327338
0.033169
0.0334624
0.0337087
0.0339918
0.0342816
0.0345339
0.0347554
0.0349536
0.0351325
0.0352967
0.0354491
0.0355936
0.0357322
0.0358687
0.0360044
0.0361432
0.0362887
0.0364448
0.0366124
0.036794
0.0369878
0.0371966
0.0374266
0.0376778
0.0379695
0.0396876
0.0282577
0.000114418
8.60205e-07
2.73484e-06
1.56012e-05
6.35568e-05
0.000189101
0.000545063
0.00121753
0.00322005
0.00691423
0.0071005
0.00963423
0.0244153
0.0149393
0.0184557
0.0215647
0.0242533
0.0265709
0.0285084
0.0300358
0.0312023
0.0320706
0.0326979
0.0331322
0.033424
0.0336676
0.0339469
0.0342334
0.0344819
0.0346997
0.0348928
0.0350677
0.0352269
0.0353746
0.0355129
0.0356454
0.0357735
0.0359011
0.0360285
0.03616
0.0362987
0.0364483
0.0366091
0.0367831
0.036968
0.0371659
0.0373819
0.0376143
0.0378809
0.0396773
0.023929
7.80013e-05
8.59137e-07
2.72996e-06
1.55696e-05
6.32601e-05
0.000186505
0.00045396
0.00112787
0.0022812
0.00556772
0.0107932
0.0103039
0.0131713
0.0282077
0.0183794
0.0215427
0.0242237
0.0265412
0.0284775
0.0300039
0.0311697
0.0320374
0.032664
0.0330974
0.0333881
0.0336294
0.0339054
0.0341886
0.0344339
0.034648
0.0348374
0.0350074
0.0351625
0.0353051
0.0354388
0.0355652
0.0356872
0.0358062
0.0359256
0.0360459
0.0361706
0.0363028
0.0364461
0.0366001
0.0367662
0.0369413
0.0371269
0.0373268
0.0375364
0.0378951
0.0393746
0.0197138
5.64257e-05
8.58358e-07
2.72555e-06
1.55284e-05
6.30935e-05
0.000185456
0.000447491
0.000953081
0.00210402
0.00391295
0.00879967
0.0152354
0.0138612
0.0167628
0.0309529
0.0214547
0.0242012
0.026511
0.028448
0.0299737
0.0311387
0.0320056
0.0326317
0.0330643
0.0333539
0.0335937
0.0338671
0.0341472
0.0343894
0.0346001
0.0347859
0.034952
0.0351024
0.035241
0.0353697
0.0354913
0.0356075
0.0357204
0.0358314
0.0359435
0.036057
0.0361754
0.0363015
0.0364385
0.0365854
0.0367429
0.0369073
0.0370788
0.0372592
0.0374406
0.0381304
0.0387128
0.0154626
4.44882e-05
8.57662e-07
2.72238e-06
1.54897e-05
6.28886e-05
0.00018488
0.000444648
0.000939173
0.0018137
0.00361651
0.00620601
0.0126642
0.0195368
0.0174029
0.0200745
0.0328769
0.0241029
0.0264883
0.0284179
0.0299448
0.0311092
0.0319754
0.0326007
0.0330328
0.0333215
0.0335596
0.0338312
0.0341089
0.0343483
0.034556
0.0347383
0.0349008
0.0350472
0.0351812
0.0353058
0.0354226
0.0355339
0.0356411
0.035746
0.0358498
0.0359553
0.0360624
0.0361749
0.0362949
0.0364253
0.0365647
0.0367127
0.0368649
0.03702
0.0371765
0.0373195
0.0384965
0.0375135
0.0112511
3.71763e-05
8.56946e-07
2.7197e-06
1.54623e-05
6.26925e-05
0.000184193
0.000443111
0.000932717
0.00178724
0.00318477
0.00577986
0.00914488
0.0166332
0.0231513
0.0206198
0.0229292
0.0342265
0.0263822
0.0283957
0.0299151
0.0310809
0.0319465
0.0325712
0.0330023
0.0332906
0.0335275
0.0337971
0.0340731
0.0343102
0.034515
0.0346945
0.0348534
0.0349963
0.0351262
0.0352463
0.0353591
0.0354656
0.0355679
0.0356672
0.035765
0.0358622
0.0359616
0.0360626
0.0361691
0.0362829
0.0364065
0.0365376
0.036675
0.0368132
0.0369485
0.037075
0.0371762
0.0387875
0.0353978
0.00732702
2.92384e-05
8.56319e-07
2.71701e-06
1.54411e-05
6.25548e-05
0.000183531
0.00044131
0.000929274
0.00177445
0.00313953
0.00519647
0.00860075
0.0125385
0.0202052
0.0259234
0.023383
0.0253496
0.0351865
0.0282853
0.0298936
0.0310518
0.0319189
0.0325427
0.0329734
0.0332606
0.0334968
0.0337649
0.034039
0.0342745
0.0344772
0.0346536
0.0348097
0.0349491
0.0350756
0.0351916
0.0352998
0.0354023
0.0354999
0.0355943
0.0356866
0.0357778
0.035869
0.0359625
0.0360576
0.0361582
0.0362655
0.0363816
0.0365036
0.0366288
0.0367505
0.0368619
0.0369508
0.0371139
0.0388457
0.0319159
0.00404878
2.04539e-05
8.55801e-07
2.71465e-06
1.54209e-05
6.24526e-05
0.000183066
0.00043956
0.000925328
0.00176749
0.0031168
0.00512627
0.00788829
0.0119184
0.0160626
0.0231543
0.0279813
0.025766
0.0273993
0.0358823
0.0297784
0.0310311
0.0318902
0.0325157
0.0329454
0.0332321
0.0334671
0.0337342
0.0340068
0.0342408
0.0344416
0.034616
0.034769
0.0349055
0.0350285
0.0351412
0.0352453
0.0353434
0.0354369
0.0355267
0.0356141
0.0357
0.0357852
0.0358706
0.0359584
0.0360476
0.0361419
0.0362423
0.0363502
0.0364617
0.0365728
0.0366748
0.0367569
0.0367985
0.0372698
0.0385462
0.0273331
0.00171368
1.18688e-05
8.55412e-07
2.71276e-06
1.54033e-05
6.2357e-05
0.00018273
0.000438346
0.000921408
0.00175976
0.00310444
0.00509045
0.00779098
0.0111366
0.0154252
0.0193878
0.0255068
0.029518
0.0277953
0.0290476
0.0363977
0.0309097
0.0318703
0.0324875
0.0329188
0.0332044
0.0334388
0.0337046
0.0339762
0.0342088
0.0344081
0.0345806
0.0347316
0.0348651
0.0349851
0.0350943
0.0351951
0.0352891
0.0353783
0.035464
0.0355469
0.0356279
0.0357079
0.0357874
0.0358673
0.0359493
0.0360323
0.03612
0.0362128
0.0363114
0.036411
0.0365053
0.0365836
0.0366287
0.0366076
0.0375802
0.0377874
0.0223966
0.000491988
4.55596e-06
8.54735e-07
2.7113e-06
1.53899e-05
6.22755e-05
0.000182422
0.00043747
0.000918706
0.0017521
0.00309068
0.00507158
0.00774127
0.0110181
0.0146519
0.0187859
0.0222984
0.0273856
0.0308463
0.0294052
0.0302846
0.0367862
0.0317443
0.032468
0.0328911
0.0331782
0.0334112
0.0336762
0.0339467
0.0341783
0.0343763
0.0345473
0.0346965
0.0348277
0.0349448
0.035051
0.0351483
0.0352391
0.0353242
0.0354057
0.0354845
0.0355611
0.0356364
0.0357107
0.0357848
0.0358592
0.0359352
0.0360116
0.0360923
0.0361766
0.0362646
0.0363501
0.0364245
0.0364735
0.0364714
0.0364572
0.0378519
0.0363829
0.0171616
0.00012416
1.72848e-07
8.36e-07
2.70897e-06
1.53797e-05
6.22145e-05
0.000182159
0.000436675
0.00091676
0.00174671
0.00307724
0.00505001
0.00771546
0.0109575
0.0145239
0.0180846
0.0217688
0.0247615
0.0289475
0.0322177
0.0306379
0.0311784
0.0370843
0.0323409
0.0328721
0.0331508
0.0333851
0.0336486
0.0339183
0.0341489
0.034346
0.0345156
0.0346631
0.0347928
0.0349076
0.0350108
0.0351052
0.0351924
0.0352744
0.0353519
0.0354265
0.0354991
0.03557
0.0356398
0.0357088
0.0357773
0.0358461
0.0359158
0.0359854
0.0360582
0.0361328
0.0362085
0.0362772
0.0363275
0.03634
0.0362784
0.0365054
0.0379188
0.0338336
0.0116441
4.58188e-05
2.06122e-06
5.0369e-07
2.65969e-06
1.53652e-05
6.21699e-05
0.000181967
0.000436008
0.000914997
0.00174296
0.00306783
0.00502899
0.00768587
0.010926
0.0144582
0.0179593
0.0211654
0.0243298
0.0268525
0.0303739
0.0334165
0.0315501
0.0317992
0.0373423
0.0327467
0.0331322
0.033358
0.0336225
0.0338908
0.0341207
0.0343168
0.0344855
0.0346316
0.0347596
0.0348728
0.0349737
0.0350651
0.0351494
0.0352279
0.0353022
0.035373
0.0354415
0.0355083
0.0355738
0.0356384
0.0357021
0.0357651
0.0358279
0.035891
0.035953
0.0360168
0.0360803
0.0361416
0.0361902
0.0362106
0.0361767
0.0360553
0.0367336
0.0375921
0.0294434
0.00662841
2.07026e-05
3.07393e-06
7.88448e-09
1.72524e-06
1.51405e-05
6.21091e-05
0.000181831
0.000435523
0.000913545
0.00173961
0.00306144
0.00501436
0.00765642
0.0108893
0.0144237
0.0178945
0.0210507
0.0238185
0.026525
0.0286049
0.0316609
0.0341938
0.0322041
0.0322306
0.03768
0.0330105
0.0333394
0.0335952
0.0338646
0.0340932
0.0342886
0.0344564
0.0346017
0.0347283
0.0348398
0.0349391
0.0350282
0.0351095
0.0351851
0.0352559
0.0353234
0.0353882
0.0354511
0.0355127
0.035573
0.0356325
0.0356908
0.035748
0.0358046
0.0358604
0.0359137
0.0359676
0.0360181
0.0360621
0.0360862
0.0360693
0.0359757
0.035902
0.0369628
0.0365975
0.0238403
0.00283019
6.10818e-06
1.55028e-06
3.89935e-08
1.05263e-07
1.04506e-05
6.12292e-05
0.000181649
0.000435186
0.000912504
0.00173682
0.00305577
0.00500445
0.00763684
0.0108528
0.014383
0.0178604
0.0209912
0.0237166
0.0261074
0.028349
0.0300273
0.0326431
0.0346198
0.0326425
0.0326129
0.0381109
0.0332211
0.0335764
0.0338373
0.0340672
0.0342612
0.0344283
0.0345727
0.0346984
0.0348086
0.0349062
0.0349936
0.0350727
0.0351452
0.0352132
0.0352774
0.0353389
0.0353982
0.0354559
0.0355123
0.0355677
0.035622
0.0356747
0.0357258
0.0357756
0.0358233
0.035867
0.0359091
0.0359441
0.0359673
0.0359611
0.035897
0.0357272
0.0359466
0.0370295
0.0345468
0.0181321
0.000739851
9.61239e-08
5.0499e-07
6.33125e-08
6.74294e-07
9.45298e-07
4.2648e-05
0.000179131
0.000434751
0.000911792
0.00173483
0.00305093
0.00499574
0.00762259
0.0108289
0.0143432
0.01782
0.0209588
0.0236618
0.0260176
0.0280273
0.0297973
0.0311215
0.0332866
0.0348389
0.0329243
0.0329962
0.0383973
0.0334593
0.0338184
0.0340398
0.0342353
0.0344009
0.0345446
0.0346695
0.0347788
0.0348751
0.034961
0.0350383
0.0351086
0.0351735
0.0352348
0.0352931
0.0353491
0.0354032
0.035456
0.0355076
0.0355579
0.0356069
0.0356538
0.0356982
0.0357405
0.0357789
0.0358114
0.0358398
0.0358565
0.0358541
0.03581
0.0356856
0.035496
0.0361276
0.0367345
0.0308542
0.0121483
0.000121866
1.53632e-06
2.04441e-07
7.6232e-08
8.93942e-07
5.49185e-06
4.40384e-06
0.000125531
0.000428882
0.000910884
0.00173348
0.00304747
0.00498813
0.00761006
0.0108109
0.0143155
0.0177808
0.020921
0.0236346
0.0259713
0.0279537
0.0295377
0.0309143
0.0318979
0.0336725
0.0349974
0.0331511
0.0333447
0.0384209
0.0337012
0.0340211
0.0342079
0.034375
0.0345175
0.0346415
0.0347501
0.0348455
0.03493
0.0350058
0.0350743
0.0351369
0.0351952
0.0352506
0.0353035
0.0353544
0.0354038
0.0354518
0.0354985
0.0355437
0.0355871
0.0356275
0.0356647
0.0356983
0.0357264
0.0357459
0.035758
0.0357525
0.0357187
0.0356263
0.0354242
0.0354238
0.0362684
0.0357376
0.025556
0.00636577
1.73639e-05
1.50846e-06
1.9622e-07
8.4711e-08
1.02926e-06
6.67497e-06
2.24563e-05
1.44248e-05
0.000302731
0.000899074
0.0017318
0.00304522
0.00498286
0.00759965
0.0107947
0.0142963
0.0177527
0.0208851
0.0236002
0.0259504
0.0279177
0.0294819
0.0306898
0.0317327
0.0324206
0.0338943
0.0351042
0.0333973
0.0336397
0.0383159
0.0339031
0.0341894
0.0343479
0.0344916
0.0346145
0.0347223
0.034817
0.0349005
0.0349749
0.0350419
0.0351028
0.0351588
0.0352112
0.0352612
0.0353091
0.0353553
0.0354
0.0354433
0.0354851
0.0355248
0.0355622
0.0355957
0.0356246
0.0356484
0.0356644
0.0356686
0.035661
0.0356283
0.0355553
0.0354008
0.0351653
0.0355181
0.0362014
0.0335138
0.0195135
0.00222023
1.48509e-06
6.70894e-07
2.20957e-07
9.03297e-08
1.14607e-06
7.78251e-06
2.73945e-05
5.96191e-05
3.83889e-05
0.000640591
0.00171057
0.00304237
0.00497933
0.00759226
0.0107819
0.014279
0.0177341
0.0208588
0.0235681
0.0259179
0.0278981
0.0294521
0.0306467
0.0315396
0.0323029
0.0327554
0.0340747
0.0351856
0.0336441
0.0338983
0.0382114
0.0340701
0.0343295
0.0344644
0.0345888
0.0346953
0.0347892
0.0348721
0.0349454
0.0350112
0.0350707
0.0351249
0.0351749
0.0352219
0.035267
0.0353103
0.0353519
0.035392
0.0354306
0.0354671
0.035501
0.0355318
0.0355574
0.035577
0.0355895
0.0355912
0.0355773
0.0355458
0.0354795
0.0353568
0.0351216
0.0350378
0.0356341
0.0356518
0.0293635
0.0131328
0.000406077
7.28719e-07
2.09694e-07
2.52191e-07
9.37574e-08
1.28701e-06
8.71588e-06
3.17083e-05
8.49599e-05
0.00011631
8.9399e-05
0.00123446
0.003008
0.00497512
0.00758728
0.0107727
0.0142645
0.0177172
0.0208424
0.0235451
0.0258887
0.0278689
0.0294361
0.0306241
0.0315077
0.0321452
0.0326774
0.0330098
0.0342942
0.0352988
0.0338602
0.0341212
0.038168
0.0342085
0.034446
0.0345615
0.0346696
0.0347623
0.0348444
0.0349173
0.0349819
0.03504
0.0350929
0.0351411
0.0351858
0.035228
0.0352684
0.0353073
0.0353445
0.0353799
0.0354135
0.0354444
0.0354719
0.0354953
0.0355121
0.0355209
0.03552
0.0355049
0.0354693
0.0354088
0.0353
0.0351131
0.0348466
0.0350688
0.0356103
0.034101
0.023733
0.00683222
4.91181e-05
1.00745e-06
1.42861e-07
2.95675e-07
9.91844e-08
1.40837e-06
9.84221e-06
3.56869e-05
9.72666e-05
0.000214525
0.000172054
0.000189885
0.00220849
0.00492488
0.0075816
0.0107666
0.0142546
0.0177025
0.0208262
0.0235287
0.0258691
0.0278413
0.0294125
0.0306089
0.0314877
0.0321237
0.0325533
0.0329255
0.0332852
0.0345384
0.0354481
0.0340395
0.0343196
0.0381833
0.0343231
0.0345433
0.0346424
0.0347367
0.0348176
0.0348897
0.0349539
0.0350109
0.0350624
0.0351093
0.0351521
0.035192
0.0352297
0.0352658
0.0353001
0.0353329
0.0353635
0.0353917
0.0354166
0.0354369
0.0354518
0.0354584
0.0354548
0.0354384
0.0354031
0.035341
0.0352441
0.0350814
0.0348142
0.0347055
0.0351383
0.0352097
0.0308378
0.017492
0.00223892
4.1506e-06
8.98009e-07
1.41567e-07
3.42278e-07
1.05229e-07
1.52167e-06
1.08794e-05
4.07071e-05
0.000109603
0.000248124
0.000461698
0.000174162
0.000376854
0.00369982
0.00751561
0.0107594
0.0142477
0.0176922
0.0208127
0.0235139
0.0258523
0.0278239
0.0293895
0.030586
0.0314781
0.032107
0.032541
0.0328141
0.0331528
0.033568
0.0347563
0.0355883
0.0341831
0.0344999
0.0382107
0.034418
0.0346243
0.0347095
0.0347921
0.034863
0.0349264
0.0349831
0.0350335
0.035079
0.0351206
0.0351585
0.0351939
0.0352272
0.0352591
0.035289
0.0353171
0.0353426
0.0353649
0.035383
0.0353953
0.0354005
0.0353954
0.035377
0.0353419
0.0352826
0.0351879
0.0350449
0.0348123
0.0345353
0.0347094
0.0350944
0.0339582
0.0257466
0.0107794
0.000360728
2.93613e-08
4.07871e-07
7.64728e-08
3.73101e-07
1.10712e-07
1.63984e-06
1.18099e-05
4.625e-05
0.000128209
0.000280428
0.000545814
0.000863758
4.17665e-05
0.000708643
0.00580978
0.0106826
0.0142397
0.0176853
0.0208024
0.0235013
0.0258388
0.0278141
0.0293751
0.0305733
0.0314609
0.0321047
0.0325375
0.0328053
0.033032
0.0334094
0.0338123
0.0349409
0.0356985
0.0343033
0.0346651
0.0382182
0.0344963
0.0346915
0.0347649
0.0348376
0.0348999
0.0349558
0.0350058
0.0350503
0.0350904
0.0351272
0.0351606
0.0351917
0.0352209
0.0352484
0.0352738
0.0352969
0.0353167
0.0353326
0.0353431
0.035346
0.0353401
0.0353211
0.0352855
0.0352279
0.0351391
0.0350038
0.0348019
0.0345062
0.0344058
0.0347346
0.034706
0.0311102
0.0196786
0.00463872
3.42933e-05
7.10912e-07
1.99553e-07
6.00946e-08
3.96697e-07
1.15876e-07
1.75283e-06
1.27751e-05
5.09115e-05
0.000147773
0.000331394
0.000618468
0.00104984
0.00140485
0.000302306
0.00126905
0.00853448
0.0141594
0.017677
0.0207954
0.0234918
0.0258264
0.0278005
0.0293678
0.0305656
0.0314507
0.0320976
0.0325332
0.0328139
0.0330165
0.0332845
0.0336555
0.0340193
0.0350984
0.0357841
0.0344059
0.0348163
0.0382086
0.0345606
0.034747
0.0348104
0.0348746
0.0349294
0.0349787
0.0350228
0.035062
0.0350973
0.0351295
0.0351586
0.0351856
0.0352106
0.0352337
0.0352543
0.0352719
0.0352856
0.0352941
0.0352958
0.0352882
0.035269
0.0352338
0.0351775
0.0350925
0.0349672
0.0347806
0.0345022
0.0342549
0.0343973
0.0346358
0.0334827
0.026263
0.0129792
0.00108541
1.06201e-06
3.67721e-07
1.13711e-07
6.92117e-08
4.31523e-07
1.21008e-07
1.85758e-06
1.37069e-05
5.56588e-05
0.000163438
0.000382644
0.000729752
0.00118927
0.00176095
0.00197739
0.000869967
0.00216344
0.0117071
0.0176021
0.020788
0.0234844
0.0258183
0.0277901
0.0293546
0.0305552
0.0314417
0.0320856
0.0325229
0.0328102
0.033023
0.033261
0.0335347
0.0338615
0.0341959
0.0352332
0.0358476
0.0344899
0.0349603
0.0381821
0.0346128
0.0347927
0.0348473
0.0349041
0.0349524
0.0349958
0.0350347
0.0350691
0.0350999
0.0351278
0.0351528
0.0351757
0.0351962
0.0352146
0.0352301
0.0352418
0.0352483
0.0352485
0.0352402
0.03522
0.0351854
0.0351307
0.0350495
0.0349307
0.0347598
0.0345076
0.0341903
0.0341417
0.0343721
0.0341616
0.0306219
0.0202766
0.00622008
9.83012e-05
6.37425e-07
5.79336e-08
9.1797e-08
6.11797e-08
4.81332e-07
1.26015e-07
1.95716e-06
1.45702e-05
6.03682e-05
0.000179302
0.000422866
0.000836045
0.00138443
0.00198486
0.00256033
0.00243097
0.00161465
0.0034872
0.0150367
0.0207236
0.0234776
0.0258112
0.0277819
0.0293452
0.0305424
0.0314344
0.0320711
0.0325183
0.0327951
0.0330219
0.033256
0.0335094
0.0337416
0.0340332
0.0343487
0.0353494
0.0358909
0.0345636
0.0350932
0.0381423
0.034654
0.0348297
0.0348769
0.0349272
0.0349697
0.035008
0.035042
0.035072
0.0350986
0.0351224
0.0351432
0.0351618
0.0351778
0.0351911
0.0352008
0.0352058
0.0352044
0.0351948
0.0351746
0.0351399
0.0350869
0.0350088
0.0348969
0.0347362
0.0345071
0.034186
0.0339785
0.0341067
0.0341861
0.03276
0.025758
0.0136276
0.00164804
3.03623e-06
1.97472e-07
1.36305e-08
9.63418e-08
4.7879e-08
5.43801e-07
1.30737e-07
2.05036e-06
1.53863e-05
6.47296e-05
0.000195149
0.000463414
0.0009183
0.00155878
0.002254
0.00286146
0.00324906
0.00267177
0.00246836
0.0052729
0.018213
0.0234271
0.0258043
0.0277754
0.0293381
0.0305339
0.0314255
0.0320643
0.0325084
0.0327931
0.0330089
0.0332543
0.0334992
0.0337163