/*--------------------------------*- C++ -*----------------------------------*\
| =========                 |                                                 |
| \\      /  F ield         | OpenFOAM: The Open Source CFD Toolbox           |
|  \\    /   O peration     | Version:  v2012                                 |
|   \\  /    A nd           | Website:  www.openfoam.com                      |
|    \\/     M anipulation  |                                                 |
\*---------------------------------------------------------------------------*/
FoamFile
{
    version     2.0;
    format      ascii;
    class       volScalarField;
    location    "13380";
    object      nk;
}
// * * * * * * * * * * * * * * * * * * * * * * * * * * * * * * * * * * * * * //

dimensions      [0 0 0 0 0 0 0];


internalField   nonuniform List<scalar> 
31383
(
0.061099
0.0616681
0.00118818
0.0616575
0.00228372
0.000283923
0.0616492
0.00226264
0.0031667
0.000313575
0.0616429
0.00224453
0.00311383
0.00562502
0.000451325
0.0616374
0.0022303
0.00306819
0.00552818
0.00872198
0.000630675
0.0616326
0.00221818
0.00303232
0.00544442
0.00857205
0.0123292
0.000846797
0.0616286
0.00220805
0.00300173
0.00537858
0.00844206
0.0121198
0.0163917
0.00110183
0.0616249
0.00219925
0.00297615
0.00532243
0.00833986
0.0119374
0.0161207
0.0208369
0.00140282
0.0616215
0.00219147
0.00295393
0.00527546
0.00825267
0.011794
0.015883
0.0205105
0.0255185
0.00175496
0.0616184
0.0021847
0.00293428
0.00523464
0.00817972
0.0116715
0.0156955
0.0202202
0.0251596
0.0301696
0.00216469
0.0616154
0.00217837
0.00291719
0.00519854
0.00811629
0.011569
0.0155353
0.0199905
0.0248302
0.0298312
0.0344438
0.00260486
0.0616125
0.00217242
0.00290121
0.00516716
0.00806018
0.0114798
0.0154012
0.0197937
0.0245678
0.0294912
0.0341771
0.0379505
0.00310621
0.0616099
0.00216685
0.0028862
0.00513782
0.00801141
0.0114008
0.0152842
0.0196287
0.0243418
0.029217
0.0338661
0.0378096
0.0404136
0.00367122
0.0616075
0.00216161
0.00287216
0.00511026
0.00796582
0.0113322
0.0151806
0.0194844
0.0241521
0.0289786
0.0336151
0.0375732
0.0404356
0.0417675
0.00422427
0.0616053
0.00215694
0.00285893
0.00508448
0.00792298
0.011268
0.0150906
0.0193563
0.0239853
0.0287756
0.033391
0.0373814
0.0403085
0.0419593
0.042124
0.00480837
0.0616033
0.00215276
0.00284716
0.00506019
0.00788293
0.0112078
0.0150064
0.0192451
0.0238366
0.0286004
0.0331905
0.0372018
0.0402011
0.0419513
0.04247
0.0416968
0.0053855
0.0616016
0.0021489
0.00283661
0.00503857
0.00784519
0.0111514
0.0149272
0.019141
0.0237078
0.0284409
0.0330321
0.0370345
0.0400887
0.0419373
0.0425728
0.0421618
0.0407148
0.00593666
0.0615999
0.00214554
0.0028269
0.00501921
0.00781159
0.0110983
0.0148532
0.019043
0.0235867
0.0283029
0.0328777
0.0369096
0.0399785
0.0419026
0.0426478
0.0423496
0.0412741
0.0393647
0.00644196
0.0615985
0.00214244
0.00281842
0.00500137
0.0077815
0.011051
0.0147834
0.0189513
0.0234715
0.0281725
0.0327434
0.036781
0.0399022
0.041858
0.0426896
0.0424932
0.0415274
0.0399952
0.0377909
0.00684776
0.0615973
0.00213976
0.00281061
0.0049858
0.00775377
0.0110086
0.0147213
0.0188647
0.0233656
0.0280431
0.0326179
0.0366645
0.0398168
0.041839
0.0427082
0.0425989
0.0417217
0.0402928
0.038474
0.036104
0.00713892
0.0615961
0.00213735
0.00280385
0.00497145
0.00772956
0.0109696
0.0146656
0.0187877
0.0232646
0.0279335
0.0324889
0.0365632
0.0397345
0.0418033
0.042742
0.0426728
0.0418738
0.0405235
0.0388005
0.0368265
0.0343826
0.00732797
0.0615951
0.00213518
0.00279776
0.00495905
0.00770726
0.0109355
0.0146143
0.0187186
0.0231746
0.0278238
0.0323841
0.036451
0.03967
0.041765
0.0427557
0.0427534
0.0419895
0.0407086
0.0390548
0.0371694
0.0351363
0.0326798
0.00741976
0.0615942
0.00213323
0.0027923
0.00494786
0.00768797
0.0109041
0.0145694
0.0186548
0.0230939
0.0277262
0.0322759
0.0363625
0.0395884
0.0417421
0.0427606
0.0428109
0.0421048
0.0408548
0.0392617
0.0374376
0.0354867
0.0334611
0.0310287
0.00742166
0.0615934
0.00213151
0.00278738
0.00493783
0.00767057
0.0108769
0.0145281
0.0185992
0.0230192
0.0276378
0.0321797
0.0362694
0.0395271
0.0416984
0.0427764
0.042854
0.0421956
0.0409952
0.0394286
0.0376572
0.0357614
0.0338128
0.0318384
0.0294483
0.00734235
0.0615926
0.00212993
0.00278302
0.00492878
0.00765497
0.0108524
0.0144924
0.0185478
0.0229541
0.027557
0.0320892
0.0361863
0.0394615
0.0416717
0.0427719
0.042903
0.0422675
0.0411107
0.0395857
0.037837
0.0359872
0.0340888
0.0321875
0.0302903
0.0279482
0.00719113
0.0615919
0.00212846
0.00277904
0.00492078
0.00764091
0.0108304
0.0144601
0.0185034
0.0228938
0.0274862
0.0320123
0.0361061
0.0394026
0.0416396
0.0427786
0.0429328
0.0423412
0.0412038
0.039718
0.0380038
0.0361737
0.0343157
0.0324612
0.0306348
0.0288231
0.0265295
0.00697898
0.0615913
0.00212713
0.00277534
0.00491346
0.00762846
0.0108106
0.0144312
0.0184633
0.0228418
0.0274202
0.0319416
0.0360409
0.0393433
0.0416105
0.0427796
0.0429696
0.0423964
0.0412952
0.039826
0.0381461
0.0363451
0.0345044
0.0326861
0.030904
0.0291625
0.0274373
0.0251879
0.00671564
0.0615907
0.00212589
0.00277197
0.00490666
0.00761707
0.0107931
0.0144051
0.0184273
0.0227948
0.0273634
0.0318762
0.0359774
0.0392978
0.0415782
0.0427804
0.0429994
0.042456
0.0413693
0.0399293
0.0382637
0.0364923
0.0346768
0.0328738
0.0311249
0.0294266
0.0277718
0.0261301
0.0239183
0.00640699
0.0615901
0.00212477
0.00276885
0.00490047
0.00760651
0.010777
0.014382
0.0183948
0.0227526
0.0273121
0.0318199
0.0359218
0.0392506
0.041557
0.0427758
0.0430271
0.0425078
0.0414454
0.0400166
0.0383743
0.0366151
0.0348254
0.0330447
0.0313096
0.0296428
0.0280304
0.0264604
0.0248971
0.0227149
0.00605188
0.0615897
0.00212376
0.00276603
0.00489474
0.00759688
0.0107621
0.0143609
0.0183661
0.0227144
0.0272659
0.0317687
0.0358724
0.0392109
0.0415316
0.042779
0.0430475
0.0425555
0.0415138
0.0401039
0.03847
0.0367297
0.0349503
0.0331923
0.0314774
0.0298239
0.0282416
0.0267135
0.0252242
0.0237334
0.0215717
0.00563657
0.0615892
0.00212286
0.00276346
0.00488956
0.00758797
0.0107486
0.0143412
0.0183398
0.0226807
0.0272241
0.0317227
0.0358279
0.0391746
0.0415115
0.0427759
0.0430725
0.0425948
0.041576
0.0401836
0.0385641
0.0368297
0.0350661
0.0333171
0.0316226
0.0299879
0.0284185
0.0269197
0.0254724
0.0240587
0.0226338
0.0204828
0.00514127
0.0615888
0.00212206
0.00276121
0.00488485
0.00757992
0.010736
0.0143234
0.0183154
0.0226498
0.0271872
0.0316809
0.0357875
0.0391432
0.0414928
0.0427765
0.04309
0.0426364
0.0416293
0.0402559
0.0386508
0.0369274
0.0351679
0.0334321
0.0317457
0.0301301
0.0285784
0.0270924
0.0256737
0.0243024
0.0229593
0.0215932
0.0194429
0.00458103
0.0615885
0.00212135
0.00275917
0.0048807
0.00757257
0.0107247
0.0143068
0.0182931
0.0226211
0.0271533
0.0316441
0.0357507
0.0391137
0.0414776
0.0427759
0.0431095
0.0426695
0.041683
0.0403188
0.0387295
0.0370178
0.0352667
0.0335337
0.0318588
0.0302509
0.0287172
0.0272481
0.0258422
0.0244992
0.023199
0.0219209
0.0206069
0.0184467
0.00401003
0.0615881
0.0021207
0.00275738
0.00487695
0.00756612
0.0107143
0.0142919
0.0182725
0.022595
0.0271218
0.0316103
0.0357184
0.0390866
0.0414624
0.0427767
0.043125
0.042703
0.0417278
0.0403808
0.0387985
0.0370998
0.0353582
0.0336319
0.031959
0.0303615
0.0288354
0.0273834
0.0259938
0.0246638
0.0233917
0.0221574
0.0209391
0.01967
0.0174897
0.00344946
0.0615878
0.0021201
0.00275574
0.00487365
0.00756029
0.0107052
0.0142783
0.0182539
0.0225707
0.0270932
0.0315787
0.0356886
0.0390633
0.041448
0.0427762
0.0431404
0.0427309
0.0417716
0.0404338
0.0388657
0.0371721
0.0354414
0.0337228
0.0320553
0.0304596
0.0289431
0.0274988
0.0261257
0.0248115
0.0235526
0.0223466
0.0211734
0.0200093
0.0187781
0.0165676
0.00291164
0.0615875
0.00211955
0.00275423
0.00487064
0.00755514
0.010697
0.0142663
0.0182369
0.0225488
0.0270666
0.03155
0.0356606
0.0390413
0.0414363
0.0427751
0.0431534
0.0427576
0.0418088
0.0404847
0.0389238
0.0372421
0.0355151
0.0338056
0.0321445
0.0305537
0.0290388
0.0276035
0.0262381
0.0249399
0.0236966
0.0225041
0.0213594
0.0202425
0.0191275
0.0179266
0.0156746
0.00240317
0.0615873
0.00211896
0.00275285
0.00486786
0.00755046
0.0106897
0.0142554
0.018222
0.0225289
0.0270426
0.0315234
0.0356354
0.0390207
0.0414248
0.0427754
0.0431649
0.0427808
0.041844
0.0405285
0.0389791
0.0373032
0.0355859
0.0338792
0.0322259
0.0306407
0.0291302
0.0276966
0.0263399
0.0250497
0.0238219
0.0226448
0.021514
0.0204261
0.0193606
0.0182896
0.0171115
0.0148024
0.00192924
0.0615812
0.00211854
0.00275134
0.00486531
0.00754613
0.0106831
0.0142458
0.0182085
0.0225113
0.0270207
0.0314994
0.0356118
0.0390021
0.0414137
0.0427748
0.0431759
0.0428018
0.0418747
0.0405695
0.0390272
0.0373608
0.0356482
0.0339496
0.0322984
0.0307203
0.0292147
0.0277853
0.0264304
0.0251486
0.023929
0.0227672
0.0216517
0.0205781
0.0195425
0.0185241
0.0174919
0.0163285
0.0139436
0.00149536
0.0642227
0.00210798
0.00275028
0.00486254
0.00754218
0.010677
0.0142371
0.0181966
0.0224955
0.0270015
0.0314775
0.0355907
0.0389848
0.041404
0.042774
0.0431853
0.0428211
0.0419029
0.0406056
0.039072
0.0374112
0.0357066
0.0340119
0.0323676
0.0307912
0.0292921
0.0278672
0.0265164
0.0252365
0.0240252
0.0228718
0.0217713
0.020713
0.0196923
0.0187049
0.0177292
0.0167308
0.0155736
0.0130908
0.00110775
0.061762
0.0047255
0.00272396
0.00486057
0.00753788
0.0106714
0.0142291
0.0181857
0.0224814
0.0269841
0.0314582
0.0355713
0.0389694
0.0413949
0.0427735
0.0431939
0.0428383
0.0419285
0.0406387
0.0391116
0.0374581
0.035758
0.0340701
0.032429
0.0308589
0.0293613
0.0279424
0.0265957
0.0253198
0.0241107
0.0229655
0.0218737
0.0208303
0.019825
0.0188531
0.0179097
0.0169726
0.0160028
0.0148427
0.012237
0.000773811
0.0618428
0.0023775
0.00871747
0.00481277
0.0075348
0.0106654
0.0142217
0.0181757
0.0224686
0.0269687
0.0314408
0.0355539
0.0389552
0.0413871
0.042773
0.0432018
0.042854
0.0419515
0.0406688
0.0391479
0.0374998
0.0358058
0.0341215
0.0324864
0.030919
0.029427
0.0280097
0.0266687
0.0253966
0.0241914
0.0230487
0.021965
0.0209305
0.0199401
0.0189837
0.0180568
0.0171536
0.016251
0.0153047
0.014132
0.0113744
0.000501119
0.0623405
0.00251761
0.00330559
0.0148939
0.00746143
0.010661
0.0142137
0.0181665
0.0224568
0.0269546
0.0314255
0.0355391
0.0389424
0.0413798
0.0427731
0.0432094
0.0428684
0.0419724
0.0406959
0.0391809
0.0375379
0.0358484
0.0341692
0.0325371
0.0309751
0.0294857
0.0280735
0.026734
0.0254674
0.0242659
0.0231269
0.022046
0.0210197
0.0200385
0.0190971
0.0181859
0.0173002
0.0164335
0.0155613
0.014633
0.0134372
0.0104951
0.000295526
0.0621335
0.00346321
0.00366178
0.00575441
0.0220934
0.010559
0.0142079
0.0181566
0.022446
0.0269417
0.0314114
0.0355257
0.0389319
0.0413732
0.0427731
0.0432168
0.042882
0.0419918
0.0407206
0.0392107
0.0375724
0.0358872
0.0342119
0.0325842
0.0310249
0.0295404
0.0281305
0.0267959
0.0255309
0.0243345
0.0231991
0.022122
0.0210987
0.0201256
0.0191938
0.0182977
0.0174281
0.0165801
0.0157464
0.0149005
0.0139847
0.0127546
0.00959046
0.00015732
0.0618132
0.0031075
0.00596164
0.00639958
0.00876531
0.0300326
0.0140751
0.0181493
0.0224342
0.0269299
0.0313985
0.0355134
0.0389226
0.0413684
0.042773
0.0432234
0.042895
0.0420099
0.0407434
0.0392378
0.0376038
0.0359225
0.0342508
0.0326264
0.031071
0.0295889
0.0281837
0.0268514
0.0255909
0.0243962
0.0232658
0.0221922
0.0211726
0.0202029
0.0192792
0.018393
0.0175387
0.0167073
0.0158937
0.0150894
0.0142658
0.0133566
0.0120802
0.00865211
7.73655e-05
0.0617741
0.00252698
0.00504873
0.0105003
0.00973815
0.0122282
0.0384672
0.0179844
0.0224257
0.0269166
0.0313867
0.0355022
0.0389137
0.0413644
0.0427742
0.0432295
0.0429068
0.0420272
0.0407648
0.0392629
0.0376323
0.0359545
0.034286
0.0326648
0.0311124
0.029634
0.028231
0.026903
0.0256448
0.0244545
0.0233258
0.0222569
0.0212408
0.0202748
0.0193548
0.0184769
0.0176329
0.0168171
0.0160207
0.0152382
0.0144599
0.0136544
0.0127455
0.0114103
0.00767359
3.8108e-05
0.0615895
0.00247004
0.00360545
0.00883044
0.0159425
0.0135235
0.0161229
0.0470251
0.022229
0.0269074
0.0313734
0.0354919
0.0389057
0.04136
0.0427757
0.0432363
0.0429176
0.0420428
0.0407851
0.0392864
0.0376588
0.0359837
0.0343181
0.0326997
0.0311502
0.0296744
0.0282749
0.0269491
0.025695
0.0245068
0.0233823
0.0223153
0.0213038
0.0203412
0.019425
0.0185511
0.0177155
0.0169105
0.0161299
0.0153654
0.0146109
0.0138552
0.0130636
0.0121481
0.0107375
0.00665496
2.10938e-05
0.0615798
0.00213229
0.00344627
0.00623644
0.0133722
0.0220496
0.0176851
0.0204107
0.0551062
0.0266811
0.0313644
0.0354799
0.0388985
0.0413564
0.0427763
0.0432428
0.0429287
0.0420573
0.0408036
0.0393086
0.0376835
0.0360107
0.0343473
0.0327313
0.0311844
0.0297113
0.0283143
0.0269918
0.0257398
0.0245556
0.0234332
0.0223702
0.0213607
0.0204026
0.0194897
0.0186196
0.0177884
0.016992
0.0162228
0.0154746
0.014739
0.0140094
0.0132728
0.0124908
0.0115612
0.0100509
0.00561221
1.44207e-05
0.0615782
0.00211934
0.0027568
0.00593764
0.00942457
0.0184775
0.0286616
0.0221494
0.0249948
0.0619601
0.0311137
0.0354725
0.0388895
0.0413531
0.0427771
0.043248
0.042939
0.0420716
0.0408206
0.039329
0.0377068
0.0360359
0.0343744
0.0327603
0.0312154
0.0297447
0.0283502
0.0270301
0.0257813
0.0245992
0.0234806
0.0224198
0.0214141
0.0204581
0.0195496
0.0186828
0.0178555
0.0170638
0.0163035
0.0155671
0.0148484
0.0141389
0.0134312
0.0127104
0.0119331
0.0109812
0.00933968
0.00458891
1.21085e-05
0.0615775
0.0021196
0.00273531
0.0048567
0.00895733
0.013025
0.0240356
0.0355585
0.0267983
0.0296851
0.0668434
0.0352054
0.0388846
0.0413482
0.0427781
0.0432531
0.0429478
0.0420848
0.0408371
0.0393477
0.0377283
0.0360597
0.0343997
0.032787
0.0312439
0.0297751
0.0283828
0.0270651
0.0258187
0.0246396
0.0235231
0.0224659
0.0214624
0.0205101
0.0196039
0.0187414
0.0179174
0.0171297
0.0163744
0.0156474
0.0149411
0.0142491
0.0135629
0.0128741
0.0121654
0.0113879
0.0104046
0.00859518
0.00363271
1.13486e-05
0.0615766
0.00211981
0.00273217
0.00482135
0.00751409
0.0123694
0.0169829
0.029905
0.0423557
0.0314419
0.0341782
0.0695111
0.0386113
0.0413467
0.0427774
0.0432581
0.0429562
0.0420963
0.0408524
0.0393658
0.037748
0.0360818
0.0344236
0.0328121
0.0312701
0.0298029
0.0284124
0.0270969
0.0258528
0.024676
0.0235624
0.0225073
0.0215073
0.0205573
0.0196546
0.0187945
0.0179748
0.0171904
0.0164393
0.0157176
0.015021
0.0143422
0.0136744
0.0130087
0.0123358
0.0116356
0.0108525
0.00982779
0.00781169
0.00275955
1.10789e-05
0.0615758
0.0021198
0.00273077
0.00481287
0.00746126
0.0106178
0.0161321
0.0212487
0.0358297
0.0484713
0.0357849
0.0381042
0.0702588
0.0410773
0.0427796
0.0432614
0.0429644
0.0421073
0.040866
0.0393825
0.037767
0.036102
0.0344457
0.0328357
0.0312947
0.0298285
0.0284396
0.0271257
0.0258837
0.0247091
0.0235979
0.0225456
0.0215478
0.0206011
0.0197007
0.0188441
0.0180269
0.0172467
0.0164989
0.0157817
0.0150909
0.0144222
0.0137683
0.013122
0.0124742
0.0118141
0.0111184
0.0103238
0.00924582
0.0069866
0.00198778
1.0962e-05
0.0615753
0.00211989
0.00272888
0.00480893
0.00744518
0.0105443
0.0141377
0.0202185
0.0257401
0.0413992
0.0532657
0.0394669
0.0411382
0.0696177
0.0425221
0.043267
0.0429707
0.0421179
0.0408788
0.0393974
0.0377845
0.0361214
0.0344661
0.0328576
0.0313179
0.0298526
0.0284645
0.0271523
0.0259118
0.0247393
0.0236302
0.0225802
0.0215851
0.0206406
0.0197435
0.0188893
0.0180755
0.0172979
0.0165544
0.0158404
0.0151543
0.014492
0.0138487
0.0132172
0.01259
0.0119573
0.0113068
0.0106115
0.00979872
0.00864872
0.00612085
0.0013355
1.08989e-05
0.0615749
0.00212
0.00272714
0.0048041
0.00743761
0.0105186
0.0140411
0.01805
0.0245736
0.0303123
0.0461081
0.0563479
0.042201
0.0431146
0.0680753
0.0430268
0.0429788
0.0421265
0.040891
0.0394114
0.0378003
0.0361394
0.0344856
0.0328779
0.0313395
0.0298752
0.028488
0.0271765
0.0259376
0.0247667
0.0236596
0.0226117
0.0216189
0.0206771
0.0197823
0.0189312
0.0181198
0.0173456
0.0166048
0.0158951
0.0152124
0.014555
0.0139185
0.0132983
0.0126869
0.0120762
0.0114559
0.0108118
0.0101124
0.00927401
0.00802482
0.00522118
0.000815118
1.0854e-05
0.0615745
0.00211997
0.00272603
0.00479952
0.00742869
0.0105064
0.014004
0.0179288
0.0222987
0.0290662
0.0347163
0.0495535
0.0577468
0.0438673
0.0440594
0.0659849
0.0427577
0.0421366
0.0409014
0.0394249
0.0378151
0.0361555
0.0345037
0.0328973
0.0313595
0.0298965
0.0285101
0.0271993
0.0259612
0.0247918
0.0236862
0.0226404
0.0216496
0.0207101
0.0198179
0.0189692
0.0181609
0.0173892
0.0166517
0.0159449
0.0152665
0.0146125
0.0139813
0.0133685
0.0127691
0.0121753
0.0115788
0.010968
0.0103267
0.00961828
0.00874613
0.00736334
0.00430555
0.00043568
1.08183e-05
0.0615743
0.00211992
0.00272513
0.0047965
0.00742009
0.0104923
0.0139863
0.0178794
0.0221528
0.0267608
0.0334602
0.0386228
0.0516087
0.0577922
0.0445316
0.0441352
0.0635777
0.0419347
0.0409128
0.0394364
0.0378292
0.0361707
0.03452
0.0329153
0.0313786
0.0299161
0.0285309
0.0272209
0.0259834
0.0248148
0.0237107
0.0226664
0.0216777
0.0207402
0.0198502
0.0190041
0.0181982
0.0174296
0.0166947
0.0159912
0.0153158
0.0146662
0.0140386
0.0134314
0.01284
0.012259
0.0116807
0.0110957
0.0104916
0.00984936
0.00912649
0.00821078
0.00665597
0.00341057
0.000195805
1.07913e-05
0.0615742
0.00211982
0.0027243
0.00479426
0.00741439
0.0104786
0.0139663
0.0178556
0.022091
0.0265945
0.0312155
0.0374315
0.041715
0.052417
0.0568832
0.044364
0.0435532
0.0610012
0.0407293
0.0394487
0.0378414
0.0361852
0.0345353
0.0329315
0.0313964
0.0299348
0.0285501
0.0272412
0.0260044
0.0248364
0.0237331
0.0226902
0.021703
0.0207676
0.0198796
0.0190358
0.0182325
0.0174663
0.0167344
0.0160336
0.0153615
0.0147151
0.0140919
0.0134886
0.0129032
0.012331
0.0117664
0.0112011
0.010625
0.0100245
0.00937733
0.00863397
0.00765845
0.00589889
0.0025895
7.32292e-05
1.07744e-05
0.061574
0.00211969
0.0027235
0.00479225
0.00741029
0.0104695
0.0139466
0.0178285
0.0220629
0.0265234
0.0310394
0.0353457
0.0406541
0.0438023
0.0522492
0.0553557
0.0435782
0.0425178
0.0583476
0.0392829
0.0378542
0.0361978
0.0345499
0.0329468
0.0314125
0.0299524
0.0285685
0.0272599
0.0260242
0.0248569
0.0237541
0.022712
0.0217263
0.0207924
0.0199065
0.0190647
0.0182637
0.0175001
0.0167706
0.0160728
0.0154035
0.0147604
0.0141406
0.0135418
0.0129605
0.0123948
0.0118397
0.0112893
0.0107347
0.0101649
0.0095647
0.00890812
0.00813745
0.00707753
0.00509466
0.00186256
2.46998e-05
1.07659e-05
0.0615736
0.00211952
0.00272287
0.00479043
0.00740668
0.0104631
0.0139333
0.0178027
0.0220294
0.0264913
0.0309633
0.035174
0.0388064
0.0429074
0.0448718
0.051372
0.0534557
0.0423703
0.041189
0.0556758
0.0377055
0.0362107
0.0345627
0.0329613
0.0314276
0.0299682
0.0285857
0.0272779
0.0260426
0.0248762
0.0237741
0.0227325
0.0217475
0.0208151
0.0199308
0.019091
0.018292
0.0175307
0.016804
0.0161086
0.0154423
0.014802
0.0141857
0.0135904
0.0130137
0.0124525
0.0119045
0.0113645
0.010826
0.0102796
0.00971336
0.00910988
0.00843906
0.00763355
0.00645638
0.00425262
0.00123829
8.98115e-06
1.07663e-05
0.0615817
0.00211931
0.00272224
0.00478904
0.00740344
0.0104574
0.0139244
0.017785
0.0219974
0.0264536
0.0309296
0.0351004
0.0386533
0.0413358
0.0441437
0.0450532
0.0500078
0.0512915
0.0408909
0.0396982
0.053024
0.036078
0.0345754
0.032974
0.0314419
0.0299831
0.0286013
0.0272949
0.0260602
0.0248941
0.0237929
0.022752
0.0217675
0.0208358
0.019953
0.0191148
0.0183179
0.0175586
0.0168342
0.0161415
0.0154777
0.0148405
0.0142271
0.0136353
0.0130624
0.012506
0.0119628
0.0114305
0.0109034
0.0103746
0.00983412
0.00926832
0.00865776
0.00796731
0.00711396
0.00578466
0.00339264
0.000734762
4.44588e-06
1.07704e-05
0.0617469
0.00213496
0.00272163
0.00478777
0.00740106
0.0104525
0.0139167
0.0177736
0.0219759
0.0264167
0.0308898
0.0350682
0.0385887
0.0412117
0.0428418
0.0444655
0.0445253
0.0483112
0.0489871
0.0392638
0.0381362
0.0504173
0.0344574
0.0329866
0.0314546
0.0299971
0.0286159
0.0273102
0.0260768
0.0249113
0.0238105
0.0227704
0.0217866
0.0208553
0.0199733
0.0191366
0.0183413
0.0175841
0.0168617
0.0161714
0.0155104
0.0148757
0.0142654
0.0136766
0.0131073
0.0125549
0.0120167
0.0114897
0.0109712
0.010455
0.00993361
0.00939622
0.00882771
0.00820584
0.00748967
0.00656721
0.00505602
0.00256539
0.000372963
3.24293e-06
1.07779e-05
0.0771166
0.00244637
0.00276051
0.0047866
0.00739899
0.0104489
0.0139098
0.0177637
0.0219618
0.026392
0.0308508
0.03503
0.0385619
0.0411625
0.0427503
0.043399
0.0440468
0.0435052
0.0464083
0.0466271
0.037577
0.0365731
0.0478672
0.0328817
0.0314668
0.0300096
0.0286297
0.0273245
0.0260918
0.0249276
0.0238273
0.0227876
0.0218046
0.020874
0.0199924
0.0191565
0.0183626
0.0176071
0.0168868
0.0161986
0.01554
0.0149081
0.0143004
0.0137148
0.0131486
0.0125999
0.0120661
0.0115444
0.0110316
0.0105248
0.0100174
0.00950106
0.008964
0.00838931
0.00775145
0.00700201
0.00598126
0.00427348
0.00183783
0.000155128
2.94876e-06
1.07883e-05
0.14712
0.0250577
0.00353082
0.00485661
0.00739711
0.0104459
0.0139048
0.0177547
0.0219495
0.0263757
0.0308247
0.0349932
0.03853
0.0411441
0.0427183
0.0433376
0.0431668
0.0431037
0.0421489
0.0444042
0.0442787
0.0358943
0.0350456
0.0453664
0.0313732
0.0300215
0.028642
0.027338
0.0261059
0.0249423
0.0238433
0.0228041
0.0218214
0.0208916
0.0200106
0.0191751
0.0183821
0.0176281
0.0169095
0.0162235
0.0155669
0.0149375
0.0143327
0.0137497
0.0131868
0.0126414
0.0121114
0.0115943
0.0110872
0.0105869
0.0100898
0.00958893
0.00907515
0.00853543
0.00795074
0.00729172
0.00649515
0.00534485
0.00345509
0.0012118
5.2898e-05
2.88356e-06
1.07955e-05
0.0946242
0.208576
0.0486904
0.00622799
0.00750386
0.0104432
0.0139008
0.0177483
0.0219385
0.0263615
0.0308076
0.0349665
0.0384999
0.0411215
0.0427092
0.0433222
0.0431276
0.042368
0.0418018
0.0405935
0.042372
0.041999
0.0342584
0.0335734
0.0429283
0.0299376
0.0286535
0.0273501
0.0261192
0.0249562
0.0238578
0.0228197
0.0218375
0.0209081
0.0200279
0.019193
0.0184004
0.0176473
0.0169302
0.0162459
0.0155915
0.0149643
0.014362
0.0137819
0.0132218
0.0126797
0.0121532
0.0116401
0.011138
0.0106437
0.0101538
0.00966455
0.00916791
0.00865401
0.00810837
0.0075095
0.00682353
0.00595751
0.00464994
0.00264398
0.000703059
1.60252e-05
2.87112e-06
1.07996e-05
0.089064
0.0735692
0.432428
0.0731709
0.00957067
0.0105911
0.0138972
0.0177433
0.0219308
0.0263491
0.0307921
0.0349515
0.0384767
0.0411011
0.042697
0.043323
0.0431255
0.0423452
0.0411775
0.0402771
0.0389386
0.0403686
0.039823
0.0326945
0.0321662
0.0405798
0.0285779
0.0273613
0.026131
0.0249692
0.0238714
0.022834
0.021853
0.020924
0.020044
0.01921
0.018418
0.0176653
0.0169491
0.0162664
0.0156138
0.0149887
0.0143886
0.0138112
0.0132541
0.0127149
0.0121918
0.0116823
0.0111845
0.0106955
0.0102122
0.00973098
0.00924732
0.00875253
0.00823565
0.00768053
0.00706285
0.00633968
0.00537685
0.00389767
0.0019028
0.000342337
5.04993e-06
2.86962e-06
1.0802e-05
0.088781
0.0596804
0.170791
0.600586
0.0950685
0.0134212
0.0140898
0.0177388
0.0219248
0.0263403
0.0307794
0.0349375
0.0384656
0.0410842
0.0426873
0.0433204
0.043132
0.0423516
0.0411643
0.0397375
0.0386368
0.0372579
0.0384358
0.0377647
0.0312086
0.0308284
0.0383443
0.0272928
0.0261418
0.0249809
0.0238841
0.0228474
0.021867
0.0209391
0.0200597
0.0192259
0.0184347
0.0176826
0.0169668
0.016285
0.015634
0.0150108
0.0144129
0.0138378
0.0132834
0.0127472
0.0122272
0.0117213
0.0112273
0.0107429
0.0102654
0.00979129
0.00931668
0.00883643
0.00834092
0.00781796
0.00724944
0.00660781
0.00582951
0.00474169
0.003106
0.00125888
0.000133955
2.16483e-06
2.86991e-06
1.08038e-05
0.0928887
0.0586315
0.138353
0.285053
0.71034
0.113977
0.0177371
0.0179793
0.0219195
0.0263334
0.0307699
0.0349253
0.0384548
0.0410779
0.0426781
0.0433204
0.0431369
0.0423622
0.0411763
0.0397285
0.03816
0.0369592
0.035604
0.0365979
0.0358297
0.0298049
0.0295592
0.0362352
0.0260793
0.0249913
0.0238956
0.0228599
0.0218802
0.020953
0.0200746
0.0192413
0.0184503
0.017699
0.0169839
0.0163025
0.0156525
0.015031
0.0144349
0.0138621
0.01331
0.0127767
0.0122598
0.0117571
0.0112668
0.0107865
0.0103139
0.0098461
0.00937933
0.0089093
0.00843013
0.00793114
0.00739869
0.00681242
0.00613798
0.0052809
0.00404533
0.00232777
0.000730076
4.22109e-05
1.47533e-06
2.87049e-06
1.08055e-05
0.0979544
0.0672892
0.135433
0.233628
0.393382
0.785255
0.130144
0.0224905
0.0222107
0.0263277
0.0307629
0.0349168
0.0384449
0.041071
0.0426766
0.0433185
0.0431449
0.0423731
0.0411893
0.0397434
0.0381511
0.0365289
0.0352987
0.0340103
0.034859
0.0340146
0.028482
0.0283565
0.0342551
0.024934
0.0239057
0.0228712
0.0218925
0.0209659
0.0200883
0.019256
0.0184655
0.0177144
0.0170001
0.0163193
0.0156698
0.0150493
0.014455
0.0138841
0.0133343
0.0128034
0.0122894
0.0117901
0.0113031
0.0108267
0.0103585
0.00989604
0.00943611
0.00897477
0.00850716
0.00802656
0.00752108
0.00697538
0.00636657
0.00564337
0.00468165
0.00329486
0.00162937
0.000350598
1.15343e-05
1.32435e-06
2.87113e-06
1.08062e-05
0.100244
0.0780984
0.153776
0.228275
0.329071
0.484578
0.839763
0.143964
0.0276324
0.0266718
0.0307567
0.0349099
0.0384376
0.0410643
0.0426736
0.0433204
0.0431489
0.0423871
0.0412042
0.0397575
0.0381664
0.0365168
0.0349025
0.0336927
0.0324886
0.0332185
0.0323119
0.0272364
0.0272173
0.0323971
0.0238528
0.0228809
0.0219036
0.0209781
0.0201011
0.0192695
0.0184801
0.0177294
0.0170153
0.0163353
0.0156864
0.0150664
0.0144732
0.0139041
0.0133563
0.0128278
0.0123164
0.01182
0.0113365
0.0108637
0.0103996
0.00994183
0.00948774
0.00903389
0.00857597
0.0081085
0.00762375
0.0071085
0.00654535
0.00590532
0.00511224
0.00402243
0.00252879
0.00102544
0.000133185
3.23163e-06
1.29407e-06
2.87183e-06
1.08064e-05
0.102032
0.0830016
0.176195
0.2553
0.32135
0.41446
0.558308
0.881148
0.155792
0.0330583
0.0311554
0.0349042
0.0384317
0.0410591
0.0426706
0.0433212
0.043155
0.0423948
0.041223
0.0397745
0.0381813
0.0365318
0.0348847
0.0333209
0.0321598
0.0310452
0.031673
0.0307143
0.0260644
0.0261376
0.0306537
0.0228319
0.021913
0.020989
0.020113
0.0192822
0.0184935
0.0177438
0.0170302
0.0163504
0.0157022
0.0150828
0.0144902
0.0139223
0.0133763
0.01285
0.0123409
0.0118472
0.0113669
0.0108976
0.0104373
0.00998396
0.00953497
0.00908752
0.00863788
0.00818127
0.00771146
0.0072196
0.00669093
0.00610553
0.00541874
0.00453219
0.00330482
0.00180902
0.000545892
3.97062e-05
1.27181e-06
1.28845e-06
2.87253e-06
1.08067e-05
0.103965
0.0868255
0.186185
0.287026
0.353627
0.404967
0.486578
0.617477
0.91306
0.165907
0.0385669
0.0353563
0.0384272
0.0410544
0.0426676
0.0433209
0.0431585
0.0424037
0.0412336
0.0397962
0.0382003
0.0365455
0.034898
0.033296
0.0318074
0.0307054
0.0296808
0.0302175
0.0292144
0.024962
0.0251126
0.0290172
0.0218674
0.0209981
0.0201239
0.019294
0.018506
0.0177571
0.0170445
0.0163651
0.0157173
0.0150986
0.0145065
0.0139392
0.0133946
0.0128701
0.0123633
0.0118721
0.0113945
0.0109285
0.010472
0.0100226
0.00957837
0.00913649
0.0086939
0.00824646
0.00778888
0.00731407
0.00681182
0.00626573
0.00564849
0.00489526
0.00389288
0.0025569
0.00117787
0.000231292
9.93346e-06
8.53667e-07
1.28749e-06
2.87324e-06
1.08071e-05
0.105574
0.0909734
0.193867
0.300828
0.388748
0.438127
0.4758
0.546039
0.664994
0.937474
0.174595
0.0438464
0.0389283
0.0410514
0.0426639
0.0433205
0.0431611
0.0424091
0.0412427
0.0398081
0.0382222
0.036564
0.03491
0.0333055
0.0317751
0.0303679
0.0293312
0.028393
0.0288463
0.0278057
0.0239247
0.0241383
0.0274799
0.0209555
0.0201326
0.0193047
0.0185177
0.0177695
0.0170576
0.0163793
0.0157319
0.0151135
0.0145222
0.0139555
0.0134115
0.0128884
0.0123835
0.0118946
0.0114197
0.0109566
0.0105035
0.0100582
0.0096182
0.00918139
0.0087449
0.00830528
0.00785794
0.00739693
0.00691418
0.00639792
0.0058287
0.00516418
0.00432246
0.00319404
0.00183976
0.000656139
7.51672e-05
2.48831e-06
7.72078e-07
1.28745e-06
2.87393e-06
1.08076e-05
0.106753
0.0944324
0.202128
0.311273
0.403501
0.472327
0.507189
0.534238
0.59448
0.703094
0.955795
0.181907
0.0485056
0.041593
0.042663
0.043318
0.0431623
0.0424135
0.0412495
0.0398176
0.0382337
0.0365862
0.0349269
0.0333156
0.0317794
0.030328
0.0290055
0.0280351
0.0271787
0.0275539
0.0264815
0.0229484
0.0232101
0.0260349
0.0200927
0.0193132
0.0185283
0.0177811
0.01707
0.0163924
0.015746
0.015128
0.0145371
0.0139711
0.0134277
0.0129053
0.0124019
0.0119151
0.0114425
0.0109822
0.0105322
0.0100905
0.00965479
0.00922258
0.00879158
0.00835868
0.00792004
0.00747051
0.00700339
0.00650946
0.0059752
0.00537183
0.004641
0.00369012
0.00246294
0.00120719
0.000289848
1.90418e-05
8.88359e-07
7.57304e-07
1.28765e-06
2.87455e-06
1.08084e-05
0.107554
0.0969704
0.20896
0.322384
0.414496
0.486341
0.538486
0.562589
0.581746
0.633496
0.733497
0.969305
0.187806
0.0521833
0.0432326
0.0433182
0.043161
0.0424159
0.0412551
0.0398255
0.0382432
0.0365979
0.0349484
0.0333312
0.0317872
0.0303273
0.0289582
0.027719
0.0268139
0.0260336
0.0263346
0.0252361
0.0220287
0.0223238
0.0246758
0.0192755
0.0185365
0.0177917
0.0170815
0.0164048
0.0157591
0.0151421
0.0145516
0.0139859
0.0134433
0.0129216
0.012419
0.0119337
0.0114633
0.0110055
0.0105584
0.0101199
0.00968802
0.00926039
0.00883435
0.00840744
0.00797625
0.00753644
0.00708226
0.00660607
0.00609736
0.00553795
0.00488478
0.00406665
0.00299927
0.00176138
0.000675784
9.68099e-05
4.24458e-06
5.79209e-07
7.54671e-07
1.28794e-06
2.87524e-06
1.08088e-05
0.108216
0.0987014
0.213932
0.33148
0.426088
0.496659
0.551086
0.590356
0.606621
0.619845
0.664584
0.757734
0.979189
0.192116
0.0546683
0.043903
0.0431623
0.0424154
0.0412584
0.0398318
0.0382521
0.0366065
0.0349603
0.033351
0.0318015
0.0303326
0.0289526
0.0276645
0.0265057
0.0256638
0.0249535
0.0251833
0.0240643
0.0211615
0.0214753
0.023397
0.0185009
0.0177997
0.0170921
0.0164162
0.0157713
0.0151552
0.0145656
0.0140004
0.0134582
0.0129372
0.0124353
0.0119509
0.0114822
0.0110266
0.0105821
0.0101467
0.00971822
0.00929471
0.00887359
0.00845206
0.00802743
0.00759591
0.00715265
0.00669111
0.00620255
0.00567438
0.00507728
0.00435574
0.00343216
0.00228347
0.0011406
0.000295948
2.43695e-05
1.09282e-06
5.24649e-07
7.54136e-07
1.28836e-06
2.87578e-06
1.08089e-05
0.108804
0.100131
0.2173
0.338034
0.435495
0.507476
0.560264
0.601374
0.63086
0.641274
0.650038
0.689266
0.777203
0.986407
0.194594
0.0559574
0.0437503
0.0424172
0.0412584
0.0398355
0.0382586
0.0366153
0.0349685
0.0333624
0.0318194
0.0303453
0.0289552
0.0276542
0.0264444
0.0253625
0.0245806
0.0239338
0.0240948