/*--------------------------------*- C++ -*----------------------------------*\
| =========                 |                                                 |
| \\      /  F ield         | OpenFOAM: The Open Source CFD Toolbox           |
|  \\    /   O peration     | Version:  v2012                                 |
|   \\  /    A nd           | Website:  www.openfoam.com                      |
|    \\/     M anipulation  |                                                 |
\*---------------------------------------------------------------------------*/
FoamFile
{
    version     2.0;
    format      ascii;
    class       volScalarField;
    location    "13380";
    object      nut;
}
// * * * * * * * * * * * * * * * * * * * * * * * * * * * * * * * * * * * * * //

dimensions      [0 2 -1 0 0 0 0];


internalField   nonuniform List<scalar> 
31383
(
4.42368e-11
4.48161e-11
4.40398e-11
4.16276e-11
8.3279e-11
8.65728e-11
3.93496e-11
7.66509e-11
9.78396e-10
4.06501e-10
3.76742e-11
7.18812e-11
8.93678e-10
7.55643e-09
1.77838e-09
3.63199e-11
6.83876e-11
8.32374e-10
6.89823e-09
3.61797e-08
6.20871e-09
3.51856e-11
6.55726e-11
7.87587e-10
6.42139e-09
3.3033e-08
1.28681e-07
1.82589e-08
3.42376e-11
6.32358e-11
7.51578e-10
6.07302e-09
3.07506e-08
1.17563e-07
3.75498e-07
4.75428e-08
3.34362e-11
6.12877e-11
7.21863e-10
5.79294e-09
2.90823e-08
1.09482e-07
3.43534e-07
9.47882e-07
1.13324e-07
3.27341e-11
5.96422e-11
6.97134e-10
5.56189e-09
2.77405e-08
1.03569e-07
3.20214e-07
8.69421e-07
2.12896e-06
2.5264e-07
3.21117e-11
5.82099e-11
6.76259e-10
5.36961e-09
2.66335e-08
9.88103e-08
3.03121e-07
8.11823e-07
1.96075e-06
4.31762e-06
5.33836e-07
3.15435e-11
5.69383e-11
6.58174e-10
5.2073e-09
2.5712e-08
9.48821e-08
2.89347e-07
7.69477e-07
1.83607e-06
3.99955e-06
7.97483e-06
1.07689e-06
3.10283e-11
5.57787e-11
6.42101e-10
5.06674e-09
2.49341e-08
9.16109e-08
2.77965e-07
7.35275e-07
1.744e-06
3.76047e-06
7.44101e-06
1.35171e-05
2.07947e-06
3.05563e-11
5.47277e-11
6.27456e-10
4.94181e-09
2.42604e-08
8.88478e-08
2.68477e-07
7.06955e-07
1.66936e-06
3.58285e-06
7.03225e-06
1.27138e-05
2.12226e-05
3.84242e-06
3.01316e-11
5.37653e-11
6.14188e-10
4.828e-09
2.36617e-08
8.64545e-08
2.60456e-07
6.83316e-07
1.60735e-06
3.43811e-06
6.72648e-06
1.20854e-05
2.01229e-05
3.12199e-05
6.77204e-06
2.97501e-11
5.29041e-11
6.02046e-10
4.7249e-09
2.31162e-08
8.43277e-08
2.53505e-07
6.63299e-07
1.5555e-06
3.31725e-06
6.47573e-06
1.16121e-05
1.92415e-05
2.98269e-05
4.3098e-05
1.13501e-05
2.94099e-11
5.21335e-11
5.91221e-10
4.63056e-09
2.26222e-08
8.23899e-08
2.47327e-07
6.4594e-07
1.51147e-06
3.21606e-06
6.26492e-06
1.12211e-05
1.85734e-05
2.86771e-05
4.16429e-05
5.67286e-05
1.80957e-05
2.91031e-11
5.14456e-11
5.81562e-10
4.54648e-09
2.21701e-08
8.06345e-08
2.41695e-07
6.305e-07
1.47323e-06
3.12978e-06
6.08839e-06
1.089e-05
1.80172e-05
2.78005e-05
4.03547e-05
5.50715e-05
7.29954e-05
2.73813e-05
2.88304e-11
5.08295e-11
5.72933e-10
4.47147e-09
2.17671e-08
7.9028e-08
2.36594e-07
6.16411e-07
1.4392e-06
3.05466e-06
5.93695e-06
1.06125e-05
1.75432e-05
2.70656e-05
3.93728e-05
5.35175e-05
7.11275e-05
9.23299e-05
3.92399e-05
2.85845e-11
5.02809e-11
5.65245e-10
4.40446e-09
2.14076e-08
7.75958e-08
2.31923e-07
6.0365e-07
1.40806e-06
2.98778e-06
5.80457e-06
1.0373e-05
1.7145e-05
2.64356e-05
3.84555e-05
5.23172e-05
6.92484e-05
9.02643e-05
0.000114976
5.32459e-05
2.83638e-11
4.979e-11
5.58389e-10
4.34477e-09
2.10864e-08
7.63182e-08
2.27759e-07
5.91959e-07
1.37988e-06
2.92639e-06
5.68678e-06
1.01626e-05
1.67999e-05
2.59046e-05
3.7664e-05
5.13055e-05
6.77957e-05
8.80176e-05
0.000112822
0.000141304
6.66885e-05
2.81655e-11
4.93501e-11
5.52289e-10
4.29154e-09
2.08004e-08
7.51767e-08
2.24043e-07
5.81529e-07
1.35404e-06
2.87094e-06
5.57826e-06
9.97595e-06
1.64952e-05
2.54437e-05
3.69945e-05
5.04369e-05
6.65831e-05
8.6293e-05
0.000110211
0.000139215
0.000171667
8.13106e-05
2.79876e-11
4.89557e-11
5.46828e-10
4.24418e-09
2.05453e-08
7.41598e-08
2.20721e-07
5.72212e-07
1.33096e-06
2.81994e-06
5.48043e-06
9.8031e-06
1.62256e-05
2.50349e-05
3.64138e-05
4.97005e-05
6.5549e-05
8.48472e-05
0.00010819
0.000136204
0.000169866
0.000206385
9.7333e-05
2.78268e-11
4.86022e-11
5.41939e-10
4.20178e-09
2.03183e-08
7.32527e-08
2.17761e-07
5.63883e-07
1.31032e-06
2.77434e-06
5.39016e-06
9.64721e-06
1.59751e-05
2.46741e-05
3.58972e-05
4.90627e-05
6.4668e-05
8.3611e-05
0.00010649
0.000133862
0.000166437
0.000205226
0.000245777
0.0001148
2.76812e-11
4.8284e-11
5.3756e-10
4.16384e-09
2.01151e-08
7.24458e-08
2.1512e-07
5.56455e-07
1.29187e-06
2.73342e-06
5.30927e-06
9.50317e-06
1.57489e-05
2.43381e-05
3.54406e-05
4.84888e-05
6.39077e-05
8.25569e-05
0.000105033
0.000131883
0.000163748
0.00020137
0.000245716
0.000290171
0.000133493
2.75476e-11
4.79959e-11
5.33631e-10
4.12986e-09
1.99333e-08
7.17233e-08
2.1277e-07
5.49824e-07
1.27538e-06
2.69685e-06
5.23644e-06
9.37387e-06
1.55399e-05
2.40345e-05
3.50165e-05
4.79777e-05
6.3222e-05
8.16448e-05
0.000103787
0.000130184
0.000161462
0.000198308
0.000241443
0.00029138
0.000339706
0.000153065
2.74245e-11
4.77315e-11
5.30074e-10
4.09938e-09
1.97704e-08
7.10764e-08
2.10665e-07
5.4392e-07
1.26066e-06
2.66412e-06
5.17145e-06
9.25703e-06
1.53518e-05
2.37545e-05
3.46325e-05
4.75072e-05
6.26104e-05
8.08295e-05
0.000102703
0.000128728
0.000159497
0.000195696
0.000238
0.000286762
0.000340862
0.000393591
0.000173136
2.73111e-11
4.74884e-11
5.26809e-10
4.07178e-09
1.96243e-08
7.0497e-08
2.0878e-07
5.3863e-07
1.24753e-06
2.63486e-06
5.11299e-06
9.15297e-06
1.51813e-05
2.35018e-05
3.42792e-05
4.70844e-05
6.20491e-05
8.00984e-05
0.000101745
0.000127458
0.000157821
0.000193444
0.000235054
0.000282975
0.000336112
0.000395566
0.000451941
0.000193005
2.72065e-11
4.72647e-11
5.23812e-10
4.04645e-09
1.9492e-08
6.99772e-08
2.07091e-07
5.33893e-07
1.23577e-06
2.60876e-06
5.06071e-06
9.05878e-06
1.50295e-05
2.32722e-05
3.39598e-05
4.66947e-05
6.15429e-05
7.94321e-05
0.000100887
0.000126333
0.000156353
0.000191526
0.000232506
0.000279722
0.000332131
0.000390598
0.000456525
0.000516021
0.000211245
2.71106e-11
4.70591e-11
5.21056e-10
4.0232e-09
1.93706e-08
6.95065e-08
2.05576e-07
5.29644e-07
1.22522e-06
2.58533e-06
5.01399e-06
8.97461e-06
1.48915e-05
2.30673e-05
3.36692e-05
4.63438e-05
6.10816e-05
7.88262e-05
0.000100101
0.000125337
0.00015505
0.000189852
0.000230327
0.0002769
0.000328696
0.000386297
0.000451459
0.000524288
0.000586064
0.000225648
2.70224e-11
4.68708e-11
5.18529e-10
4.00183e-09
1.92591e-08
6.90745e-08
2.04204e-07
5.25832e-07
1.21576e-06
2.5643e-06
4.97201e-06
8.89905e-06
1.47682e-05
2.28807e-05
3.34094e-05
4.60243e-05
6.06607e-05
7.82769e-05
9.93868e-05
0.000124419
0.000153897
0.00018836
0.000228436
0.000274476
0.000325716
0.000382551
0.000446862
0.000519303
0.000599433
0.000662245
0.000235246
2.69421e-11
4.66988e-11
5.16218e-10
3.98223e-09
1.91567e-08
6.8678e-08
2.02944e-07
5.22378e-07
1.20726e-06
2.54541e-06
4.93426e-06
8.83109e-06
1.46569e-05
2.27139e-05
3.31724e-05
4.57381e-05
6.02786e-05
7.77751e-05
9.87357e-05
0.000123589
0.000152838
0.000187033
0.000226744
0.000272375
0.000323143
0.000379289
0.000442805
0.000514454
0.000594795
0.000682565
0.000744634
0.000247053
2.68687e-11
4.65423e-11
5.14116e-10
3.96431e-09
1.90627e-08
6.83134e-08
2.01787e-07
5.19206e-07
1.19956e-06
2.52844e-06
4.90032e-06
8.7699e-06
1.45569e-05
2.25628e-05
3.29603e-05
4.5478e-05
5.99362e-05
7.73185e-05
9.81466e-05
0.000122832
0.000151882
0.000185822
0.000225234
0.000270491
0.000320903
0.000376467
0.000439256
0.000510096
0.000589766
0.000678651
0.000774291
0.000833153
0.000270485
2.68013e-11
4.64e-11
5.12206e-10
3.94801e-09
1.89767e-08
6.7979e-08
2.00724e-07
5.16294e-07
1.19249e-06
2.51304e-06
4.8698e-06
8.71478e-06
1.44666e-05
2.2427e-05
3.27677e-05
4.52444e-05
5.96245e-05
7.69098e-05
9.76085e-05
0.000122147
0.000151007
0.000184729
0.00022386
0.000268807
0.000318893
0.000374004
0.000436177
0.000506258
0.000585128
0.000673549
0.000771632
0.000875207
0.000927507
0.000283754
2.67382e-11
4.62696e-11
5.10476e-10
3.93321e-09
1.88986e-08
6.76731e-08
1.99749e-07
5.13616e-07
1.18599e-06
2.49889e-06
4.84207e-06
8.66516e-06
1.43851e-05
2.23039e-05
3.25941e-05
4.50302e-05
5.93431e-05
7.65367e-05
9.71261e-05
0.000121524
0.000150219
0.000183727
0.000222618
0.000267276
0.0003171
0.000371793
0.000433484
0.000502916
0.000581003
0.000668671
0.000766624
0.000874545
0.000985875
0.00102708
0.000278664
2.66789e-11
4.61476e-11
5.08891e-10
3.91979e-09
1.88276e-08
6.73948e-08
1.98857e-07
5.1116e-07
1.18001e-06
2.4859e-06
4.81657e-06
8.62003e-06
1.43117e-05
2.21927e-05
3.24366e-05
4.48382e-05
5.90879e-05
7.62003e-05
9.66856e-05
0.000120962
0.000149501
0.000182827
0.000221485
0.000265893
0.000315477
0.00036982
0.000431063
0.000499987
0.000577398
0.000664275
0.000761569
0.000869869
0.000988226
0.00110678
0.00113085
0.000266406
2.66192e-11
4.60335e-11
5.07411e-10
3.90751e-09
1.87633e-08
6.71421e-08
1.98045e-07
5.08913e-07
1.17453e-06
2.47394e-06
4.79315e-06
8.57849e-06
1.42447e-05
2.20923e-05
3.22939e-05
4.46626e-05
5.8857e-05
7.58953e-05
9.62883e-05
0.000120451
0.000148853
0.000182007
0.000220465
0.000264637
0.000314015
0.000368034
0.000428899
0.000497346
0.000574228
0.000660411
0.000756932
0.000864736
0.000984225
0.00111354
0.00123832
0.0012343
0.000247068
2.65705e-11
4.59175e-11
5.06029e-10
3.89604e-09
1.87044e-08
6.69131e-08
1.97308e-07
5.06868e-07
1.16951e-06
2.46296e-06
4.77157e-06
8.54031e-06
1.41831e-05
2.20007e-05
3.21649e-05
4.45051e-05
5.86457e-05
7.56176e-05
9.59258e-05
0.000119988
0.000148264
0.000181268
0.000219537
0.000263504
0.000312694
0.000366428
0.000426943
0.000494984
0.000571361
0.000656999
0.000752819
0.000859904
0.000979159
0.00111069
0.00125133
0.00138068
0.00133257
0.000221181
2.66791e-11
4.58246e-11
5.04614e-10
3.88533e-09
1.86494e-08
6.67035e-08
1.96639e-07
5.05009e-07
1.16494e-06
2.45289e-06
4.75175e-06
8.50512e-06
1.41263e-05
2.19161e-05
3.20472e-05
4.43605e-05
5.84547e-05
7.53647e-05
9.55968e-05
0.000119565
0.00014773
0.000180592
0.000218699
0.00026247
0.000311498
0.000364978
0.000425185
0.000492849
0.000568793
0.000653902
0.00074917
0.000855568
0.000974202
0.0011059
0.0012503
0.00140243
0.00153383
0.00142551
0.000189813
4.36976e-11
4.57851e-11
5.03497e-10
3.87436e-09
1.85981e-08
6.65076e-08
1.96027e-07
5.03323e-07
1.16078e-06
2.44372e-06
4.73357e-06
8.47277e-06
1.4074e-05
2.18382e-05
3.19384e-05
4.42296e-05
5.82818e-05
7.51343e-05
9.52971e-05
0.000119181
0.000147242
0.000179982
0.000217932
0.000261537
0.000310408
0.000363667
0.0004236
0.000490931
0.000566471
0.000651121
0.000745845
0.000851695
0.000969687
0.00110093
0.00124609
0.00140414
0.00156761
0.00169742
0.00151118
0.000154652
2.82249e-11
1.93439e-10
5.00704e-10
3.86572e-09
1.85456e-08
6.6325e-08
1.95454e-07
5.01776e-07
1.15701e-06
2.43538e-06
4.71692e-06
8.44304e-06
1.40259e-05
2.17665e-05
3.18383e-05
4.41075e-05
5.81234e-05
7.49264e-05
9.5024e-05
0.000118832
0.000146797
0.000179423
0.000217241
0.000260683
0.000309422
0.000362472
0.000422168
0.000489203
0.000564385
0.000648607
0.000742849
0.000848149
0.000965617
0.0010963
0.00124126
0.00140091
0.00157329
0.0017475
0.00187064
0.00158658
0.000118158
2.86955e-11
5.81279e-11
2.93104e-09
3.84276e-09
1.85041e-08
6.61378e-08
1.94921e-07
5.00331e-07
1.15355e-06
2.4278e-06
4.70177e-06
8.41578e-06
1.39816e-05
2.17004e-05
3.17461e-05
4.39957e-05
5.79757e-05
7.47349e-05
9.47761e-05
0.000118513
0.000146393
0.000178913
0.000216606
0.000259912
0.00030852
0.000361391
0.000420862
0.000487645
0.000562508
0.000646347
0.000740137
0.000844941
0.000961864
0.00109207
0.0012366
0.00139645
0.00157162
0.00175881
0.00194256
0.00205212
0.00164807
8.33676e-05
3.41013e-11
6.27437e-11
7.17853e-10
2.19782e-08
1.83929e-08
6.59903e-08
1.94374e-07
4.98984e-07
1.15031e-06
2.42083e-06
4.68802e-06
8.39091e-06
1.39409e-05
2.16396e-05
3.16609e-05
4.38926e-05
5.78408e-05
7.45586e-05
9.45484e-05
0.000118222
0.000146025
0.000178448
0.000216026
0.000259202
0.0003077
0.000360401
0.000419681
0.000486223
0.000560817
0.000644316
0.000737699
0.000842028
0.000958451
0.00108813
0.00123228
0.00139191
0.00156784
0.0017595
0.00196174
0.00215297
0.00223978
0.001692
5.34769e-05
3.09561e-11
1.01519e-10
8.15574e-10
5.60126e-09
1.01909e-07
6.55905e-08
1.93943e-07
4.97603e-07
1.14729e-06
2.41432e-06
4.67537e-06
8.36826e-06
1.39039e-05
2.15835e-05
3.15822e-05
4.37974e-05
5.77158e-05
7.43958e-05
9.43392e-05
0.000117955
0.000145687
0.000178026
0.000215496
0.000258552
0.000306944
0.0003595
0.000418598
0.000484936
0.000559275
0.000642488
0.000735508
0.000839407
0.000955342
0.00108453
0.0012282
0.00138759
0.00156361
0.00175683
0.00196583
0.00218296
0.00237852
0.00243065
0.00171524
3.09712e-05
2.73666e-11
8.21128e-11
1.55864e-09
6.44946e-09
2.67553e-08
3.53997e-07
1.92758e-07
4.96517e-07
1.14418e-06
2.40823e-06
4.66351e-06
8.34742e-06
1.387e-05
2.15325e-05
3.15098e-05
4.37089e-05
5.76007e-05
7.42452e-05
9.41452e-05
0.00011771
0.000145378
0.000177638
0.000215015
0.000257959
0.000306252
0.00035867
0.000417612
0.000483756
0.000557877
0.000640821
0.00073354
0.000837054
0.000952539
0.00108123
0.00122444
0.00138343
0.00155941
0.00175317
0.00196486
0.00219189
0.00242318
0.00261846
0.0026207
0.00171587
1.65711e-05
2.67508e-11
5.88636e-11
1.17385e-09
1.24106e-08
3.12633e-08
9.44966e-08
1.01655e-06
4.93455e-07
1.14173e-06
2.40193e-06
4.65244e-06
8.32789e-06
1.38387e-05
2.14857e-05
3.14436e-05
4.36277e-05
5.74938e-05
7.41064e-05
9.39662e-05
0.000117482
0.000145092
0.000177282
0.000214573
0.000257417
0.000305617
0.000357908
0.000416702
0.000482681
0.000556597
0.000639309
0.000731745
0.000834944
0.000950025
0.00107825
0.00122097
0.00137954
0.00155527
0.00174928
0.00196215
0.00219342
0.00243886
0.00268284
0.00287134
0.0028046
0.00169427
8.84543e-06
2.61885e-11
5.59675e-11
7.31082e-10
9.17039e-09
6.00761e-08
1.12011e-07
2.75484e-07
2.54243e-06
1.13465e-06
2.39699e-06
4.64101e-06
8.30962e-06
1.38093e-05
2.14421e-05
3.13829e-05
4.35532e-05
5.73955e-05
7.39779e-05
9.38005e-05
0.000117273
0.000144828
0.000176954
0.000214167
0.00025692
0.000305036
0.000357208
0.000415867
0.000481688
0.000555429
0.000637923
0.000730114
0.000833021
0.000947773
0.00107558
0.00121783
0.00137594
0.00155132
0.00174527
0.00195882
0.00219216
0.00244398
0.0027078
0.00296193
0.00313483
0.00295572
0.00165568
5.27301e-06
2.60828e-11
4.55184e-11
6.74877e-10
5.59241e-09
4.38207e-08
2.15235e-07
3.27908e-07
6.99281e-07
5.67765e-06
2.38213e-06
4.63211e-06
8.29079e-06
1.37818e-05
2.14012e-05
3.13261e-05
4.34843e-05
5.73045e-05
7.3859e-05
9.36477e-05
0.000117078
0.000144584
0.00017665
0.000213793
0.000256463
0.000304502
0.000356568
0.000415099
0.000480775
0.000554348
0.000636659
0.00072862
0.000831269
0.000945719
0.00107319
0.00121501
0.00137266
0.00154762
0.00174136
0.00195513
0.00218973
0.00244484
0.00271794
0.00299951
0.00325991
0.00340544
0.00306
0.00161397
3.8172e-06
2.60439e-11
4.47922e-11
4.95481e-10
5.10854e-09
2.6417e-08
1.55461e-07
6.32575e-07
8.26403e-07
1.5897e-06
1.14075e-05
4.60372e-06
8.27623e-06
1.37534e-05
2.13628e-05
3.12726e-05
4.34199e-05
5.72206e-05
7.37487e-05
9.35055e-05
0.000116899
0.000144358
0.000176369
0.000213445
0.000256041
0.000304012
0.000355979
0.000414395
0.000479934
0.000553355
0.000635487
0.000727256
0.000829666
0.000943849
0.00107101
0.0012125
0.00136971
0.00154423
0.00173764
0.00195138
0.0021866
0.00244378
0.00272185
0.0030166
0.00331445
0.00357541
0.0036783
0.00312553
0.00158384
3.30878e-06
2.60173e-11
4.46848e-11
4.86397e-10
3.7769e-09
2.39395e-08
9.27573e-08
4.53608e-07
1.61051e-06
1.84637e-06
3.28481e-06
2.06269e-05
8.2269e-06
1.37315e-05
2.13232e-05
3.12223e-05
4.3359e-05
5.71421e-05
7.36472e-05
9.33742e-05
0.000116731
0.00014415
0.000176109
0.000213124
0.000255648
0.000303557
0.000355437
0.000413747
0.000479162
0.000552437
0.00063441
0.000725992
0.000828202
0.000942137
0.00106903
0.0012102
0.00136708
0.00154118
0.00173419
0.00194773
0.00218319
0.00244155
0.00272278
0.00302477
0.00334102
0.00365255
0.00390607
0.00394689
0.00315617
0.0015025
3.15283e-06
2.59757e-11
4.46203e-11
4.83942e-10
3.70559e-09
1.79892e-08
8.34317e-08
2.67529e-07
1.14959e-06
3.64895e-06
3.73242e-06
6.21814e-06
3.36735e-05
1.36532e-05
2.12929e-05
3.11702e-05
4.33017e-05
5.70678e-05
7.35519e-05
9.3253e-05
0.000116578
0.000143955
0.000175868
0.000212827
0.000255287
0.000303135
0.000354934
0.000413149
0.000478452
0.000551595
0.000633412
0.000724827
0.000826844
0.000940573
0.00106721
0.0012081
0.00136467
0.00153846
0.00173108
0.0019443
0.00217975
0.00243873
0.00272189
0.00302853
0.00335506
0.00369193
0.00401305
0.00424823
0.00420272
0.00315068
0.00130138
3.1098e-06
2.59368e-11
4.45259e-11
4.8261e-10
3.68015e-09
1.76349e-08
6.39226e-08
2.38839e-07
6.68424e-07
2.60084e-06
7.42477e-06
6.91637e-06
1.08438e-05
5.02725e-05
2.1179e-05
3.1131e-05
4.32412e-05
5.69975e-05
7.3461e-05
9.31386e-05
0.000116435
0.000143776
0.000175644
0.000212553
0.000254951
0.000302746
0.000354467
0.000412595
0.000477797
0.00055082
0.000632497
0.000723747
0.00082559
0.000939119
0.00106555
0.00120618
0.00136248
0.00153597
0.0017283
0.00194118
0.00217645
0.00243568
0.00271999
0.00302958
0.00336276
0.00371398
0.00406954
0.00439419
0.00459655
0.00442315
0.00310362
0.0010671
3.09928e-06
2.59088e-11
4.44374e-11
4.80924e-10
3.66669e-09
1.74893e-08
6.26135e-08
1.87387e-07
5.93766e-07
1.49182e-06
5.30761e-06
1.35736e-05
1.18251e-05
1.7538e-05
6.98713e-05
3.09765e-05
4.31971e-05
5.69234e-05
7.33758e-05
9.30294e-05
0.0001163
0.00014361
0.000175438
0.000212297
0.000254642
0.000302385
0.000354038
0.00041208
0.000477188
0.000550102
0.000631653
0.000722758
0.000824425
0.000937776
0.001064
0.00120443
0.00136047
0.0015337
0.00172577
0.00193841
0.00217341
0.00243264
0.00271758
0.00302904
0.00336656
0.00372708
0.0041024
0.0044734
0.00479299
0.00494371
0.00455212
0.00300951
0.000814639
3.09787e-06
2.58853e-11
4.43751e-11
4.79302e-10
3.6506e-09
1.74132e-08
6.20298e-08
1.83436e-07
4.7896e-07
1.32744e-06
3.03283e-06
9.78588e-06
2.23611e-05
1.87893e-05
2.6547e-05
9.19522e-05
4.30164e-05
5.68697e-05
7.32858e-05
9.29269e-05
0.000116171
0.000143452
0.000175247
0.000212061
0.000254352
0.00030205
0.000353638
0.000411607
0.000476621
0.000549435
0.00063087
0.000721842
0.000823356
0.000936527
0.00106257
0.00120279
0.00135863
0.00153162
0.00172345
0.00193587
0.0021707
0.00242979
0.002715
0.00302762
0.00336798
0.00373468
0.00412285
0.00452071
0.00490205
0.0052048
0.00528005
0.00460481
0.00286987
0.000562699
3.09904e-06
2.58617e-11
4.43244e-11
4.78171e-10
3.63489e-09
1.73251e-08
6.17272e-08
1.8158e-07
4.68706e-07
1.10065e-06
2.71837e-06
5.68186e-06
1.63502e-05
3.36058e-05
2.80073e-05
3.80113e-05
0.000116144
5.66478e-05
7.32203e-05
9.28191e-05
0.000116049
0.000143301
0.000175063
0.000211842
0.000254085
0.000301735
0.000353267
0.000411165
0.000476101
0.000548815
0.000630144
0.000720992
0.000822369
0.000935376
0.00106124
0.00120128
0.00135691
0.00152971
0.00172132
0.00193353
0.00216822
0.00242726
0.00271252
0.00302577
0.003368
0.00373886
0.00413565
0.00455102
0.00496853
0.00535276
0.00562292
0.00559334
0.00459162
0.00270149
0.000338134
3.10077e-06
2.58408e-11
4.42743e-11
4.77329e-10
3.62398e-09
1.72384e-08
6.13828e-08
1.80624e-07
4.63717e-07
1.07715e-06
2.3116e-06
5.13949e-06
9.86357e-06
2.50384e-05
4.69282e-05
3.95797e-05
5.16095e-05
0.000142215
7.29484e-05
9.27397e-05
0.000115921
0.000143159
0.000174889
0.000211631
0.000253837
0.000301443
0.000352919
0.000410757
0.000475616
0.000548245
0.000629466
0.000720204
0.000821451
0.000934315
0.00106001
0.00119986
0.00135532
0.00152793
0.00171935
0.00193139
0.00216593
0.00242492
0.00271028
0.00302385
0.00336724
0.00374092
0.00414361
0.00457084
0.00501197
0.00544445
0.00582113
0.00603827
0.0058584
0.00451673
0.00253654
0.000168979
3.10246e-06
2.58239e-11
4.42298e-11
4.76542e-10
3.61617e-09
1.71783e-08
6.10425e-08
1.79552e-07
4.61168e-07
1.06541e-06
2.26332e-06
4.47318e-06
9.0095e-06
1.59502e-05
3.57711e-05
6.20762e-05
5.28348e-05
6.74409e-05
0.000170031
9.2418e-05
0.000115827
0.000143009
0.000174723
0.000211432
0.000253598
0.000301169
0.000352596
0.000410373
0.000475167
0.000547714
0.000628842
0.000719465
0.000820595
0.000933327
0.00105887
0.00119856
0.00135383
0.00152627
0.00171752
0.0019294
0.00216381
0.00242274
0.0027082
0.00302211
0.00336617
0.00374172
0.00414852
0.00458397
0.00504121
0.00550529
0.00594578
0.00630075
0.00643892
0.00599019
0.0043785
0.00237966
6.8706e-05
3.10374e-06
2.58118e-11
4.41947e-11
4.75853e-10
3.60903e-09
1.71363e-08
6.08068e-08
1.78483e-07
4.58316e-07
1.05946e-06
2.23878e-06
4.38379e-06
8.0103e-06
1.47095e-05
2.42028e-05
4.85577e-05
7.90193e-05
6.83939e-05
8.64264e-05
0.000199536
0.000115461
0.000142897
0.000174549
0.000211241
0.000253371
0.000300907
0.000352292
0.000410016
0.000474745
0.000547221
0.000628264
0.000718785
0.000819794
0.000932401
0.00105781
0.00119735
0.00135245
0.00152471
0.00171581
0.00192755
0.00216185
0.00242072
0.00270623
0.00302043
0.00336515
0.00374189
0.00415152
0.00459278
0.00506132
0.00554708
0.0060295
0.00646808
0.00678259
0.00680971
0.00600597
0.00416923
0.00202922
2.43963e-05
3.10454e-06
2.57908e-11
4.41676e-11
4.75335e-10
3.60291e-09
1.70984e-08
6.06449e-08
1.77747e-07
4.55487e-07
1.05283e-06
2.22641e-06
4.33781e-06
7.86061e-06
1.33283e-05
2.25142e-05
3.4779e-05
6.35446e-05
9.79164e-05
8.69986e-05
0.000109164
0.000230736
0.000142481
0.00017442
0.00021104
0.000253153
0.000300656
0.000352
0.00040968
0.000474352
0.00054676
0.000627728
0.000718159
0.000819056
0.000931536
0.00105682
0.00119622
0.00135117
0.00152327
0.0017142
0.00192582
0.00216002
0.00241884
0.0027044
0.0030188
0.00336408
0.0037419
0.00415344
0.00459883
0.00507546
0.00557655
0.00608789
0.00658167
0.00700471
0.00725449
0.00713191
0.00591652
0.00388574
0.0015601
9.06221e-06
3.1051e-06
2.52255e-11
4.41265e-11
4.74946e-10
3.59842e-09
1.70661e-08
6.05004e-08
1.77248e-07
4.53526e-07
1.04622e-06
2.21268e-06
4.31479e-06
7.78294e-06
1.30998e-05
2.07321e-05
3.25862e-05
4.77814e-05
8.09045e-05
0.000115765
0.000108958
0.000136113
0.000263718
0.000173934
0.000210891
0.000252924
0.000300415
0.000351721
0.000409357
0.000473983
0.000546331
0.000627223
0.000717575
0.000818379
0.00093074
0.00105589
0.00119515
0.00134998
0.00152193
0.00171271
0.00192418
0.00215829
0.00241707
0.00270268
0.00301727
0.00336298
0.00374173
0.00415493
0.0046032
0.00508569
0.00559787
0.0061298
0.00666186
0.00715697
0.00754618
0.00770068
0.00729649
0.00572667
0.00355928
0.00107286
4.52141e-06
3.10554e-06
1.51891e-11
4.34788e-11
4.74429e-10
3.59518e-09
1.7043e-08
6.03782e-08
1.76804e-07
4.5221e-07
1.04166e-06
2.19894e-06
4.28926e-06
7.74433e-06
1.29806e-05
2.041e-05
3.04042e-05
4.48863e-05
6.25347e-05
9.96348e-05
0.000137227
0.000134815
0.000167769
0.000298673
0.000210309
0.000252754
0.000300161
0.000351453
0.000409047
0.000473627
0.000545926
0.000626754
0.000717025
0.000817745
0.00093001
0.00105503
0.00119416
0.00134885
0.00152067
0.00171132
0.00192265
0.00215665
0.0024154
0.00270104
0.0030158
0.00336189
0.00374139
0.00415603
0.00460675
0.00509341
0.00561375
0.00616071
0.00672016
0.00726554
0.00774807
0.00807968
0.00810139
0.00730175
0.00544093
0.00326845
0.000629754
3.30873e-06
3.10587e-06
2.41884e-13
3.00885e-11
4.70732e-10
3.59108e-09
1.70269e-08
6.02914e-08
1.7643e-07
4.5105e-07
1.03862e-06
2.18947e-06
4.26362e-06
7.70154e-06
1.29219e-05
2.02415e-05
2.99768e-05
4.24021e-05
5.88748e-05
8.00527e-05
0.000120434
0.000163456
0.000165014
0.000204458
0.000334918
0.000252048
0.000299979
0.000351169
0.000408749
0.000473284
0.000545537
0.000626313
0.000716516
0.00081715
0.000929327
0.00105425
0.00119324
0.00134779
0.00151947
0.00171001
0.00192122
0.00215511
0.00241379
0.00269948
0.00301439
0.00336083
0.00374098
0.00415677
0.00460961
0.00509978
0.00562602
0.00618417
0.00676377
0.00734531
0.00789336
0.00834466
0.00858837
0.00841694
0.00716351
0.00506989
0.00300423
0.000298983
3.01241e-06
3.10612e-06
2.02161e-12
5.15484e-12
3.65502e-10
3.56497e-09
1.70069e-08
6.02323e-08
1.76168e-07
4.50077e-07
1.03596e-06
2.18322e-06
4.24594e-06
7.6583e-06
1.28564e-05
2.01591e-05
2.97538e-05
4.18841e-05
5.59154e-05
7.56117e-05
0.000100219
0.000145672
0.000194394
0.00020008
0.00024528
0.000370353
0.00029913
0.000350965
0.000408433
0.000472955
0.000545159
0.000625888
0.000716037
0.000816602
0.000928685
0.00105351
0.0011924
0.00134681
0.00151836
0.00170876
0.00191987
0.00215366
0.00241228
0.00269796
0.00301303
0.00335977
0.00374051
0.00415732
0.00461187
0.00510505
0.00563621
0.00620254
0.00679729
0.00740559
0.00800103
0.00853699
0.00893266
0.0090509
0.00852416
0.00688681
0.00463443
0.00232754
0.000110671
2.94641e-06
3.10636e-06
2.45499e-12
1.36004e-10
1.03615e-10
2.79077e-09
1.68845e-08
6.01615e-08
1.75994e-07
4.49399e-07
1.03372e-06
2.17775e-06
4.23439e-06
7.62852e-06
1.27906e-05
2.00673e-05
2.96459e-05
4.16195e-05
5.52694e-05
7.2085e-05
9.53678e-05
0.000124255
0.000175734
0.000230053
0.000240433
0.000290393
0.000412741
0.000349992
0.000408206
0.000472605
0.000544794
0.000625475
0.000715573
0.000816082
0.000928095
0.00105283
0.00119162
0.00134592
0.00151732
0.00170758
0.00191858
0.00215229
0.00241084
0.00269651
0.00301167
0.00335872
0.00373997
0.00415769
0.00461373
0.00510937
0.00564472
0.00621784
0.00682378
0.00745237
0.00808307
0.00868065
0.00918473
0.00949355
0.00944075
0.00844296
0.00647785
0.00419237
0.00160394
3.45926e-05
2.93328e-06
3.10655e-06
2.83487e-12
9.19009e-11
3.39454e-09
8.09071e-10
1.32302e-08
5.97326e-08
1.75786e-07
4.48956e-07
1.03216e-06
2.17316e-06
4.22425e-06
7.60935e-06
1.27449e-05
1.99749e-05
2.95257e-05
4.14852e-05
5.4942e-05
7.12808e-05
9.14271e-05
0.000118597
0.000152708
0.000210801
0.000270685
0.000286018
0.00034125
0.000464346
0.000407088
0.000472353
0.000544409
0.000625074
0.000715123
0.000815579
0.000927534
0.00105219
0.00119088
0.00134509
0.00151638
0.0017065
0.00191736
0.00215097
0.00240947
0.00269513
0.00301036
0.00335763
0.00373939
0.0041579
0.00461528
0.00511304
0.00565183
0.00623067
0.00684585
0.0074896
0.00814723
0.00879092
0.00937445
0.0098207
0.0100035
0.009629
0.00818269
0.0059574
0.00380224
0.000930597
1.09895e-05
2.93121e-06
3.10671e-06
3.13727e-12
9.32226e-11
1.88364e-09
3.02763e-08
3.83546e-09
4.68605e-08
1.74563e-07
4.48436e-07
1.03117e-06
2.16997e-06
4.21581e-06
7.5924e-06
1.27159e-05
1.99108e-05
2.9404e-05
4.13346e-05
5.47834e-05
7.08734e-05
9.04278e-05
0.000114322
0.00014599
0.000186004
0.000251122
0.000316649
0.000335391
0.000398425
0.000525393
0.000471069
0.00054413
0.00062465
0.000714688
0.000815091
0.000926993
0.00105159
0.00119021
0.00134431
0.0015155
0.00170551
0.00191623
0.00214972
0.00240815
0.00269381
0.00300911
0.00335655
0.00373869
0.00415797
0.00461651
0.00511617
0.00565793
0.00624152
0.00686444
0.00752064
0.00819854
0.00887768
0.00952103
0.0100688
0.0104239
0.0104329
0.00958747
0.00774739
0.00536977
0.00313263
0.000424362
4.71838e-06
2.9313e-06
3.10683e-06
3.42514e-12
1.0239e-10
1.89411e-09
1.54887e-08
1.51668e-07
1.36053e-08
1.37332e-07
4.45452e-07
1.03002e-06
2.16797e-06
4.21001e-06
7.57834e-06
1.26904e-05
1.98707e-05
2.93202e-05
4.11828e-05
5.46157e-05
7.0688e-05
8.99364e-05
0.000113113
0.00014122
0.000178001
0.00022456
0.000296629
0.000368109
0.00039069
0.000462554
0.000595542
0.000542657
0.000624342
0.000714224
0.000814619
0.000926467
0.00105101
0.00118957
0.0013436
0.00151468
0.00170459
0.0019152
0.00214855
0.00240688
0.00269251
0.00300788
0.00335549
0.00373797
0.00415785
0.0046175
0.00511882
0.00566321
0.00625086
0.00688024
0.00754682
0.00824134
0.00894735
0.00963699
0.0102618
0.0107453
0.0109673
0.0106563
0.00932986
0.00715491
0.00481238
0.00219041
0.000146417
3.21593e-06
2.93184e-06
3.10692e-06
3.65656e-12
1.23441e-10
2.08069e-09
1.51632e-08
8.15498e-08
5.38114e-07
4.01769e-08
3.52393e-07
1.02368e-06
2.16569e-06
4.20636e-06
7.56874e-06
1.26691e-05
1.9835e-05
2.92681e-05
4.10779e-05
5.44452e-05
7.04874e-05
8.9715e-05
0.000112524
0.00013976
0.000172599
0.000215118
0.000268359
0.000345828
0.000424035
0.000452719
0.000534332
0.000673806
0.000622653
0.000713884
0.000814113
0.000925956
0.00105045
0.00118895
0.00134292
0.00151393
0.00170374
0.00191425
0.00214749
0.0024057
0.00269127
0.00300666
0.00335444
0.00373721
0.00415763
0.00461819
0.00512106
0.00566775
0.00625899
0.00689388
0.00756912
0.00827747
0.00900548
0.00973044
0.0104152
0.0109968
0.0113795
0.0114176
0.0106207
0.00886002
0.00645718
0.00432996
0.00128794
4.12222e-05
2.88679e-06
2.93251e-06
3.10699e-06
3.91653e-12
1.46049e-10
2.52009e-09
1.66469e-08
7.77076e-08
3.16869e-07
1.53168e-06
1.04731e-07
8.17497e-07
2.15388e-06
4.20223e-06
7.56278e-06
1.26546e-05
1.98052e-05
2.92214e-05
4.10129e-05
5.43254e-05
7.02879e-05
8.94705e-05
0.00011227
0.000139073
0.00017084
0.000208975
0.000257643
0.0003158
0.000400535
0.00048544
0.000522188
0.00061452
0.000759199
0.000711946
0.000813739
0.000925405
0.0010499
0.00118835
0.00134227
0.00151322
0.00170295
0.00191337
0.00214652
0.00240463
0.0026901
0.00300548
0.00335336
0.00373642
0.00415732
0.00461867
0.00512284
0.00567167
0.00626606
0.00690579
0.00758843
0.00830831
0.0090546
0.00980845
0.0105392
0.0111979
0.0117044
0.0119408
0.0116263
0.0103368
0.0081918
0.00574741
0.00336134
0.000587975
1.1624e-05
2.82062e-06
2.93323e-06
3.10703e-06
4.19491e-12
1.62969e-10
3.01097e-09
2.03216e-08
8.49603e-08
3.0083e-07
9.93989e-07
3.72719e-06
2.49709e-07
1.74499e-06
4.1831e-06
7.55606e-06
1.26457e-05
1.97852e-05
2.91823e-05
4.09548e-05
5.42577e-05
7.01458e-05
8.92305e-05
0.000111991
0.00013876
0.000170032
0.000206868
0.000250804
0.000304835
0.000369
0.00046177
0.000553876
0.000599884
0.000703938
0.00085422
0.000811523
0.000924998
0.0010493
0.00118776
0.00134162
0.00151254
0.00170222
0.00191256
0.00214562
0.00240365
0.00268905
0.00300437
0.0033523
0.00373557
0.00415692
0.00461898
0.00512429
0.00567493
0.00627222
0.00691621
0.0076053
0.00833504
0.00909659
0.00987443
0.0106429
0.011361
0.0119655
0.0123563
0.0123893
0.0115535
0.00980515
0.00737766
0.00510373
0.00220539
0.000195906
4.57938e-06
2.80846e-06
2.93395e-06
3.10706e-06
4.45851e-12
1.79863e-10
3.37533e-09
2.48918e-08
1.06054e-07
3.28454e-07
9.50695e-07
2.65593e-06
8.01008e-06
5.56592e-07
3.4569e-06
7.52956e-06
1.26358e-05
1.9773e-05
2.91563e-05
4.09063e-05
5.41911e-05
7.00507e-05
8.90604e-05