/*--------------------------------*- C++ -*----------------------------------*\
| =========                 |                                                 |
| \\      /  F ield         | OpenFOAM: The Open Source CFD Toolbox           |
|  \\    /   O peration     | Version:  v2012                                 |
|   \\  /    A nd           | Website:  www.openfoam.com                      |
|    \\/     M anipulation  |                                                 |
\*---------------------------------------------------------------------------*/
FoamFile
{
    version     2.0;
    format      ascii;
    class       volScalarField;
    location    "13380";
    object      omega;
}
// * * * * * * * * * * * * * * * * * * * * * * * * * * * * * * * * * * * * * //

dimensions      [0 0 -1 0 0 0 0];


internalField   nonuniform List<scalar> 
31383
(
1.835e+10
1.83771e+10
3.00975e+09
1.83974e+10
3.13256e+09
1.01907e+09
1.84049e+10
3.13608e+09
1.04675e+09
4.75488e+08
1.8407e+10
3.13747e+09
1.04794e+09
4.85543e+08
2.64342e+08
1.84107e+10
3.13792e+09
1.04843e+09
4.8607e+08
2.69757e+08
1.63348e+08
1.84161e+10
3.13865e+09
1.04861e+09
4.86291e+08
2.69992e+08
1.67559e+08
1.0814e+08
1.84194e+10
3.13965e+09
1.04888e+09
4.86372e+08
2.70078e+08
1.67618e+08
1.12385e+08
7.50925e+07
1.84197e+10
3.14028e+09
1.04924e+09
4.86497e+08
2.70098e+08
1.67614e+08
1.12315e+08
7.99081e+07
5.40008e+07
1.84214e+10
3.1404e+09
1.04948e+09
4.86666e+08
2.70149e+08
1.67584e+08
1.12236e+08
7.97322e+07
5.9599e+07
3.99071e+07
1.84274e+10
3.14076e+09
1.04954e+09
4.86777e+08
2.70228e+08
1.67583e+08
1.12161e+08
7.95891e+07
5.93388e+07
4.62726e+07
3.01742e+07
1.8438e+10
3.14184e+09
1.04968e+09
4.86807e+08
2.70277e+08
1.67604e+08
1.12115e+08
7.94706e+07
5.91431e+07
4.59565e+07
3.71173e+07
2.32862e+07
1.84522e+10
3.1437e+09
1.05006e+09
4.86873e+08
2.70284e+08
1.67611e+08
1.12092e+08
7.93852e+07
5.89875e+07
4.57259e+07
3.6777e+07
3.05157e+07
1.83093e+07
1.84685e+10
3.14615e+09
1.0507e+09
4.87051e+08
2.70312e+08
1.67597e+08
1.12066e+08
7.9325e+07
5.88688e+07
4.55441e+07
3.65316e+07
3.01775e+07
2.55141e+07
1.46607e+07
1.84834e+10
3.14898e+09
1.05153e+09
4.87348e+08
2.70403e+08
1.67598e+08
1.1203e+08
7.92684e+07
5.87785e+07
4.54021e+07
3.63382e+07
2.99356e+07
2.51956e+07
2.15606e+07
1.19321e+07
1.84965e+10
3.15157e+09
1.05249e+09
4.87736e+08
2.7056e+08
1.67639e+08
1.12008e+08
7.92115e+07
5.86961e+07
4.52912e+07
3.61847e+07
2.97452e+07
2.49711e+07
2.1269e+07
1.83379e+07
9.83009e+06
1.85081e+10
3.15383e+09
1.05336e+09
4.88181e+08
2.70769e+08
1.67723e+08
1.12014e+08
7.91683e+07
5.86207e+07
4.51895e+07
3.60624e+07
2.95923e+07
2.47946e+07
2.10691e+07
1.80751e+07
1.5654e+07
8.21437e+06
1.85173e+10
3.15583e+09
1.05413e+09
4.88588e+08
2.71009e+08
1.67839e+08
1.12052e+08
7.91479e+07
5.85597e+07
4.50998e+07
3.59511e+07
2.9468e+07
2.46514e+07
2.09117e+07
1.79022e+07
1.54189e+07
1.33842e+07
6.98562e+06
1.85243e+10
3.15743e+09
1.05481e+09
4.88945e+08
2.7123e+08
1.67977e+08
1.12112e+08
7.91518e+07
5.85176e+07
4.50257e+07
3.58538e+07
2.93575e+07
2.45343e+07
2.07834e+07
1.77662e+07
1.52721e+07
1.31752e+07
1.14499e+07
6.05872e+06
1.85296e+10
3.15866e+09
1.05535e+09
4.8926e+08
2.71424e+08
1.68103e+08
1.12187e+08
7.91722e+07
5.84969e+07
4.49673e+07
3.57732e+07
2.92599e+07
2.44312e+07
2.06786e+07
1.7655e+07
1.5157e+07
1.30516e+07
1.1264e+07
9.79877e+06
5.33995e+06
1.85331e+10
3.15957e+09
1.05577e+09
4.89514e+08
2.71594e+08
1.68213e+08
1.12256e+08
7.92055e+07
5.84883e+07
4.49281e+07
3.57051e+07
2.91786e+07
2.43395e+07
2.05871e+07
1.75637e+07
1.50627e+07
1.29549e+07
1.11606e+07
9.63224e+06
8.39094e+06
4.76513e+06
1.85354e+10
3.1602e+09
1.05608e+09
4.89708e+08
2.71731e+08
1.6831e+08
1.12317e+08
7.92366e+07
5.84914e+07
4.48988e+07
3.56541e+07
2.91081e+07
2.42624e+07
2.05049e+07
1.74844e+07
1.49845e+07
1.28759e+07
1.10799e+07
9.54534e+06
8.24032e+06
7.19328e+06
4.28954e+06
1.85366e+10
3.16061e+09
1.0563e+09
4.89855e+08
2.71836e+08
1.68388e+08
1.12369e+08
7.92635e+07
5.84949e+07
4.48805e+07
3.56129e+07
2.90523e+07
2.41957e+07
2.04354e+07
1.74125e+07
1.49167e+07
1.28102e+07
1.10143e+07
9.47797e+06
8.16669e+06
7.05586e+06
6.17678e+06
3.88325e+06
1.85371e+10
3.16083e+09
1.05644e+09
4.89957e+08
2.71914e+08
1.68446e+08
1.1241e+08
7.92862e+07
5.84977e+07
4.48644e+07
3.5581e+07
2.90063e+07
2.41408e+07
2.03758e+07
1.73516e+07
1.48551e+07
1.27533e+07
1.09595e+07
9.42359e+06
8.11018e+06
6.9927e+06
6.05072e+06
5.3155e+06
3.52656e+06
1.85371e+10
3.16093e+09
1.05652e+09
4.90024e+08
2.71968e+08
1.68488e+08
1.1244e+08
7.93025e+07
5.84983e+07
4.48505e+07
3.55526e+07
2.89679e+07
2.40951e+07
2.03253e+07
1.73e+07
1.4803e+07
1.27017e+07
1.09121e+07
9.37806e+06
8.06486e+06
6.9449e+06
5.99575e+06
5.20009e+06
4.58633e+06
3.20869e+06
1.85371e+10
3.16094e+09
1.05656e+09
4.90063e+08
2.72003e+08
1.68516e+08
1.1246e+08
7.93117e+07
5.84964e+07
4.48354e+07
3.55276e+07
2.89335e+07
2.40558e+07
2.02832e+07
1.72555e+07
1.47592e+07
1.26577e+07
1.08691e+07
9.33876e+06
8.02692e+06
6.9068e+06
5.95487e+06
5.15153e+06
4.48169e+06
3.96912e+06
2.92684e+06
1.8537e+10
3.16095e+09
1.05657e+09
4.9008e+08
2.72022e+08
1.68533e+08
1.12471e+08
7.93158e+07
5.84906e+07
4.48205e+07
3.55025e+07
2.89026e+07
2.40205e+07
2.02465e+07
1.72183e+07
1.47213e+07
1.2621e+07
1.08321e+07
9.30324e+06
7.99419e+06
6.87494e+06
5.92242e+06
5.11607e+06
4.43815e+06
3.87418e+06
3.4462e+06
2.67748e+06
1.85369e+10
3.16096e+09
1.05658e+09
4.90086e+08
2.7203e+08
1.68541e+08
1.12476e+08
7.93146e+07
5.84824e+07
4.48036e+07
3.54796e+07
2.8873e+07
2.39884e+07
2.02134e+07
1.71857e+07
1.46894e+07
1.25892e+07
1.08014e+07
9.27236e+06
7.96474e+06
6.84742e+06
5.89534e+06
5.08802e+06
4.40699e+06
3.83475e+06
3.35846e+06
3.00175e+06
2.45489e+06
1.85362e+10
3.16094e+09
1.05658e+09
4.9009e+08
2.72032e+08
1.68542e+08
1.12475e+08
7.93098e+07
5.84714e+07
4.47864e+07
3.54557e+07
2.8846e+07
2.39583e+07
2.01831e+07
1.71563e+07
1.46615e+07
1.25626e+07
1.0775e+07
9.24676e+06
7.93897e+06
6.82276e+06
5.87198e+06
5.06466e+06
4.3824e+06
3.80717e+06
3.32245e+06
2.91908e+06
2.62261e+06
2.2566e+06
1.85349e+10
3.16083e+09
1.05658e+09
4.90094e+08
2.72032e+08
1.6854e+08
1.12471e+08
7.93022e+07
5.8459e+07
4.47682e+07
3.54329e+07
2.88189e+07
2.39304e+07
2.01551e+07
1.71292e+07
1.46363e+07
1.25392e+07
1.0753e+07
9.22483e+06
7.91758e+06
6.80112e+06
5.85107e+06
5.04457e+06
4.36197e+06
3.78549e+06
3.29789e+06
2.88582e+06
2.54352e+06
2.29828e+06
2.07846e+06
1.8533e+10
3.16062e+09
1.05655e+09
4.90093e+08
2.72033e+08
1.68537e+08
1.12465e+08
7.92926e+07
5.84454e+07
4.47499e+07
3.541e+07
2.87936e+07
2.39033e+07
2.01288e+07
1.71042e+07
1.46129e+07
1.25182e+07
1.07337e+07
9.2066e+06
7.89935e+06
6.78316e+06
5.83271e+06
5.0266e+06
4.34444e+06
3.76751e+06
3.27873e+06
2.86381e+06
2.51247e+06
2.22153e+06
2.02008e+06
1.91162e+06
1.85302e+10
3.16031e+09
1.05648e+09
4.90079e+08
2.72031e+08
1.68535e+08
1.12459e+08
7.92824e+07
5.84311e+07
4.47316e+07
3.5388e+07
2.87688e+07
2.38781e+07
2.01035e+07
1.70807e+07
1.45915e+07
1.24986e+07
1.07163e+07
9.19066e+06
7.88418e+06
6.76786e+06
5.81748e+06
5.01084e+06
4.32881e+06
3.75214e+06
3.26288e+06
2.84679e+06
2.4926e+06
2.19222e+06
1.94468e+06
1.7809e+06
1.74305e+06
1.85266e+10
3.15985e+09
1.05638e+09
4.90049e+08
2.72023e+08
1.68532e+08
1.12453e+08
7.92726e+07
5.84171e+07
4.47136e+07
3.53669e+07
2.87454e+07
2.38537e+07
2.00801e+07
1.70582e+07
1.45712e+07
1.24807e+07
1.07002e+07
9.17622e+06
7.87103e+06
6.75515e+06
5.80451e+06
4.99774e+06
4.3151e+06
3.73846e+06
3.24936e+06
2.83275e+06
2.4774e+06
2.17414e+06
1.91672e+06
1.70604e+06
1.57487e+06
1.57273e+06
1.85225e+10
3.15924e+09
1.05623e+09
4.90001e+08
2.72005e+08
1.68524e+08
1.12447e+08
7.92638e+07
5.84039e+07
4.46964e+07
3.53465e+07
2.87232e+07
2.38308e+07
2.00577e+07
1.70374e+07
1.45518e+07
1.24636e+07
1.06853e+07
9.16282e+06
7.85904e+06
6.7442e+06
5.79373e+06
4.98658e+06
4.30368e+06
3.72646e+06
3.23737e+06
2.82081e+06
2.46493e+06
2.16051e+06
1.90013e+06
1.67907e+06
1.49987e+06
1.3972e+06
1.42003e+06
1.85182e+10
3.15855e+09
1.05603e+09
4.89932e+08
2.71978e+08
1.68511e+08
1.12438e+08
7.9255e+07
5.83919e+07
4.46805e+07
3.53275e+07
2.87022e+07
2.38092e+07
2.00366e+07
1.70175e+07
1.45339e+07
1.24474e+07
1.06711e+07
9.15053e+06
7.8479e+06
6.73418e+06
5.78447e+06
4.97731e+06
4.29394e+06
3.71646e+06
3.22684e+06
2.81026e+06
2.45435e+06
2.14939e+06
1.88784e+06
1.66372e+06
1.47358e+06
1.3214e+06
1.24394e+06
1.28997e+06
1.85136e+10
3.15781e+09
1.0558e+09
4.8984e+08
2.71939e+08
1.68492e+08
1.12427e+08
7.92448e+07
5.83803e+07
4.46658e+07
3.53098e+07
2.86826e+07
2.37889e+07
2.00167e+07
1.69988e+07
1.45167e+07
1.24322e+07
1.06578e+07
9.13874e+06
7.83772e+06
6.72483e+06
5.77598e+06
4.96934e+06
4.28582e+06
3.70789e+06
3.21805e+06
2.801e+06
2.44504e+06
2.14e+06
1.87789e+06
1.65256e+06
1.45923e+06
1.29551e+06
1.16664e+06
1.11186e+06
1.18029e+06
1.85092e+10
3.15704e+09
1.05556e+09
4.89734e+08
2.71888e+08
1.68466e+08
1.12411e+08
7.92327e+07
5.83681e+07
4.4652e+07
3.52936e+07
2.86644e+07
2.37701e+07
1.99981e+07
1.69811e+07
1.45006e+07
1.24178e+07
1.06451e+07
9.12763e+06
7.8279e+06
6.71632e+06
5.76805e+06
4.96202e+06
4.27883e+06
3.70074e+06
3.21051e+06
2.79325e+06
2.43687e+06
2.13176e+06
1.86953e+06
1.64362e+06
1.44904e+06
1.28196e+06
1.14089e+06
1.03225e+06
998073
1.088e+06
1.85066e+10
3.15629e+09
1.0553e+09
4.89621e+08
2.71828e+08
1.68433e+08
1.12392e+08
7.92186e+07
5.8355e+07
4.4638e+07
3.52783e+07
2.86478e+07
2.37526e+07
1.99809e+07
1.69648e+07
1.44854e+07
1.24042e+07
1.0633e+07
9.11707e+06
7.81867e+06
6.70811e+06
5.76084e+06
4.95519e+06
4.27242e+06
3.69456e+06
3.2042e+06
2.78659e+06
2.43002e+06
2.12454e+06
1.86221e+06
1.63615e+06
1.44097e+06
1.27258e+06
1.12795e+06
1.00641e+06
915410
899914
1.01027e+06
1.84848e+10
3.15586e+09
1.05506e+09
4.89504e+08
2.71765e+08
1.68395e+08
1.12367e+08
7.92016e+07
5.83408e+07
4.46238e+07
3.52633e+07
2.86321e+07
2.37366e+07
1.9965e+07
1.69495e+07
1.44714e+07
1.23914e+07
1.06217e+07
9.10703e+06
7.80987e+06
6.70037e+06
5.7539e+06
4.94899e+06
4.26644e+06
3.68889e+06
3.19872e+06
2.781e+06
2.42413e+06
2.11848e+06
1.85582e+06
1.62965e+06
1.43428e+06
1.26526e+06
1.11926e+06
993923
889260
813739
815120
944703
1.81953e+10
3.15214e+09
1.05491e+09
4.89389e+08
2.717e+08
1.68355e+08
1.1234e+08
7.91816e+07
5.83248e+07
4.46092e+07
3.52484e+07
2.86169e+07
2.37216e+07
1.99504e+07
1.69354e+07
1.44582e+07
1.23795e+07
1.06111e+07
9.09758e+06
7.8015e+06
6.69299e+06
5.74735e+06
4.94303e+06
4.26102e+06
3.68361e+06
3.19371e+06
2.77614e+06
2.41918e+06
2.11325e+06
1.85044e+06
1.62397e+06
1.42848e+06
1.25923e+06
1.11257e+06
985787
877083
787086
725212
741829
889267
1.79094e+10
2.60086e+09
1.05368e+09
4.89324e+08
2.71635e+08
1.68313e+08
1.12311e+08
7.91601e+07
5.83071e+07
4.45935e+07
3.52338e+07
2.86021e+07
2.37071e+07
1.99366e+07
1.69225e+07
1.44461e+07
1.23684e+07
1.06011e+07
9.08874e+06
7.79357e+06
6.68597e+06
5.74108e+06
4.9374e+06
4.25581e+06
3.67884e+06
3.18904e+06
2.7717e+06
2.41486e+06
2.10885e+06
1.8458e+06
1.61919e+06
1.42342e+06
1.25404e+06
1.10712e+06
979638
869392
775078
697873
648106
678411
841783
1.78357e+10
2.89686e+09
9.05755e+08
4.88752e+08
2.71599e+08
1.68272e+08
1.12282e+08
7.91376e+07
5.82884e+07
4.45769e+07
3.52186e+07
2.85878e+07
2.36931e+07
1.99234e+07
1.69102e+07
1.44349e+07
1.23582e+07
1.05919e+07
9.08046e+06
7.78616e+06
6.67931e+06
5.73513e+06
4.93202e+06
4.25092e+06
3.67425e+06
3.18482e+06
2.76755e+06
2.41091e+06
2.10501e+06
1.84189e+06
1.61507e+06
1.41916e+06
1.24952e+06
1.10245e+06
974687
863697
767734
685911
619912
580951
623384
799906
1.7858e+10
2.87941e+09
9.36606e+08
4.20323e+08
2.71282e+08
1.68248e+08
1.12253e+08
7.91148e+07
5.82692e+07
4.45599e+07
3.52027e+07
2.85732e+07
2.36795e+07
1.99107e+07
1.68986e+07
1.44243e+07
1.23487e+07
1.05833e+07
9.07276e+06
7.77923e+06
6.67306e+06
5.72949e+06
4.92693e+06
4.24623e+06
3.66996e+06
3.18077e+06
2.76381e+06
2.40724e+06
2.10151e+06
1.83847e+06
1.61158e+06
1.41549e+06
1.24572e+06
1.09841e+06
970475
859171
762415
678823
607877
551739
522494
575321
761108
1.80375e+10
2.88682e+09
9.2772e+08
4.26456e+08
2.3282e+08
1.68054e+08
1.12236e+08
7.90922e+07
5.82501e+07
4.45427e+07
3.51869e+07
2.85584e+07
2.36659e+07
1.98983e+07
1.68873e+07
1.44142e+07
1.23399e+07
1.05754e+07
9.06562e+06
7.77277e+06
6.66722e+06
5.72419e+06
4.92209e+06
4.24181e+06
3.66584e+06
3.17699e+06
2.76024e+06
2.40392e+06
2.09824e+06
1.83535e+06
1.60854e+06
1.41238e+06
1.24244e+06
1.095e+06
966840
855350
758246
673808
600962
539524
492107
471664
532769
723327
1.81882e+10
2.92986e+09
9.31768e+08
4.19425e+08
2.35536e+08
1.43571e+08
1.12107e+08
7.90783e+07
5.82314e+07
4.45257e+07
3.5171e+07
2.85437e+07
2.36523e+07
1.98861e+07
1.68764e+07
1.44045e+07
1.23313e+07
1.0568e+07
9.05903e+06
7.76678e+06
6.66179e+06
5.71924e+06
4.91755e+06
4.23761e+06
3.66196e+06
3.17337e+06
2.7569e+06
2.40076e+06
2.09531e+06
1.83245e+06
1.60576e+06
1.40967e+06
1.23967e+06
1.09207e+06
963780
852069
754761
669939
596187
532704
479606
439940
427555
494135
685949
1.82901e+10
2.96514e+09
9.51735e+08
4.21858e+08
2.28516e+08
1.46516e+08
9.48951e+07
7.89869e+07
5.82195e+07
4.45091e+07
3.51556e+07
2.85292e+07
2.36389e+07
1.98739e+07
1.68657e+07
1.43951e+07
1.23231e+07
1.05609e+07
9.05287e+06
7.76125e+06
6.65675e+06
5.71463e+06
4.91331e+06
4.23368e+06
3.65829e+06
3.16997e+06
2.75371e+06
2.39781e+06
2.0925e+06
1.82984e+06
1.60318e+06
1.40719e+06
1.23725e+06
1.08959e+06
961152
849312
751786
666742
592567
528112
472811
427056
394315
389407
457694
650874
1.83543e+10
2.9896e+09
9.67916e+08
4.33366e+08
2.29907e+08
1.39739e+08
9.81597e+07
6.56968e+07
5.81503e+07
4.4498e+07
3.51402e+07
2.8515e+07
2.36258e+07
1.9862e+07
1.6855e+07
1.43858e+07
1.23151e+07
1.0554e+07
9.04693e+06
7.75608e+06
6.6521e+06
5.71035e+06
4.90936e+06
4.23e+06
3.65486e+06
3.16674e+06
2.75071e+06
2.39499e+06
2.08989e+06
1.82736e+06
1.60087e+06
1.4049e+06
1.23504e+06
1.08743e+06
958925
846947
749291
664029
589612
524692
468347
420216
380952
354438
356435
421862
618726
1.83803e+10
3.12058e+09
9.79384e+08
4.42743e+08
2.37309e+08
1.40232e+08
9.26006e+07
6.94929e+07
4.69811e+07
4.44418e+07
3.51295e+07
2.85009e+07
2.36131e+07
1.98504e+07
1.68446e+07
1.43766e+07
1.23073e+07
1.05473e+07
9.04116e+06
7.75111e+06
6.64774e+06
5.70641e+06
4.90568e+06
4.22658e+06
3.65165e+06
3.16374e+06
2.74788e+06
2.39235e+06
2.0874e+06
1.82505e+06
1.59866e+06
1.40283e+06
1.23299e+06
1.08545e+06
956982
844943
747155
661761
587124
521939
465084
415830
374004
340502
319623
327758
385888
593962
1.83953e+10
3.14132e+09
1.04662e+09
4.49544e+08
2.43559e+08
1.45342e+08
9.2124e+07
6.53811e+07
5.14662e+07
3.44827e+07
3.50806e+07
2.84908e+07
2.36003e+07
1.98391e+07
1.68344e+07
1.43676e+07
1.22995e+07
1.05407e+07
9.03556e+06
7.74625e+06
6.64356e+06
5.70272e+06
4.90232e+06
4.2234e+06
3.64867e+06
3.16092e+06
2.74524e+06
2.38986e+06
2.08507e+06
1.82284e+06
1.59661e+06
1.40087e+06
1.23115e+06
1.08363e+06
955216
843197
745347
659824
585051
519643
462498
412686
369649
333384
305022
289276
302542
350672
580878
1.84015e+10
3.14548e+09
1.05313e+09
4.86671e+08
2.482e+08
1.5009e+08
9.5868e+07
6.37766e+07
4.86877e+07
3.96078e+07
2.59748e+07
2.84459e+07
2.35911e+07
1.98279e+07
1.68246e+07
1.43588e+07
1.22918e+07
1.05342e+07
9.03006e+06
7.74154e+06
6.63947e+06
5.69918e+06
4.89916e+06
4.22049e+06
3.64589e+06
3.15831e+06
2.74277e+06
2.38754e+06
2.08287e+06
1.82078e+06
1.59466e+06
1.39905e+06
1.2294e+06
1.08198e+06
953585
841613
743775
658186
583286
517736
460361
410232
366587
329016
297675
273920
262889
280062
318260
574576
1.84084e+10
3.14735e+09
1.05526e+09
4.89766e+08
2.70601e+08
1.53644e+08
1.00028e+08
6.66979e+07
4.59528e+07
3.78163e+07
3.14815e+07
2.01434e+07
2.35487e+07
1.98196e+07
1.68148e+07
1.43503e+07
1.22844e+07
1.05277e+07
9.02454e+06
7.73691e+06
6.6355e+06
5.69572e+06
4.89614e+06
4.21775e+06
3.64335e+06
3.15588e+06
2.74048e+06
2.38537e+06
2.08083e+06
1.81884e+06
1.59283e+06
1.39732e+06
1.22778e+06
1.08043e+06
952114
840152
742351
656764
581795
516119
458595
408228
364237
326003
293252
266285
246686
240030
259647
289261
571089
1.84181e+10
3.14931e+09
1.05625e+09
4.91054e+08
2.72402e+08
1.67843e+08
1.0301e+08
7.08277e+07
4.84023e+07
3.42759e+07
3.03114e+07
2.567e+07
1.60864e+07
1.97789e+07
1.68076e+07
1.43419e+07
1.22772e+07
1.05215e+07
9.01914e+06
7.73225e+06
6.63158e+06
5.69235e+06
4.89318e+06
4.21514e+06
3.64096e+06
3.15365e+06
2.73836e+06
2.38335e+06
2.07891e+06
1.81704e+06
1.59112e+06
1.3957e+06
1.22625e+06
1.07898e+06
950727
838836
741039
655482
580504
514756
457105
406582
362340
323729
290256
261766
238702
222875
220306
240640
262750
568889
1.84241e+10
3.15178e+09
1.05727e+09
4.91666e+08
2.73255e+08
1.69005e+08
1.12057e+08
7.33344e+07
5.26946e+07
3.64671e+07
2.64499e+07
2.48902e+07
2.13208e+07
1.319e+07
1.67686e+07
1.43357e+07
1.22701e+07
1.05154e+07
9.0139e+06
7.7277e+06
6.62765e+06
5.68902e+06
4.8903e+06
4.21259e+06
3.63869e+06
3.15157e+06
2.7364e+06
2.38149e+06
2.07714e+06
1.81535e+06
1.58952e+06
1.39418e+06
1.22481e+06
1.07762e+06
949441
837596
739859
654301
579346
513580
455853
405199
360792
321917
288031
258757
234047
214483
202105
203238
222394
238536
567413
1.84275e+10
3.15339e+09
1.05847e+09
4.92286e+08
2.73664e+08
1.69599e+08
1.12852e+08
7.89837e+07
5.46082e+07
4.07894e+07
2.84941e+07
2.11173e+07
2.0794e+07
1.79238e+07
1.10558e+07
1.42988e+07
1.22648e+07
1.05094e+07
9.0088e+06
7.72326e+06
6.6238e+06
5.68568e+06
4.88746e+06
4.21011e+06
3.63647e+06
3.14958e+06
2.73457e+06
2.37977e+06
2.07551e+06
1.81379e+06
1.58803e+06
1.39277e+06
1.22347e+06
1.07635e+06
948227
836449
738748
653239
578280
512528
454775
404041
359500
320449
286283
256559
230996
209653
193242
184043
188280
204365
216848
566296
1.84297e+10
3.15431e+09
1.05927e+09
4.93001e+08
2.74076e+08
1.69884e+08
1.13279e+08
7.95478e+07
5.81481e+07
4.21497e+07
3.25644e+07
2.30498e+07
1.73875e+07
1.7569e+07
1.51806e+07
9.43263e+06
1.22306e+07
1.05051e+07
9.00373e+06
7.71897e+06
6.62004e+06
5.68241e+06
4.8846e+06
4.20767e+06
3.63431e+06
3.14764e+06
2.73283e+06
2.37817e+06
2.07399e+06
1.81235e+06
1.58666e+06
1.39145e+06
1.22222e+06
1.07515e+06
947094
835366
737723
652243
577322
511562
453816
403048
358422
319232
284879
254855
228803
206532
188197
174647
168400
174901
186228
197798
565383
1.84323e+10
3.15499e+09
1.05974e+09
4.93481e+08
2.74542e+08
1.7017e+08
1.13484e+08
7.98606e+07
5.85564e+07
4.44259e+07
3.35418e+07
2.6641e+07
1.91913e+07
1.4678e+07
1.49496e+07
1.29139e+07
8.16222e+06
1.04735e+07
9.0001e+06
7.71468e+06
6.61642e+06
5.67922e+06
4.88182e+06
4.20521e+06
3.6322e+06
3.14576e+06
2.73114e+06
2.37664e+06
2.07258e+06
1.81102e+06
1.58538e+06
1.39024e+06
1.22105e+06
1.07404e+06
946031
834356
736756
651324
576427
510696
452938
402169
357501
318220
283722
253499
227126
204321
184978
169344
158405
154915
162561
168041
181715
564679
1.84339e+10
3.15566e+09
1.0601e+09
4.93763e+08
2.74857e+08
1.70492e+08
1.13689e+08
8.00099e+07
5.87886e+07
4.47263e+07
3.50499e+07
2.73717e+07
2.21934e+07
1.63038e+07
1.261e+07
1.27747e+07
1.10106e+07
7.14319e+06
8.9712e+06
7.71164e+06
6.61278e+06
5.67615e+06
4.87909e+06
4.20282e+06
3.63008e+06
3.14392e+06
2.72951e+06
2.37516e+06
2.07124e+06
1.80978e+06
1.5842e+06
1.38911e+06
1.21997e+06
1.07301e+06
945046
833411
735856
650459
575601
509889
452153
401367
356690
317361
282765
252390
225803
202654
182729
165999
152802
144264
143263
150759
150552
169912
564222
1.84341e+10
3.15606e+09
1.06042e+09
4.93982e+08
2.75043e+08
1.7071e+08
1.13919e+08
8.01591e+07
5.88985e+07
4.49001e+07
3.52751e+07
2.84057e+07
2.27671e+07
1.87152e+07
1.40109e+07
1.09544e+07
1.09382e+07
9.39684e+06
6.30852e+06
7.68534e+06
6.61024e+06
5.67304e+06
4.87648e+06
4.20047e+06
3.628e+06
3.14209e+06
2.7279e+06
2.37373e+06
2.06995e+06
1.80859e+06
1.58311e+06
1.38807e+06
1.21898e+06
1.07206e+06
944133
832535
735014
649654
574826
509145
451422
400651
355955
316608
281957
251477
224730
201350
181054
163690
149299
138314
132003
133057
139089
134574
162996
563971
1.8436e+10
3.15618e+09
1.06062e+09
4.94174e+08
2.75187e+08
1.70839e+08
1.14074e+08
8.0326e+07
5.90077e+07
4.49818e+07
3.54071e+07
2.85791e+07
2.35057e+07
1.91881e+07
1.59017e+07
1.21039e+07
9.57745e+06
9.37224e+06
8.02436e+06
5.61235e+06
6.5867e+06
5.67091e+06
4.87381e+06
4.19823e+06
3.62597e+06
3.14029e+06
2.7263e+06
2.37233e+06
2.06869e+06
1.80746e+06
1.58207e+06
1.38711e+06
1.21806e+06
1.07117e+06
943283
831724
734232
648903
574105
508449
450750
399989
355300
315931
281254
250711
223850
200300
179755
161990
146909
134625
125662
121435
123898
127275
119908
160263
563943
1.84246e+10
3.15655e+09
1.06069e+09
4.94292e+08
2.75313e+08
1.70938e+08
1.14165e+08
8.04392e+07
5.91306e+07
4.50622e+07
3.54685e+07
2.86814e+07
2.36439e+07
1.97384e+07
1.63075e+07
1.35741e+07
1.04838e+07
8.39207e+06
8.03256e+06
6.85886e+06
5.02195e+06
5.65019e+06
4.872e+06
4.19593e+06
3.62404e+06
3.13853e+06
2.72474e+06
2.37094e+06
2.06746e+06
1.80636e+06
1.58107e+06
1.38619e+06
1.21721e+06
1.07036e+06
942501
830969
733509
648205
573432
507801
450122
399379
354696
315327
280624
250047
223115
199443
178717
160683
145168
132132
121753
114654
112329
115351
115045
106162
159397
564013
1.79247e+10
3.15464e+09
1.06084e+09
4.94336e+08
2.7539e+08
1.71024e+08
1.14236e+08
8.0505e+07
5.92138e+07
4.51532e+07
3.55282e+07
2.87284e+07
2.37253e+07
1.98524e+07
1.67327e+07
1.39302e+07
1.16186e+07
9.09212e+06
7.34854e+06
6.88693e+06
5.87223e+06
4.51327e+06
4.854e+06
4.19438e+06
3.62205e+06
3.13685e+06
2.72321e+06
2.36957e+06
2.06625e+06
1.80528e+06
1.5801e+06
1.38531e+06
1.21639e+06
1.0696e+06
941778
830273
732838
647560
572809
507198
449540
398812
354142
314774
280065
249456
222483
198731
177874
159646
143842
130334
119135
110490
105124
104387
106954
102705
93696.1
159126
564167
1.44483e+10
3.06981e+09
1.06022e+09
4.9441e+08
2.75418e+08
1.71076e+08
1.14297e+08
8.05559e+07
5.92616e+07
4.52148e+07
3.55964e+07
2.87735e+07
2.37622e+07
1.99191e+07
1.68297e+07
1.42687e+07
1.19313e+07
9.95863e+06
7.88363e+06
6.42792e+06
5.90919e+06
5.04028e+06
4.0672e+06
4.17885e+06
3.62071e+06
3.13512e+06
2.72176e+06
2.36824e+06
2.06505e+06
1.80422e+06
1.57916e+06
1.38446e+06
1.21562e+06
1.06889e+06
941109
829631
732219
646961
572233
506640
448998
398287
353628
314267
279553
248933
221924
198123
177178
158809
142796
128975
117263
107724
100670
96918.1
97288.2
98314.1
90906.4
83282
159037
564396
1.0967e+10
2.48058e+09
1.03201e+09
4.94129e+08
2.75462e+08
1.71096e+08
1.14333e+08
8.05991e+07
5.92981e+07
4.52495e+07
3.56428e+07
2.88257e+07
2.37974e+07
1.99491e+07
1.68856e+07
1.43529e+07
1.22065e+07
1.023e+07
8.54075e+06
6.82996e+06
5.6224e+06
5.07709e+06
4.33997e+06
3.66629e+06
3.60734e+06
3.13396e+06
2.72024e+06
2.36697e+06
2.06389e+06
1.80317e+06
1.57822e+06
1.38362e+06
1.21487e+06
1.0682e+06
940474
829037
731646
646409
571697
506125
448497
397799
353151
313797
279086
248457
221430
197589
176587
158121
141956
127911
115860
105762
97729.3
92146.7
89839.9
90673
89209.2
79631.9
77307.8
159012
564563
9.76983e+09
1.91525e+09
8.38586e+08
4.81062e+08
2.75303e+08
1.71123e+08
1.14346e+08
8.06248e+07
5.93293e+07
4.52758e+07
3.5668e+07
2.88611e+07
2.38382e+07
1.99773e+07
1.69105e+07
1.44007e+07
1.22809e+07
1.04547e+07
8.774e+06
7.32622e+06
5.91491e+06
4.9173e+06
4.3711e+06
3.74881e+06
3.29744e+06
3.12245e+06
2.71923e+06
2.36565e+06
2.06279e+06
1.80215e+06
1.57731e+06
1.38281e+06
1.21413e+06
1.06754e+06
939867
828474
731118
645900
571205
505646
448035
397348
352710
313363
278655
248024
220983
197118
176071
157540
141270
127062
114769
104301
95659.7
89006.1
84800.9
83640.9
84148.1
79909.9
68724
75162.1
159023
564669
9.23963e+09
1.69668e+09
5.44857e+08
3.93814e+08
2.67973e+08
1.71016e+08
1.14364e+08
8.06337e+07
5.93477e+07
4.52982e+07
3.5687e+07
2.88796e+07
2.38657e+07
2.00102e+07
1.69337e+07
1.44219e+07
1.23223e+07
1.05206e+07
8.95654e+06
7.52585e+06
6.28702e+06
5.12603e+06
4.29409e+06
3.77343e+06
3.24777e+06
2.95345e+06
2.70932e+06
2.36477e+06
2.06162e+06
1.80118e+06
1.57641e+06
1.382e+06
1.21342e+06
1.06689e+06
939280
827937
730619
645429
570750
505205
447607
396932
352302
312962
278257
247625
220578
196696
175619
157038
140694
126370
113901
103173
94128.6
86808.9
81430.4
78483.6
78039.1
77365.5
70749
58750.1
74640.5
159027
564741
8.94354e+09
1.59868e+09
5.78258e+08
2.09906e+08
2.20893e+08
1.66315e+08
1.14281e+08
8.06453e+07
5.93534e+07
4.53112e+07
3.57031e+07
2.88935e+07
2.38799e+07
2.00322e+07
1.6961e+07
1.44414e+07
1.23408e+07
1.05568e+07
9.01479e+06
7.67364e+06
6.45693e+06
5.40067e+06
4.44802e+06
3.74947e+06
3.26646e+06
2.82169e+06
2.63122e+06
2.35622e+06
2.06086e+06
1.80017e+06
1.57556e+06
1.38122e+06
1.21271e+06
1.06626e+06
938710
827417
730144
644987
570331
504799
447212
396547
351926
312591
277890
247258
220207
196314
175215
156599
140199
125793
113198
102280
92953.2
85193.5
79083.2
74896.7
72997.1
72702.6
70081
61602.8
50981.7
74546.4
159023
564804
8.71972e+09
1.54679e+09
5.46439e+08
2.61352e+08
1.00083e+08
1.3772e+08
1.10915e+08
8.05721e+07
5.93606e+07
4.53146e+07
3.5712e+07
2.89052e+07
2.38903e+07
2.00435e+07
1.6979e+07
1.44643e+07
1.23574e+07
1.05728e+07
9.04622e+06
7.72476e+06
6.57674e+06
5.54402e+06
4.64771e+06
3.86511e+06
3.27727e+06
2.83469e+06
2.4581e+06
2.3323e+06
2.05346e+06
1.79949e+06
1.57467e+06
1.38047e+06
1.21202e+06
1.06563e+06
938154
826914
729683
644564
569937
504425
446849
396193
351578
312249
277551
246920
219866
195965
174852
156210
139770
125301
112615
101560
92027.4
83960.1
77368
72375
69280.8
68109.6
67272.4
62618.9
52376.6
46758.3
74535.2
159020
564871
8.56687e+09
1.51126e+09
5.28635e+08
2.53516e+08
1.31789e+08
5.51748e+07
9.18282e+07
7.79206e+07
5.92915e+07
4.5319e+07
3.57139e+07
2.89114e+07
2.38991e+07
2.00517e+07
1.69882e+07
1.44795e+07
1.23769e+07
1.0587e+07
9.06004e+06
7.75197e+06
6.62124e+06
5.64115e+06
4.76699e+06
4.01012e+06
3.36486e+06
2.86862e+06
2.46581e+06
2.14674e+06
2.06082e+06
1.79308e+06
1.57408e+06
1.37968e+06
1.21136e+06
1.06503e+06
937603
826424
729238
644155
569562
504074
446513
395865
351258
311933
277239
246609
219553
195646
174522
155862
139391
124876
112121
100965
91283.3
82992.6
76064.9
70542.1
66592.7
64417.2
63543.9
61460.1
55125.8
43573.7
45444.8
74532.5
159016
564924
8.44484e+09
1.4886e+09
5.16648e+08
2.45493e+08
1.32449e+08
7.29858e+07
3.35168e+07
6.41307e+07
5.70288e+07
4.52519e+07
3.57163e+07
2.89123e+07
2.39036e+07
2.00585e+07
1.69949e+07
1.44872e+07
1.23899e+07
1.06038e+07
9.07245e+06
7.76395e+06
6.64471e+06
5.67961e+06
4.84545e+06
4.10794e+06
3.46935e+06
2.93488e+06
2.51429e+06
2.14967e+06
1.87925e+06
1.81873e+06
1.56851e+06
1.37916e+06
1.21066e+06
1.06445e+06
937066
825937
728806
643762
569199
503741
446199
395563
350962
311643
276951
246322
219265
195354
174221
155546
139053
124503
111697
100464
90671.6
82218.1
75046.7
69156.5
64621.6
61624.4
60108.1
58984.4
55334.2
47354
36635.9
45167.1
74530.2
159013
564970
8.34178e+09
1.469e+09
5.06592e+08
2.38645e+08
1.28889e+08
7.47743e+07
4.35542e+07
2.18466e+07
4.63082e+07
4.32091e+07
3.5652e+07
2.89134e+07
2.39038e+07
2.00618e+07
1.70005e+07
1.44927e+07
1.23966e+07
1.0615e+07
9.08707e+06
7.77466e+06
6.65514e+06
5.69988e+06
4.87834e+06
4.17073e+06
3.54946e+06
3.00895e+06
2.56446e+06
2.20638e+06
1.87791e+06
1.64872e+06
1.60479e+06
1.3743e+06
1.2102e+06
1.06383e+06
936555
825464
728376
643379
568851
503419
445902
395281
350689
311375
276686
246058
219000
195086
173946
155260
138748
124173
111326
100036
90158.4
81584.1
74234.9
68077.4
63139.1
59524.5
57321
56112.4
54144.9
49065.7
39298.8
32895.6
45122.3
74524.4
159010
565024
8.25565e+09
1.45232e+09
4.98793e+08
2.28403e+08
1.2258e+08
7.29988e+07
4.50494e+07
2.75853e+07
1.50495e+07
3.43038e+07
3.37548e+07
2.88538e+07
2.39042e+07
2.00617e+07
1.7003e+07
1.44973e+07
1.24012e+07
1.0621e+07
9.09671e+06
7.78737e+06
6.66446e+06
5.70889e+06
4.89588e+06
4.19858e+06
3.59968e+06
3.07473e+06
2.61584e+06
2.24463e+06
1.93834e+06
1.64369e+06
1.44945e+06
1.41619e+06
1.20596e+06
1.06342e+06
936011
825012
727957
642999
568512
503110
445614
395015
350435
311127
276442
245815
218757
194840
173695
154999
138473
123877
110999
99663.8
89722.5
81054.9
73573
67220.7
61987.5
57931.3
55143.9
53504.7
52145.4
48944
42463.1
31833.7
31764.7
45116.4
74515.8
159011
565082
8.1821e+09
1.43867e+09
4.92273e+08
2.22087e+08
1.15514e+08
6.86435e+07
4.40737e+07
2.8639e+07
1.83845e+07
1.08458e+07
2.59602e+07
2.70905e+07
2.3852e+07
2.00618e+07
1.70026e+07
1.44994e+07
1.2405e+07
1.06248e+07
9.10178e+06
7.7956e+06
6.67533e+06
5.71692e+06
4.90358e+06
4.21352e+06
3.62312e+06
3.11512e+06
2.66968e+06
2.2792e+06
1.96786e+06
1.70463e+06
1.4413e+06
1.27671e+06
1.24993e+06
1.0597e+06
935648
824531
727558
642629
568177
502809
445339
394758
350195
310896
276216
245591
218533
194614
173465
154761
138224
123610
110708
99337.3
89345.8
80607.2
73022.8
66524.3
61077.2
56693.5
53452.5
51339.9
49954.6
47930.6
43541.1
35370.2
26720.3
31531.5
45114.6
74507.3
159014
565149
8.11813e+09
1.42698e+09
4.86771e+08
2.17142e+08
1.11678e+08
6.42942e+07
4.12424e+07
2.80629e+07
1.90617e+07
1.28319e+07
8.1192e+06
2.00337e+07
2.22433e+07
2.0019e+07
1.70025e+07
1.44988e+07
1.24067e+07
1.06281e+07
9.10501e+06
7.79984e+06
6.68214e+06
5.72616e+06
4.91031e+06
4.22011e+06
3.63565e+06
3.1349e+06
2.70219e+06
2.3231e+06
1.99007e+06
1.7278e+06
1.5005e+06
1.266e+06
1.12654e+06
1.10331e+06
932378
824206
727132
642276
567849
502512
445071
394512
349964
310680
276006
245384
218326
194407
173253
154544
137997
123369
110446
99048.1
89016.7
80222.3
72559.4
65948
60339.2
55719.7
52125.3
49597.3
47945.9
46406.9
43381
37801.7
28237.7
24599.9
31495
45112.1
74500
159016
565235
8.06139e+09
1.41661e+09
4.8211e+08
2.12646e+08
1.08726e+08
6.2032e+07
3.85951e+07
2.62433e+07
1.87073e+07
1.32306e+07
9.32757e+06
6.27408e+06
1.57594e+07
1.85927e+07
1.69704e+07
1.44988e+07
1.24062e+07
1.06295e+07
9.10781e+06
7.80258e+06
6.68565e+06
5.73178e+06
4.91814e+06
4.22576e+06
3.64127e+06
3.14542e+06
2.71896e+06
2.34928e+06
2.02567e+06
1.74105e+06
1.51915e+06
1.32198e+06
1.11386e+06
995635
973937
821324
726840
641898
567536
502221
444807
394273
349744
310472
275809
245192
218136
194215
173059
154345
137791
123150
110211
98789.6
88726.5
79887.5
72162.6
65464.3
59731
54932
51076.4
48200.8
46233.1
44751.3
42607.4
38619.5
31478.1
22743.2
24081.4
31491.9
45107.9
74491.2
159027