/*--------------------------------*- C++ -*----------------------------------*\
| =========                 |                                                 |
| \\      /  F ield         | OpenFOAM: The Open Source CFD Toolbox           |
|  \\    /   O peration     | Version:  v2012                                 |
|   \\  /    A nd           | Website:  www.openfoam.com                      |
|    \\/     M anipulation  |                                                 |
\*---------------------------------------------------------------------------*/
FoamFile
{
    version     2.0;
    format      ascii;
    class       volScalarField;
    location    "13380";
    object      p;
}
// * * * * * * * * * * * * * * * * * * * * * * * * * * * * * * * * * * * * * //

dimensions      [1 -1 -2 0 0 0 0];


internalField   nonuniform List<scalar> 
31383
(
23913.9
23878.6
23913.9
23852.3
23878.6
23913.9
23842.5
23852.3
23878.6
23913.9
23839.8
23842.5
23852.3
23878.7
23913.9
23835
23839.8
23842.6
23852.3
23878.7
23913.9
23828.1
23835
23839.8
23842.6
23852.3
23878.7
23913.9
23823.9
23828
23835.1
23839.9
23842.6
23852.3
23878.7
23913.9
23823.5
23823.8
23828.1
23835.1
23839.9
23842.6
23852.4
23878.7
23913.9
23821.3
23823.4
23823.9
23828.1
23835.1
23839.9
23842.6
23852.4
23878.8
23913.9
23813.4
23821.2
23823.5
23823.9
23828.1
23835.1
23839.9
23842.7
23852.4
23878.8
23913.9
23799.8
23813.4
23821.3
23823.5
23823.9
23828.1
23835.1
23840
23842.7
23852.4
23878.8
23913.9
23781.5
23799.7
23813.4
23821.3
23823.5
23823.9
23828.2
23835.2
23840
23842.8
23852.5
23878.9
23914
23760.5
23781.5
23799.7
23813.4
23821.3
23823.5
23824
23828.2
23835.2
23840.1
23842.8
23852.5
23878.9
23914
23741.3
23760.4
23781.5
23799.7
23813.5
23821.3
23823.6
23824
23828.3
23835.3
23840.1
23842.9
23852.6
23878.9
23914.1
23724.5
23741.2
23760.5
23781.5
23799.8
23813.5
23821.3
23823.6
23824
23828.3
23835.3
23840.2
23842.9
23852.6
23879
23914.2
23709.7
23724.4
23741.2
23760.5
23781.5
23799.8
23813.5
23821.4
23823.6
23824.1
23828.4
23835.4
23840.2
23843
23852.7
23879
23914.2
23697.9
23709.6
23724.4
23741.3
23760.5
23781.5
23799.8
23813.5
23821.4
23823.7
23824.1
23828.4
23835.5
23840.3
23843
23852.7
23879.1
23914.3
23688.9
23697.8
23709.7
23724.4
23741.3
23760.5
23781.6
23799.8
23813.6
23821.4
23823.7
23824.2
23828.5
23835.5
23840.4
23843.1
23852.8
23879.2
23914.4
23682.2
23688.8
23697.8
23709.7
23724.5
23741.3
23760.5
23781.6
23799.9
23813.6
23821.5
23823.8
23824.3
23828.6
23835.6
23840.5
23843.2
23852.9
23879.2
23914.5
23677.6
23682.1
23688.8
23697.8
23709.7
23724.5
23741.3
23760.5
23781.6
23799.9
23813.6
23821.5
23823.8
23824.3
23828.6
23835.7
23840.6
23843.3
23853
23879.3
23914.6
23674.7
23677.6
23682.1
23688.8
23697.8
23709.7
23724.5
23741.3
23760.6
23781.7
23799.9
23813.7
23821.6
23823.9
23824.4
23828.7
23835.8
23840.7
23843.4
23853.1
23879.4
23914.8
23673.2
23674.7
23677.6
23682.1
23688.8
23697.9
23709.7
23724.5
23741.3
23760.6
23781.7
23800
23813.7
23821.7
23824
23824.5
23828.8
23835.9
23840.8
23843.5
23853.2
23879.5
23914.9
23672.6
23673.1
23674.7
23677.6
23682.1
23688.8
23697.9
23709.7
23724.5
23741.4
23760.6
23781.7
23800
23813.8
23821.7
23824.1
23824.6
23828.9
23836
23840.9
23843.7
23853.3
23879.6
23915
23672.5
23672.5
23673.1
23674.7
23677.6
23682.2
23688.9
23697.9
23709.8
23724.6
23741.4
23760.7
23781.8
23800.1
23813.9
23821.8
23824.2
23824.7
23829
23836.1
23841.1
23843.8
23853.4
23879.8
23915.1
23672.6
23672.5
23672.5
23673.1
23674.7
23677.6
23682.2
23688.9
23697.9
23709.8
23724.6
23741.4
23760.7
23781.8
23800.2
23813.9
23821.9
23824.3
23824.8
23829.2
23836.3
23841.2
23843.9
23853.6
23879.9
23915.3
23672.6
23672.5
23672.5
23672.5
23673.1
23674.7
23677.6
23682.2
23688.9
23697.9
23709.8
23724.6
23741.5
23760.8
23781.9
23800.2
23814
23822
23824.4
23824.9
23829.3
23836.4
23841.3
23844.1
23853.7
23880
23915.4
23672.9
23672.6
23672.6
23672.5
23672.5
23673.1
23674.7
23677.6
23682.2
23688.9
23698
23709.9
23724.7
23741.5
23760.8
23782
23800.3
23814.1
23822.1
23824.5
23825
23829.4
23836.5
23841.5
23844.2
23853.8
23880.2
23915.5
23673.8
23672.8
23672.6
23672.6
23672.5
23672.6
23673.1
23674.7
23677.7
23682.2
23688.9
23698
23709.9
23724.7
23741.6
23760.9
23782
23800.4
23814.2
23822.2
23824.6
23825.1
23829.5
23836.7
23841.6
23844.4
23854
23880.3
23915.7
23675.4
23673.7
23672.8
23672.6
23672.6
23672.5
23672.6
23673.2
23674.7
23677.7
23682.2
23689
23698
23709.9
23724.8
23741.6
23761
23782.1
23800.5
23814.3
23822.3
23824.7
23825.2
23829.7
23836.8
23841.8
23844.5
23854.1
23880.5
23915.8
23677.8
23675.3
23673.7
23672.8
23672.6
23672.6
23672.5
23672.6
23673.2
23674.8
23677.7
23682.3
23689
23698.1
23710
23724.8
23741.7
23761
23782.2
23800.6
23814.4
23822.4
23824.8
23825.4
23829.8
23836.9
23841.9
23844.7
23854.3
23880.7
23915.9
23681.3
23677.8
23675.3
23673.7
23672.8
23672.6
23672.6
23672.5
23672.6
23673.2
23674.8
23677.7
23682.3
23689.1
23698.1
23710
23724.9
23741.8
23761.1
23782.3
23800.6
23814.5
23822.5
23824.9
23825.5
23829.9
23837.1
23842
23844.8
23854.5
23880.9
23916
23685.9
23681.3
23677.8
23675.3
23673.7
23672.8
23672.6
23672.6
23672.6
23672.6
23673.2
23674.8
23677.8
23682.3
23689.1
23698.2
23710.1
23724.9
23741.8
23761.2
23782.4
23800.7
23814.6
23822.6
23825
23825.6
23830
23837.2
23842.2
23845
23854.6
23881.2
23916.1
23691.2
23685.8
23681.3
23677.8
23675.3
23673.7
23672.8
23672.6
23672.6
23672.6
23672.6
23673.2
23674.8
23677.8
23682.4
23689.1
23698.2
23710.2
23725
23741.9
23761.3
23782.4
23800.8
23814.7
23822.7
23825.1
23825.7
23830.2
23837.3
23842.3
23845.1
23854.8
23881.5
23916.3
23696.8
23691.1
23685.9
23681.3
23677.8
23675.3
23673.7
23672.9
23672.6
23672.6
23672.6
23672.6
23673.3
23674.9
23677.8
23682.4
23689.2
23698.3
23710.2
23725.1
23742
23761.4
23782.5
23800.9
23814.8
23822.8
23825.2
23825.8
23830.3
23837.5
23842.5
23845.3
23855
23881.7
23916.4
23702.6
23696.7
23691.1
23685.9
23681.3
23677.8
23675.4
23673.7
23672.9
23672.7
23672.7
23672.6
23672.7
23673.3
23674.9
23677.9
23682.5
23689.2
23698.3
23710.3
23725.1
23742.1
23761.4
23782.6
23801
23814.9
23822.9
23825.3
23825.9
23830.4
23837.6
23842.6
23845.5
23855.1
23882
23916.4
23708.3
23702.5
23696.7
23691.1
23685.9
23681.3
23677.8
23675.4
23673.7
23672.9
23672.7
23672.7
23672.6
23672.7
23673.3
23674.9
23677.9
23682.5
23689.3
23698.4
23710.3
23725.2
23742.2
23761.5
23782.7
23801.1
23815
23823
23825.4
23826
23830.5
23837.7
23842.7
23845.6
23855.3
23882.4
23916.5
23711.6
23708.2
23702.5
23696.7
23691.1
23685.9
23681.3
23677.8
23675.4
23673.8
23672.9
23672.7
23672.7
23672.7
23672.7
23673.4
23675
23678
23682.6
23689.4
23698.5
23710.4
23725.3
23742.2
23761.6
23782.8
23801.2
23815
23823.1
23825.5
23826.1
23830.6
23837.8
23842.8
23845.7
23855.5
23882.7
23916.6
23739.6
23711.5
23708.2
23702.5
23696.7
23691.1
23685.9
23681.3
23677.8
23675.4
23673.8
23672.9
23672.7
23672.7
23672.7
23672.8
23673.4
23675
23678
23682.6
23689.4
23698.5
23710.5
23725.4
23742.3
23761.7
23782.9
23801.3
23815.1
23823.2
23825.6
23826.2
23830.7
23837.9
23843
23845.9
23855.6
23883.1
23916.6
23755.8
23739.5
23711.5
23708.2
23702.5
23696.7
23691.1
23685.9
23681.3
23677.8
23675.4
23673.8
23672.9
23672.7
23672.8
23672.7
23672.8
23673.5
23675.1
23678.1
23682.7
23689.5
23698.6
23710.6
23725.4
23742.4
23761.8
23783
23801.4
23815.2
23823.3
23825.7
23826.3
23830.8
23838
23843.1
23846
23855.8
23883.6
23916.6
23739.1
23755.7
23739.5
23711.5
23708.3
23702.5
23696.7
23691.1
23685.9
23681.3
23677.8
23675.4
23673.8
23673
23672.8
23672.8
23672.8
23672.9
23673.5
23675.1
23678.1
23682.8
23689.6
23698.7
23710.6
23725.5
23742.5
23761.8
23783
23801.4
23815.3
23823.4
23825.8
23826.4
23830.9
23838.1
23843.2
23846.1
23856
23884
23916.6
23735.5
23739.1
23755.7
23739.5
23711.5
23708.3
23702.5
23696.7
23691.1
23685.9
23681.3
23677.9
23675.4
23673.8
23673
23672.8
23672.8
23672.8
23672.9
23673.6
23675.2
23678.2
23682.8
23689.6
23698.7
23710.7
23725.6
23742.5
23761.9
23783.1
23801.5
23815.4
23823.4
23825.9
23826.5
23831
23838.2
23843.3
23846.2
23856.2
23884.5
23916.4
23761.7
23735.4
23739.1
23755.8
23739.5
23711.5
23708.3
23702.5
23696.8
23691.1
23685.9
23681.4
23677.9
23675.5
23673.9
23673
23672.8
23672.9
23672.9
23672.9
23673.6
23675.3
23678.2
23682.9
23689.7
23698.8
23710.8
23725.6
23742.6
23762
23783.2
23801.6
23815.4
23823.5
23825.9
23826.5
23831.1
23838.3
23843.4
23846.4
23856.4
23885
23916
23752.3
23761.7
23735.4
23739.1
23755.8
23739.5
23711.5
23708.3
23702.5
23696.8
23691.2
23685.9
23681.4
23677.9
23675.5
23673.9
23673.1
23672.9
23672.9
23672.9
23673
23673.7
23675.3
23678.3
23683
23689.7
23698.9
23710.8
23725.7
23742.7
23762.1
23783.2
23801.6
23815.5
23823.6
23826
23826.6
23831.1
23838.4
23843.5
23846.5
23856.6
23885.4
23914.9
23731.5
23752.2
23761.7
23735.4
23739.1
23755.8
23739.5
23711.5
23708.3
23702.6
23696.8
23691.2
23686
23681.4
23677.9
23675.5
23673.9
23673.1
23672.9
23673
23672.9
23673
23673.7
23675.4
23678.4
23683
23689.8
23698.9
23710.9
23725.8
23742.7
23762.1
23783.3
23801.7
23815.5
23823.6
23826.1
23826.7
23831.2
23838.4
23843.5
23846.6
23856.8
23885.9
23913.9
23729.1
23731.5
23752.2
23761.7
23735.4
23739.1
23755.8
23739.6
23711.5
23708.3
23702.6
23696.8
23691.2
23686
23681.4
23678
23675.5
23674
23673.1
23673
23673
23673
23673.1
23673.8
23675.4
23678.4
23683.1
23689.9
23699
23710.9
23725.8
23742.8
23762.2
23783.3
23801.7
23815.6
23823.7
23826.1
23826.7
23831.2
23838.5
23843.6
23846.6
23856.9
23886.1
23912.6
23726.7
23729
23731.5
23752.2
23761.7
23735.4
23739.1
23755.8
23739.6
23711.6
23708.3
23702.6
23696.8
23691.2
23686
23681.5
23678
23675.6
23674
23673.2
23673
23673
23673
23673.2
23673.8
23675.5
23678.5
23683.1
23689.9
23699
23711
23725.9
23742.8
23762.2
23783.4
23801.8
23815.6
23823.7
23826.2
23826.8
23831.3
23838.5
23843.7
23846.7
23857.1
23886.7
23911.4
23727
23726.6
23729
23731.5
23752.2
23761.7
23735.4
23739.1
23755.8
23739.6
23711.6
23708.3
23702.6
23696.8
23691.2
23686
23681.5
23678
23675.6
23674
23673.2
23673.1
23673.1
23673.1
23673.2
23673.9
23675.5
23678.5
23683.2
23690
23699.1
23711
23725.9
23742.9
23762.3
23783.4
23801.8
23815.7
23823.8
23826.2
23826.8
23831.3
23838.6
23843.7
23846.8
23857.4
23887.5
23910.4
23727.7
23726.9
23726.6
23729
23731.5
23752.2
23761.7
23735.4
23739.1
23755.8
23739.6
23711.6
23708.3
23702.6
23696.8
23691.2
23686
23681.5
23678.1
23675.7
23674.1
23673.3
23673.1
23673.1
23673.1
23673.3
23673.9
23675.6
23678.6
23683.2
23690
23699.1
23711.1
23726
23742.9
23762.3
23783.5
23801.9
23815.7
23823.8
23826.2
23826.8
23831.4
23838.6
23843.8
23846.9
23857.6
23888.5
23909.5
23727.3
23727.7
23726.9
23726.6
23729
23731.5
23752.2
23761.7
23735.4
23739.1
23755.8
23739.6
23711.6
23708.3
23702.6
23696.9
23691.3
23686.1
23681.5
23678.1
23675.7
23674.1
23673.3
23673.2
23673.2
23673.2
23673.3
23674
23675.6
23678.6
23683.3
23690.1
23699.2
23711.1
23726
23743
23762.3
23783.5
23801.9
23815.7
23823.8
23826.3
23826.9
23831.4
23838.7
23843.8
23847
23857.8
23889.1
23908.3
23727.7
23727.2
23727.7
23726.9
23726.6
23729
23731.5
23752.2
23761.7
23735.4
23739.1
23755.9
23739.6
23711.6
23708.4
23702.6
23696.9
23691.3
23686.1
23681.6
23678.1
23675.7
23674.2
23673.4
23673.2
23673.2
23673.2
23673.3
23674
23675.7
23678.7
23683.3
23690.1
23699.2
23711.2
23726
23743
23762.4
23783.5
23801.9
23815.8
23823.8
23826.3
23826.9
23831.4
23838.7
23843.9
23847.1
23858.1
23889.3
23906.8
23727
23727.6
23727.2
23727.7
23726.9
23726.6
23729
23731.5
23752.2
23761.7
23735.4
23739.1
23755.9
23739.6
23711.6
23708.4
23702.7
23696.9
23691.3
23686.1
23681.6
23678.2
23675.8
23674.2
23673.4
23673.3
23673.3
23673.3
23673.4
23674.1
23675.7
23678.7
23683.3
23690.1
23699.2
23711.2
23726.1
23743
23762.4
23783.6
23801.9
23815.8
23823.9
23826.3
23826.9
23831.5
23838.7
23843.9
23847.2
23858.4
23889.3
23905.2
23727
23726.9
23727.6
23727.2
23727.7
23726.9
23726.6
23729
23731.5
23752.2
23761.7
23735.4
23739.1
23755.9
23739.7
23711.7
23708.4
23702.7
23696.9
23691.4
23686.2
23681.7
23678.2
23675.8
23674.3
23673.5
23673.3
23673.3
23673.3
23673.4
23674.1
23675.8
23678.8
23683.4
23690.2
23699.3
23711.2
23726.1
23743
23762.4
23783.6
23802
23815.8
23823.9
23826.3
23826.9
23831.5
23838.8
23844
23847.4
23858.8
23889.2
23903.2
23727
23727
23726.9
23727.6
23727.2
23727.7
23726.9
23726.6
23729
23731.5
23752.2
23761.7
23735.5
23739.2
23755.9
23739.7
23711.7
23708.4
23702.7
23697
23691.4
23686.2
23681.7
23678.3
23675.9
23674.3
23673.5
23673.3
23673.4
23673.4
23673.5
23674.1
23675.8
23678.8
23683.4
23690.2
23699.3
23711.3
23726.1
23743.1
23762.4
23783.6
23802
23815.8
23823.9
23826.3
23827
23831.5
23838.8
23844
23847.6
23859.3
23889.3
23901.6
23727.7
23727
23727
23726.9
23727.6
23727.2
23727.7
23726.9
23726.6
23729
23731.5
23752.2
23761.7
23735.5
23739.2
23756
23739.7
23711.7
23708.5
23702.8
23697
23691.4
23686.3
23681.7
23678.3
23675.9
23674.4
23673.5
23673.4
23673.4
23673.4
23673.5
23674.2
23675.8
23678.8
23683.4
23690.2
23699.3
23711.3
23726.1
23743.1
23762.4
23783.6
23802
23815.8
23823.9
23826.4
23827
23831.5
23838.8
23844.1
23847.8
23859.8
23889.1
23899.7
23727.9
23727.7
23727
23727
23726.9
23727.6
23727.2
23727.7
23726.9
23726.6
23729
23731.5
23752.2
23761.7
23735.5
23739.2
23756
23739.7
23711.7
23708.5
23702.8
23697
23691.5
23686.3
23681.8
23678.3
23676
23674.4
23673.6
23673.4
23673.4
23673.4
23673.5
23674.2
23675.9
23678.8
23683.5
23690.3
23699.3
23711.3
23726.2
23743.1
23762.5
23783.6
23802
23815.8
23823.9
23826.4
23827
23831.5
23838.9
23844.2
23848.1
23860.4
23889
23897.6
23728.1
23727.8
23727.7
23727
23727
23726.9
23727.6
23727.2
23727.7
23726.9
23726.6
23729
23731.5
23752.3
23761.7
23735.5
23739.2
23756
23739.8
23711.8
23708.5
23702.8
23697.1
23691.5
23686.4
23681.8
23678.4
23676
23674.4
23673.6
23673.5
23673.5
23673.5
23673.6
23674.2
23675.9
23678.9
23683.5
23690.3
23699.4
23711.3
23726.2
23743.1
23762.5
23783.6
23802
23815.8
23823.9
23826.4
23827
23831.6
23838.9
23844.4
23848.4
23861.1
23888.8
23895.5
23728.5
23728
23727.8
23727.7
23727
23727
23726.9
23727.6
23727.2
23727.7
23726.9
23726.6
23729
23731.5
23752.3
23761.7
23735.5
23739.2
23756.1
23739.8
23711.8
23708.6
23702.9
23697.1
23691.6
23686.4
23681.9
23678.4
23676
23674.5
23673.6
23673.5
23673.5
23673.5
23673.6
23674.3
23675.9
23678.9
23683.5
23690.3
23699.4
23711.3
23726.2
23743.1
23762.5
23783.6
23802
23815.8
23823.9
23826.4
23827
23831.6
23838.9
23844.5
23848.7
23861.8
23888.6
23893.1
23726.8
23728.4
23728
23727.8
23727.7
23727
23727
23726.9
23727.6
23727.2
23727.7
23726.9
23726.6
23729
23731.5
23752.3
23761.8
23735.6
23739.2
23756.1
23739.9
23711.8
23708.6
23702.9
23697.2
23691.6
23686.4
23681.9
23678.5
23676.1
23674.5
23673.7
23673.5
23673.5
23673.5
23673.6
23674.3
23675.9
23678.9
23683.5
23690.3
23699.4
23711.3
23726.2
23743.1
23762.5
23783.6
23802
23815.8
23823.9
23826.4
23827
23831.6
23839
23844.7
23848.9
23862.2
23888.8
23890.5
23742.4
23726.7
23728.5
23728
23727.8
23727.7
23727
23727
23726.9
23727.6
23727.2
23727.7
23726.9
23726.7
23729
23731.5
23752.3
23761.8
23735.6
23739.3
23756.2
23739.9
23711.9
23708.6
23702.9
23697.2
23691.6
23686.5
23681.9
23678.5
23676.1
23674.5
23673.7
23673.5
23673.6
23673.5
23673.6
23674.3
23675.9
23678.9
23683.5
23690.3
23699.4
23711.3
23726.2
23743.1
23762.5
23783.6
23802
23815.8
23823.9
23826.4
23827
23831.6
23839.1
23845
23849.3
23861.8
23888.7
23887.7
24404.2
23742.3
23726.8
23728.5
23728
23727.8
23727.7
23727
23727
23726.9
23727.6
23727.2
23727.7
23726.9
23726.7
23729
23731.5
23752.3
23761.8
23735.6
23739.3
23756.2
23740
23711.9
23708.7
23703
23697.2
23691.7
23686.5
23682
23678.5
23676.1
23674.6
23673.7
23673.6
23673.6
23673.6
23673.7
23674.3
23675.9
23678.9
23683.5
23690.3
23699.4
23711.3
23726.2
23743.1
23762.4
23783.6
23802
23815.8
23823.9
23826.4
23827
23831.7
23839.3
23845.2
23849.9
23861.6
23888.5
23884.6
30275.3
24404.1
23742.3
23726.8
23728.5
23728
23727.8
23727.7
23727
23727
23726.9
23727.6
23727.2
23727.7
23726.9
23726.7
23729
23731.5
23752.3
23761.8
23735.6
23739.3
23756.3
23740
23712
23708.7
23703
23697.3
23691.7
23686.5
23682
23678.6
23676.2
23674.6
23673.8
23673.6
23673.6
23673.6
23673.7
23674.3
23676
23678.9
23683.5
23690.3
23699.4
23711.3
23726.2
23743.1
23762.4
23783.6
23802
23815.8
23823.9
23826.4
23827.1
23831.8
23839.4
23845.5
23850.5
23861.3
23888.3
23881.2
39886.9
30275.3
24404.1
23742.3
23726.8
23728.5
23728
23727.8
23727.7
23727
23727
23726.9
23727.6
23727.2
23727.7
23726.9
23726.7
23729.1
23731.6
23752.3
23761.9
23735.7
23739.3
23756.3
23740.1
23712
23708.7
23703
23697.3
23691.7
23686.6
23682.1
23678.6
23676.2
23674.6
23673.8
23673.6
23673.6
23673.6
23673.7
23674.3
23676
23678.9
23683.5
23690.3
23699.4
23711.3
23726.2
23743.1
23762.4
23783.6
23802
23815.8
23823.9
23826.4
23827.1
23831.9
23839.6
23845.8
23851.3
23861.2
23887.7
23877.2
44776.5
39887.7
30275.2
24404.1
23742.3
23726.8
23728.5
23728
23727.8
23727.7
23727
23727
23726.9
23727.6
23727.2
23727.7
23726.9
23726.7
23729.1
23731.6
23752.3
23761.9
23735.7
23739.3
23756.4
23740.1
23712
23708.8
23703.1
23697.3
23691.8
23686.6
23682.1
23678.6
23676.2
23674.6
23673.8
23673.6
23673.6
23673.6
23673.7
23674.3
23676
23678.9
23683.5
23690.3
23699.3
23711.3
23726.1
23743.1
23762.4
23783.6
23801.9
23815.8
23823.9
23826.4
23827.2
23832
23839.9
23845.9
23851.2
23861.3
23887.6
23872.9
47345.5
44777.4
39887.2
30275.1
24404
23742.3
23726.8
23728.5
23728
23727.8
23727.7
23727
23727
23726.9
23727.6
23727.2
23727.7
23726.9
23726.7
23729.1
23731.6
23752.4
23761.9
23735.7
23739.3
23756.5
23740.1
23712.1
23708.8
23703.1
23697.3
23691.8
23686.6
23682.1
23678.6
23676.2
23674.7
23673.8
23673.6
23673.6
23673.6
23673.7
23674.3
23675.9
23678.9
23683.5
23690.3
23699.3
23711.3
23726.1
23743
23762.4
23783.5
23801.9
23815.8
23823.9
23826.5
23827.2
23832.2
23840.2
23846.6
23850.9
23861.5
23887.3
23868.1
48909
47346.1
44776.9
39887.1
30274.9
24403.9
23742.3
23726.8
23728.5
23728
23727.8
23727.7
23727
23727
23726.9
23727.6
23727.2
23727.7
23727
23726.7
23729.1
23731.6
23752.4
23762
23735.7
23739.3
23756.5
23740.2
23712.1
23708.8
23703.1
23697.4
23691.8
23686.7
23682.1
23678.7
23676.3
23674.7
23673.8
23673.6
23673.6
23673.6
23673.7
23674.3
23675.9
23678.9
23683.5
23690.3
23699.3
23711.3
23726.1
23743
23762.4
23783.5
23801.9
23815.8
23824
23826.5
23827.4
23832.4
23840.4
23847.2
23849.8
23861.6
23887.1
23862.7
50162.9
48909.5
47345.8
44776.9
39886.9
30274.6
24403.9
23742.4
23726.8
23728.5
23728
23727.8
23727.7
23727
23727
23726.9
23727.6
23727.2
23727.7
23727
23726.7
23729.1
23731.6
23752.4
23762
23735.8
23739.3
23756.6
23740.2
23712.1
23708.9
23703.1
23697.4
23691.8
23686.7
23682.2
23678.7
23676.3
23674.7
23673.8
23673.6
23673.6
23673.6
23673.7
23674.3
23675.9
23678.9
23683.5
23690.2
23699.3
23711.2
23726.1
23743
23762.4
23783.5
23801.9
23815.8
23824
23826.6
23827.5
23832.6
23840.5
23848
23849.7
23861.8
23886.8
23856.8
51058
50163.4
48909.2
47345.8
44776.8
39886.7
30274.3
24403.8
23742.4
23726.8
23728.5
23728
23727.8
23727.7
23727
23727
23726.9
23727.6
23727.3
23727.8
23727
23726.7
23729.1
23731.6
23752.4
23762
23735.8
23739.3
23756.7
23740.3
23712.1
23708.9
23703.2
23697.4
23691.9
23686.7
23682.2
23678.7
23676.3
23674.7
23673.8
23673.6
23673.6
23673.6
23673.7
23674.3
23675.9
23678.9
23683.5
23690.2
23699.3
23711.2
23726.1
23743
23762.4
23783.5
23801.9
23815.8
23824
23826.7
23827.7
23833
23841
23847.5
23849.3
23862
23886.4
23850.2
51795.4
51058.4
50163.1
48909.1
47345.7
44776.7
39886.4
30274
24403.6
23742.4
23726.8
23728.5
23728
23727.9
23727.7
23727
23727
23726.9
23727.6
23727.3
23727.8
23727
23726.8
23729.2
23731.6
23752.4
23762.1
23735.8
23739.3
23756.8
23740.3
23712.2
23708.9
23703.2
23697.4
23691.9
23686.7
23682.2
23678.7
23676.3
23674.7
23673.8
23673.6
23673.6
23673.6
23673.7
23674.3
23675.9
23678.9
23683.4
23690.2
23699.3
23711.2
23726.1
23743
23762.3
23783.5
23801.9
23815.9
23824.1
23826.8
23827.9
23833.1
23841.9
23846.6
23849.4
23862.3
23886.1
23843
52432.8
51795.8
51058
50163
48909
47345.6
44776.6
39885.9
30273.7
24403.4
23742.4
23726.8
23728.5
23728
23727.9
23727.7
23727
23727
23727
23727.7
23727.3
23727.8
23727
23726.8
23729.2
23731.6
23752.4
23762.1
23735.8
23739.3
23756.8
23740.4
23712.2
23708.9
23703.2
23697.5
23691.9
23686.7
23682.2
23678.7
23676.3
23674.7
23673.8
23673.6
23673.6
23673.6
23673.6
23674.3
23675.9
23678.8
23683.4
23690.2
23699.2
23711.2
23726.1
23743
23762.3
23783.5
23801.9
23815.9
23824.2
23827
23828.2
23833.3
23842.5
23846
23849.1
23862.7
23885.7
23834.9
52980.1
52433.2
51795.5
51058
50162.8
48908.9
47345.5
44776.5
39885.4
30273.2
24403.3
23742.4
23726.8
23728.5
23728.1
23727.9
23727.7
23727
23727
23727
23727.7
23727.3
23727.8
23727
23726.8
23729.2
23731.7
23752.5
23762.2
23735.8
23739.3
23756.9
23740.4
23712.2
23708.9
23703.2
23697.5
23691.9
23686.7
23682.2
23678.7
23676.3
23674.7
23673.8
23673.6
23673.6
23673.6
23673.6
23674.2
23675.9
23678.8
23683.4
23690.2
23699.2
23711.2
23726
23743
23762.3
23783.5
23802
23816
23824.3
23827.2
23828.5
23833.7
23842.1
23845.8
23849.2
23863.1
23885.3
23826.9
53456.9
52980.5
52432.9
51795.4
51057.8
50162.7
48908.7
47345.4
44776.3
39885
30272.9
24403.1
23742.4
23726.8
23728.5
23728.1
23727.9
23727.7
23727
23727
23727
23727.7
23727.3
23727.8
23727.1
23726.8
23729.2
23731.6
23752.5
23762.2
23735.8
23739.3
23756.9
23740.4
23712.2
23709
23703.2
23697.5
23691.9
23686.8
23682.2
23678.7
23676.3
23674.7
23673.8
23673.6
23673.6
23673.5
23673.6
23674.2
23675.8
23678.8
23683.4
23690.2
23699.2
23711.2
23726
23743
23762.3
23783.5
23802
23816.1
23824.5
23827.5
23828.5
23835.1
23840.6
23845.6
23849.1
23863.5
23884.8
23817.8
53879.2
53457.3
52980.2
52432.8
51795.2
51057.6
50162.5
48908.5
47345.3
44776.1
39884.5
30272.5
24402.8
23742.4
23726.8
23728.5
23728.1
23727.9
23727.7
23727.1
23727.1
23727
23727.7
23727.3
23727.8
23727.1
23726.8
23729.2
23731.7
23752.5
23762.2
23735.8
23739.3
23757
23740.5
23712.2
23709
23703.2
23697.5
23691.9
23686.8
23682.2
23678.7
23676.3
23674.7
23673.8
23673.6
23673.6
23673.5
23673.6
23674.2
23675.8
23678.8
23683.4
23690.1
23699.2
23711.1
23726
23743
23762.3
23783.6
23802.1
23816.2
23824.7
23827.8
23828.9
23835.2
23840.4
23845.6
23849.2
23864
23884.2
23807.9
54259.4
53879.6
53457
52980.1
52432.6
51795
51057.4
50162.3
48908.4
47345.1
44775.9
39884.2
30272.1
24402.6
23742.4
23726.8
23728.5
23728.1
23727.9
23727.7
23727.1
23727.1
23727
23727.7
23727.4
23727.9
23727.1
23726.8
23729.2
23731.7
23752.5
23762.3
23735.8
23739.3
23757
23740.5
23712.2
23709
23703.3
23697.5
23691.9
23686.8
23682.2
23678.7
23676.3
23674.6
23673.8
23673.6
23673.6
23673.5
23673.6
23674.2
23675.8
23678.7
23683.3
23690.1
23699.2
23711.1
23726
23743
23762.3
23783.6
23802.2
23816.4
23824.9
23827.8
23830.2
23833.5
23840
23845.4
23849.2
23864.6
23883.5
23796.9
54604.1
54259.9
53879.3
53457
52980
52432.5
51794.8
51057.2
50162
48908.1
47344.9
44775.7
39883.9
30271.8
24402.4
23742.4
23726.8
23728.5
23728.1
23727.9
23727.8
23727.1
23727.1
23727
23727.7
23727.4
23727.9
23727.1
23726.8
23729.2
23731.7
23752.5
23762.3
23735.8
23739.3
23757.1
23740.5
23712.2
23709
23703.3
23697.5
23691.9
23686.8
23682.2
23678.7
23676.2
23674.6
23673.8
23673.6
23673.5
23673.5
23673.5
23674.2
23675.8
23678.7
23683.3
23690.1
23699.2
23711.1
23726
23743
23762.4
23783.7
23802.3
23816.6
23825.2
23828.1
23830.8
23833.1
23840
23845.4
23849.4
23865.2
23882.7
23784.7
54916.9
54604.6
54259.7
53879.3
53456.9
52979.8
52432.3
51794.5
51056.9
50161.8
48907.9
47344.7
44775.4
39883.3
30271.2
24402.1
23742.4
23726.8
23728.5
23728.1
23727.9
23727.8
23727.1
23727.1
23727.1
23727.8
23727.4
23727.9
23727.1
23726.9
23729.2
23731.7
23752.5
23762.3
23735.8
23739.3
23757.1
23740.6
23712.2
23709
23703.3
23697.5
23691.9
23686.7
23682.2
23678.7
23676.2
23674.6
23673.7
23673.5
23673.5
23673.4
23673.5
23674.1
23675.7
23678.7
23683.3
23690.1
23699.1
23711.1
23726
23743
23762.4
23783.8
23802.5
23816.8
23825.2
23829.6
23828.9
23832.9
23839.8
23845.3
23849.6
23865.8
23881.7
23771.3
55202.2
54917.4
54604.4
54259.7
53879.2
53456.8
52979.7
52432
51794.3
51056.6
50161.5
48907.6
47344.5
44775.1
39883.1
30270.7
24401.8
23742.4
23726.9
23728.5
23728.1
23728
23727.8
23727.1
23727.1
23727.1
23727.8
23727.4
23727.9
23727.1
23726.9
23729.2
23731.7
23752.6
23762.3
23735.8
23739.4
23757.1
23740.6
23712.2
23709
23703.3
23697.5
23691.9
23686.7
23682.2
23678.7
23676.2
23674.6
23673.7
23673.5
23673.5
23673.4
23673.5
23674.1
23675.7
23678.7
23683.3
23690.1
23699.1
23711.1
23726.1
23743.1
23762.5
23783.9
23802.7
23817
23825.3
23830.2
23828.7
23832.8
23839.6
23845.2
23849.8
23866.6
23880.6
23755.9
55462.1
55202.7
54917.3
54604.4
54259.6
53879.2
53456.6
52979.5
52431.8
51793.9
51056.2
50161.1
48907.3
47344.2
44774.8
39882.6
30270.1
24401.5
23742.4
23726.9
23728.6
23728.2
23728
23727.8
23727.2
23727.1
23727.1
23727.8
23727.4
23727.9
23727.1
23726.9
23729.2
23731.7
23752.6
23762.3
23735.7
23739.4
23757.1
23740.6
23712.2
23709
23703.3
23697.5
23691.9
23686.7
23682.2
23678.6
23676.2
23674.6
23673.7
23673.5
23673.5
23673.4
23673.5
23674.1
23675.7
23678.6
23683.3
23690
23699.2
23711.2
23726.1
23743.2
23762.7
23784.1
23803
23817.1
23827.3
23827.9
23828.4
23832.7
23839.5
23845.2
23850.2
23867.3
23879
23739.2
55698.8
55462.6
55202.6
54917.3
54604.4
54259.6
53879.1
53456.5
52979.2
52431.5
51793.6
51055.9
50160.8
48907
47343.9
44774.5
39882.2
30269.6
24401.2
23742.5
23726.9
23728.6
23728.2
23728
23727.8
23727.2
23727.2
23727.1
23727.8
23727.5
23727.9
23727.2
23726.9
23729.2
23731.7
23752.6
23762.4
23735.7
23739.4
23757.1
23740.6
23712.2
23709
23703.2
23697.5
23691.9
23686.7
23682.1
23678.6
23676.2
23674.5
23673.7
23673.5
23673.4
23673.4
23673.4
23674.1
23675.7
23678.6
23683.2
23690
23699.2
23711.2
23726.2
23743.3
23762.8
23784.3
23803
23817.5
23826.9
23827.9
23828.4
23832.6
23839.3
23845.1
23850.7
23868.1
23877
23721.1
55914
55699.3
55462.5
55202.6
54917.3
54604.4
54259.6
53879
53456.3
52979
52431.2
51793.2
51055.4
50160.4
48906.6
47343.6
44774.2
39881.7
30268.8
24400.8
23742.5
23727
23728.6
23728.2
23728
23727.9
23727.2
23727.2
23727.1
23727.8
23727.5
23728
23727.2
23726.9
23729.2
23731.7
23752.6
23762.4
23735.6
23739.5
23757.1
23740.7
23712.2
23709
23703.2
23697.5
23691.9
23686.7
23682.1
23678.6
23676.1
23674.5
23673.6
23673.4
23673.4
23673.3
23673.4
23674
23675.6
23678.6
23683.2
23690.1
23699.2
23711.3
23726.3
23743.4
23763
23784.6
23802.8
23819.4
23824.9
23827.3
23828.4
23832.5
23839.2
23845.1
23851.3
23868.7
23874.2
23701.7
56109.6
55914.5
55699.2
55462.6
55202.6
54917.3
54604.4
54259.5
53878.9
53456.1
52978.7
52430.8
51792.8
51055
50159.9
48906.3
47343.3
44773.9
39881.2
30268.1
24400.5
23742.5
23727
23728.6
23728.2
23728
23727.9
23727.2
23727.2
23727.1
23727.8
23727.5
23728
23727.2
23726.9
23729.2
23731.7
23752.7
23762.4
23735.6
23739.6
23757.1
23740.7
23712.2
23708.9
23703.2
23697.5
23691.9
23686.7
23682.1
23678.6
23676.1
23674.5
23673.6
23673.4
23673.4
23673.3
23673.4
23674
23675.6
23678.6
23683.2
23690.1
23699.2
23711.3
23726.4
23743.6
23763.3
23784.5
23804.7
23817.8
23824.5
23827.4
23828.5
23832.5
23839
23845.2
23852.1
23869.4
23870.5
23681.3
56287.4
56110.1
55914.4
55699.3
55462.6
55202.7
54917.3
54604.4
54259.4
53878.7
53455.9
52978.4
52430.4
51792.3
51054.5
50159.4
48905.8
47343
44773.4
39880.7
30267.3
24400.1
23742.6
23727
23728.6
23728.2
23728.1
23727.9
23727.2
23727.2
23727.2
23727.9
23727.5
23728
23727.2
23726.9
23729.2
23731.7
23752.7
23762.3
23735.5
23739.8
23757
23740.7
23712.2
23708.9
23703.2
23697.5
23691.9
23686.7
23682.1
23678.5
23676.1
23674.4
23673.6
23673.4
23673.3
23673.3
23673.4
23674
23675.6
23678.6
23683.2
23690.1
23699.3
23711.5
23726.6
23743.8
23763.4
23784.5
23805
23816.7
23824.2
23827.2
23828.5
23832.5
23838.9
23845.3
23853.2
23869.6
23865.1
23660.1
56449.4
56287.9
56110.1
55914.5
55699.4
55462.7
55202.7
54917.3
54604.3
54259.3
53878.6
53455.7
52978.1
52430
51791.8
51054
50159
48905.4
47342.6
44773.2
39880.4
30266.4
24399.7
23742.6
23727.1
23728.7
23728.3
23728.1
23727.9
23727.2
23727.2
23727.2
23727.9
23727.5
23728
23727.2
23726.9
23729.2
23731.7
23752.8
23762.3
23735.4
23740
23757
23740.8
23712.2
23708.9
23703.2
23697.4
23691.9
23686.6
23682
23678.5
23676
23674.4
23673.5
23673.3
23673.3
23673.3
23673.3
23674
23675.6
23678.6
23683.3
23690.2
23699.4
23711.6
23726.8
23744.2
23763.3
23787
23803.2
23816.1
23824
23827.2
23828.6
23832.5
23838.8
23845.5
23854.5
23869.6
23858
23638.7
56597.5
56449.8
56287.9
56110.2
55914.6
55699.5
55462.8
55202.8
54917.3
54604.3
54259.2
53878.4
53455.4
52977.7
52429.5
51791.3
51053.4
50158.4
48904.9
47342.2
44772.9
39880.1
30265.4
24399.2
23742.7
23727.1
23728.7
23728.3
23728.1
23727.9
23727.3
23727.2
23727.2
23727.9
23727.5
23728
23727.2
23726.9
23729.2
23731.7
23752.8
23762.3
23735.3
23740.1
23756.9
23740.5
23712.1
23708.9
23703.2
23697.4
23691.8
23686.6
23682
23678.5
23676
23674.4
23673.5
23673.3
23673.3
23673.2
23673.3
23674
23675.6
23678.6
23683.3
23690.3
23699.6
23711.8
23727.1
23744.2
23765.1
23785.5
23802.1
23816
23823.8
23827.1
23828.8
23832.5
23838.6
23845.7
23856
23869.4
23849
23617.7
56733.6
56597.9
56449.8
56288
56110.3
55914.8
55699.6
55462.9
55202.8
54917.4
54604.2
54259.1
53878.2
53455.1
52977.4
52429.1
51790.7
51052.8
50157.8
48904.4
47341.8
44772.7
39880
30264.3
24398.7
23742.7
23727.1
23728.7
23728.3
23728.1
23728
23727.3
23727.3
23727.2
23727.9
23727.5
23728
23727.2
23726.9
23729.2
23731.7
23752.9
23762.2
23735.2
23740.4
23756.8
23740.5
23712.1
23708.9
23703.2
23697.4
23691.8
23686.6
23682
23678.4
23676
23674.3
23673.5
23673.3
23673.3
23673.2
23673.3
23674
23675.6
23678.7
23683.4
23690.4
23699.8
23712
23727.3
23744.2
23765.6
23784
23802
23815.7
23823.5
23827
23829
23832.6
23838.5
23846.2
23857.8
23869.1
23836.4
23597.7
56859.4
56734
56597.9
56450
56288.2
56110.5
55914.9
55699.7
55462.9
55202.9
54917.4
54604.2
54259
53878
53454.8
52976.9
52428.5
51790.1
51052.2
50157.2
48903.9
47341.3
44772.4
39879.9
30263
24398.1
23742.8
23727.1
23728.7
23728.3
23728.1
23728
23727.3
23727.3
23727.2
23727.9
23727.6
23728
23727.2
23726.9
23729.2
23731.7
23753
23762.2
23735.2
23740.7
23756.7
23740.4
23712.1
23708.8
23703.1
23697.4
23691.8
23686.5
23681.9
23678.4
23675.9
23674.3
23673.4
23673.3
23673.2
23673.2
23673.3
23674
23675.7
23678.8
23683.5
23690.6
23700
23712.3
23726.9
23747
23764
23783.4
23801.6
23815.3
23823.2
23826.9
23829.3
23832.7
23838.4