/*--------------------------------*- C++ -*----------------------------------*\
| =========                 |                                                 |
| \\      /  F ield         | OpenFOAM: The Open Source CFD Toolbox           |
|  \\    /   O peration     | Version:  v2012                                 |
|   \\  /    A nd           | Website:  www.openfoam.com                      |
|    \\/     M anipulation  |                                                 |
\*---------------------------------------------------------------------------*/
FoamFile
{
    version     2.0;
    format      ascii;
    class       volScalarField;
    location    "13380";
    object      Prt;
}
// * * * * * * * * * * * * * * * * * * * * * * * * * * * * * * * * * * * * * //

dimensions      [0 0 0 0 0 0 0];


internalField   nonuniform List<scalar> 
31383
(
0.852478
0.85248
0.852069
0.852484
0.852059
0.852071
0.852487
0.852061
0.852004
0.852053
0.852489
0.852063
0.852009
0.851913
0.852024
0.852491
0.852064
0.852013
0.851923
0.85179
0.851986
0.852493
0.852066
0.852016
0.85193
0.851806
0.851635
0.851939
0.852494
0.852066
0.852018
0.851935
0.851818
0.851658
0.851445
0.851881
0.852495
0.852067
0.85202
0.85194
0.851827
0.851676
0.851477
0.851219
0.851812
0.852496
0.852068
0.852022
0.851944
0.851834
0.851689
0.851502
0.851261
0.850956
0.851728
0.852497
0.852069
0.852023
0.851947
0.85184
0.8517
0.85152
0.851294
0.85101
0.85066
0.85163
0.852498
0.852069
0.852025
0.85195
0.851845
0.851709
0.851535
0.851318
0.851051
0.850725
0.850338
0.851513
0.852499
0.85207
0.852026
0.851952
0.85185
0.851717
0.851548
0.851338
0.851082
0.850775
0.850414
0.850005
0.851376
0.852499
0.85207
0.852027
0.851954
0.851854
0.851723
0.851558
0.851355
0.851107
0.850813
0.850473
0.850089
0.849675
0.85122
0.8525
0.85207
0.852028
0.851956
0.851857
0.851729
0.851568
0.851369
0.851128
0.850844
0.850517
0.850155
0.849765
0.849362
0.851046
0.8525
0.852071
0.852029
0.851958
0.85186
0.851734
0.851576
0.851381
0.851147
0.85087
0.850554
0.850205
0.849836
0.849457
0.849078
0.850855
0.852501
0.852071
0.852029
0.851959
0.851863
0.851739
0.851583
0.851392
0.851162
0.850893
0.850585
0.850247
0.849891
0.849531
0.849174
0.848825
0.850653
0.852501
0.852071
0.85203
0.851961
0.851866
0.851743
0.85159
0.851402
0.851176
0.850912
0.850612
0.850282
0.849936
0.849588
0.84925
0.848921
0.848602
0.850447
0.852502
0.852072
0.852031
0.851962
0.851868
0.851747
0.851595
0.85141
0.851188
0.850929
0.850634
0.850312
0.849975
0.849636
0.849308
0.848998
0.848698
0.848408
0.850248
0.852502
0.852072
0.852031
0.851963
0.85187
0.85175
0.851601
0.851418
0.8512
0.850944
0.850655
0.850338
0.850008
0.849677
0.849357
0.849057
0.848775
0.848503
0.848242
0.85006
0.852502
0.852072
0.852032
0.851964
0.851872
0.851754
0.851606
0.851425
0.85121
0.850958
0.850673
0.850361
0.850036
0.849712
0.849399
0.849107
0.848835
0.84858
0.848336
0.8481
0.849886
0.852503
0.852072
0.852032
0.851965
0.851874
0.851756
0.85161
0.851432
0.851219
0.85097
0.850689
0.850382
0.850062
0.849742
0.849435
0.849149
0.848884
0.848639
0.848412
0.848192
0.847981
0.849727
0.852503
0.852072
0.852033
0.851966
0.851875
0.851759
0.851614
0.851438
0.851227
0.850982
0.850704
0.8504
0.850084
0.849769
0.849467
0.849186
0.848927
0.848689
0.848471
0.848268
0.848071
0.84788
0.849583
0.852503
0.852073
0.852033
0.851967
0.851877
0.851761
0.851618
0.851443
0.851235
0.850992
0.850717
0.850417
0.850104
0.849792
0.849494
0.849218
0.848964
0.848732
0.84852
0.848326
0.848145
0.847968
0.847796
0.849455
0.852503
0.852073
0.852033
0.851968
0.851878
0.851763
0.851621
0.851448
0.851241
0.851001
0.850729
0.850432
0.850123
0.849814
0.849519
0.849246
0.848996
0.848768
0.848562
0.848375
0.848203
0.848042
0.847881
0.847725
0.849344
0.852504
0.852073
0.852034
0.851968
0.851879
0.851765
0.851624
0.851452
0.851247
0.851009
0.85074
0.850446
0.85014
0.849833
0.849541
0.84927
0.849024
0.8488
0.848598
0.848417
0.848251
0.848099
0.847953
0.847807
0.847665
0.84925
0.852504
0.852073
0.852034
0.851969
0.85188
0.851767
0.851626
0.851456
0.851253
0.851017
0.85075
0.850459
0.850155
0.849851
0.849561
0.849293
0.849048
0.848828
0.84863
0.848453
0.848293
0.848147
0.84801
0.847879
0.847744
0.847615
0.849173
0.852504
0.852073
0.852034
0.851969
0.851881
0.851769
0.851629
0.851459
0.851258
0.851024
0.850759
0.85047
0.850168
0.849867
0.849579
0.849313
0.849071
0.848853
0.848658
0.848484
0.848328
0.848187
0.848057
0.847935
0.847816
0.847691
0.847574
0.849113
0.852504
0.852073
0.852034
0.85197
0.851882
0.85177
0.851631
0.851463
0.851262
0.85103
0.850767
0.85048
0.850181
0.849882
0.849596
0.849331
0.849091
0.848875
0.848683
0.848512
0.848359
0.848222
0.848098
0.847981
0.847871
0.847762
0.847645
0.847539
0.849071
0.852504
0.852073
0.852034
0.85197
0.851883
0.851771
0.851633
0.851465
0.851267
0.851035
0.850774
0.85049
0.850192
0.849895
0.849611
0.849348
0.849109
0.848895
0.848705
0.848536
0.848387
0.848253
0.848132
0.848021
0.847917
0.847817
0.847715
0.847605
0.84751
0.84905
0.852504
0.852073
0.852035
0.851971
0.851884
0.851772
0.851635
0.851468
0.85127
0.851041
0.850781
0.850498
0.850202
0.849907
0.849624
0.849363
0.849126
0.848913
0.848724
0.848558
0.848411
0.84828
0.848162
0.848056
0.847957
0.847862
0.84777
0.847675
0.847571
0.847486
0.849055
0.852504
0.852073
0.852035
0.851971
0.851884
0.851773
0.851636
0.85147
0.851274
0.851045
0.850787
0.850506
0.850212
0.849918
0.849637
0.849376
0.849141
0.84893
0.848742
0.848577
0.848432
0.848304
0.848189
0.848086
0.847991
0.847901
0.847815
0.847729
0.847639
0.847541
0.847467
0.849088
0.852505
0.852073
0.852035
0.851971
0.851885
0.851774
0.851638
0.851473
0.851277
0.851049
0.850793
0.850513
0.85022
0.849928
0.849648
0.849389
0.849155
0.848945
0.848759
0.848595
0.848451
0.848325
0.848213
0.848112
0.84802
0.847935
0.847854
0.847774
0.847693
0.847608
0.847515
0.847452
0.849145
0.852505
0.852073
0.852035
0.851972
0.851885
0.851775
0.851639
0.851475
0.85128
0.851053
0.850798
0.850519
0.850228
0.849937
0.849658
0.8494
0.849167
0.848958
0.848773
0.848611
0.848468
0.848344
0.848234
0.848135
0.848046
0.847965
0.847887
0.847812
0.847738
0.847662
0.847582
0.847493
0.847442
0.849234
0.852505
0.852074
0.852035
0.851972
0.851886
0.851776
0.851641
0.851477
0.851282
0.851057
0.850802
0.850525
0.850235
0.849945
0.849668
0.849411
0.849179
0.848971
0.848787
0.848625
0.848484
0.848361
0.848252
0.848156
0.848069
0.847991
0.847916
0.847845
0.847776
0.847706
0.847635
0.847558
0.847474
0.847435
0.849353
0.852505
0.852074
0.852035
0.851972
0.851887
0.851777
0.851642
0.851478
0.851285
0.85106
0.850806
0.85053
0.850241
0.849953
0.849676
0.84942
0.849189
0.848982
0.848799
0.848638
0.848498
0.848376
0.848269
0.848174
0.84809
0.848013
0.847942
0.847874
0.847809
0.847744
0.847679
0.847611
0.847538
0.847458
0.847432
0.849493
0.852505
0.852074
0.852036
0.851973
0.851887
0.851778
0.851643
0.85148
0.851287
0.851063
0.85081
0.850535
0.850247
0.84996
0.849684
0.849429
0.849199
0.848993
0.84881
0.848651
0.848511
0.84839
0.848284
0.848191
0.848108
0.848034
0.847965
0.8479
0.847838
0.847777
0.847716
0.847655
0.84759
0.847521
0.847445
0.847434
0.849653
0.852505
0.852074
0.852036
0.851973
0.851887
0.851778
0.851644
0.851481
0.851289
0.851066
0.850814
0.850539
0.850253
0.849966
0.849691
0.849437
0.849207
0.849002
0.848821
0.848662
0.848523
0.848403
0.848298
0.848205
0.848124
0.848051
0.847985
0.847923
0.847863
0.847806
0.847749
0.847692
0.847634
0.847572
0.847506
0.847435
0.847441
0.849833
0.852505
0.852074
0.852036
0.851973
0.851888
0.851779
0.851645
0.851483
0.851291
0.851068
0.850817
0.850543
0.850257
0.849972
0.849698
0.849444
0.849215
0.849011
0.84883
0.848672
0.848534
0.848414
0.84831
0.848219
0.848139
0.848067
0.848003
0.847942
0.847886
0.847831
0.847777
0.847724
0.847671
0.847615
0.847557
0.847494
0.847427
0.847453
0.850034
0.852503
0.852074
0.852036
0.851973
0.851888
0.85178
0.851646
0.851484
0.851292
0.85107
0.85082
0.850547
0.850262
0.849977
0.849704
0.849451
0.849223
0.849019
0.848839
0.848681
0.848544
0.848425
0.848322
0.848231
0.848152
0.848082
0.848018
0.84796
0.847905
0.847853
0.847803
0.847753
0.847703
0.847652
0.8476
0.847544
0.847484
0.847423
0.84747
0.850258
0.852505
0.852054
0.852036
0.851973
0.851889
0.85178
0.851647
0.851485
0.851294
0.851073
0.850823
0.850551
0.850266
0.849982
0.849709
0.849457
0.84923
0.849026
0.848847
0.84869
0.848553
0.848435
0.848332
0.848243
0.848164
0.848095
0.848033
0.847976
0.847923
0.847873
0.847825
0.847778
0.847731
0.847684
0.847636
0.847586
0.847533
0.847476
0.847421
0.847495
0.850502
0.852505
0.852072
0.851973
0.851974
0.851889
0.851781
0.851647
0.851486
0.851296
0.851075
0.850826
0.850554
0.85027
0.849986
0.849714
0.849463
0.849236
0.849033
0.848854
0.848698
0.848562
0.848444
0.848342
0.848253
0.848175
0.848107
0.848046
0.84799
0.847938
0.84789
0.847844
0.8478
0.847756
0.847712
0.847668
0.847622
0.847574
0.847524
0.84747
0.847422
0.847528
0.850763
0.852501
0.852071
0.852029
0.851849
0.851889
0.851781
0.851648
0.851487
0.851297
0.851077
0.850828
0.850557
0.850274
0.849991
0.849719
0.849468
0.849241
0.849039
0.848861
0.848705
0.84857
0.848453
0.848351
0.848263
0.848186
0.848118
0.848058
0.848003
0.847952
0.847905
0.847861
0.847819
0.847778
0.847737
0.847695
0.847654
0.84761
0.847565
0.847517
0.847467
0.847427
0.847573
0.851031
0.852504
0.852065
0.852026
0.85196
0.851683
0.851782
0.851649
0.851488
0.851298
0.851078
0.85083
0.85056
0.850277
0.849995
0.849723
0.849473
0.849247
0.849045
0.848867
0.848712
0.848577
0.84846
0.848359
0.848272
0.848195
0.848128
0.848069
0.848014
0.847965
0.847919
0.847877
0.847836
0.847797
0.847758
0.84772
0.847681
0.847641
0.8476
0.847557
0.847511
0.847465
0.847435
0.847633
0.851286
0.852506
0.852068
0.852003
0.851953
0.851866
0.851474
0.85165
0.851489
0.8513
0.85108
0.850832
0.850563
0.850281
0.849998
0.849728
0.849477
0.849252
0.84905
0.848873
0.848718
0.848583
0.848467
0.848367
0.84828
0.848204
0.848138
0.848079
0.848025
0.847977
0.847932
0.84789
0.847851
0.847814
0.847778
0.847742
0.847705
0.847669
0.847631
0.847592
0.847551
0.847508
0.847466
0.847448
0.847713
0.851504
0.852507
0.852072
0.852014
0.851906
0.851854
0.851747
0.85122
0.851491
0.851301
0.851082
0.850834
0.850565
0.850283
0.850002
0.849731
0.849482
0.849256
0.849055
0.848878
0.848723
0.84859
0.848474
0.848374
0.848287
0.848212
0.848146
0.848088
0.848035
0.847987
0.847944
0.847903
0.847865
0.847829
0.847794
0.847761
0.847727
0.847693
0.847658
0.847622
0.847585
0.847546
0.847506
0.84747
0.847466
0.847819
0.851664
0.852506
0.852073
0.852029
0.851929
0.851775
0.851729
0.8516
0.850924
0.851303
0.851083
0.850837
0.850568
0.850286
0.850005
0.849735
0.849486
0.849261
0.84906
0.848883
0.848729
0.848595
0.84848
0.848381
0.848294
0.848219
0.848154
0.848097
0.848045
0.847997
0.847954
0.847914
0.847878
0.847843
0.847809
0.847777
0.847746
0.847714
0.847682
0.847649
0.847615
0.84758
0.847543
0.847507
0.847476
0.847491
0.847959
0.851762
0.852506
0.852074
0.852031
0.85196
0.851815
0.851609
0.851576
0.851424
0.850596
0.851086
0.850838
0.85057
0.850289
0.850008
0.849739
0.849489
0.849265
0.849064
0.848888
0.848734
0.8486
0.848486
0.848386
0.848301
0.848226
0.848162
0.848104
0.848053
0.848007
0.847964
0.847925
0.847889
0.847855
0.847823
0.847792
0.847762
0.847733
0.847703
0.847672
0.847641
0.847609
0.847576
0.847542
0.847509
0.847486
0.847527
0.848138
0.851811
0.852506
0.852074
0.852037
0.851965
0.851868
0.851671
0.851406
0.851393
0.851217
0.850252
0.850842
0.850572
0.850292
0.850011
0.849742
0.849493
0.849269
0.849068
0.848892
0.848738
0.848605
0.848491
0.848392
0.848307
0.848233
0.848168
0.848112
0.848061
0.848015
0.847973
0.847935
0.847899
0.847866
0.847835
0.847806
0.847777
0.847749
0.847721
0.847693
0.847665
0.847635
0.847605
0.847574
0.847543
0.847514
0.847499
0.847574
0.848356
0.851829
0.852506
0.852074
0.852037
0.851976
0.851876
0.851752
0.851495
0.851167
0.851181
0.850981
0.849918
0.850577
0.850294
0.850014
0.849745
0.849496
0.849272
0.849072
0.848896
0.848743
0.84861
0.848496
0.848397
0.848312
0.848238
0.848175
0.848119
0.848068
0.848023
0.847982
0.847944
0.847909
0.847877
0.847847
0.847818
0.84779
0.847764
0.847738
0.847712
0.847685
0.847658
0.847631
0.847602
0.847574
0.847546
0.847522
0.847516
0.847635
0.848617
0.851835
0.852506
0.852074
0.852037
0.851977
0.851893
0.851765
0.85161
0.851286
0.850895
0.850941
0.850719
0.84961
0.8503
0.850016
0.849748
0.849499
0.849276
0.849076
0.8489
0.848747
0.848614
0.8485
0.848402
0.848317
0.848244
0.848181
0.848125
0.848075
0.84803
0.847989
0.847952
0.847918
0.847886
0.847857
0.847829
0.847803
0.847777
0.847753
0.847728
0.847704
0.847679
0.847653
0.847627
0.847601
0.847575
0.847551
0.847532
0.847539
0.847715
0.848931
0.851836
0.852506
0.852074
0.852038
0.851977
0.851894
0.851788
0.851629
0.851441
0.851047
0.850601
0.850676
0.85044
0.849337
0.850023
0.84975
0.849503
0.849279
0.84908
0.848904
0.848751
0.848618
0.848504
0.848406
0.848322
0.848249
0.848186
0.848131
0.848081
0.848037
0.847997
0.84796
0.847926
0.847895
0.847866
0.847839
0.847814
0.847789
0.847766
0.847743
0.84772
0.847697
0.847673
0.84765
0.847626
0.847602
0.847578
0.847558
0.847546
0.847569
0.84782
0.849294
0.851835
0.852506
0.852074
0.852038
0.851977
0.851895
0.85179
0.851658
0.851467
0.851244
0.850783
0.8503
0.850398
0.850157
0.849102
0.849758
0.849505
0.849282
0.849083
0.848907
0.848754
0.848622
0.848509
0.848411
0.848326
0.848254
0.848191
0.848136
0.848087
0.848043
0.848003
0.847967
0.847934
0.847903
0.847875
0.847849
0.847824
0.8478
0.847778
0.847756
0.847734
0.847713
0.847691
0.847669
0.847647
0.847625
0.847604
0.847584
0.847568
0.847564
0.84761
0.847956
0.8497
0.851835
0.852506
0.852074
0.852038
0.851977
0.851895
0.851791
0.851661
0.851502
0.851276
0.851019
0.850503
0.850008
0.850116
0.849881
0.848899
0.849514
0.849285
0.849086
0.848911
0.848758
0.848626
0.848512
0.848415
0.848331
0.848258
0.848196
0.848141
0.848092
0.848049
0.848009
0.847974
0.847941
0.847911
0.847883
0.847858
0.847833
0.84781
0.847788
0.847767
0.847747
0.847727
0.847707
0.847687
0.847667
0.847646
0.847626
0.847608
0.847591
0.847581
0.847586
0.847665
0.848131
0.850145
0.851835
0.852506
0.852074
0.852038
0.851977
0.851896
0.851791
0.851663
0.851507
0.851318
0.851057
0.850768
0.850221
0.849736
0.849844
0.849623
0.848726
0.849294
0.849089
0.848914
0.848761
0.84863
0.848516
0.848419
0.848335
0.848262
0.8482
0.848145
0.848097
0.848054
0.848015
0.84798
0.847948
0.847918
0.847891
0.847866
0.847842
0.84782
0.847798
0.847778
0.847759
0.84774
0.847721
0.847703
0.847684
0.847665
0.847647
0.847629
0.847614
0.847601
0.847597
0.847615
0.847736
0.84835
0.85061
0.851834
0.852506
0.852074
0.852038
0.851977
0.851896
0.851792
0.851664
0.851509
0.851324
0.851105
0.850813
0.8505
0.849947
0.849489
0.849591
0.84939
0.848576
0.849099
0.848917
0.848765
0.848633
0.84852
0.848422
0.848338
0.848266
0.848204
0.84815
0.848102
0.848059
0.84802
0.847985
0.847954
0.847925
0.847898
0.847873
0.84785
0.847828
0.847808
0.847788
0.847769
0.847751
0.847734
0.847717
0.847699
0.847682
0.847666
0.847649
0.847634
0.847622
0.847614
0.847618
0.847651
0.84783
0.848616
0.851061
0.851834
0.852506
0.852074
0.852038
0.851978
0.851896
0.851793
0.851665
0.85151
0.851326
0.851112
0.850865
0.850549
0.850223
0.849689
0.849268
0.849363
0.849182
0.848446
0.848928
0.848767
0.848636
0.848523
0.848426
0.848342
0.84827
0.848208
0.848154
0.848106
0.848063
0.848025
0.847991
0.847959
0.847931
0.847904
0.84788
0.847857
0.847836
0.847816
0.847797
0.847779
0.847762
0.847745
0.847729
0.847713
0.847698
0.847682
0.847667
0.847653
0.847641
0.847632
0.847631
0.847643
0.8477
0.847952
0.848924
0.851441
0.851834
0.852506
0.852074
0.852038
0.851978
0.851896
0.851793
0.851666
0.851511
0.851328
0.851115
0.850873
0.850603
0.850274
0.849951
0.849452
0.849071
0.84916
0.849
0.848332
0.848779
0.848639
0.848527
0.848429
0.848346
0.848274
0.848212
0.848158
0.84811
0.848068
0.84803
0.847995
0.847964
0.847936
0.84791
0.847887
0.847864
0.847844
0.847824
0.847806
0.847788
0.847772
0.847756
0.84774
0.847725
0.847711
0.847697
0.847683
0.84767
0.847659
0.84765
0.847646
0.847651
0.847674
0.847764
0.848113
0.849282
0.851707
0.851834
0.852506
0.852074
0.852038
0.851978
0.851897
0.851793
0.851666
0.851512
0.85133
0.851117
0.850877
0.850612
0.850328
0.850002
0.849692
0.849239
0.8489
0.848981
0.84884
0.848232
0.848651
0.848529
0.848433
0.848349
0.848277
0.848215
0.848162
0.848114
0.848072
0.848034
0.848
0.847969
0.847941
0.847916
0.847892
0.847871
0.847851
0.847831
0.847814
0.847797
0.84778
0.847765
0.84775
0.847736
0.847723
0.84771
0.847698
0.847686
0.847675
0.847666
0.847661
0.847663
0.847676
0.847714
0.847847
0.848323
0.849695
0.851861
0.851834
0.852507
0.852074
0.852038
0.851978
0.851897
0.851794
0.851667
0.851513
0.851331
0.85112
0.85088
0.850617
0.850339
0.850054
0.849742
0.849456
0.84905
0.84875
0.848826
0.848702
0.848143
0.848542
0.848435
0.848352
0.848281
0.848219
0.848165
0.848118
0.848076
0.848038
0.848004
0.847974
0.847946
0.847921
0.847898
0.847877
0.847857
0.847838
0.847821
0.847804
0.847789
0.847774
0.84776
0.847747
0.847734
0.847722
0.84771
0.8477
0.84769
0.847682
0.847676
0.847676
0.847683
0.847706
0.847765
0.847958
0.848589
0.850161
0.851931
0.851834
0.852528
0.852075
0.852038
0.851978
0.851897
0.851794
0.851667
0.851514
0.851333
0.851122
0.850882
0.85062
0.850344
0.850064
0.84979
0.849503
0.849244
0.848885
0.848617
0.848692
0.848583
0.848064
0.848448
0.848355
0.848284
0.848222
0.848169
0.848121
0.848079
0.848042
0.848008
0.847978
0.847951
0.847926
0.847903
0.847882
0.847863
0.847845
0.847828
0.847812
0.847796
0.847782
0.847769
0.847756
0.847744
0.847732
0.847722
0.847712
0.847703
0.847696
0.847691
0.847689
0.847694
0.847709
0.847743
0.847833
0.848105
0.848907
0.850657
0.851956
0.851834
0.852705
0.852086
0.852039
0.851978
0.851897
0.851794
0.851667
0.851515
0.851334
0.851123
0.850885
0.850623
0.850347
0.85007
0.8498
0.849545
0.849287
0.849057
0.848739
0.848499
0.848577
0.84848
0.847995
0.848368
0.848286
0.848226
0.848172
0.848125
0.848083
0.848045
0.848012
0.847982
0.847955
0.84793
0.847908
0.847887
0.847868
0.84785
0.847834
0.847818
0.847804
0.84779
0.847777
0.847764
0.847753
0.847742
0.847732
0.847723
0.847715
0.847709
0.847704
0.847702
0.847705
0.847715
0.847739
0.84779
0.847922
0.8483
0.849267
0.851133
0.851962
0.851834
0.854975
0.852287
0.852056
0.851979
0.851897
0.851794
0.851668
0.851515
0.851334
0.851124
0.850887
0.850626
0.850351
0.850073
0.849806
0.849555
0.849326
0.849096
0.848893
0.848611
0.848396
0.848478
0.848392
0.847934
0.8483
0.848228
0.848176
0.848128
0.848086
0.848049
0.848016
0.847986
0.847959
0.847934
0.847912
0.847892
0.847873
0.847856
0.84784
0.847824
0.84781
0.847797
0.847784
0.847772
0.847761
0.847751
0.847742
0.847733
0.847726
0.84772
0.847716
0.847714
0.847716
0.847724
0.847742
0.847777
0.84785
0.848039
0.848552
0.849692
0.851519
0.851964
0.851834
0.852811
0.860876
0.852452
0.852011
0.851899
0.851794
0.851668
0.851515
0.851335
0.851125
0.850888
0.850628
0.850354
0.850076
0.849808
0.84956
0.849335
0.84913
0.848928
0.84875
0.848499
0.848306
0.848394
0.848315
0.847879
0.848242
0.848178
0.848132
0.84809
0.848052
0.848019
0.847989
0.847963
0.847938
0.847916
0.847896
0.847878
0.847861
0.847845
0.84783
0.847816
0.847803
0.847791
0.84778
0.847769
0.847759
0.84775
0.847742
0.847736
0.84773
0.847727
0.847725
0.847726
0.847733
0.847747
0.847774
0.847822
0.84793
0.848195
0.848863
0.850179
0.851777
0.851964
0.851834
0.852777
0.852631
0.901202
0.852612
0.851949
0.851797
0.851668
0.851516
0.851335
0.851126
0.850889
0.85063
0.850356
0.85008
0.849812
0.849563
0.84934
0.849138
0.848957
0.848782
0.848627
0.848401
0.848229
0.848322
0.848248
0.847829
0.848192
0.848134
0.848093
0.848056
0.848023
0.847993
0.847966
0.847942
0.84792
0.8479
0.847882
0.847865
0.84785
0.847835
0.847822
0.847809
0.847798
0.847787
0.847776
0.847767
0.847758
0.847751
0.847745
0.84774
0.847736
0.847735
0.847737
0.847742
0.847754
0.847775
0.847812
0.847881
0.848033
0.848403
0.849224
0.850698
0.851919
0.851964
0.851834
0.852778
0.852524
0.857249
0.931745
0.852742
0.851869
0.851672
0.851516
0.851336
0.851127
0.85089
0.850631
0.850358
0.850082
0.849815
0.849566
0.849342
0.849142
0.848965
0.848808
0.848656
0.84852
0.848316
0.848163
0.84826
0.848188
0.847785
0.848148
0.848095
0.848059
0.848026
0.847996
0.84797
0.847946
0.847924
0.847904
0.847886
0.84787
0.847855
0.84784
0.847827
0.847815
0.847803
0.847793
0.847783
0.847774
0.847766
0.847759
0.847753
0.847748
0.847745
0.847744
0.847746
0.847751
0.847761
0.847779
0.847809
0.847859
0.847957
0.848172
0.848674
0.849649
0.851188
0.851983
0.851964
0.851834
0.852811
0.852516
0.85414
0.875021
0.951897
0.852837
0.851769
0.85152
0.851336
0.851127
0.850891
0.850632
0.850359
0.850084
0.849818
0.84957
0.849345
0.849145
0.848969
0.848815
0.848679
0.848548
0.848429
0.848244
0.848107
0.848206
0.848134
0.847748
0.84811
0.848062
0.848029
0.848
0.847973
0.847949
0.847928
0.847908
0.84789
0.847874
0.847859
0.847845
0.847832
0.84782
0.847809
0.847799
0.847789
0.847781
0.847773
0.847766
0.84776
0.847756
0.847753
0.847753
0.847754
0.847759
0.847768
0.847784
0.847809
0.847849
0.847918
0.848056
0.848357
0.849004
0.850144
0.851577
0.852004
0.851964
0.851834
0.852851
0.85258
0.853859
0.865786
0.89488
0.960498
0.853346
0.851646
0.851342
0.851128
0.850892
0.850633
0.85036
0.850085
0.849819
0.849572
0.849348
0.849148
0.848971
0.848818
0.848685
0.848568
0.848455
0.84835
0.848181
0.848058
0.848159
0.848086
0.847718
0.848076
0.848032
0.848003
0.847976
0.847953
0.847931
0.847912
0.847894
0.847878
0.847863
0.847849
0.847837
0.847825
0.847814
0.847804
0.847795
0.847787
0.847779
0.847773
0.847767
0.847763
0.847761
0.84776
0.847762
0.847766
0.847775
0.847789
0.847811
0.847845
0.847898
0.847995
0.848188
0.848603
0.849387
0.85068
0.851825
0.852009
0.851964
0.851834
0.852869
0.852662
0.855618
0.864848
0.883329
0.911763
0.965264
0.854667
0.851499
0.851134
0.850892
0.850634
0.850361
0.850087
0.849821
0.849573
0.84935
0.84915
0.848974
0.84882
0.848688
0.848574
0.848473
0.848375
0.848282
0.848127
0.848017
0.848118
0.848043
0.847694
0.848046
0.848006
0.84798
0.847956
0.847934
0.847915
0.847897
0.847881
0.847867
0.847853
0.847841
0.847829
0.847819
0.847809
0.8478
0.847792
0.847785
0.847779
0.847774
0.84777
0.847768
0.847767
0.847769
0.847773
0.847782
0.847794
0.847814
0.847843
0.847888
0.847961
0.848095
0.848364
0.848912
0.849846
0.851189
0.851956
0.85201
0.851964
0.851834
0.852883
0.852698
0.857766
0.869754
0.881981
0.899173
0.925602
0.968961
0.855798
0.851324
0.850899
0.850634
0.850362
0.850088
0.849822
0.849575
0.849352
0.849152
0.848976
0.848822
0.848689
0.848576
0.848479
0.848392
0.848307
0.848224
0.848079
0.847981
0.848081
0.848003
0.847674
0.84802
0.847982
0.847959
0.847938
0.847918
0.847901
0.847885
0.84787
0.847857
0.847845
0.847834
0.847823
0.847814
0.847805
0.847798
0.847791
0.847785
0.84778
0.847776
0.847774
0.847774
0.847775
0.84778
0.847788
0.8478
0.847818
0.847844
0.847883
0.847941
0.848041
0.848227
0.848599
0.84928
0.850375
0.851592
0.852011
0.85201
0.851964
0.851834
0.852898
0.852726
0.858724
0.875504
0.887869
0.897526
0.912734
0.936907
0.971885
0.856769
0.851123
0.850642
0.850363
0.850088
0.849823
0.849576
0.849353
0.849154
0.848978
0.848824
0.848692
0.848578
0.848481
0.848397
0.848323
0.848248
0.848172
0.848036
0.84795
0.848047
0.847968
0.847658
0.847997
0.847962
0.847941
0.847922
0.847904
0.847888
0.847874
0.847861
0.847849
0.847838
0.847828
0.847818
0.84781
0.847803
0.847796
0.84779
0.847786
0.847782
0.84778
0.84778
0.847781
0.847786
0.847793
0.847805
0.847821
0.847846
0.84788
0.84793
0.848008
0.848146
0.848404
0.848901
0.849717
0.850924
0.851845
0.852027
0.85201
0.851964
0.851833
0.852911
0.852756
0.85946
0.87802
0.894264
0.903618
0.91088
0.924113
0.946179
0.974189
0.857609
0.850896
0.850371
0.850089
0.849824
0.849577
0.849354
0.849155
0.848979
0.848826
0.848694
0.84858
0.848482
0.8484
0.848328
0.848264
0.848197
0.848126
0.847999
0.847923
0.848018
0.847935
0.847645
0.847977
0.847943
0.847925
0.847907
0.847891
0.847877
0.847864
0.847852
0.847841
0.847831
0.847822
0.847814
0.847807
0.847801
0.847795
0.847791
0.847788
0.847786
0.847785
0.847787
0.847791
0.847798
0.847809
0.847825
0.847847
0.847879
0.847922
0.847988
0.848095
0.848284
0.848641
0.849265
0.850235
0.851406
0.851974
0.852031
0.85201
0.851964
0.851833
0.85292
0.852781
0.860251
0.879932
0.896974
0.909886
0.916703
0.922101
0.933578
0.953782
0.975977
0.858328
0.850649
0.850097
0.849825
0.849578
0.849355
0.849156
0.84898
0.848827
0.848695
0.848582
0.848484
0.848401
0.84833
0.848269
0.848213
0.848152
0.848085
0.847965
0.847899
0.847991
0.847905
0.847637
0.847959
0.847927
0.847911
0.847895
0.84788
0.847867
0.847855
0.847845
0.847835
0.847826
0.847818
0.847811
0.847805
0.8478
0.847796
0.847793
0.847791
0.847791
0.847792
0.847796
0.847803
0.847814
0.847829
0.84785
0.847878
0.847918
0.847974
0.848061
0.848207
0.84847
0.848946
0.849696
0.850799
0.851747
0.852026
0.852032
0.85201
0.851964
0.851833
0.852926
0.852799
0.860906
0.881962
0.899009
0.912491
0.922487
0.927424
0.931423
0.941374
0.957525
0.977347
0.858925
0.850392
0.849832
0.849579
0.849356
0.849157
0.848981
0.848828
0.848696
0.848583
0.848486
0.848402
0.848331
0.84827
0.848217
0.848167
0.848112
0.848049
0.847936
0.847879
0.847966
0.847878
0.847631
0.847943
0.847913
0.847898
0.847883
0.847871
0.847859
0.847848
0.847839
0.84783
0.847822
0.847815
0.847809
0.847804
0.8478
0.847797
0.847796
0.847796
0.847797
0.847801
0.847808
0.847818
0.847832
0.847852
0.847879
0.847915
0.847965
0.848039
0.848156
0.848357
0.848718
0.849314
0.850215
0.851317
0.851934
0.852041
0.852032
0.85201
0.851964
0.851833
0.852931
0.852811
0.861382
0.883627
0.901148
0.91443
0.924867
0.932608
0.936155
0.939072
0.947718
0.959809
0.978392
0.859385
0.850134
0.849586
0.849357
0.849158
0.848982
0.848829
0.848697
0.848584
0.848487
0.848404
0.848333
0.848271
0.848219
0.848172
0.848128
0.848076
0.848016
0.84791
0.847862
0.847944
0.847854
0.847628
0.847929
0.8479
0.847887
0.847874
0.847862
0.847851
0.847842
0.847833
0.847826
0.847819
0.847813
0.847808
0.847804
0.847802
0.8478
0.8478
0.847802
0.847806
0.847812
0.847822
0.847836
0.847854
0.84788
0.847913
0.847959
0.848023
0.848121
0.84828
0.848558
0.849033
0.849754
0.850789
0.851701
0.852017
0.852044
0.852032
0.85201
0.851964
0.851833
0.852935
0.852821
0.862126
0.884833
0.902889
0.916456
0.926629
0.934729
0.940727
0.9432
0.945263
0.952849
0.961671
0.979193
0.860777
0.849885
0.849362
0.849158
0.848983
0.84883
0.848698
0.848585
0.848488
0.848405
0.848334
0.848273
0.84822
0.848174
0.848133
0.848092
0.848044
0.847986
0.847886
0.847847
0.847923
0.847832
0.847627
0.847917
0.847889
0.847877
0.847865
0.847855
0.847845
0.847837
0.847829
0.847822
0.847817
0.847812
0.847808
0.847806
0.847804
0.847805
0.847806
0.84781
0.847816
0.847826
0.847839
0.847857
0.847881
0.847912
0.847955
0.848012
0.848096
0.848228
0.848446
0.848824
0.849414
0.850287
0.851321
0.851918
0.852045
0.852044
0.852032
0.85201
0.851964
0.851833
0.852939
0.85283
0.862877
0.885648
0.904141
0.918099
0.928463
0.936289
0.942584
0.947204
0.948835
0.950249
0.956047
0.963211
0.979809
0.861818
0.849652
0.849163
0.848984
0.848831
0.848699
0.848586
0.848489
0.848406
0.848335
0.848274
0.848222
0.848175
0.848135
0.848098
0.848061
0.848016
0.847959
0.847866
0.847835
0.847904
0.847812
0.847629
0.847906
0.847879
0.847868
0.847858
0.847848
0.84784
0.847832
0.847826
0.84782
0.847816
0.847812
0.84781
0.847808
0.847809
0.84781
0.847814
0.84782
0.847829
0.847842
0.847859
0.847882
0.847912
0.847951
0.848004
0.848078
0.84819
0.848368
0.848669
0.849159
0.849876
0.850872
0.851712
0.852015
0.852051
0.852044
0.852032
0.85201
0.851964
0.851833
0.852942
0.852837
0.863543
0.886317
0.904984
0.919275
0.929949
0.937912
0.943941
0.948813
0.952351
0.953347
0.954291
0.957603
0.964512
0.980283
0.862351
0.849438
0.848987
0.848831
0.8487
0.848587
0.84849
0.848407
0.848336
0.848275
0.848223
0.848177
0.848136
0.8481
0.848067
0.848033
0.84799
0.847935
0.847848
0.847824
0.847887
0.847795
0.847633
0.847896
0.847871
0.847861
0.847851
0.847843
0.847835
0.847829
0.847823
0.847819
0.847816
0.847813
0.847812
0.847812
0.847814
0.847818
0.847824
0.847833
0.847845
0.847861
0.847883
0.847911
0.847949
0.847998
0.848064
0.848162
0.848311
0.848556
0.848961
0.849561
0.850434
0.851399
0.851929
0.852049
0.852052
0.852044
0.852032
0.85201
0.851964
0.851833
0.852944
0.852844
0.864073
0.886908
0.905673
0.920064
0.931007
0.939224
0.945356
0.949979
0.953746
0.955786
0.956007
0.956275
0.958911
0.965636
0.980642
0.862426
0.849245
0.848833
0.8487
0.848587
0.848491
0.848408
0.848337
0.848276
0.848224
0.848178
0.848138
0.848101
0.84807
0.848039
0.848008
0.847966
0.847913
0.847832
0.847815
0.84787
0.84778
0.847638
0.847887
0.847863
0.847854
0.847846
0.847838
0.847832
0.847827
0.847822
0.847819
0.847817
0.847816
0.847816
0.847818
0.847822
0.847827
0.847836
0.847848
0.847864
0.847884
0.847912
0.847947
0.847993
0.848054
0.84814
0.848269
0.848473
0.848808
0.849322
0.850058
0.851025
0.851767
0.852023
0.852056
0.852052
0.852044
0.852032
0.85201
0.851964
0.851833
0.852944
0.852847
0.864388
0.887432
0.906282
0.920708
0.931714
0.940152
0.946497
0.951204
0.954747
0.956339
0.957291
0.957368
0.957539
0.960034
0.96663
0.980902
0.86213
0.849071
0.848701
0.848588
0.848491
0.848408
0.848337
0.848277
0.848225
0.848179
0.848139
0.848103
0.848071
0.848042
0.848015
0.847985
0.847945
0.847893
0.847818
0.847808
0.847855
0.847767
0.847646
0.84788
0.847857
0.847849
0.847841
0.847835
0.847829
0.847825
0.847822
0.84782
0.847819
0.847819
0.847821
0.847825
0.847831
0.847839
0.847851
0.847866
0.847886
0.847912
0.847945
0.847989
0.848045
0.848123
0.848237
0.848411
0.848691
0.84913
0.849755
0.850645
0.851525
0.851959
0.852054
0.852058
0.852052
0.852044
0.852032
0.85201
0.851964
0.851833
0.85294
0.852845
0.864562
0.887845
0.906821
0.921278
0.932289
0.940769
0.947295
0.952191
0.955498
0.95673
0.95778
0.958536
0.958515
0.958624
0.961019
0.967527
0.981074
0.861557
0.848916
0.848587
0.848492
0.848409
0.848338
0.848278
0.848225
0.84818
0.848139
0.848104
0.848072
0.848044
0.848018
0.847993
0.847964
0.847925
0.847875