/*--------------------------------*- C++ -*----------------------------------*\
| =========                 |                                                 |
| \\      /  F ield         | OpenFOAM: The Open Source CFD Toolbox           |
|  \\    /   O peration     | Version:  v2012                                 |
|   \\  /    A nd           | Website:  www.openfoam.com                      |
|    \\/     M anipulation  |                                                 |
\*---------------------------------------------------------------------------*/
FoamFile
{
    version     2.0;
    format      ascii;
    class       volScalarField;
    location    "13380";
    object      q2;
}
// * * * * * * * * * * * * * * * * * * * * * * * * * * * * * * * * * * * * * //

dimensions      [0 0 0 0 0 0 0];


internalField   nonuniform List<scalar> 
31383
(
1
1
1
1
1
1
1
1
1
1
1
1
1
1
1
1
1
1
1
1
1
1
1
1
1
1
1
1
1
1
1
1
1
1
1
1
1
1
1
1
1
1
1
1
1
1
1
1
1
1
1
1
1
1
1
1
1
1
1
1
1
1
1
1
1
1
1
1
1
1
1
1
1
1
1
1
0.999998
1
1
1
1
1
1
1
1
1
1
1
0.999999
0.999908
1
1
1
1
1
1
1
1
1
1
1
1
0.999944
0.999653
1
1
1
1
1
1
1
1
1
1
1
1
0.999962
0.999735
0.999627
1
1
1
1
1
1
1
1
1
1
1
1
0.999973
0.999778
0.999686
0.999788
1
1
1
1
1
1
1
1
1
1
1
1
0.999979
0.999809
0.999705
0.999825
0.999919
1
1
1
1
1
1
1
1
1
1
1
1
0.999984
0.999832
0.999722
0.999833
0.999935
0.999985
0.999999
1
1
1
1
1
1
1
1
1
1
1
0.999987
0.999853
0.999736
0.99984
0.999933
0.999988
0.999999
0.999997
1
1
1
1
1
1
1
1
1
1
1
0.99999
0.999868
0.999747
0.99984
0.999933
0.999987
0.999999
1
0.999996
1
1
1
1
1
1
1
1
1
1
1
0.999992
0.999882
0.999759
0.999839
0.999932
0.999986
0.999999
1
1
0.99999
1
1
1
1
1
1
1
1
1
1
1
0.999993
0.999891
0.999767
0.999839
0.999931
0.999985
0.999999
1
1
1
0.999972
1
1
1
1
1
1
1
1
1
1
1
0.999994
0.999902
0.999775
0.99984
0.999931
0.999984
0.999999
1
1
1
1
0.999938
1
1
1
1
1
1
1
1
1
1
1
0.999995
0.99991
0.999784
0.999839
0.999931
0.999983
0.999998
1
1
1
1
1
0.999883
1
1
1
1
1
1
1
1
1
1
1
0.999996
0.999916
0.99979
0.99984
0.99993
0.999983
0.999998
1
1
1
1
1
1
0.999789
1
1
1
1
1
1
1
1
1
1
1
0.999996
0.999922
0.999797
0.999839
0.999929
0.999982
0.999998
1
1
1
1
1
1
1
0.999602
1
1
1
1
1
1
1
1
1
1
1
0.999997
0.999928
0.999802
0.999839
0.999929
0.999982
0.999998
1
1
1
1
1
1
1
1
0.99917
1
1
1
1
1
1
1
1
1
1
1
0.999997
0.999933
0.999808
0.999839
0.999928
0.999981
0.999998
1
1
1
1
1
1
1
1
1
0.997972
1
1
1
1
1
1
1
1
1
1
1
0.999998
0.999937
0.999813
0.99984
0.999928
0.999981
0.999998
1
1
1
1
1
1
1
1
1
1
0.993684
1
1
1
1
1
1
1
1
1
1
1
0.999998
0.99994
0.999818
0.99984
0.999927
0.99998
0.999998
1
1
1
1
1
1
1
1
1
1
1
0.975077
1
1
1
1
1
1
1
1
1
1
1
0.999998
0.999943
0.999822
0.99984
0.999927
0.99998
0.999998
1
1
1
1
1
1
1
1
1
1
1
1
0.909076
1
1
1
1
1
1
1
1
1
1
1
0.999998
0.999946
0.999826
0.999841
0.999927
0.999979
0.999997
1
1
1
1
1
1
1
1
1
1
1
1
1
0.828946
1
1
1
1
1
1
1
1
1
1
1
0.999998
0.999949
0.999829
0.999842
0.999927
0.999979
0.999997
1
1
1
1
1
1
1
1
1
1
1
1
1
1
0.853722
1
1
1
1
1
1
1
1
1
1
1
0.999999
0.999951
0.999833
0.999842
0.999927
0.999979
0.999997
1
1
1
1
1
1
1
1
1
1
1
1
1
1
1
0.830035
1
1
1
1
1
1
1
1
1
1
1
0.999999
0.999952
0.999836
0.999843
0.999927
0.999978
0.999997
1
1
1
1
1
1
1
1
1
1
1
1
1
1
1
1
0.689781
1
1
1
1
1
1
1
1
1
1
1
0.999999
0.999954
0.999838
0.999844
0.999927
0.999978
0.999997
1
1
1
1
1
1
1
1
1
1
1
1
1
1
1
1
1
0.487876
1
1
1
1
1
1
1
1
1
1
1
0.999999
0.999955
0.999841
0.999844
0.999927
0.999978
0.999997
1
1
1
1
1
1
1
1
1
1
1
1
1
1
1
1
1
1
0.294028
1
1
1
1
1
1
1
1
1
1
1
0.999999
0.999957
0.999843
0.999845
0.999927
0.999978
0.999997
1
1
1
1
1
1
1
1
1
1
1
1
1
1
1
1
1
1
1
0.152647
1
1
1
1
1
1
1
1
1
1
1
0.999999
0.999958
0.999845
0.999846
0.999928
0.999978
0.999997
1
1
1
1
1
1
1
1
1
1
1
1
1
1
1
1
1
1
1
1
0.0687165
1
1
1
1
1
1
1
1
1
1
1
0.999999
0.999959
0.999847
0.999846
0.999928
0.999978
0.999997
1
1
1
1
1
1
1
1
1
1
1
1
1
1
1
1
1
1
1
1
1
0.0266052
1
0.000496152
1
1
1
1
1
1
1
1
1
0.999999
0.99996
0.999849
0.999847
0.999928
0.999978
0.999997
1
1
1
1
1
1
1
1
1
1
1
1
1
1
1
1
1
1
1
1
1
1
0.00872877
1
1
7.63653e-05
1
1
1
1
1
1
1
1
0.999999
0.999961
0.99985
0.999847
0.999928
0.999977
0.999997
1
1
1
1
1
1
1
1
1
1
1
1
1
1
1
1
1
1
1
1
1
1
1
0.00240187
1
1
1
2.76541e-05
1
1
1
1
1
1
1
0.999999
0.999962
0.999852
0.999848
0.999928
0.999977
0.999997
1
1
1
1
1
1
1
1
1
1
1
1
1
1
1
1
1
1
1
1
1
1
1
1
0.000563923
1
0.503592
0.999464
1
1.50262e-05
1
1
1
1
1
1
0.999999
0.999962
0.999853
0.999848
0.999928
0.999977
0.999997
1
1
1
1
1
1
1
1
1
1
1
1
1
1
1
1
1
1
1
1
1
1
1
1
1
0.000122871
1
0.941797
0.0654286
0.878944
1
1.03596e-05
1
1
1
1
1
0.999999
0.999963
0.999854
0.999849
0.999929
0.999977
0.999997
1
1
1
1
1
1
1
1
1
1
1
1
1
1
1
1
1
1
1
1
1
1
1
1
1
0.999952
3.01597e-05
1
1
0.205571
0.0213583
0.593431
1
8.49494e-06
1
1
1
1
0.999999
0.999963
0.999856
0.999849
0.999929
0.999977
0.999997
1
1
1
1
1
1
1
1
1
1
1
1
1
1
1
1
1
1
1
1
1
1
1
1
1
1
0.996847
1.07135e-05
1
1
0.999998
0.0680213
0.0109812
0.417263
0.999975
8.28618e-06
1
1
1
0.999999
0.999964
0.999857
0.99985
0.999929
0.999977
0.999997
1
1
1
1
1
1
1
1
1
1
1
1
1
1
1
1
1
1
1
1
1
1
1
1
1
1
1
0.961305
7.90574e-06
1
1
1
0.975595
0.0348618
0.00727384
0.310562
0.999425
9.98826e-06
1
1
0.999999
0.999964
0.999858
0.99985
0.999929
0.999977
0.999997
1
1
1
1
1
1
1
1
1
1
1
1
1
1
1
1
1
1
1
1
1
1
1
1
1
1
1
1
0.856076
1.79501e-05
1
1
1
0.999984
0.796092
0.0230796
0.00572164
0.262457
0.995318
1.58661e-05
1
0.999999
0.999965
0.999859
0.999851
0.999929
0.999977
0.999997
1
1
1
1
1
1
1
1
1
1
1
1
1
1
1
1
1
1
1
1
1
1
1
1
1
1
1
1
1
0.740327
6.31728e-05
1
1
1
1
0.989395
0.590743
0.0177724
0.00522136
0.233448
0.982002
3.22668e-05
0.999999
0.999965
0.99986
0.999851
0.99993
0.999977
0.999997
1
1
1
1
1
1
1
1
1
1
1
1
1
1
1
1
1
1
1
1
1
1
1
1
1
1
1
1
1
1
0.596179
0.000166007
1
1
1
1
1
0.902795
0.450288
0.0156922
0.00557227
0.233873
0.971009
8.03641e-05
0.999966
0.99986
0.999852
0.99993
0.999977
0.999997
1
1
1
1
1
1
1
1
1
1
1
1
1
1
1
1
1
1
1
1
1
1
1
1
1
1
1
1
1
1
1
0.359853
0.00025834
1
1
1
1
1
1
0.77968
0.363191
0.0156906
0.00722425
0.254064
0.971241
0.000222266
0.999861
0.999852
0.99993
0.999977
0.999997
1
1
1
1
1
1
1
1
1
1
1
1
1
1
1
1
1
1
1
1
1
1
1
1
1
1
1
1
1
1
1
0.99993
0.174382
0.000346175
1
1
1
1
1
1
1
0.65886
0.291533
0.0180384
0.0113974
0.323301
0.976796
0.000620477
0.999853
0.99993
0.999977
0.999997
1
1
1
1
1
1
1
1
1
1
1
1
1
1
1
1
1
1
1
1
1
1
1
1
1
1
1
1
1
1
1
1
0.994366
0.069543
0.000362071
1
1
1
1
1
1
1
1
0.538474
0.258884
0.023851
0.0217482
0.432595
0.99193
0.00166645
0.999931
0.999977
0.999997
1
1
1
1
1
1
1
1
1
1
1
1
1
1
1
1
1
1
1
1
1
1
1
1
1
1
1
1
1
1
1
1
1
0.92769
0.0221252
0.000319182
1
1
1
1
1
1
1
1
1
0.450787
0.246412
0.0370903
0.0434852
0.615374
0.998051
0.00421427
0.999978
0.999997
1
1
1
1
1
1
1
1
1
1
1
1
1
1
1
1
1
1
1
1
1
1
1
1
1
1
1
1
1
1
1
1
1
1
0.734383
0.00529831
0.000338338
1
1
1
1
1
1
1
1
1
1
0.441337
0.268108
0.0633421
0.0912111
0.823133
0.999802
0.00995407
0.999997
1
1
1
1
1
1
1
1
1
1
1
1
1
1
1
1
1
1
1
1
1
1
1
1
1
1
1
1
1
1
1
1
1
1
0.999999
0.532544
0.000933979
0.000511123
1
1
1
1
1
1
1
1
1
1
0.999995
0.44066
0.339779
0.116832
0.18531
0.960433
0.999987
0.0220807
1
1
1
1
1
1
1
1
1
1
1
1
1
1
1
1
1
1
1
1
1
1
1
1
1
1
1
1
1
1
1
1
1
1
1
0.999427
0.396056
0.000159157
0.00135998
1
1
1
1
1
1
1
1
1
1
1
0.9997
0.492062
0.464223
0.222661
0.356558
0.994377
1
0.0460189
1
1
1
1
1
1
1
1
1
1
1
1
1
1
1
1
1
1
1
1
1
1
1
1
1
1
1
1
1
1
1
1
1
1
1
0.975575
0.230839
6.26122e-05
0.0127053
1
1
1
1
1
1
1
1
1
1
1
0.999969
0.998425
0.610074
0.625559
0.405653
0.608834
0.999705
1
0.091293
1
1
1
1
1
1
1
1
1
1
1
1
1
1
1
1
1
1
1
1
1
1
1
1
1
1
1
1
1
1
1
1
1
1
1
0.817251
0.105564
7.14888e-05
1
1
1
1
1
1
1
1
1
1
1
1
0.999999
0.999592
0.997498
0.751496
0.796343
0.658986
0.823347
0.999995
1
0.172071
1
1
1
1
1
1
1
1
1
1
1
1
1
1
1
1
1
1
1
1
1
1
1
1
1
1
1
1
1
1
1
1
1
1
0.999977
0.54945
0.0421082
0.000105588
0.0332064
1
1
1
1
1
1
1
1
1
1
1
0.999999
0.999939
0.998935
0.998241
0.873724
0.927001
0.876655
0.956117
1
1
0.299978
1
1
1
1
1
1
1
1
1
1
1
1
1
1
1
1
1
1
1
1
1
1
1
1
1
1
1
1
1
1
1
1
1
1
0.994407
0.373488
0.0140129
0.00027512
0.00533789
1
1
1
1
1
1
1
1
1
1
1
0.999999
0.999948
0.999723
0.999069
0.999329
0.956593
0.985792
0.97725
0.996448
1
1
0.476729
1
1
1
1
1
1
1
1
1
1
1
1
1
1
1
1
1
1
1
1
1
1
1
1
1
1
1
1
1
1
1
1
1
1
0.902557
0.284649
0.00427057
0.00445122
0.0205974
1
1
1
1
1
1
1
1
1
1
1
0.999999
0.999936
0.999778
0.999728
0.999664
0.999779
0.99156
0.998637
0.998713
0.99993
1
1
0.671746
1
1
1
1
1
1
1
1
1
1
1
1
1
1
1
1
1
1
1
1
1
1
1
1
1
1
1
1
1
1
1
1
1
0.999969
0.642565
0.142206
0.00186623
1
0.248742
1
1
1
1
1
1
1
1
1
1
1
0.999999
0.999949
0.99974
0.999752
0.999872
0.999884
0.999968
0.999134
0.999963
0.999985
1
1
1
0.861018
1
1
1
1
1
1
1
1
1
1
1
1
1
1
1
1
1
1
1
1
1
1
1
1
1
1
1
1
1
1
1
1
1
0.991604
0.406093
0.0618419
0.00187447
0.0719396
0.942643
1
1
1
1
1
1
1
1
1
1
1
0.999999
0.999957
0.999771
0.999707
0.999869
0.999951
0.999978
0.999998
0.999973
1
1
1
1
1
0.971855
1
1
1
1
1
1
1
1
1
1
1
1
1
1
1
1
1
1
1
1
1
1
1
1
1
1
1
1
1
1
1
1
1
0.865319
0.282714
0.0261002
0.0055338
0.0394441
0.918157
1
1
1
1
1
1
1
1
1
1
1
0.999999
0.999959
0.999819
0.999735
0.999844
0.999954
0.999991
0.999998
1
1
1
1
1
1
1
0.998291
1
1
1
1
1
1
1
1
1
1
1
1
1
1
1
1
1
1
1
1
1
1
1
1
1
1
1
1
1
1
1
1
0.999301
0.570748
0.171371
0.0123865
0.358691
0.231708
0.608288
1
1
1
1
1
1
1
1
1
1
1
0.999999
0.99996
0.999814
0.999763
0.999857
0.999945
0.999992
0.999999
1
1
1
1
1
1
1
1
0.999981
1
1
1
1
1
1
1
1
1
1
1
1
1
1
1
1
1
1
1
1
1
1
1
1
1
1
1
1
1
1
1
1
0.953554
0.352714
0.0804168
0.011286
0.662787
0.999571
0.274386
1
1
1
1
1
1
1
1
1
1
1
0.999999
0.999962
0.999799
0.999757
0.999869
0.99995
0.999989
0.999999
1
1
1
1
1
1
1
1
1
1
1
1
1
1
1
1
1
1
1
1
1
1
1
1
1
1
1
1
1
1
1
1
1
1
1
1
1
1
1
1
1
0.999859
0.703774
0.249043
0.038318
0.0169824
0.115783
0.999998
0.100538
1
1
1
1
1
1
1
1
1
1
1
0.999999
0.999963
0.999805
0.999749
0.99987
0.999953
0.99999
0.999999
1
1
1
1
1
1
1
1
1
1
1
1
1
1
1
1
1
1
1
1
1
1
1
1
1
1
1
1
1
1
1
1
1
1
1
1
1
1
1
1
1
1
0.976764
0.419619
0.135046
0.0228802
0.139716
0.0814265
0.997657
0.0347059
1
1
1
1
1
1
1
1
1
1
1
0.999999
0.999964
0.999811
0.999748
0.999865
0.99995
0.999991
0.999999
1
1
1
1
1
1
1
1
1
1
1
1
1
1
1
1
1
1
1
1
1
1
1
1
1
1
1
1
1
1
1
1
1
1
1
1
1
1
1
1
1
1
0.999897
0.763
0.26582
0.0640379
0.0261722
1
0.465956
1
0.0135768
1
1
1
1
1
1
1
1
1
1
1
1
0.999963
0.99981
0.999756
0.999868
0.999949
0.99999
0.999999
1
1
1
1
1
1
1
1
1
1
1
1
1
1
1
1
1
1
1
1
1
1
1
1
1
1
1
1
1
1
1
1
1
1
1
1
1
1
1
1
1
1
1
0.978542
0.448373
0.167627
0.0352537
0.0532981
0.219201
0.991762
1
0.0057165
1
1
1
1
1
1
1
1
1
1
1
1
0.999968
0.999811
0.99976
0.999867
0.999949
0.99999
0.999999
1
1
1
1
1
1
1
1
1
1
1
1
1
1
1
1
1
1
1
1
1
1
1
1
1
1
1
1
1
1
1
1
1
1
1
1
1
1
1
1
1
1
1
0.999769
0.761243
0.270642
0.0787195
0.0283989
0.999908
0.625179
1
0.999999
0.00228951
1
1
1
1
1
1
1
1
1
1
1
1
1
0.999827
0.999753
0.999868
0.999949
0.99999
0.999999
1
1
1
1
1
1
1
1
1
1
1
1
1
1
1
1
1
1
1
1
1
1
1
1
1
1
1
1
1
1
1
1
1
1
1
1
1
1
1
1
1
1
1
1
0.966555
0.439029
0.176406
0.0419204
0.078319
0.620879
1
0.999994
0.999965
0.000866366
1
1
1
1
1
1
1
1
1
1
1
1
1
0.999993
0.999771
0.999867
0.999948
0.99999
0.999999
1
1
1
1
1
1
1
1
1
1
1
1
1
1
1
1
1
1
1
1
1
1
1
1
1
1
1
1
1
1
1
1
1
1
1
1
1
1
1
1
1
1
1
1
0.998957
0.710194
0.259594
0.0804574
0.0337753
0.996209
0.999965
1
0.99652
0.999896
0.000317925
1
1
1
1
1
1
1
1
1
1
1
1
1
1
0.999984
0.999875
0.999947
0.99999
0.999999
1
1
1
1
1
1
1
1
1
1
1
1
1
1
1
1
1
1
1
1
1
1
1
1
1
1
1
1
1
1
1
1
1
1
1
1
1
1
1
1
1
1
1
1
0.999993
0.929861
0.39772
0.161359
0.042172
0.0764564
0.999268
1
1
0.870602
0.981589
0.000113489
1
1
1
1
1
1
1
1
1
1
1
1
1
1
1
0.99999
0.999951
0.999989
0.999999
1
1
1
1
1
1
1
1
1
1
1
1
1
1
1
1
1
1
1
1
1
1
1
1
1
1
1
1
1
1
1
1
1
1
1
1
1
1
1
1
1
1
1
1
1
0.993882
0.614916
0.233409
0.0713351
0.0361128
0.999454
1
1
1
0.556758
0.713328
4.41832e-05
1
1
1
1
1
1
1
1
1
1
1
1
1
1
1
1
0.999998
0.99999
0.999999
1
1
1
1
1
1
1
1
1
1
1
1
1
1
1
1
1
1
1
1
1
1
1
1
1
1
1
1
1
1
1
1
1
1
1
1
1
1
1
1
1
1
1
1
1
0.999811
0.844464
0.335957
0.130527
0.0386732
0.107254
1
1
1
0.999997
0.44777
0.256477
2.5963e-05
1
1
1
1
1
1
1
1
1
1
1
1
1
1
1
1
1
1
0.999999
1
1
1
1
1
1
1
1
1
1
1
1
1
1
1
1
1
1
1
1
1
1
1
1
1
1
1
1
1
1
1
1
1
1
1
1
1
1
1
1
1
1
1
1
1
0.999998
0.966641
0.49104
0.199844
0.0569339
0.0374453
0.977598
1
1
1
0.980887
0.439109
0.0776619
1.50285e-05
1
1
1
1
1
1
1
1
1
1
1
1
1
1
1
1
1
1
1
1
1
1
1
1
1
1
1
1
1
1
1
1
1
1
1
1
1
1
1
1
1
1
1
1
1
1
1
1
1
1
1
1
1
1
1
1
1
1
1
1
1
1
1
1
1
0.996448
0.695289
0.2676
0.0953044
0.034689
0.170999
1
1
1
1
0.933774
0.40138
0.0287943
8.73473e-06
1
1
1
1
1
1
1
1
1
1
1
1
1
1
1
1
1
1
1
1
1
1
1
1
1
1
1
1
1
1
1
1
1
1
1
1
1
1
1
1
1
1
1
1
1
1
1
1
1
1
1
1
1
1
1
1
1
1
1
1
1
1
1
1
1
0.999801
0.871976
0.37483
0.162423
0.0429371
0.0517928
0.999996
1
1
1
1
0.544541
0.411282
0.00895885
5.20798e-06
1
1
1
1
1
1
1
1
1
1
1
1
1
1
1
1
1
1
1
1
1
1
1
1
1
1
1
1
1
1
1
1
1
1
1
1
1
1
1
1
1
1
1
1
1
1
1
1
1
1
1
1
1
1
1
1
1
1
1
1
1
1
1
1
1
0.999994
0.964557
0.513888
0.210303
0.0650217
0.0321271
0.478622
1
1
1
1
0.999963
0.179013
0.658894
0.00249747
3.27448e-06
1
1
1
1
1
1
1
1
1
1
1
1
1
1
1
1
1
1
1
1
1
1
1
1
1
1
1
1
1
1
1
1
1
1
1
1
1
1
1
1
1
1
1
1
1
1
1
1
1
1
1
1
1
1
1
1
1
1
1
1
1
1
1
1
1
1
0.993712
0.682207
0.272261
0.102245
0.0330577
0.0998267
0.999989
1
1
1
0.998576
1
0.0465236
0.942611
0.000601871
2.19571e-06
1
1
1
1
1
1
1
1
1
1
1
1
1
1
1
1
1
1
1
1
1
1
1
1
1
1
1
1
1
1
1
1
1
1
1
1
1
1
1
1
1
1
1
1
1
1
1
1
1
1
1
1
1
1
1
1
1
1
1
1
1
1
1
1
1
1
0.99925
0.835665
0.36096
0.160423
0.0420649
0.0367749
0.266643
1
1
1
0.999998
0.997596
0.99187
0.0167517
0.989811
0.000114597
1.57435e-06
1
1
1
1
1
1
1
1
1
1
1
1
1
1
1
1
1
1
1
1
1
1
1
1
1
1
1
1
1
1
1
1
1
1
1
1
1
1
1
1
1
1
1
1
1
1
1
1
1
1
1
1
1
1
1
1
1
1
1
1
1
1
1
1
1
1
0.999936
0.933535
0.471948
0.198596
0.0605689
0.0284957
0.597301
1
1
1
1
0.999986
0.999759
0.607325
0.00903238
0.991187
1.73973e-05
1.22908e-06
1
1
1
1
1
1
1
1
1
1
1
1
1
1
1
1
1
1
1
1
1
1
1
1
1
1
1
1
1
1
1
1
1
1
1
1
1
1
1
1
1
1
1
1
1
1
1
1
1
1
1
1
1
1
1
1
1
1
1
1
1
1
1
1
1
1
0.999996
0.979182
0.600266
0.245527
0.0889031
0.029401
0.0977493
1
0.995073
1
1
1
0.999999
0.909693
0.16391
0.00568083
0.348381
2.83567e-06
1.06767e-06
1
1
1
1
1
1
1
1
1
1
1
1
1
1
1
1
1
1
1
1
1
1
1
1
1
1
1
1
1
1
1
1
1
1
1
1
1
1
1
1
1
1
1
1
1
1
1
1
1
1
1
1
1
1
1
1
1
1
1
1
1
1
1
1
1
1
1
0.994905
0.733829
0.308047
0.129929
0.0354382
0.0362417
0.256027
0.601967
0.810543
0.999254
1
0.999997
0.998924
0.446952
0.0322915
0.00437595
0.0478571
8.3918e-07
1.11501e-06
1
1
1
1
1
1
1
1
1
1
1
1
1
1
1
1
1
1
1
1
1
1
1
1
1
1
1
1
1
1
1
1
1
1
1
1
1
1
1
1
1
1
1
1
1
1
1
1
1
1
1
1
1
1
1
1
1
1
1
1
1
1
1
1
1
1
1
0.998989
0.846555
0.386524
0.169028
0.0470821
0.025048
0.818394
0.710829
0.170993
0.327641
0.909187
1
0.995464
0.958797
0.185373
0.00841302
0.00450387
0.0051285
2.96485e-07
1.6008e-06
1
1
1
1
1
1
1
1
1
1
1
1
1
1
1
1
1
1
1
1
1
1
1
1
1
1
1
1
1
1
1
1
1
1
1
1
1
1
1
1
1
1
1
1
1
1
1
1
1
1
1
1
1
1
1
1
1
1
1
1
1
1
1
1
1
1
1
0.99983
0.922655
0.476645
0.201709
0.0647092
0.024694
0.165058
0.997241
0.0878937
0.0695623
0.146069
0.856844
1
0.907891
0.606389
0.0573757
0.00273995
0.00798406
0.000518166
1.21521e-07
2.65581e-06
1
1
1
1
1
1
1
1
1
1
1
1
1
1
1
1
1
1
1
1
1
1
1
1
1
1
1
1
1
1
1
1
1
1
1
1
1
1
1
1
1
1
1
1
1
1
1
1
1
1
1
1
1
1
1
1
1
1
1
1
1
1
1
1
1
1
1
0.999975
0.96584
0.573928
0.240308
0.0888806
0.0271772
0.0578188
0.630507
0.110077
0.0339425
0.0335152
0.0807156
0.436775
0.999867
0.464093
0.208722
0.0208046
0.000868036
0.0132321
3.91189e-05
6.09102e-08
4.25259e-06
1
1
1
1
1
1
1
1
1
1
1
1
1
1
1
1
1
1
1
1
1
1
1
1
1
1
1
1
1
1
1
1
1
1
1
1
1
1
1
1
1
1
1
1
1
1
1
1
1
1
1
1
1
1
1
1
1
1
1
1
1
1
1
1
1
1
1
0.999997
0.986641
0.675883
0.287459
0.120703
0.0325223
0.0282533
0.140366
0.270168
0.0299544
0.0160684
0.0178091
0.0372666
0.149057
0.442753
0.192987
0.107614
0.00738827
0.000297602
0.0316213
3.73849e-06
3.89929e-08
6.50634e-06
1
1
1
1
1
1
1
1
1
1
1
1
1
1
1
1
1
1
1
1
1
1
1
1
1
1
1
1
1
1
1
1
1
1
1
1
1
1
1
1
1
1
1
1
1
1
1
1
1
1
1
1
1
1
1
1
1
1
1
1
1
1
1
1
1
1
1
1
0.995289
0.771125
0.343713
0.153867
0.0411056
0.0210399
0.605823
0.79434
0.0369861
0.0139345
0.0086101
0.00903069
0.016589
0.0530036
0.0800002
0.115433
0.0576142
0.00248036
0.00015397
0.163976
3.12856e-07
3.19632e-08
9.86078e-06
1
1
1
1
1
1
1
1
1
1
1
1
1
1
1
1
1
1
1
1
1
1
1
1
1
1
1
1
1
1
1
1
1
1
1
1
1
1
1
1
1
1
1
1
1
1
1
1
1
1
1
1
1
1
1
1
1
1
1
1
1
1
1
1
1
1
1
1
0.998468
0.848977
0.406658
0.177897
0.0531147
0.0208623
0.149748
0.999969
0.0611461
0.015338
0.00746605
0.00453898
0.00459775
0.00773669
0.0171513
0.0178183
0.0852073
0.0230621
0.000869801
0.000116067
0.00296506
6.12066e-08
3.30441e-08
1.58229e-05
1
1
1
1
1
1
1
1
1
1
1
1
1
1
1
1
1
1
1
1
1
1
1
1
1
1
1
1
1
1
1
1
1
1
1
1
1
1
1
1
1
1
1
1
1
1
1
1
1
1
1
1
1
1
1
1
1
1
1
1
1
1
1
1
1
1
1
1
0.999529
0.905741
0.473647
0.203521
0.0684805
0.0222133
0.0636952
0.57388
0.131869
0.0207855
0.00756174
0.00396297
0.00244307
0.00243106
0.00344574
0.00552464
0.00482965
0.0402834
0.00891366
0.000318614
0.000107114
9.34468e-05
1.81716e-08
4.21854e-08
2.81583e-05
1
1
1
1
1
1
1
1
1
1
1
1
1
1
1
1
1
1
1
1
1
1
1
1
1
1
1
1
1
1
1
1
1
1
1
1
1
1
1
1
1
1
1
1
1
1
1
1
1
1
1
1
1
1
1
1
1
1
1
1
1
1
1
1
1
1
1
1
0.999861
0.94404
0.541226
0.232134
0.0872265
0.0250318
0.0348911
0.22072
0.481182
0.0326635
0.00982807
0.00388486
0.00213371
0.00134596
0.00128121
0.00151478
0.00180223
0.00147754
0.0175656
0.0032352
0.00014297
0.00016258
2.8668e-06
8.15762e-09
6.50594e-08
5.90586e-05
1
1
1
1
1
1
1
1
1
1
1
1
1
1
1
1
1
1
1
1
1
1
1
1
1
1
1
1
1
1
1
1
1
1
1
1
1
1
1
1
1
1
1
1
1
1
1
1
1
1
1
1
1
1
1
1
1
1
1
1
1
1
1
1
1
1
1
1
0.99996
0.968297
0.610578
0.264158
0.109584
0.0291808
0.0221166
0.687452
0.98965
0.0698359
0.0147129
0.00498586
0.00200994
0.0011583
0.000759412
0.00068216
0.000660027
0.000593053
0.000542921
0.00194588
0.00122624
7.89237e-05
0.000643555
1.42857e-07
5.10808e-09
1.23414e-07
0.00014397
1
1
1
1
1
1
1
1
1
1
1
1
1
1
1
1
1
1
1
1
1
1
1
1
1
1
1
1
1
1
1
1
1
1
1
1
1
1
1
1
1
1
1
1
1
1
1
1
1
1
1
1
1
1
1
1
1
1
1
1
1
1
1
1
1
1
1
1
0.999989
0.98279
0.679195
0.300088
0.135718
0.0348479
0.017186
0.252294
1
0.177171
0.0304297
0.007505
0.0025394
0.0010586
0.000636272
0.000438296
0.000369189
0.000287052
0.000204726
0.000209345
0.000339871
0.000322405
7.7228e-05
0.000529717
1.60934e-08
4.66992e-09
2.76056e-07
0.000470433
1
1
1
1
1
1
1
1
1
1
1
1
1
1
1
1
1
1
1
1
1
1
1
1
1
1
1
1
1
1
1
1
1
1
1
1
1
1
1
1
1
1
1
1
1
1
1
1
1
1
1
1
1
1
1
1
1
1
1
1
1
1
1
1
1
1
1
1
0.999997
0.991006
0.743604
0.339325
0.153298
0.0421016
0.0170623
0.115223
0.986194
0.511696
0.0698879
0.0144616
0.00381895
0.00131047
0.000568871
0.000353891
0.000264432
0.000201216
0.000135527
7.51608e-05
7.69894e-05
6.72825e-05
7.19984e-05
9.91625e-05
4.26457e-06
4.13301e-09
5.64883e-09
8.37911e-07
0.00153597
1
1
1
1
1
1
1
1
1
1
1
1
1
1
1
1
1
1
1
1
1
1
1
1
1
1
1
1
1
1
1
1
1
1
1
1
0.999999
1
1
1
1
1
1
1
1
1
1
1
1
1
1
1
1
1
1
1
1
1
1
1
1
1
1
1
1
1
1
1
0.999999
0.995441
0.800695
0.380947
0.169806
0.0507015
0.0176245
0.0668313
0.820149
0.995529
0.174796
0.0317357
0.00720279
0.00194343
0.000684578
0.000316385
0.000201525
0.00016339
0.00011818
6.33365e-05
3.26226e-05
2.66398e-05
1.65719e-05
9.2155e-06
0.000206318
1.2952e-07
1.54278e-09
1.0705e-08
2.61016e-06
0.0150302
1
1
1
1
1
1
1
1
1
1
1
1
1
1
1
1
1
1
1
1
1
1
1
1
1
1
1
1
1
1
1
1
1
1
1
1
1
0.999994
1
1
1
1
1
1
1
1
1
1
1
1
1
1
1
1
1
1
1
1
1
1
1
1
1
1
1
1
1
1
1
0.99775
0.848595
0.424175
0.18666
0.0606551
0.0188405
0.0436665
0.961496
1
0.544674
0.0746104
0.0155288
0.00344899
0.000984958
0.00036906
0.000185333
0.000116412
0.000108478
6.81086e-05
3.25123e-05
1.42801e-05
1.02971e-05
4.45774e-06
2.78268e-06
0.000679311
8.02064e-09
1.27687e-09
2.20565e-08
2.35135e-05
0.00837607
1
1
1
1
1
1
1
1
1
1
1
1
1
1
1
1
1
1
1
1
1
1
1
1
1
1
1
1
1
1
1
1
1
1
1
1
1
1
0.99997
1
1
1
1
1
1
1
1
1
1
1
1
1
1
1
1
1
1
1
1
1
1
1
1
1
1
1
1
1
1
0.998912
0.887366
0.468094
0.204357
0.0718997
0.0206196
0.0300982
0.614699
1
0.994985
0.239821
0.0348488
0.00704799
0.00166834
0.000512998
0.00020531
0.000111767
7.3e-05
7.14393e-05
4.27417e-05
1.57436e-05
8.16987e-06
3.37603e-06
1.73367e-06
1.13799e-06
1.38211e-06
2.06101e-09
1.12773e-09
1.4069e-07
1.2426e-05
1
1
1
1
1
1
1
1
1
1
1
1
1
1
1
1
1
1
1
1
1
1
1
1
1
1
1
1
1
1
1
1
1
1
1
1
1
1
1
0.999836
1
1
1
1
1
1
1
1
1
1
1
1
1
1
1
1
1
1
1
1
1
1
1
1
1
1
1
1
1
0.999481
0.917586
0.512006
0.223267
0.0845252
0.0228938
0.0216442
0.320457
1
1
0.822061
0.094652
0.0147887
0.00325767
0.000827939
0.000271958
0.000116306
7.05848e-05
4.7828e-05
5.26688e-05
2.33545e-05
1.04193e-05
3.89509e-06
1.86684e-06
5.18103e-07
1.71931e-06
1.49002e-07
3.94721e-10
5.79205e-09
5.4198e-08
1
1
1
1
1
1
1
1
1
1
1
1
1
1
1
1
1
1
1
1
1
1
1
1
1
1
1
1
1
1
1
1
1
1
1
1
1
1
1
1
0.999147
1
1
1
1
1
1
1
1
1
1
1
1
1
1
1
1
1
1
1
1
1
1
1
1
1
1
1
1
0.999756
0.940629
0.555038
0.243312
0.0985192
0.0257024
0.016181
0.203642
0.997151
1
0.999995
0.335276
0.0355335
0.00657618
0.00154264
0.000421319
0.000143479
6.93708e-05
4.4441e-05
3.5665e-05
3.35399e-05
1.69126e-05
5.68873e-06
3.09449e-06
6.04629e-07
6.33544e-07
1.26001e-07
8.76446e-10
3.55623e-09
6.75905e-10
1
1
1
1
1
1
1
1
1
1
1
1
1
1
1
1
1
1
1
1
1
1
1
1
1
1
1
1
1
1
1
1
1
1
1
1
1
1
1
1
1
0.996449
1
1
1
1
1
1
1
1
1
1
1
1
1
1
1
1
1
1
1
1
1
1
1
1
1
1
1
0.999886
0.957959
0.598355
0.264635
0.11387
0.0290694
0.0135746
0.133455
0.995536
1
1
0.945536
0.108984
0.014225
0.0029986
0.000751016
0.000207928
7.93325e-05
4.09307e-05
3.22764e-05
2.70945e-05
2.84516e-05
9.07012e-06
4.77219e-06
8.85469e-07
1.30037e-06
1.64742e-08
1.29568e-09
8.83337e-10
2.46341e-11
1
1
1
1
1
1
1
1
1
1
1
1
1
1
1
1
1
1
1
1
1
1
1
1
1
1
1
1
1
1
1
1
1
1
1
1
1
1
1
1
1
1
0.988899
1
1
1
1
1
1
1
1
1
1
1
1
1
1
1
1
1
1
1
1
1
1
1
1
1
1
0.999948
0.970712
0.64164
0.287414
0.130641
0.0329942
0.0136237
0.0943196
0.954419
0.999999
1
0.999993
0.449748
0.0360992
0.0059781
0.00141187
0.000343914
0.000106921
4.28668e-05
2.84863e-05
2.19956e-05
2.59359e-05
1.70947e-05
7.52487e-06
1.03676e-06
3.51131e-06
2.10719e-08
6.10262e-10
1.68986e-11
2.44717e-12
1
1
1
1
1
1
1
1
1
1
1
1
1
1
1
1
1
1
1
1
1
1
1
1
1
1
1
1
1
1
1
1
1
1
1
1
1
1
1
1
1
1
1
0.973865
1
1
1
1
1
1
1
1
1
1
1
1
1
1
1
1
1
1
1
1
1
1
1
1
1
0.999977
0.980029
0.684198
0.311487
0.141871
0.0374978
0.0139043
0.0684848
0.81651
0.917128
0.965634
0.999833
0.94637
0.119096
0.012956
0.00265165
0.000611857
0.000163804
5.238e-05
2.79387e-05
1.7919e-05
2.11276e-05
2.14717e-05
1.9143e-05
1.11512e-06
2.40393e-06
7.29879e-09
1.92275e-10
2.48567e-12
6.17861e-13
1
1
1
1
1
1
1
1
1
1
1
1
1
1
1
1
1
1
1
1
1
1
1
1
1
1
1
1
1
1
1
1
1
1
1
1
1
1
1
1
1
1
1
1
0.953299
1
1
1
1
1
1
1
1
1
1
1
1
1
1
1
1
1
1
1
1
1
1
1
1
0.99999
0.986628
0.725355
0.336851
0.15227
0.0424938
0.0143742
0.051473
0.549626
0.550339
0.377864
0.685406
0.973246
0.341114
0.0343041
0.00517599
0.00109502
0.000272587
7.29886e-05
3.11139e-05
1.53758e-05
1.67799e-05
1.82479e-05
0.000455901
1.3754e-06
5.91528e-07
3.09678e-09
6.68808e-11
8.05948e-13
2.46837e-13
1
1
1
1
1
1
1
1
1
1
1
1
1
1
1
1
1
1
1
1
1
1
1
1
1
1
1
1
1
1
1
1
1
1
1
1
1
1
1
1
1
1
1
1
0.999936
0.936748
1
1
1
1
1
1
1
1
1
1
1
1
1
1
1
1
1
1
1
1
1
1
1
0.999996
0.991313
0.764376
0.363244
0.16284
0.0480009
0.015062
0.0399706
0.368646
0.283453
0.11606
0.135955
0.291688
0.388342
0.0846263
0.0120785
0.00200674
0.000460911
0.00011274
3.97967e-05
1.45146e-05
1.30249e-05
1.04679e-05
8.46874e-05
1.699e-06
1.82552e-07
1.5777e-09
3.59484e-11
4.37233e-13
1.27294e-13
1
1
1
1
1
1
1
1
1
1
1
1
1
1
1
1
1
1
1
1
1
1
1
1
1
1
1
1
1
1
1
1
1
1
1
1
1
1
1
1
1
1
1
1
1
0.986991
0.937529
1
1
1
1
1
1
1
1
1
1
1
1
1
1
1
1
1
1
1
1
1
1
0.999998
0.994343
0.801067
0.390938
0.17362
0.0540637
0.0159517
0.0316993
0.255935
0.178862
0.0458154
0.0360844
0.0515597
0.0729266
0.0807566
0.0308744
0.00410888
0.000794711
0.000178639
5.73231e-05
1.61666e-05
1.09771e-05
6.06706e-06
3.4446e-05
1.21947e-06
1.67924e-07
1.0381e-09
2.50991e-11
3.0341e-13
7.67418e-14
1
1
1
1
1
1
1
1
1
1
1
1
1
1
1
1
1
1
1
1
1
1
1
1
1
1
1
1
1
1
1
1
1
1
1
1
1
1
1
1
1
1
1
1
1
1
0.851864
0.962434
1
1
1
1
1
1
1
1
1
1
1
1
1
1
1
1
1
1
1
1
1
0.999999
0.996753
0.832733
0.419716
0.184898
0.0607263
0.0170445
0.0254764
0.198675
0.139596
0.0240776
0.0140336
0.014988
0.016155
0.0190037
0.0271039
0.0118742
0.00145467
0.000289788
8.58623e-05
2.06017e-05
1.12015e-05
4.21207e-06
1.28212e-05
7.96523e-07
1.14306e-07
8.1361e-10
1.86136e-11
2.31713e-13
5.07782e-14
1
1
1
1
1
1
1
1
1
1
1
1
1
1
1
1
1
1
1
1
1
1
1
1
1
1
1
1
1
1
1
1
1
1
1
1
1
1
1
1
1
1
1
1
1
1
1
0.597899
0.991773
1
1
1
1
1
1
1
1
1
1
1
1
1
1
1
1
1
1
1
1
0.999999
0.997209
0.868248
0.448859
0.196659
0.0680722
0.0183366
0.0207472
0.16939
0.139476
0.0161204
0.00730603
0.00649064
0.005306
0.00513185
0.00638856
0.00955018
0.00478581
0.00049685
0.00014051
2.81147e-05
1.27965e-05
3.62338e-06
6.47851e-06
4.82984e-07
6.00225e-08
6.55637e-10
1.45039e-11
1.86611e-13
3.40271e-14
1
1
1
1
1
1
1
1
1
1
1
1
1
1
1
1
1
1
1
1
1
1
1
1
1
1
1
1
1
1
1
1
1
1
1
1
1
1
1
1
1
1
1
1
1
1
1
1
0.412082
0.999502
1
1
1
1
1
1
1
1
1
1
1
1
1
1
1
1
1
1
1
1
0.997538
0.879289
0.480765
0.209782
0.0760471
0.0198637
0.0171059
0.150877
0.153954
0.0131506
0.00502953
0.00384647
0.00253614
0.00200145
0.00189531
0.00228949
0.00233159
0.00128649
0.000259923
4.63689e-05
1.68167e-05
3.43052e-06
4.57673e-06
3.09915e-07
3.40572e-08
5.26259e-10
1.17753e-11
1.54494e-13
2.48045e-14
1
1
1
1
1
1
1
1
1
1
1
1
1
1
1
1
1
1
1
1
1
1
1
1
1
1
1
1
1
1
1
1
1
1
1
1
1
1
1
1
1
1
1
1
1
1
1
1
1
0.32329
0.999983
1
1
1
1
1
1
1
1
1
1
1
1
1
1
1
1
1
1
1
0.998815
0.887201
0.502478
0.219823
0.0854018
0.0215433
0.0143145
0.134284
0.168664
0.0123925
0.00432282
0.00299684
0.00168668
0.00110911
0.000839177
0.000745874
0.00068376
0.000595217
0.000343308
8.91589e-05
2.89727e-05
4.03022e-06
3.53164e-06
2.20313e-07
2.94087e-08
4.19467e-10
9.91496e-12
1.30668e-13
1.80573e-14
1
1
1
1
1
1
1
1
1
1
1
1
1
1
1
1
1
1
1
1
1
1
1
1
1
1
1
1
1
1
1
1
1
1
1
1
1
1
1
1
1
1
1
1
1
1
1
1
1
0.99987
0.283204
0.999999
1
1
1
1
1
1
1
1
1
1
1
1
1
1
1
1
1
1
0.999356
0.917678
0.51336
0.234787
0.0921207
0.0238673
0.0120182
0.105334
0.172968
0.0119503
0.00424172
0.00288611
0.00147995
0.000857342
0.00053214
0.000386647
0.000272666
0.000228618
0.00018215
9.03668e-05
4.33049e-05
6.40672e-06
4.77883e-06
1.60872e-07
2.59399e-08
3.28874e-10
8.62463e-12
1.12794e-13
3.78361e-14
1
1
1
1
1
1
1
1
1
1
1
1
1
1
1
1
1
1
1
1
1
1
1
1
1
1
1
1
1
1
1
1
1
1
1
1
1
1
1
1
1
1
1
1
1
1
1
1
1
1
0.972756
0.261957
1
1
1
1
1
1
1
1
1
1
1
1
1
1
1
1
1
1
0.999615
0.936677
0.557843
0.240679
0.102992
0.0244233
0.0112521
0.0857009
0.169267
0.0125671
0.00419648
0.00313205
0.00159239
0.000871701
0.000470694
0.000295828
0.000173923
0.000122679
8.59193e-05
5.89513e-05
3.12688e-05
1.02786e-05
6.85864e-06
1.91513e-07
2.47546e-08
3.08091e-10
7.61576e-12
9.87698e-14
4.6511e-13
1
1
1
1
1
1
1
1
1
1
1
1
1
1
1
1
1
1
1
1
1
1
1
1
1
1
1
1
1
1
1
1
1
1
1
1
1
1
1
1
1
1
1
1
1
1
1
1
1
1
1
0.761502
0.258662
1
1
1
1
1
1
1
1
1
1
1
1
1
1
1
1
1
0.999789
0.94963
0.591945
0.264225
0.112704
0.0280999
0.0102218
0.0694911
0.16506
0.0144272
0.00422569
0.00336654
0.00190802
0.00106598
0.000542148
0.000311234
0.00016507
0.000103425
6.28064e-05
4.1751e-05
2.20874e-05
9.86914e-06
5.8588e-06
2.79329e-07
1.13508e-08
1.70616e-10
6.95198e-12
8.76771e-14
5.86056e-12
1
1
1
1
1
1
1
1
1
1
1
1
1
1
1
1
1
1
1
1
1
1
1
1
1
1
1
1
1
1
1
1
1
1
1
1
1
1
1
1
1
1
1
1
1
1
1
1
1
1
1
1
0.455108
0.280837
1
1
1
1
1
1
1
1
1
1
1
1
1
1
1
1
0.999874
0.960388
0.619512
0.281841
0.127817
0.0311905
0.0109605
0.0490393
0.137207
0.0157518
0.00450042
0.00338657
0.0022853
0.00143636
0.00073748
0.000411013
0.000207832
0.000124927
7.08261e-05
4.63611e-05
2.27947e-05
1.16129e-05
6.29713e-06
2.57592e-07
6.73689e-09
1.13321e-10
3.72754e-12
7.77893e-14
3.38993e-11
1
1
1
1
1
1
1
1
1
1
1
1
1
1
1
1
1
1
1
1
1
1
1
1
1
1
1
1
1
1
1
1
1
1
1
1
1
1
1
1
1
1
1
1
1
1
1
1
1
1
1
1
1
0.253893
0.339905
1
1
1
1
1
1
1
1
1
1
1
1
1
1
1
0.999915
0.969636
0.647482
0.295658
0.137487
0.035269
0.0114493
0.0430309
0.0934416
0.0236177
0.00435231
0.0034128
0.00258212
0.00199116
0.00110193
0.000625248
0.000308927
0.000184983
0.000104585
7.04725e-05
3.56165e-05
1.83601e-05
8.7262e-06
2.89433e-07
5.66824e-09
8.03295e-11
3.65693e-12
7.20367e-14
1.25144e-10
1
1
1
1
1
1
1
1
1
1
1
1
1
1
1
1
1
1
1
1
1
1
1
1
1
1
1
1
1
1
1
1
1
1
1
1
1
1
1
1
1
1
1
1
1
1
1
1
1
1
1
1
1
0.998762
0.151088
0.450361
1
1
1
1
1
1
1
1
1
1
1
1
1
1
0.999941
0.974995
0.679461
0.311086
0.142781
0.0391138
0.0124072
0.0300193
0.179653
0.0138026
0.00546381
0.00329302
0.00272961
0.00260544
0.00174991
0.00105606
0.000512661
0.000301627
0.000170672
0.000117485
6.71789e-05
3.38337e-05
1.37774e-05
2.17967e-07
5.11886e-09
7.87019e-11
3.32934e-12
7.12183e-14
2.68064e-10
1
1
1
1
1
1
1
1
1
1
1
1
1
1
1
1
1
1
1
1
1
1
1
1
1
1
1
1
1
1
1
1
1
1
1
1
1
1
1
1
1
1
1
1
1
1
1
1
1
1
1
1
1
1
0.833027
0.104053
0.614779
1
1
1
1
1
1
1
1
1
1
1
1
1
0.999957
0.978974
0.701348
0.330743
0.149171
0.0425414
0.0132814
0.0349835
0.0127159
0.0583886
0.0023754
0.00371069
0.00248406
0.00259922
0.00265929
0.00191018
0.000965317
0.000545205
0.000296111
0.000195599
0.000121738
5.70234e-05
2.69017e-05
1.42165e-07
4.65878e-09
7.69541e-11
3.19501e-12
6.63607e-14
4.86062e-10
1
1
1
1
1
1
1
1
1
1
1
1
1
1
1
1
1
1
1
1
1
1
1
1
1
1
1
1
1
1
1
1
1
1
1
1
1
1
1
1
1
1
1
1
1
1
1
1
1
1
1
1
1
1
1
0.398362
0.0885487
0.754865
1
1
1
1
1
1
1
1
1
1
1
1
0.999968
0.982131
0.719637
0.344815
0.156932
0.0460631
0.0138724
0.0324241
0.0228914
0.000747781
0.00874612
0.00192497
0.00248763
0.00227156
0.00267683
0.00293632
0.00195556
0.00112058
0.000595672
0.000379663
0.000219225
8.12411e-05
3.8392e-05
1.07683e-07
5.96132e-09
7.84932e-11
3.1487e-12
6.25192e-14
5.82306e-10
1
1
1
1
1
1
1
1
1
1
1
1
1
1
1
1
1
1
1
1
1
1
1
1
1
1
1
1
1
1
1
1
1
1
1
1
1
1
1
1
1
1
1
1
1
1
1
1
1
1
1
1
1
1
1
1
0.168166
0.0940659
0.771426
1
1
1
1
1
1
1
1
1
1
1
0.999976
0.984786
0.73648
0.356518
0.163174
0.0495076
0.0144148
0.0264424
0.0438202
0.000329819
0.000479001
0.00353955
0.00140258
0.00194276
0.00205125
0.00289351
0.00322201
0.00239651
0.00136552
0.000882
0.000470892
0.000114069
3.83635e-05
1.00814e-07
6.84083e-09
7.25908e-11
3.24325e-12
5.89014e-14
6.04808e-10
1
1
1
1
1
1
1
1
1
1
1
1
1
1
1
1
1
1
1
1
1
1
1
1
1
1
1
1
1
1
1
1
1
1
1
1
1
1
1
1
1
1
1
1
1
1
1
1
1
1
1
1
1
1
1
1
0.977176
0.0827496
0.121913
0.755092
1
1
1
1
1
1
1
1
1
1
0.999982
0.986898
0.751989
0.367587
0.167801
0.0530326
0.0149918