/*--------------------------------*- C++ -*----------------------------------*\
| =========                 |                                                 |
| \\      /  F ield         | OpenFOAM: The Open Source CFD Toolbox           |
|  \\    /   O peration     | Version:  v2012                                 |
|   \\  /    A nd           | Website:  www.openfoam.com                      |
|    \\/     M anipulation  |                                                 |
\*---------------------------------------------------------------------------*/
FoamFile
{
    version     2.0;
    format      ascii;
    class       volScalarField;
    location    "13380";
    object      q3;
}
// * * * * * * * * * * * * * * * * * * * * * * * * * * * * * * * * * * * * * //

dimensions      [0 0 0 0 0 0 0];


internalField   nonuniform List<scalar> 
31383
(
0.000157414
0.000158344
0.000192362
0.000152522
0.000269636
0.000264848
0.000148255
0.000258524
0.000902089
0.000558236
0.000145053
0.000250277
0.000861537
0.00243293
0.00114393
0.000142404
0.000244086
0.00083114
0.00232312
0.00521685
0.00210797
0.000140139
0.000238967
0.000808296
0.00223962
0.0049797
0.00973815
0.00358502
0.000138223
0.000234619
0.000789406
0.00217729
0.0048002
0.00929169
0.0166228
0.00576414
0.000136592
0.000230942
0.000773427
0.00212575
0.00466575
0.00895625
0.0158606
0.0266629
0.00890648
0.000135142
0.000227805
0.000759906
0.00208215
0.00455498
0.00870448
0.0152851
0.0254424
0.0408579
0.0133728
0.000133827
0.000225031
0.000748357
0.00204526
0.00446045
0.00849565
0.0148526
0.0245213
0.0389443
0.0600546
0.0196564
0.000132597
0.000222513
0.000738178
0.00201375
0.00438085
0.00831858
0.0144947
0.023827
0.0375442
0.0573227
0.0850303
0.0284481
0.000131458
0.000220163
0.000728927
0.00198598
0.00431286
0.00816915
0.0141924
0.0232521
0.0364874
0.0553018
0.0814158
0.116423
0.0405393
0.000130395
0.000217986
0.000720304
0.00196075
0.00425295
0.00804185
0.0139356
0.0227651
0.0356126
0.0537734
0.0786961
0.111739
0.154251
0.0570439
0.000129432
0.000215958
0.000712324
0.00193724
0.00419854
0.00792905
0.0137171
0.022353
0.034871
0.0525044
0.0765381
0.108116
0.148433
0.198468
0.0791279
0.000128563
0.000214128
0.00070489
0.00191549
0.00414784
0.00782697
0.0135241
0.0220014
0.034242
0.0514679
0.0747865
0.105357
0.1439
0.191426
0.248993
0.107714
0.000127785
0.000212481
0.0006982
0.00189523
0.00410096
0.00773189
0.0133488
0.0216913
0.0337051
0.0505135
0.0733342
0.103053
0.140439
0.185938
0.240726
0.306247
0.144189
0.000127083
0.000211003
0.000692191
0.00187701
0.0040573
0.00764398
0.0131861
0.0214099
0.0332315
0.0497319
0.0720309
0.101089
0.137568
0.181737
0.234183
0.296517
0.370813
0.189841
0.000126462
0.000209678
0.00068679
0.00186064
0.00401819
0.00756233
0.0130352
0.021148
0.0328025
0.0490432
0.0709465
0.0994474
0.135054
0.178229
0.229191
0.288874
0.359495
0.443294
0.245692
0.000125902
0.0002085
0.000681966
0.00184592
0.00398276
0.00748868
0.0128952
0.020906
0.0324263
0.0484184
0.0700162
0.0979839
0.132971
0.175198
0.225009
0.282991
0.35055
0.430166
0.524477
0.311953
0.000125403
0.000207446
0.000677662
0.00183278
0.00395106
0.0074224
0.012769
0.0206806
0.0320332
0.0478589
0.0691225
0.0967416
0.131129
0.172601
0.221401
0.278039
0.343667
0.419795
0.509286
0.615354
0.389462
0.000124955
0.000206504
0.00067383
0.00182106
0.00392275
0.00736299
0.0126559
0.0204783
0.0316895
0.0472985
0.0683141
0.0955695
0.129545
0.1704
0.218332
0.273806
0.33791
0.41181
0.497298
0.597827
0.717158
0.480017
0.000124555
0.000205661
0.000670405
0.0018107
0.00389749
0.00730993
0.012554
0.0202963
0.0313806
0.0467983
0.0675677
0.0944976
0.128071
0.168436
0.215684
0.270201
0.332978
0.40513
0.488079
0.583985
0.696897
0.83129
0.585025
0.000124195
0.000204907
0.00066734
0.00180129
0.00387509
0.00726259
0.0124631
0.0201328
0.0311028
0.0463482
0.0668725
0.0935253
0.126713
0.166645
0.213345
0.267106
0.328752
0.399394
0.480359
0.573347
0.680951
0.807901
0.959448
0.705915
0.000123869
0.00020423
0.000664598
0.00179294
0.00385489
0.00722045
0.012382
0.0199866
0.0308534
0.0459576
0.0662465
0.0925869
0.125474
0.164997
0.211218
0.26436
0.325134
0.394501
0.47374
0.564451
0.668695
0.789524
0.932432
1.10353
0.844152
0.000123569
0.000203617
0.000662141
0.00178548
0.00383691
0.00718285
0.0123099
0.0198563
0.0306302
0.0455794
0.0656962
0.0917562
0.124302
0.163452
0.209252
0.261876
0.321927
0.390302
0.468077
0.556814
0.658438
0.775399
0.911258
1.07241
1.2658
1.00135
0.000123292
0.000203054
0.000659915
0.00177878
0.00382082
0.00714904
0.0122453
0.0197403
0.0304312
0.0452542
0.0651763
0.0910079
0.123235
0.162034
0.207425
0.259552
0.31902
0.386581
0.463221
0.550293
0.649655
0.7636
0.895003
1.04801
1.23009
1.44882
1.17935
0.000123037
0.000202534
0.000657867
0.00177272
0.00380639
0.00711887
0.0121874
0.0196365
0.030254
0.0449637
0.0647332
0.0903354
0.122284
0.160734
0.205717
0.257411
0.316325
0.383212
0.458928
0.544697
0.642147
0.753498
0.881422
1.02929
1.20195
1.4081
1.65559
1.38016
0.000122803
0.000202055
0.000655981
0.00176714
0.00379333
0.00709183
0.0121357
0.0195436
0.0300953
0.0447049
0.0643175
0.0897414
0.121429
0.159577
0.204182
0.255421
0.313831
0.380097
0.45504
0.539745
0.635716
0.744862
0.869809
1.01366
1.18038
1.37563
1.60928
1.88947
1.60577
0.000122591
0.000201617
0.000654244
0.00176201
0.00378131
0.00706733
0.0120894
0.0194605
0.0299533
0.0444733
0.0639564
0.0891925
0.120661
0.158523
0.202794
0.253623
0.311519
0.377207
0.451445
0.535274
0.630018
0.737464
0.859871
1.0003
1.16238
1.35077
1.57183
1.83682
2
1.85762
0.000122397
0.000201219
0.000652657
0.00175728
0.00377024
0.00704479
0.0120474
0.0193859
0.0298262
0.0442659
0.0636331
0.0887185
0.119982
0.157581
0.201547
0.251999
0.309421
0.374534
0.448123
0.531141
0.624871
0.73092
0.851368
0.988873
1.14701
1.33003
1.54317
1.7936
2
2
2
0.000122224
0.000200858
0.000651214
0.00175296
0.00376005
0.00702404
0.0120088
0.0193184
0.0297122
0.0440801
0.0633434
0.0882797
0.119367
0.156745
0.200423
0.250536
0.307532
0.372115
0.445046
0.527326
0.620133
0.725006
0.843844
0.979089
1.13386
1.31232
1.51926
1.76056
2
2
2
2
0.000122069
0.000200534
0.000649911
0.00174902
0.00375076
0.00700494
0.0119732
0.0192563
0.0296089
0.0439135
0.0630838
0.0878931
0.118811
0.155991
0.199424
0.249223
0.305829
0.369928
0.442265
0.523801
0.615761
0.719575
0.837056
0.970444
1.1226
1.29718
1.49888
1.73302
2
2
2
2
2
0.000121929
0.000200246
0.000648742
0.00174548
0.00374225
0.0069875
0.0119404
0.019199
0.0295138
0.0437624
0.0628508
0.0875465
0.118317
0.15531
0.198524
0.248046
0.304295
0.367961
0.439755
0.52061
0.611721
0.714563
0.830827
0.962649
1.11266
1.28422
1.48144
1.70954
1.97459
2
2
2
2
2
0.000121799
0.000199985
0.000647701
0.00174229
0.00373461
0.00697157
0.0119105
0.0191464
0.0294263
0.0436234
0.0626395
0.0872353
0.117874
0.154703
0.197712
0.246986
0.302924
0.366187
0.437494
0.517733
0.60807
0.709944
0.825087
0.955505
1.1037
1.27278
1.46652
1.68946
1.94755
2
2
2
2
2
2
0.000121679
0.000199744
0.000646759
0.00173946
0.00372775
0.00695725
0.0118833
0.0190982
0.0293458
0.0434955
0.0624451
0.086953
0.117476
0.154158
0.196987
0.24604
0.301693
0.364603
0.435454
0.515137
0.604777
0.705764
0.819802
0.948929
1.09551
1.26248
1.45335
1.67228
1.92444
2
2
2
2
2
2
2
0.000121557
0.00019952
0.000645888
0.00173689
0.00372163
0.00694434
0.0118587
0.0190544
0.0292721
0.0433777
0.0622661
0.0866931
0.117115
0.153668
0.196337
0.245184
0.300585
0.363178
0.433631
0.512799
0.601805
0.701997
0.815023
0.94288
1.08797
1.25306
1.44151
1.65713
1.90466
2
2
2
2
2
2
2
2
0.000121454
0.000199291
0.000645093
0.00173452
0.0037161
0.00693286
0.0118366
0.0190148
0.0292051
0.0432699
0.0621012
0.0864537
0.116783
0.153223
0.195748
0.244419
0.299588
0.361895
0.431986
0.510708
0.599129
0.698598
0.810714
0.937412
1.08104
1.24441
1.43069
1.64351
1.88722
2
2
2
2
2
2
2
2
2
0.000121773
0.000199102
0.000644248
0.00173233
0.00371097
0.00692248
0.0118169
0.0189793
0.0291445
0.0431718
0.0619504
0.0862332
0.116479
0.152816
0.195215
0.243727
0.298694
0.36074
0.430508
0.508821
0.596732
0.695533
0.806824
0.93248
1.07478
1.23647
1.42077
1.63109
1.87156
2
2
2
2
2
2
2
2
2
2
0.000155949
0.000199131
0.000643574
0.00173005
0.00370623
0.00691286
0.0117991
0.0189475
0.02909
0.043083
0.0618129
0.0860314
0.116194
0.152438
0.194726
0.243101
0.297889
0.359702
0.429176
0.507125
0.59457
0.69279
0.803319
0.928031
1.06913
1.22929
1.41166
1.61969
1.85729
2
2
2
2
2
2
2
2
2
2
2
0.000125252
0.0148356
0.000642151
0.00172821
0.00370135
0.00690396
0.0117825
0.0189188
0.0290414
0.0430033
0.0616907
0.0858474
0.115935
0.152087
0.194272
0.242522
0.297155
0.358765
0.427981
0.505594
0.592623
0.690314
0.800178
0.924021
1.06404
1.22282
1.40343
1.60924
1.84421
2
2
2
2
2
2
2
2
2
2
2
2
0.000126283
0.000898514
0.0466153
0.00172404
0.00369739
0.00689478
0.0117672
0.0188921
0.0289974
0.042932
0.0615762
0.0856827
0.115699
0.151768
0.193855
0.24199
0.296479
0.357914
0.426901
0.50422
0.590867
0.688084
0.797344
0.920426
1.05945
1.21699
1.39601
1.59981
1.83222
2
2
2
2
2
2
2
2
2
2
2
2
2
0.000137756
0.00155202
0.00252564
0.103179
0.00368831
0.00688736
0.0117515
0.0188675
0.0289565
0.0428674
0.0614762
0.0855319
0.115486
0.151477
0.193474
0.241499
0.295857
0.357132
0.425919
0.502977
0.589291
0.686071
0.794789
0.917179
1.05533
1.21173
1.38932
1.59131
1.82141
2
2
2
2
2
2
2
2
2
2
2
2
2
2
0.000131216
0.00374507
0.00449546
0.00569604
0.183604
0.00687024
0.0117387
0.0188421
0.0289187
0.0428075
0.0613855
0.0853954
0.115295
0.151213
0.193123
0.241048
0.295281
0.356409
0.425016
0.501848
0.587864
0.684263
0.792483
0.914253
1.05161
1.207
1.38329
1.58364
1.81167
2
2
2
2
2
2
2
2
2
2
2
2
2
2
2
0.000123312
0.00285166
0.0119143
0.0102219
0.0105767
0.287713
0.0117092
0.0188216
0.0288816
0.042752
0.0613013
0.0852735
0.11512
0.150976
0.192806
0.240636
0.294756
0.355742
0.424181
0.500808
0.586568
0.682627
0.79041
0.91161
1.04826
1.20274
1.37788
1.57673
1.80287
2
2
2
2
2
2
2
2
2
2
2
2
2
2
2
2
0.000121909
0.00139224
0.00877359
0.0273098
0.0186947
0.0170787
0.415499
0.0187734
0.028848
0.0426943
0.0612233
0.0851604
0.114963
0.150762
0.19252
0.240261
0.294273
0.355131
0.423412
0.499848
0.585373
0.681139
0.788534
0.909234
1.04523
1.1989
1.37299
1.57052
1.79495
2
2
2
2
2
2
2
2
2
2
2
2
2
2
2
2
2
0.000120614
0.00115659
0.00399839
0.0199685
0.0496769
0.0298231
0.0258542
0.565774
0.0287728
0.0426477
0.0611442
0.0850555
0.114818
0.150569
0.192264
0.239924
0.293834
0.354572
0.422705
0.498963
0.584271
0.67977
0.786828
0.907082
1.0425
1.19542
1.36858
1.56491
1.78784
2
2
2
2
2
2
2
2
2
2
2
2
2
2
2
2
2
2
0.000120371
0.000379659
0.0032765
0.00905623
0.0361907
0.0790155
0.0441174
0.036965
0.734863
0.0425344
0.0610776
0.0849472
0.114683
0.150386
0.19203
0.239621
0.293437
0.35406
0.422059
0.49815
0.583255
0.678505
0.785257
0.905125
1.04003
1.19229
1.36459
1.55985
1.7814
2
2
2
2
2
2
2
2
2
2
2
2
2
2
2
2
2
2
2
0.000120283
0.000316647
0.00110701
0.00742473
0.0164422
0.0573596
0.115411
0.0613372
0.051385
0.910608
0.0609122
0.0848605
0.114543
0.150219
0.191811
0.239343
0.293081
0.353599
0.421468
0.497406
0.582321
0.677339
0.783807
0.903322
1.03779
1.18946
1.361
1.55528
1.7756
2
2
2
2
2
2
2
2
2
2
2
2
2
2
2
2
2
2
2
2
0.00012022
0.000213994
0.000934432
0.00266076
0.0136844
0.0262382
0.0837547
0.158832
0.0824939
0.0699133
1.08369
0.084628
0.114432
0.150045
0.191609
0.239085
0.292755
0.353184
0.420934
0.496725
0.581466
0.676267
0.782468
0.901659
1.03572
1.18688
1.35775
1.55115
1.77034
2
2
2
2
2
2
2
2
2
2
2
2
2
2
2
2
2
2
2
2
2
0.000120125
0.000204197
0.000676195
0.00230835
0.00535884
0.0221439
0.0386709
0.115311
0.208859
0.107217
0.0922218
1.24041
0.114116
0.149908
0.191398
0.238844
0.292451
0.352802
0.420452
0.496109
0.580682
0.675284
0.781238
0.900125
1.03381
1.1845
1.35478
1.54742
1.76561
2
2
2
2
2
2
2
2
2
2
2
2
2
2
2
2
2
2
2
2
2
2
0.000120033
0.000211132
0.000650466
0.0017748
0.00460485
0.00939042
0.032691
0.0540735
0.152132
0.263585
0.136525
0.119123
1.37483
0.149496
0.191233
0.238595
0.292167
0.352446
0.420008
0.495551
0.579973
0.674383
0.78011
0.898714
1.03205
1.18231
1.35206
1.54402
1.76132
2
2
2
2
2
2
2
2
2
2
2
2
2
2
2
2
2
2
2
2
2
2
2
0.000119968
0.000205462
0.000665247
0.00172229
0.00373532
0.00809052
0.0149151
0.04595
0.0737739
0.193822
0.320679
0.168542
0.15234
1.48961
0.190711
0.238399
0.291873
0.352115
0.419594
0.495038
0.579329
0.673567
0.779076
0.897419
1.03043
1.18029
1.34954
1.54089
1.75742
2
2
2
2
2
2
2
2
2
2
2
2
2
2
2
2
2
2
2
2
2
2
2
2
0.000119914
0.000198055
0.00065043
0.00174831
0.0036515
0.0068635
0.0131889
0.0225764
0.0630353
0.0974375
0.239854
0.375582
0.205216
0.188813
1.58764
0.237752
0.291643
0.351771
0.419209
0.494559
0.578736
0.672826
0.778137
0.896231
1.02895
1.17843
1.34722
1.53799
1.75382
1.99818
2
2
2
2
2
2
2
2
2
2
2
2
2
2
2
2
2
2
2
2
2
2
2
2
0.000119861
0.000197508
0.000631938
0.00171831
0.00368478
0.00674229
0.0115898
0.0203939
0.0333977
0.0844615
0.126283
0.287397
0.431054
0.243974
0.231798
1.67286
0.290847
0.351504
0.41881
0.494113
0.578183
0.672142
0.777283
0.895151
1.02758
1.17673
1.34508
1.53533
1.7505
1.99405
2
2
2
2
2
2
2
2
2
2
2
2
2
2
2
2
2
2
2
2
2
2
2
2
2
0.000119813
0.00019754
0.000631238
0.00168238
0.00363388
0.00678461
0.0114866
0.01844
0.0310207
0.0480945
0.108879
0.159524
0.336286
0.482359
0.285448
0.278567
1.74969
0.350533
0.4185
0.493649
0.577667
0.671503
0.776496
0.894168
1.02634
1.17516
1.34312
1.53288
1.74744
1.99023
2
2
2
2
2
2
2
2
2
2
2
2
2
2
2
2
2
2
2
2
2
2
2
2
2
2
0.000119774
0.000196576
0.000631435
0.00168147
0.00357642
0.0067118
0.0115448
0.0183885
0.0283947
0.0454528
0.0666729
0.13947
0.195837
0.384175
0.53255
0.327495
0.332204
1.82016
0.417328
0.493292
0.57713
0.670907
0.775758
0.893262
1.02521
1.17373
1.34132
1.53062
1.74462
1.98672
2
2
2
2
2
2
2
2
2
2
2
2
2
2
2
2
2
2
2
2
2
2
2
2
2
2
2
0.000119747
0.000196017
0.000629301
0.00168417
0.0035777
0.00662706
0.0114258
0.0185848
0.0281344
0.0420013
0.0637477
0.0911232
0.174604
0.23589
0.430931
0.581818
0.378679
0.39337
1.88791
0.491883
0.576718
0.670286
0.77507
0.89241
1.02416
1.17243
1.33968
1.52855
1.74203
1.98348
2
2
2
2
2
2
2
2
2
2
2
2
2
2
2
2
2
2
2
2
2
2
2
2
2
2
2
2
0.000119694
0.000195857
0.000627428
0.0016791
0.00358423
0.00663305
0.0113304
0.0183918
0.0283987
0.041574
0.0598373
0.0869435
0.120991
0.212923
0.281372
0.479549
0.631319
0.435759
0.462641
1.95234
0.575036
0.669812
0.774352
0.891615
1.02318
1.17123
1.33818
1.52666
1.73965
1.98051
2
2
2
2
2
2
2
2
2
2
2
2
2
2
2
2
2
2
2
2
2
2
2
2
2
2
2
2
2
0.000118413
0.000195575
0.000626399
0.00167322
0.00357224
0.00664983
0.0113085
0.0182309
0.0281101
0.0416336
0.0593144
0.0828697
0.116469
0.156606
0.25643
0.331981
0.531053
0.684977
0.500913
0.539714
2
0.667819
0.773807
0.890787
1.02226
1.17009
1.33679
1.52494
1.73748
1.97777
2
2
2
2
2
2
2
2
2
2
2
2
2
2
2
2
2
2
2
2
2
2
2
2
2
2
2
2
2
2
9.31396e-05
0.000194265
0.000626156
0.00167163
0.00356346
0.00662954
0.0112958
0.0181404
0.027797
0.0413345
0.0593465
0.0824055
0.112076
0.152052
0.19786
0.305873
0.385476
0.58579
0.744783
0.573108
0.627078
2
0.771462
0.89016
1.02131
1.16903
1.33549
1.52334
1.73549
1.97527
2
2
2
2
2
2
2
2
2
2
2
2
2
2
2
2
2
2
2
2
2
2
2
2
2
2
2
2
2
2
2
1.30834e-05
0.00016369
0.000623535
0.00167037
0.00355907
0.00661416
0.0112681
0.0180636
0.0276941
0.0409042
0.0589826
0.0824989
0.111524
0.147216
0.193171
0.244731
0.358729
0.443876
0.64559
0.810281
0.655409
0.725213
2
0.887416
1.02058
1.16793
1.33426
1.52183
1.73365
1.97299
2
2
2
2
2
2
2
2
2
2
2
2
2
2
2
2
2
2
2
2
2
2
2
2
2
2
2
2
2
2
2
2
4.3416e-05
7.53587e-05
0.000556334
0.00166499
0.00355696
0.00660624
0.0112419
0.0180246
0.0276442
0.0408774
0.0584818
0.0819708
0.111592
0.146249
0.187512
0.239118
0.29816
0.416871
0.509021
0.712009
0.886645
0.748611
0.83593
2
1.01739
1.1671
1.33299
1.52043
1.73192
1.97088
2
2
2
2
2
2
2
2
2
2
2
2
2
2
2
2
2
2
2
2
2
2
2
2
2
2
2
2
2
2
2
2
2
5.06867e-05
0.000448886
0.000330005
0.00149026
0.00354634
0.00660185
0.0112303
0.017993
0.0275902
0.0408337
0.0584807
0.0815486
0.110901
0.146277
0.186739
0.23384
0.292042
0.357048
0.482715
0.580494
0.788905
0.969298
0.85423
0.96074
2
1.16337
1.33203
1.51895
1.73029
1.96887
2
2
2
2
2
2
2
2
2
2
2
2
2
2
2
2
2
2
2
2
2
2
2
2
2
2
2
2
2
2
2
2
2
2
5.60155e-05
0.000389349
0.00201174
0.000895629
0.00317325
0.00658289
0.011224
0.0179732
0.0275431
0.0407618
0.0585155
0.0814573
0.110405
0.145538
0.186803
0.233382
0.286615
0.351588
0.42383
0.554131
0.66245
0.874772
1.0638
0.974273
1.10135
2
1.3277
1.51785
1.72859
1.967
2
2
2
2
2
2
2
2
2
2
2
2
2
2
2
2
2
2
2
2
2
2
2
2
2
2
2
2
2
2
2
2
2
2
2
5.9901e-05
0.000402736
0.0017295
0.0052861
0.00190904
0.00588401
0.0111839
0.0179621
0.0275078
0.0406863
0.0583799
0.0814058
0.110175
0.144642
0.18594
0.233463
0.285654
0.345377
0.417877
0.497987
0.63524
0.753061
0.97019
1.17387
1.1111
1.26035
2
1.5128
1.72732
1.96503
2
2
2
2
2
2
2
2
2
2
2
2
2
2
2
2
2
2
2
2
2
2
2
2
2
2
2
2
2
2
2
2
2
2
2
2
6.33958e-05
0.00042892
0.00178324
0.00472677
0.0106869
0.00354368
0.00998991
0.0178942
0.0274943
0.040665
0.0583231
0.0812826
0.110046
0.144536
0.185203
0.232456
0.285681
0.344415
0.4116
0.491827
0.580524
0.726855
0.855197
1.0797
1.29968
1.26506
1.43952
2
1.72145
1.96357
2
2
2
2
2
2
2
2
2
2
2
2
2
2
2
2
2
2
2
2
2
2
2
2
2
2
2
2
2
2
2
2
2
2
2
2
2
6.60919e-05
0.000477738
0.00189944
0.00487544
0.0100777
0.0186631
0.00602629
0.0159752
0.0273979
0.0406266
0.0582607
0.0811489
0.109844
0.144589
0.185068
0.23168
0.284572
0.344779
0.410538
0.485445
0.574224
0.673128
0.827354
0.970333
1.20677
1.44223
1.43962
1.64164
2
1.95672
2
2
2
2
2
2
2
2
2
2
2
2
2
2
2
2
2
2
2
2
2
2
2
2
2
2
2
2
2
2
2
2
2
2
2
2
2
2
6.8901e-05
0.000525024
0.00212341
0.00519471
0.0104397
0.0184614
0.0297612
0.00966011
0.0244767
0.0405121
0.0582544
0.0810923
0.109758
0.144379
0.184973
0.231368
0.283762
0.343619
0.41094
0.484263
0.567674
0.666514
0.775785
0.941542
1.09887
1.34907
1.60763
1.63724
1.87021
2
2
2
2
2
2
2
2
2
2
2
2
2
2
2
2
2
2
2
2
2
2
2
2
2
2
2
2
2
2
2
2
2
2
2
2
2
2
2
2
7.17531e-05
0.000559519
0.00233987
0.00581396
0.0111317
0.0192786
0.0306217
0.0445551
0.0148485
0.0362305
0.0580692
0.0810814
0.109648
0.14421
0.184824
0.231285
0.283752
0.342626
0.409988
0.484619
0.566873
0.660217
0.768793
0.891012
1.06947
1.24357
1.51315
1.79496
1.86047
2
2
2
2
2
2
2
2
2
2
2
2
2
2
2
2
2
2
2
2
2
2
2
2
2
2
2
2
2
2
2
2
2
2
2
2
2
2
2
2
2
7.4366e-05
0.00059175
0.00249536
0.00641085
0.0124663
0.0205802
0.0322646
0.0473562
0.0635402
0.0221271
0.0521154
0.0808652
0.10965
0.144175
0.184611
0.231004
0.283554
0.342656
0.409005
0.483644
0.567707
0.658937
0.763018
0.883662
1.02074
1.21313
1.40944
1.70029
2
2
2
2
2
2
2
2
2
2
2
2
2
2
2
2
2
2
2
2
2
2
2
2
2
2
2
2
2
2
2
2
2
2
2
2
2
2
2
2
2
2
2
7.67504e-05
0.000622972
0.00264227
0.00684347
0.0136998
0.0229958
0.0344866
0.0503021
0.0693338
0.0869523
0.0321771
0.0729518
0.109396
0.144089
0.184475
0.230892
0.283337
0.342463
0.408605
0.482543
0.566138
0.659215
0.761602
0.877331
1.01284
1.16606
1.37638
1.59623
1.91234
2
2
2
2
2
2
2
2
2
2
2
2
2
2
2
2
2
2
2
2
2
2
2
2
2
2
2
2
2
2
2
2
2
2
2
2
2
2
2
2
2
2
2
7.89878e-05
0.000651044
0.00278664
0.00724919
0.0146002
0.0251622
0.0383744
0.0538162
0.0741006
0.0967839
0.11481
0.0458519
0.0994265
0.14385
0.184499
0.230776
0.283153
0.342197
0.408454
0.482255
0.56451
0.658065
0.761352
0.876272
1.00578
1.15765
1.3295
1.56
1.80737
2
2
2
2
2
2
2
2
2
2
2
2
2
2
2
2
2
2
2
2
2
2
2
2
2
2
2
2
2
2
2
2
2
2
2
2
2
2
2
2
2
2
2
2
8.10624e-05
0.000676116
0.00291525
0.00764439
0.0154489
0.0267615
0.0417872
0.0595977
0.0792559
0.103927
0.129518
0.147
0.0640801
0.131892
0.184232
0.23072
0.283095
0.342013
0.40814
0.482213
0.564358
0.656777
0.759999
0.876449
1.0047
1.1504
1.32043
1.51335
1.76717
2
2
2
2
2
2
2
2
2
2
2
2
2
2
2
2
2
2
2
2
2
2
2
2
2
2
2
2
2
2
2
2
2
2
2
2
2
2
2
2
2
2
2
2
2
8.29748e-05
0.000698083
0.00302968
0.00799927
0.0162727
0.0282737
0.044354
0.064489
0.087154
0.110904
0.139489
0.167333
0.18354
0.087778
0.170401
0.230445
0.283076
0.341953
0.407999
0.481902
0.56453
0.65638
0.759221
0.874484
1.00521
1.14917
1.31346
1.50356
1.72041
2
2
2
2
2
2
2
2
2
2
2
2
2
2
2
2
2
2
2
2
2
2
2
2
2
2
2
2
2
2
2
2
2
2
2
2
2
2
2
2
2
2
2
2
2
2
8.47233e-05
0.000718092
0.00312954
0.00831564
0.0170126
0.0297462
0.0467687
0.0682074
0.0936408
0.121006
0.148415
0.180264
0.210016
0.224628
0.117679
0.215072
0.282771
0.341923
0.407958
0.481715
0.564169
0.656314
0.759105
0.87357
1.00304
1.1496
1.31209
1.49688
1.7103
1.95478
2
2
2
2
2
2
2
2
2
2
2
2
2
2
2
2
2
2
2
2
2
2
2
2
2
2
2
2
2
2
2
2
2
2
2
2
2
2
2
2
2
2
2
2
2
2
8.63024e-05
0.00073635
0.00322076
0.00859229
0.0176737
0.0310431
0.0491052
0.0717304
0.0986184
0.128995
0.160479
0.191288
0.226287
0.257825
0.270646
0.154123
0.265867
0.341761
0.407965
0.481723
0.564008
0.656048
0.758925
0.873905
1.00213
1.1478
1.31242
1.49588
1.70338
1.94454
2
2
2
2
2
2
2
2
2
2
2
2
2
2
2
2
2
2
2
2
2
2
2
2
2
2
2
2
2
2
2
2
2
2
2
2
2
2
2
2
2
2
2
2
2
2
2
8.7694e-05
0.000752905
0.00330408
0.008849
0.0182456
0.0322044
0.051138
0.0750995
0.103317
0.135186
0.169936
0.205315
0.23942
0.277698
0.311206
0.322333
0.197309
0.323285
0.40784
0.481751
0.563969
0.655854
0.758569
0.873666
1.00247
1.14675
1.31097
1.49607
1.70227
1.93703
2
2
2
2
2
2
2
2
2
2
2
2
2
2
2
2
2
2
2
2
2
2
2
2
2
2
2
2
2
2
2
2
2
2
2
2
2
2
2
2
2
2
2
2
2
2
2
2
8.89074e-05
0.000767924
0.00337942
0.00908448
0.0187833
0.0332261
0.0529595
0.0780518
0.107778
0.141121
0.177432
0.216155
0.255537
0.293192
0.335009
0.370829
0.380284
0.247454
0.388044
0.481797
0.564041
0.655834
0.758437
0.873335
1.0023
1.14678
1.30928
1.49386
1.70269
1.93498
2
2
2
2
2
2
2
2
2
2
2
2
2
2
2
2
2
2
2
2
2
2
2
2
2
2
2
2
2
2
2
2
2
2
2
2
2
2
2
2
2
2
2
2
2
2
2
2
2
8.99228e-05
0.000779744
0.00344722
0.0092929
0.0192859
0.034184
0.0546035
0.0806724
0.111715
0.146628
0.184461
0.224918
0.267892
0.311456
0.353248
0.399138
0.437693
0.445556
0.305032
0.460827
0.564244
0.655851
0.758465
0.8732
1.00203
1.14676
1.30906
1.49206
1.70027
1.93561
2
2
2
2
2
2
2
2
2
2
2
2
2
2
2
2
2
2
2
2
2
2
2
2
2
2
2
2
2
2
2
2
2
2
2
2
2
2
2
2
2
2
2
2
2
2
2
2
2
2
9.07593e-05
0.000787924
0.00350141
0.00948092
0.019723
0.0350754
0.0561438
0.0830046
0.115193
0.151477
0.191064
0.233174
0.277944
0.325486
0.374077
0.420335
0.470995
0.512738
0.51921
0.370702
0.54254
0.65625
0.758492
0.873248
1.00194
1.14653
1.30944
1.4923
1.69899
1.9333
2
2
2
2
2
2
2
2
2
2
2
2
2
2
2
2
2
2
2
2
2
2
2
2
2
2
2
2
2
2
2
2
2
2
2
2
2
2
2
2
2
2
2
2
2
2
2
2
2
2
2
9.14545e-05
0.000793668
0.0035383
0.00962372
0.0201045
0.035854
0.0575535
0.0852118
0.118263
0.155812
0.196788
0.240772
0.28748
0.337105
0.389889
0.444143
0.495649
0.551755
0.597273
0.602332
0.445452
0.634316
0.759027
0.873318
1.0019
1.14645
1.30911
1.49263
1.69919
1.93182
2
2
2
2
2
2
2
2
2
2
2
2
2
2
2
2
2
2
2
2
2
2
2
2
2
2
2
2
2
2
2
2
2
2
2
2
2
2
2
2
2
2
2
2
2
2
2
2
2
2
2
2
9.20125e-05
0.00079509
0.003561
0.00972238
0.0204092
0.0365335
0.0587831
0.0872217
0.121126
0.159626
0.201905
0.247426
0.296251
0.348086
0.403118
0.462106
0.522596
0.580242
0.642693
0.692485
0.696338
0.530603
0.737424
0.874128
1.002
1.1465
1.30906
1.49231
1.6991
1.93184
2
2
2
2
2
2
2
2
2
2
2
2
2
2
2
2
2
2
2
2
2
2
2
2
2
2
2
2
2
2
2
2
2
2
2
2
2
2
2
2
2
2
2
2
2
2
2
2
2
2
2
2
2
9.24998e-05
0.000792348
0.00356647
0.00979012
0.0206324
0.0370807
0.0598592
0.0889744
0.123744
0.163101
0.20649
0.253416
0.303942
0.358167
0.415713
0.477164
0.543078
0.611029
0.675588
0.745176
0.799827
0.802836
0.627681
0.853329
1.00311
1.1466
1.30918
1.49229
1.69887
1.93223
2
2
2
2
2
2
2
2
2
2
2
2
2
2
2
2
2
2
2
2
2
2
2
2
2
2
2
2
2
2
2
2
2
2
2
2
2
2
2
2
2
2
2
2
2
2
2
2
2
2
2
2
2
2
9.30278e-05
0.000788013
0.00355523
0.00980545
0.0207833
0.0375067
0.0607072
0.0905026
0.126054
0.166284
0.210575
0.258698
0.310804
0.366994
0.427266
0.491558
0.560345
0.634063
0.710473
0.783066
0.860777
0.921248
0.923664
0.738388
0.983585
1.1479
1.30941
1.49246
1.69893
1.93198
2
2
2
2
2
2
2
2
2
2
2
2
2
2
2
2
2
2
2
2
2
2
2
2
2
2
2
2
2
2
2
2
2
2
2
2
2
2
2
2
2
2
2
2
2
2
2
2
2
2
2
2
2
2
2
9.35067e-05
0.000782131
0.00353318
0.00976957
0.0208288
0.0377925
0.0613922
0.0917491
0.12806
0.169135
0.214272
0.263578
0.31695
0.374878
0.437376
0.504735
0.576896
0.653951
0.736819
0.822773
0.904412
0.991546
1.05851
1.06084
0.864792
1.12998
1.31076
1.49275
1.69921
1.93194
2
2
2
2
2
2
2
2
2
2
2
2
2
2
2
2
2
2
2
2
2
2
2
2
2
2
2
2
2
2
2
2
2
2
2
2
2
2
2
2
2
2
2
2
2
2
2
2
2
2
2
2
2
2
2
2
9.39758e-05
0.000773593
0.0035036
0.00971343
0.0207733
0.0378849
0.0618932
0.0927425
0.129693
0.171604
0.217586
0.26795
0.322566
0.381951
0.446431
0.516281
0.591926
0.672889
0.759443
0.852726
0.949633
1.0416
1.13941
1.2137
1.21683
1.00917
1.29439
1.49422
1.69944
1.93229
2
2
2
2
2
2
2
2
2
2
2
2
2
2
2
2
2
2
2
2
2
2
2
2
2
2
2
2
2
2
2
2
2
2
2
2
2
2
2
2
2
2
2
2
2
2
2
2
2
2
2
2
2
2
2
2
2
9.44194e-05
0.000764431
0.00346271
0.00963341
0.0206646
0.0378426
0.062062
0.0934575
0.130994
0.173602
0.220598
0.271809
0.327616
0.388317
0.454528
0.526661
0.605151
0.690089
0.781111
0.878569
0.983681
1.09297
1.19681
1.30646
1.38956
1.3943
1.17407
1.47881
1.701
1.93259
2
2
2
2
2
2
2
2
2
2
2
2
2
2
2
2
2
2
2
2
2
2
2
2
2
2
2
2
2
2
2
2
2
2
2
2
2
2
2
2
2
2
2
2
2
2
2
2
2
2
2
2
2
2
2
2
2
2
9.48468e-05
0.00075424
0.00341831
0.00951713
0.0205187
0.0376967
0.0620571
0.093794
0.131977
0.175204
0.223034
0.275219
0.33206
0.394068
0.461938
0.535925
0.617017
0.705198
0.800744
0.903213
1.01312
1.13165
1.25509
1.37227
1.49557
1.58883
1.59627
1.3625
1.68513
1.93436
2
2
2
2
2
2
2
2
2
2
2
2
2
2
2
2
2
2
2
2
2
2
2
2
2
2
2
2
2
2
2
2
2
2
2
2
2
2
2
2
2
2
2
2
2
2
2
2
2
2
2
2
2
2
2
2
2
2
2
9.5269e-05
0.000743792
0.00336915
0.0093944
0.0203138
0.0374779
0.0619263
0.0938759
0.13249
0.176484
0.22487
0.278031
0.336051
0.399201
0.468609
0.544517
0.627646
0.71875
0.817973
0.925535
1.04121
1.16521
1.299
1.43856
1.57085
1.70971
1.81472
1.82633
1.57778
1.91525
2
2
2
2
2
2
2
2
2
2
2
2
2
2
2
2
2
2
2
2
2
2
2
2
2
2
2
2
2
2
2
2
2
2
2
2
2
2
2
2
2
2
2
2
2
2
2
2
2
2
2
2
2
2
2
2
2
2
2
2
9.57956e-05
0.000733625
0.00331919
0.0092581
0.0200827
0.0371769
0.0616565
0.0937595
0.132665
0.177206
0.226474
0.280269
0.339257
0.403841
0.474506
0.552266
0.637359
0.730892
0.833408
0.945208
1.06668
1.1973
1.33725
1.48847
1.64625
1.79569
1.95217
2
2
1.82366
2
2
2
2
2
2
2
2
2
2
2
2
2
2
2
2
2
2
2
2
2
2
2
2
2
2
2
2
2
2
2
2
2
2
2
2
2
2
2
2
2
2
2
2
2
2
2
2
2
2
2
2
2
2
2
2
2
2
2
2
2
9.63405e-05
0.000726608
0.00327033
0.00911972
0.0198242
0.036825
0.0612663
0.0934964
0.132641
0.177481
0.227449
0.282147
0.341908
0.407694
0.47976
0.559013
0.646107
0.742024
0.847349
0.962864
1.08913
1.22636
1.37384
1.53201
1.70289
1.88126
2
2
2
2
2
2
2
2
2
2
2
2
2
2
2
2
2
2
2
2
2
2
2
2
2
2
2
2
2
2
2
2
2
2
2
2
2
2
2
2
2
2
2
2
2
2
2
2
2
2
2
2
2
2
2
2
2
2
2
2
2
2
2
2
2
2
9.68891e-05
0.000721011
0.00323624
0.0089838
0.0195609
0.0364242
0.060804
0.0930761
0.132468
0.177636
0.227888
0.283341
0.34416
0.410665
0.484068
0.564945
0.653864
0.752025
0.859997
0.978714
1.10922
1.2519
1.40699
1.57369
1.75249
1.94571
2
2
2
2
2
2
2
2
2
2
2
2
2
2
2
2
2
2
2
2
2
2
2
2
2
2
2
2
2
2
2
2
2
2
2
2
2
2
2
2
2
2
2
2
2
2
2
2
2
2
2
2
2
2
2
2
2
2
2
2
2
2
2
2
2
2
2
9.74375e-05
0.000716495
0.00320875
0.00888699
0.0192994
0.0360128
0.0602659
0.092554
0.13207
0.177604
0.228229
0.283941
0.345565
0.413256
0.487636
0.569845
0.660743
0.760871
0.871562
0.993204
1.12734
1.27484
1.43613
1.61152
1.79992
2
2
2
2
2
2
2
2
2
2
2
2
2
2
2
2
2
2
2
2
2
2
2
2
2
2
2
2
2
2
2
2
2
2
2
2
2
2
2
2
2
2
2
2
2
2
2
2
2
2
2
2
2
2
2
2
2
2
2
2
2
2
2
2
2
2
2
2
2
9.79349e-05
0.000713353
0.00318641
0.00880626
0.0190947
0.0356018
0.0597096
0.0919272
0.131553
0.177231
0.228299
0.28446
0.346392
0.415073
0.490677
0.574037
0.666483
0.768768
0.881782
1.00635
1.14396
1.29547
1.46223
1.64481
1.84299
2
2
2
2
2
2
2
2
2
2
2
2
2
2
2
2
2
2
2
2
2
2
2
2
2
2
2
2
2
2
2
2
2
2
2
2
2
2
2
2
2
2
2
2
2
2
2
2
2
2
2
2
2
2
2
2
2
2
2
2
2
2
2
2
2
2
2
2
2
2
9.83666e-05
0.000711022
0.00317019
0.00873991
0.0189169
0.0352545
0.0591462
0.0912646
0.13091
0.176778
0.228017
0.284702
0.347103
0.416118
0.492817
0.577566
0.671327
0.775356
0.890695
1.01803
1.15893
1.31441
1.48577
1.67454
1.88098
2
2
2
2
2
2
2
2
2
2
2
2
2
2
2
2
2
2
2
2
2
2
2
2
2
2
2
2
2
2
2
2
2
2
2
2
2
2
2
2
2
2
2
2
2
2
2
2
2
2
2
2
2
2
2
2
2
2
2
2
2
2
2
2
2
2
2
2
2
2
2
9.87309e-05
0.000709371
0.00315774
0.00869174
0.0187696
0.0349484
0.0586469
0.0905876
0.130222
0.176188
0.227644
0.284542
0.347489
0.41705
0.494212
0.580069
0.675388
0.780925
0.898131
1.0283
1.17214
1.33148
1.50731
1.70139
1.91483
2
2
2
2
2
2
2
2
2
2
2
2
2
2
2
2
2
2
2
2
2
2
2
2
2
2
2
2
2
2
2
2
2
2
2
2
2
2
2
2
2
2
2
2
2
2
2
2
2
2
2
2
2
2
2
2
2
2
2
2
2
2
2
2
2
2
2
2
2
2
2
2
9.90468e-05
0.000708391
0.00314839
0.00865399
0.0186623
0.034696
0.0581994
0.0899671
0.129509
0.175535
0.22713
0.284288
0.347452
0.417593
0.495279
0.581893
0.678249
0.785593
0.904518
1.03696
1.18387
1.34655
1.52676
1.7259
1.94539
2
2
2
2
2
2
2
2
2
2
2
2
2
2
2
2
2
2
2
2
2
2
2
2
2
2
2
2
2
2
2
2
2
2
2
2
2
2
2
2
2
2
2
2
2
2
2
2
2
2
2
2
2
2
2
2
2
2
2
2
2
2
2
2
2
2
2
2
2
2
2
2
2
9.93664e-05
0.000707914
0.00314209
0.0086249
0.018577
0.0345106
0.057831
0.0893979
0.128826
0.174834
0.226536
0.283849
0.347306
0.417664
0.495985
0.583195
0.680396
0.788851
0.909917
1.04431
1.1939
1.35992
1.54392
1.74803
1.97331
2
2
2
2
2
2
2
2
2
2
2
2
2
2
2
2
2
2
2
2
2
2
2
2
2
2
2
2
2
2
2
2
2
2
2
2
2
2
2
2
2
2
2
2
2
2
2
2
2
2
2
2
2
2
2
2
2
2
2
2
2
2
2
2
2
2
2
2
2
2
2
2
2
2
9.95267e-05
0.000708371
0.00313815
0.0086046
0.0185099
0.0343617
0.0575596
0.088928
0.128195
0.17417
0.225901
0.283326
0.346956
0.417607
0.496254
0.584087
0.682122
0.791413
0.913716
1.05047
1.20231
1.37136
1.5593
1.76761
1.99849
2
2
2
2
2
2
2
2
2
2
2
2
2
2
2
2
2
2
2
2
2
2
2
2
2
2
2
2
2
2
2
2
2
2
2
2
2
2
2
2
2
2
2
2
2
2
2
2
2
2
2
2
2
2
2
2
2
2
2
2
2
2
2
2
2
2
2
2
2
2
2
2
2
2
9.95361e-05
0.000709788
0.00313838
0.00859028
0.0184626
0.0342429
0.0573401
0.0885842
0.127674
0.173536
0.225271
0.282753
0.346506
0.417351
0.496312
0.584474
0.6832
0.793463
0.91675
1.05495
1.20941
1.38101
1.57239
1.78511
2
2
2
2
2
2
2
2
2
2
2
2
2
2
2
2
2
2
2
2
2
2
2
2
2
2
2
2
2
2
2
2
2
2
2
2
2
2
2
2
2
2
2
2
2
2
2
2
2
2
2
2
2
2
2
2
2
2
2
2
2
2
2
2
2
2
2
2
2
2
2
2
2
2
2
9.9546e-05
0.000711809
0.00314292
0.00858681
0.0184259
0.034156
0.0571618
0.0883036
0.127295
0.173022
0.224668
0.282166
0.345993
0.416988
0.49615
0.584669
0.68375
0.794793
0.919185
1.05849
1.21471
1.38914
1.58342
1.80006
2
2
2
2
2
2
2
2
2
2
2
2
2
2
2
2
2
2
2
2
2
2
2
2
2
2
2
2
2
2
2