/*--------------------------------*- C++ -*----------------------------------*\
| =========                 |                                                 |
| \\      /  F ield         | OpenFOAM: The Open Source CFD Toolbox           |
|  \\    /   O peration     | Version:  v2012                                 |
|   \\  /    A nd           | Website:  www.openfoam.com                      |
|    \\/     M anipulation  |                                                 |
\*---------------------------------------------------------------------------*/
FoamFile
{
    version     2.0;
    format      ascii;
    class       volScalarField;
    location    "13380";
    object      Res;
}
// * * * * * * * * * * * * * * * * * * * * * * * * * * * * * * * * * * * * * //

dimensions      [0 0 0 0 0 0 0];


internalField   nonuniform List<scalar> 
31383
(
0.00741893
0.0309121
0.0723667
0.029778
0.28227
0.203707
0.028947
0.271893
0.802505
0.409921
0.0283231
0.264277
0.772898
1.62375
0.707789
0.0278069
0.258555
0.751136
1.56437
2.79325
1.11292
0.0273655
0.25382
0.734779
1.51928
2.69001
4.37135
1.639
0.026992
0.249768
0.721235
1.48597
2.61264
4.20775
6.41512
2.32091
0.0266742
0.246341
0.709647
1.45837
2.55498
4.08756
6.17829
8.94822
3.20114
0.0263915
0.243423
0.699842
1.43477
2.5077
3.99755
6.00261
8.62679
11.9335
4.35239
0.0261352
0.240828
0.691495
1.41479
2.4663
3.92242
5.87045
8.39004
11.4888
15.0098
5.98539
0.0258956
0.238476
0.68407
1.39778
2.4317
3.85769
5.76072
8.21018
11.1948
14.5235
17.7158
8.17932
0.0256735
0.236277
0.677343
1.38266
2.40224
3.80329
5.66704
8.06051
10.9701
14.203
17.3065
19.6876
10.3621
0.0254663
0.23424
0.671057
1.36895
2.37604
3.75729
5.58701
7.93155
10.7827
13.9515
17.0324
19.3678
20.6468
13.0191
0.0252786
0.23234
0.665233
1.35616
2.35231
3.71576
5.51948
7.82243
10.6224
13.7413
16.7675
19.1404
20.4365
20.7052
15.6713
0.0251093
0.230618
0.659803
1.3443
2.33016
3.67847
5.45905
7.72972
10.4824
13.5881
16.5651
18.9527
20.3042
20.5693
20.2708
16.5681
0.0249576
0.229065
0.654884
1.33325
2.30965
3.64367
5.40414
7.64679
10.3649
13.4017
16.4132
18.7928
20.1924
20.5204
20.1309
19.6049
16.9804
0.0248209
0.227674
0.650447
1.32324
2.29054
3.61144
5.35335
7.57175
10.2594
13.2675
16.234
18.6519
20.1022
20.4725
20.0971
19.4699
18.6303
17.2198
0.0246998
0.226421
0.646473
1.31422
2.27341
3.58161
5.30592
7.50229
10.1642
13.1481
16.1005
18.537
20.0057
20.4345
20.0651
19.4814
18.5101
17.4339
17.8151
0.0245908
0.225309
0.642892
1.30613
2.25761
3.55441
5.26213
7.43678
10.0936
13.0376
15.9976
18.4151
19.9335
20.402
20.0651
19.4866
18.5613
17.3179
16.1644
17.9422
0.0244934
0.22431
0.639717
1.29885
2.24364
3.52972
5.22213
7.37619
9.99223
12.9526
15.8717
18.3311
19.8551
20.3645
20.0695
19.4922
18.5987
17.3993
16.0278
14.9063
18.4219
0.0244061
0.223416
0.636861
1.29239
2.23104
3.50777
5.18633
7.32156
9.915
12.8398
15.771
18.2255
19.7994
20.3387
20.0709
19.5001
18.6306
17.4565
16.1164
14.7332
13.7186
18.9629
0.0243281
0.222616
0.634308
1.28669
2.21987
3.48798
5.15402
7.27208
9.84515
12.7508
15.6741
18.1409
19.7321
20.3124
20.0674
19.5037
18.6568
17.5076
16.185
14.8215
13.4967
12.6374
19.4397
0.0242579
0.221901
0.632022
1.28138
2.20992
3.47044
5.12501
7.22777
9.78222
12.6698
15.5839
18.0683
19.6775
20.2841
20.0687
19.5052
18.6756
17.5506
16.2464
14.8921
13.5785
12.3568
11.6796
19.8515
0.0241944
0.221257
0.629978
1.27673
2.20083
3.45465
5.09928
7.18767
9.72511
12.607
15.5018
17.985
19.6301
20.2634
20.068
19.5109
18.6899
17.5865
16.3
14.9576
13.647
12.427
11.3352
10.8457
20.2654
0.0241359
0.220674
0.628136
1.27257
2.19279
3.44062
5.0762
7.15221
9.67371
12.5303
15.4369
17.9153
19.5786
20.2383
20.0696
19.5176
18.7075
17.6157
16.3454
15.0147
13.7114
12.4898
11.3908
10.4649
10.1412
20.758
0.024082
0.220138
0.62647
1.26883
2.18559
3.42789
5.05549
7.12026
9.62819
12.4709
15.3598
17.8527
19.5282
20.2192
20.0703
19.5227
18.7249
17.6437
16.3844
15.0644
13.769
12.5502
11.4455
10.5019
9.79242
9.5889
21.3913
0.0240323
0.219643
0.624939
1.26544
2.17911
3.41658
5.03685
7.09168
9.58717
12.4173
15.3056
17.7941
19.4859
20.1963
20.0685
19.5268
18.7422
17.6723
16.419
15.1078
13.8173
12.6048
11.4986
10.5445
9.80669
9.24726
9.16875
22.2789
0.0239866
0.219187
0.623524
1.26232
2.17324
3.40639
5.02024
7.06606
9.55033
12.3692
15.244
17.7473
19.4464
20.1792
20.0675
19.5314
18.7576
17.6992
16.4527
15.146
13.8608
12.6505
11.5477
10.5874
9.83379
9.24521
8.78219
8.83087
23.6601
0.0239452
0.218768
0.622221
1.25944
2.16785
3.39717
5.00528
7.04317
9.51733
12.326
15.1947
17.6944
19.4108
20.1589
20.0661
19.5344
18.7711
17.7249
16.4856
15.1816
13.8993
12.6906
11.5892
10.6276
9.86325
9.26318
8.76419
8.38302
8.56166
25.9287
0.0239074
0.218388
0.621026
1.25679
2.16287
3.38869
4.99173
7.02242
9.48781
12.2873
15.1498
17.655
19.3804
20.1421
20.064
19.5369
18.7838
17.7477
16.5176
15.2173
13.9349
12.7271
11.6248
10.6624
9.89152
9.2856
8.77416
8.34733
8.04166
8.35657
29.2546
0.0238736
0.218042
0.619938
1.25436
2.15828
3.38086
4.97933
7.0037
9.46106
12.2525
15.1097
17.6121
19.3506
20.1272
20.0616
19.5381
18.7952
17.7697
16.5472
15.2513
13.9705
12.7615
11.6576
10.6917
9.91651
9.30773
8.79069
8.34921
7.9864
7.75168
8.21313
31.8034
0.0238434
0.217732
0.618949
1.25214
2.15411
3.37365
4.96777
6.98652
9.43689
12.221
15.0736
17.5769
19.3204
20.1122
20.0586
19.5389
18.8044
17.7891
16.5738
15.2835
14.0041
12.795
11.6892
10.7192
9.93774
9.32768
8.80811
8.36019
7.97992
7.67446
7.50799
8.13051
31.0778
0.0238161
0.217454
0.618063
1.25013
2.15024
3.36707
4.95719
6.97056
9.41466
12.1925
15.0409
17.5452
19.2955
20.0975
20.0561
19.5381
18.8119
17.8058
16.5983
15.3121
14.0365
12.8269
11.7198
10.7459
9.9578
9.34476
8.82413
8.37306
7.98529
7.65879
7.40545
7.30672
8.11015
31.7726
0.0237909
0.217204
0.61727
1.24833
2.14675
3.36101
4.94747
6.95595
9.3941
12.1663
15.0112
17.5162
19.2731
20.0848
20.0525
19.538
18.8186
17.8204
16.6197
15.3381
14.0651
12.858
11.7492
10.7719
9.97757
9.36101
8.83793
8.38539
7.9939
7.65856
7.37985
7.17483
7.14518
8.15664
35.5608
0.0237674
0.216972
0.616554
1.24671
2.14363
3.35556
4.93862
6.94247
9.3752
12.142
14.9838
17.49
19.2524
20.0732
20.0496
19.5372
18.8239
17.8332
16.6386
15.3614
14.0911
12.8852
11.7774
10.7971
9.99689
9.3773
8.85125
8.3962
8.00282
7.66299
7.37378
7.13794
6.97848
7.02181
8.28375
41.4996
0.0237436
0.216757
0.615891
1.24526
2.14084
3.35062
4.93059
6.93022
9.35778
12.1197
14.9585
17.4658
19.2336
20.0624
20.0467
19.536
18.8279
17.844
16.6552
15.3817
14.1144
12.9097
11.8023
10.821
10.0157
9.39323
8.86488
8.40684
8.01077
7.6686
7.37406
7.12567
6.92897
6.81397
6.93608
8.53743
50.1065
0.0237236
0.216538
0.615299
1.2439
2.13831
3.34622
4.92334
6.91907
9.34193
12.0991
14.9351
17.4433
19.2163
20.0526
20.0435
19.5343
18.8318
17.8534
16.6695
15.3999
14.1349
12.9319
11.8248
10.8423
10.0334
9.40885
8.87825
8.41799
8.01895
7.67392
7.37654
7.1217
6.90997
6.74966
6.67904
6.88878
8.95656
62.8053
0.0237868
0.216355
0.614646
1.24267
2.13597
3.34225
4.91687
6.90906
9.32748
12.0803
14.9136
17.4225
19.201
20.0439
20.0407
19.5331
18.8349
17.8617
16.6822
15.416
14.153
12.9515
11.8451
10.8615
10.0493
9.42354
8.89151
8.42909
8.02777
7.67978
7.37924
7.12093
6.90152
6.72306
6.59735
6.57247
6.88164
9.54152
82.1196
0.029791
0.216919
0.614123
1.24137
2.1338
3.33856
4.91104
6.90011
9.31452
12.0633
14.8939
17.4033
19.185
20.0354
20.0383
19.5317
18.8374
17.8691
16.6933
15.4301
14.1692
12.9688
11.8632
10.879
10.0636
9.43669
8.90394
8.44022
8.03681
7.68663
7.38291
7.12118
6.89753
6.70984
6.56222
6.47021
6.49376
6.91806
10.314
112.721
0.0244278
425.078
0.61566
1.24031
2.13158
3.33513
4.90559
6.89199
9.3029
12.0478
14.8775
17.3856
19.1711
20.0268
20.0356
19.5306
18.8393
17.8751
16.7035
15.4423
14.1835
12.9842
11.8789
10.8944
10.0766
9.44847
8.91502
8.45067
8.04603
7.69376
7.38778
7.12273
6.89519
6.70244
6.54368
6.42512
6.36682
6.44306
7.00284
11.3181
163.446
0.024612
3.76595
793.187
1.24321
2.12975
3.33164
4.90054
6.88443
9.29235
12.034
14.8596
17.3708
19.1582
20.0192
20.0332
19.5295
18.8418
17.881
16.7122
15.4535
14.1959
12.9979
11.893
10.9079
10.0881
9.4592
8.9249
8.45992
8.05471
7.70126
7.39319
7.12577
6.89463
6.69748
6.5326
6.40062
6.31006
6.28641
6.42149
7.14303
12.6202
251.292
0.0267349
10.5099
7.43446
1112.81
2.13428
3.32876
4.8954
6.87742
9.28254
12.0214
14.8449
17.3558
19.1464
20.0122
20.0309
19.5282
18.8437
17.8863
16.7203
15.4635
14.2071
13.0099
11.9056
10.92
10.0982
9.46861
8.93389
8.46813
8.06235
7.70824
7.39906
7.12954
6.89585
6.69478
6.52486
6.3855
6.27871
6.21582
6.22878
6.43108
7.34831
14.3079
407.338
0.0255099
40.971
21.005
10.613
1363.72
3.33492
4.89116
6.87031
9.27343
12.0097
14.8316
17.3414
19.1362
20.0056
20.0283
19.5266
18.8452
17.8911
16.7276
15.4725
14.2174
13.0205
11.9167
10.9309
10.1073
9.4769
8.94175
8.47563
8.06907
7.71443
7.40465
7.13391
6.89801
6.69418
6.51996
6.37479
6.25912
6.17659
6.14167
6.19434
6.47489
7.63182
16.4893
676.932
0.0240387
27.9053
83.4727
30.2912
13.8157
1543.69
4.89857
6.8644
9.26548
11.9989
14.8192
17.3294
19.1255
19.9993
20.0259
19.5253
18.8464
17.8955
16.7344
15.4808
14.2266
13.0303
11.9265
10.9405
10.1153
9.48426
8.94866
8.48214
8.07525
7.7198
7.40946
7.13814
6.90098
6.69478
6.51752
6.36751
6.24509
6.15179
6.0931
6.08728
6.18415
6.55739
8.01165
19.2832
1081.15
0.0237733
8.72129
56.7469
121.282
38.2131
16.2952
1649.25
6.87213
9.25642
11.9878
14.8077
17.3181
19.1164
19.9935
20.0233
19.5236
18.8473
17.8992
16.7406
15.4885
14.2351
13.0392
11.9355
10.949
10.1225
9.49085
8.95475
8.48786
8.08058
7.72486
7.41364
7.14172
6.90395
6.69637
6.51653
6.36313
6.23525
6.13408
6.06233
6.02765
6.0529
6.20006
6.6848
8.5262
22.7754
1526.59
0.0235584
6.24493
17.7027
82.3952
151.397
44.0986
18.9087
1662.99
9.26302
11.9785
14.7969
17.3075
19.1079
19.9884
20.0209
19.5218
18.8477
17.9024
16.7461
15.4955
14.243
13.0473
11.9436
10.9568
10.1289
9.49666
8.96022
8.49286
8.08525
7.72907
7.41755
7.14477
6.90637
6.6981
6.51674
6.36053
6.22881
6.12141
6.04041
5.98988
5.98
6.03924
6.24477
6.86556
9.30729
26.8768
1689.39
0.023513
0.788346
12.6593
25.8863
102.999
173.68
49.1394
21.0655
1562.59
11.9824
14.7862
17.2969
19.0999
19.9831
20.0186
19.5199
18.8479
17.9048
16.7506
15.5017
14.2502
13.055
11.951
10.9639
10.1347
9.50188
8.96501
8.49736
8.08927
7.73274
7.42079
7.14766
6.90836
6.69939
6.51725
6.35933
6.22448
6.11271
6.02454
5.96308
5.93394
5.95035
6.0477
6.32214
7.11099
10.4542
31.0065
1285.45
0.0234963
0.553302
1.83188
18.6615
32.7203
118.188
188.148
52.1467
23.2621
1339.22
14.7866
17.288
19.0919
19.9784
20.0162
19.518
18.8477
17.9071
16.7547
15.5071
14.2565
13.0619
11.9581
10.9703
10.1401
9.50658
8.96931
8.50128
8.09288
7.73591
7.42359
7.14997
6.91029
6.70039
6.51747
6.35862
6.22182
6.10651
6.01335
5.9436
5.90146
5.8944
5.93936
6.08033
6.43746
7.43629
11.9854
34.2196
845.243
0.0234842
0.252998
1.32072
2.97828
24.4192
38.2906
128.947
193.975
54.3146
25.3086
1057.03
17.2856
19.0856
19.9737
20.0141
19.5161
18.8473
17.9086
16.7581
15.5118
14.2621
13.068
11.9645
10.9766
10.145
9.51089
8.97318
8.50481
8.09602
7.73877
7.42595
7.15194
6.91174
6.70141
6.51748
6.35775
6.21986
6.10233
6.00512
5.92956
5.87778
5.8552
5.87152
5.94823
6.14007
6.59786
7.862
13.9375
38.1381
612.687
0.0234658
0.230524
0.693769
2.26915
4.54708
29.4821
42.8294
134.411
189.814
54.2804
26.2384
779.806
19.0814
19.9699
20.0122
19.5142
18.8469
17.9097
16.7607
15.5157
14.267
13.0734
11.9702
10.9821
10.1496
9.51489
8.97673
8.50799
8.09889
7.74119
7.42807
7.15356
6.91294
6.70205
6.51761
6.35679
6.2179
6.09903
5.99926
5.91907
5.86051
5.82662
5.82431
5.86599
5.97877
6.23097
6.81302
8.42177
16.3965
46.6008
528.846
0.023448
0.246711
0.643047
1.34722
3.4007
6.30476
33.1663
46.4373
134.415
174.077
52.7417
26.2215
555.542
19.9657
20.0101
19.5131
18.8463
17.9109
16.7629
15.5188
14.271
13.0781
11.9752
10.9872
10.1538
9.51868
8.98004
8.5109
8.10142
7.74343
7.42989
7.15503
6.91388
6.70251
6.51746
6.35604
6.21593
6.09593
5.99454
5.91136
5.84744
5.8056
5.78995
5.80917
5.87898
6.03354
6.35847
7.09603
9.212
19.5155
60.0361
479.82
0.0234355
0.233873
0.674025
1.27157
2.24941
4.74305
8.06114
36.3903
50.2556
128.31
149.531
48.4377
25.7867
394.547
20.0052
19.5114
18.8466
17.9117
16.7651
15.5216
14.2742
13.082
11.9795
10.9915
10.1576
9.52207
8.98317
8.51365
8.10377
7.74542
7.43153
7.15626
6.91472
6.70278
6.51721
6.35511
6.2143
6.09293
5.99021
5.90509
5.83765
5.78958
5.76456
5.76795
5.81057
5.91226
6.11608
6.52985
7.46469
10.4351
23.5044
81.7979
472.802
0.0234249
0.217465
0.645654
1.31385
2.15546
3.43389
6.39181
10.1001
39.8542
52.3971
116.899
120.553
43.4964
24.0068
283.842
19.5002
18.8461
17.9134
16.767
15.5243
14.2773
13.0851
11.983
10.9953
10.1608
9.52513
8.98597
8.51625
8.10602
7.74723
7.43298
7.15735
6.91537
6.70302
6.51684
6.35415
6.21258
6.09039
5.98614
5.89945
5.82967
5.77744
5.74513
5.7374
5.76113
5.82975
5.96829
6.23109
6.75492
7.94302
12.1479
28.5265
119.874
493.184
0.0234146
0.216391
0.610317
1.27255
2.20187
3.32394
4.96825
8.36294
12.7087
42.811
53.3061
100.891
95.6758
37.5891
22.2359
208.337
18.8328
17.9142
16.7694
15.5267
14.2801
13.0881
11.9858
10.9984
10.1636
9.52767
8.98848
8.51857
8.10813
7.74902
7.43435
7.15834
6.91598
6.70316
6.51649
6.35314
6.21091
6.08785
5.98263
5.8942
5.82258
5.76751
5.73025
5.71397
5.72444
5.77041
5.86852
6.0504
6.38488
7.04692
8.56722
14.4107
34.3752
193.034
483.849
0.0234053
0.216586
0.609609
1.22212
2.14818
3.37765
4.89679
6.88585
11.1328
15.6313
43.1633
51.7593
84.3819
74.6888
31.9682
20.2206
156.436
17.9006
16.7713
15.5296
14.2826
13.0907
11.9885
11.0007
10.166
9.52993
8.99054
8.52063
8.11004
7.75071
7.4357
7.15925
6.91651
6.70326
6.51611
6.35221
6.20925
6.08544
5.97924
5.88967
5.81605
5.7588
5.71812
5.69592
5.69631
5.72639
5.79718
5.92943
6.16305
6.58588
7.42383
9.43103
17.3277
40.0405
344.245
421.996
0.0233978
0.21459
0.610584
1.22242
2.08526
3.31713
4.96557
6.87167
9.3982
14.185
18.1136
43.1889
47.5778
68.7317
58.7975
26.929
18.5314
119.944
16.7553
15.5321
14.2857
13.0933
11.9909
11.0031
10.1678
9.53174
8.99234
8.52229
8.11168
7.75223
7.43699
7.16021
6.917
6.70337
6.51574
6.35131
6.20774
6.08312
5.97606
5.88537
5.8104
5.75085
5.70756
5.68124
5.67454
5.69266
5.74435
5.84342
6.01579
6.31212
6.84519
7.91039
10.7757
21.0621
44.9764
620.873
305.112
0.0233925
0.213463
0.606993
1.2278
2.08993
3.24176
4.88235
7.04811
9.26097
12.2099
16.837
20.5324
41.3559
42.323
55.2095
46.7515
23.5023
16.9452
93.8843
15.5117
14.2883
13.0961
11.9933
11.0051
10.1695
9.53314
8.99377
8.52374
8.11301
7.75349
7.43817
7.16114
6.9176
6.70347
6.51542
6.35049
6.20633
6.08101
5.97306
5.88137
5.80512
5.74398
5.69804
5.66858
5.65688
5.66649
5.70389
5.77984
5.91167
6.1319
6.50526
7.17782
8.54052
12.7001
25.8878
54.5344
847.247
145.991
0.0233821
0.213187
0.603785
1.22171
2.10039
3.25298
4.81376
6.93046
9.47605
12.0112
14.9622
19.0232
22.0126
37.7384
37.3042
44.5708
37.7735
20.5201
15.4126
74.6663
14.2656
13.0988
11.9959
11.0072
10.171
9.53445
8.99483
8.52484
8.11412
7.75449
7.43911
7.16199
6.91819
6.7037
6.51513
6.34975
6.20502
6.07907
5.97031
5.87764
5.80025
5.73762
5.68979
5.65726
5.64178
5.64531
5.67243
5.7312
5.8349
6.00534
6.28355
6.75275
7.60437
9.38674
15.3262
32.1341
71.1284
810.526
10.8502
0.0231315
0.21269
0.602119
1.2141
2.08881
3.27425
4.8035
6.82867
9.32448
12.0998
14.7658
17.4411
20.7767
22.5099
33.9209
32.7135
36.3869
31.9621
18.0586
13.9217
60.3009
13.0767
11.9984
11.0095
10.1726
9.53558
8.99581
8.52563
8.11493
7.75531
7.4398
7.16261
6.91872
6.70396
6.51503
6.34907
6.20386
6.07729
5.96782
5.87423
5.79573
5.7318
5.68225
5.64745
5.62838
5.62731
5.64702
5.69335
5.77629
5.91231
6.12889
6.47833
7.06852
8.15382
10.7012
18.8448
39.5166
96.7235
711.65
102.523
0.0182081
0.21059
0.60207
1.21249
2.08031
3.25842
4.80013
6.77366
9.14478
11.9812
14.8531
17.3257
19.4246
21.6245
22.1268
30.4588
28.5555
30.3651
27.1767
15.887
12.6006
49.7496
11.9792
11.0117
10.1745
9.53677
8.99666
8.52634
8.11545
7.75585
7.44034
7.16303
6.91906
6.70421
6.51497
6.34863
6.2028
6.07569
5.96554
5.87116
5.79162
5.72644
5.67537
5.63857
5.61675
5.61144
5.62554
5.66283
5.73068
5.84146
6.01572
6.28828
6.72633
7.47141
8.87075
12.6315
23.4952
45.965
139.585
517.113
189.68
0.00251348
0.166308
0.595085
1.21156
2.07645
3.24624
4.78298
6.72743
9.09536
11.77
14.7426
17.4532
19.3258
20.4724
21.497
21.2003
27.1501
24.8949
25.7482
22.9181
14.0966
11.4402
41.8816
10.9963
10.1763
9.53814
8.99758
8.52693
8.1159
7.75613
7.44062
7.16332
6.91922
6.70427
6.51493
6.34825
6.20201
6.07424
5.9635
5.86836
5.78793
5.72156
5.66907
5.63048
5.60629
5.59767
5.60676
5.63719
5.69398
5.78639
5.9298
6.14996
6.49142
7.0413
7.98772
9.86433
15.3255
29.4909
50.688
207.395
204.381
119.302
0.0049263
0.0272484
0.472078
1.19946
2.07557
3.24053
4.7653
6.70787
9.07848
11.7793
14.5432
17.319
19.452
20.3032
20.4582
20.6219
20.3003
24.0725
21.8657
21.8087
19.5141
12.5932
10.5247
36.0424
10.1641
9.53945
8.99864
8.52764
8.11628
7.75635
7.44069
7.16335
6.91926
6.70418
6.51473
6.34793
6.20132
6.07309
5.96165
5.86585
5.78458
5.71721
5.66334
5.6231
5.59681
5.58538
5.59047
5.61493
5.66333
5.74219
5.8631
6.04532
6.32137
6.74871
7.44176
8.65453
11.4072
19.0277
36.8354
64.3391
273.235
4.64512
50.0646
0.00768422
0.0393788
0.089351
0.955341
2.05638
3.23872
4.75859
6.69101
9.05637
11.7759
14.5739
17.2038
19.3152
20.4219
20.3881
19.9106
19.8431
19.0456
21.4302
19.1202
18.621
16.6465
11.3441
9.80573
30.8554
9.52853
8.99972
8.52843
8.11678
7.75651
7.44068
7.16322
6.91906
6.70398
6.51441
6.34747
6.20071
6.07208
5.96012
5.86358
5.78157
5.71325
5.65823
5.61639
5.58818
5.57428
5.57601
5.59566
5.63691
5.70546
5.80971
5.96426
6.1933
6.53834
7.07424
7.9535
9.54713
13.6515
24.065
44.5546
85.0803
272.654
81.2674
30.2024
0.00885837
0.0669007
0.0965726
0.204563
1.64664
3.21063
4.75696
6.68062
9.03476
11.7524
14.6191
17.2031
19.2143
20.328
20.5131
19.9276
19.296
18.8192
17.7151
18.9342
16.84
15.9862
14.3987
10.3524
9.19331
26.1764
8.98978
8.52938
8.11733
7.75682
7.44066
7.163
6.91874
6.70357
6.51397
6.34691
6.2
6.07119
5.95879
5.86167
5.77885
5.70968
5.65358
5.61042
5.58036
5.5642
5.56303
5.57866
5.61409
5.67403
5.7656
5.89958
6.09437
6.38071
6.81206
7.48727
8.61348
10.9082
16.8136
30.7234
50.8083
113.456
189.599
99.3211
37.3555
0.00951516
0.0785992
0.181458
0.164289
0.392807
2.5844
4.71112
6.6777
9.01771
11.7217
14.5749
17.2149
19.1792
20.1545
20.4375
20.0487
19.258
18.3361
17.5538
16.2936
16.8096
14.8303
13.8299
12.6788
9.62861
8.67102
22.0969
8.52027
8.11814
7.75716
7.44076
7.1628
6.91832
6.70306
6.51336
6.34625
6.19921
6.07022
5.9576
5.85999
5.77653
5.70647
5.64939
5.60499
5.57339
5.5551
5.55127
5.56346
5.59406
5.64694
5.72807
5.84639
6.0157
6.25931
6.61668
7.15762
8.01475
9.49333
12.9375
21.2356
38.8767
60.3961
145.438
45.6225
55.0417
51.305
0.00983765
0.0848603
0.216961
0.349754
0.228722
0.680883
3.81821
6.61367
9.016
11.7173
14.5626
17.192
19.1739
20.1735
20.3523
19.9849
19.3589
18.317
17.1931
16.2001
14.8894
14.9903
13.1565
12.1834
11.3366
9.02474
8.21811
18.7501
8.10972
7.75784
7.44089
7.16271
6.91793
6.70244
6.51265
6.34543
6.19832
6.0692
5.95637
5.8585
5.77449
5.70369
5.64561
5.60008
5.56707
5.54699
5.54068
5.54973
5.57623
5.62328
5.69585
5.80142
5.9513
6.16316
6.46683
6.91351
7.59598
8.69527
10.8124
15.8461
27.3171
46.9394
77.9291
149.969
38.1448
21.7693
71.5491
0.00997217
0.0880641
0.235545
0.426749
0.571703
0.270262
1.10284
5.40338
8.93926
11.705
14.5416
17.1552
19.1369
20.2314
20.3723
19.9259
19.3087
18.4464
17.1807
15.932
14.8498
13.5902
13.3482
11.8089
11.0163
10.3123
8.51948
7.82488
16.045
7.74998
7.44147
7.16265
6.91767
6.70188
6.51184
6.34454
6.1973
6.06807
5.95511
5.857
5.77266
5.70123
5.64232
5.59567
5.56136
5.53964
5.53126
5.53741
5.56018
5.60233
5.66783
5.76295
5.89716
6.08482
6.34866
6.72724
7.28813
8.15658
9.60516
12.7901
19.9757
35.188
53.1156
99.827
130.676
71.2094
18.8108
102.173
0.010269
0.0894962
0.245769
0.465885
0.711818
0.840522
0.263077
1.7037
7.38653
11.6275
14.5512
17.1436
19.13
20.2087
20.3947
19.9184
19.2681
18.4136
17.2999
15.9219
14.6466
13.5832
12.3728
12.0115
10.7747
10.0731
9.55799
8.08827
7.48843
13.9804
7.43405
7.16311
6.91743
6.70145
6.51111
6.34355
6.19621
6.06685
5.95375
5.85549
5.77085
5.69902
5.63939
5.5918
5.55622
5.53302
5.52273
5.52645
5.54584
5.58354
5.64311
5.72964
5.85105
6.01932
6.25283
6.58101
7.0546
7.76399
8.88227
10.982
15.6509
25.7898
44.0068
65.472
118.543
63.9722
80.4588
23.1652
145.732
0.0105945
0.0924262
0.250445
0.487448
0.781619
1.06967
1.13024
0.182776
2.5368
9.73437
14.4515
17.1542
19.1055
20.1858
20.3988
19.9459
19.307
18.3713
17.3048
16.0206
14.6687
13.4485
12.3872
11.3022
10.9457
9.93354
9.33689
8.93582
7.7134
7.19929
12.3468
7.15605
6.91778
6.70103
6.51052
6.34264
6.19504
6.06557
5.95233
5.8539
5.76907
5.69688
5.63675
5.58833
5.55169
5.52704
5.51505
5.51655
5.53306
5.56678
5.62106
5.70037
5.81128
5.96378
6.17312
6.46305
6.87226
7.46821
8.37414
9.86306
13.0375
19.7614
33.6151
51.9194
84.1015
113.303
1.50753
46.1763
16.875
199.436
0.010871
0.0954389
0.258648
0.498258
0.82009
1.17976
1.4722
1.37555
0.0318347
3.65988
12.3204
17.0614
19.1236
20.1912
20.3757
19.9324
19.3188
18.4181
17.2812
16.0389
14.7826
13.4571
12.3181
11.3302
10.4258
10.1131
9.26256
8.73843
8.42685
7.38862
6.9425
11.0661
6.91098
6.70126
6.5099
6.34188
6.19396
6.06422
5.95085
5.85225
5.76721
5.69478
5.63423
5.58521
5.54763
5.52176
5.50811
5.50765
5.52158
5.55188
5.60142
5.67439
5.77648
5.91607
6.10585
6.36541
6.72591
7.23874
7.99501
9.17381
11.3808
16.0179
25.636
42.9023
60.8497
102.648
89.1814
57.6197
29.4554
17.3633
266.133
0.0111276
0.0979797
0.267453
0.515782
0.839704
1.23678
1.62605
1.83192
1.47434
0.152928
5.10527
14.8425
19.0377
20.1852
20.3606
19.9362
19.3208
18.4319
17.2876
16.0231
14.7745
13.5372
12.3243
11.279
10.4479
9.74441
9.43475
8.68756
8.2386
8.00205
7.10308
6.72857
10.024
6.69463
6.51003
6.34108
6.19303
6.06296
5.94931
5.85055
5.76532
5.69264
5.63178
5.58226
5.54396
5.51702
5.50197
5.4996
5.51125
5.53852
5.58398
5.6513
5.74573
5.8745
6.04828
6.28346
6.60547
7.05557
7.70306
8.67334
10.3034
13.6207
20.3335
33.6622
51.593
78.4882
110.305
19.1194
40.0342
23.3911
23.5703
360.984
0.0113841
0.10036
0.27526
0.533887
0.869416
1.2649
1.68783
2.01427
1.99799
1.36062
0.304684
6.85377
16.9147
20.1227
20.3843
19.9297
19.3176
18.4336
17.3058
16.0366
14.7376
13.5527
12.3739
11.2986
10.4001
9.77142
9.16253
8.8483
8.19873
7.81532
7.65195
6.85417
6.54197
9.19076
6.50345
6.34109
6.19204
6.06185
5.94787
5.84881
5.76338
5.69047
5.62931
5.57942
5.54051
5.51274
5.49646
5.49246
5.50191
5.52651
5.5684
5.63084
5.71847
5.8379
5.99834
6.21356
6.50489
6.90569
7.47134
8.29704
9.57624
12.0214
16.8689
26.547
43.2528
59.8012
96.8895
78.5587
39.0015
8.00313
25.238
26.5096
499.214
0.0116366
0.102764
0.282275
0.549481
0.900056
1.30647
1.70964
2.04453
2.16814
1.86848
1.09243
0.396791
8.74466
18.2171
20.3284
19.9378
19.3219
18.4332
17.307
16.0609
14.7603
13.5373
12.3893
11.3511
10.4214
9.73086
9.19415
8.65174
8.34373
7.7812
7.46448
7.3462
6.63444
6.38464
8.52558
6.33437
6.19193
6.06068
5.94658
5.84717
5.76142
5.68827
5.62684
5.57659
5.53723
5.50872
5.49146
5.48605
5.4936
5.51566
5.5544
5.61261
5.69436
5.80556
5.95455
6.15321
6.41944
6.78124
7.28297
8.00023
9.07084
10.9199
14.5434
21.6045
35.0179
52.3514
77.9145
104.129
22.6761
21.5247
2.35184
32.2483
27.599
696.786
0.0118722
0.10511
0.289252
0.563829
0.926451
1.34866
1.75174
2.02238
2.11854
1.98767
1.5196
0.796025
0.43653
10.4767
18.6514
19.8919
19.3354
18.4382
17.313
16.0652
14.7961
13.5475
12.3999
11.3535
10.4762
9.74846
9.17267
8.68795
8.20356
7.9227
7.42278
7.16797
7.08481
6.43942
6.24908
7.98533
6.18485
6.06044
5.94521
5.84568
5.75954
5.68605
5.62435
5.57377
5.53399
5.50494
5.4868
5.48023
5.48615
5.50599
5.54178
5.59624
5.67294
5.77702
5.91598
6.10051
6.34599
6.67592
7.12748
7.76068
8.68074
10.141
12.9289
18.2215
28.4369
44.9051
61.6411
96.6961
79.22
22.2168
8.79925
4.67909
42.9446
34.4271
978.75
0.0120873
0.107302
0.29599
0.578111
0.950473
1.38524
1.79202
2.03357
2.02711
1.86603
1.58943
1.12682
0.551342
0.44469
11.6831
18.4079
19.2863
18.4503
17.3197
16.0693
14.7993
13.571
12.4163
11.3637
10.4753
9.79701
9.18933
8.68288
8.24796
7.81747
7.55251
7.11403
6.91544
6.86093
6.26752
6.13881
7.55294
6.05269
5.94484
5.84409
5.75784
5.68392
5.62185
5.57095
5.53078
5.50122
5.48243
5.47484
5.47938
5.49732
5.53051
5.5815
5.65372
5.75172
5.88202
6.05424
6.28213
6.58578
6.9964
7.56425
8.37197
9.58579
11.774
15.8673
23.6168
37.6038
54.3233
81.1163
101.835
20.7591
6.98866
9.82569
15.061
54.4941
48.3698
1338.77
0.0122811
0.10929
0.302341
0.591907
0.97418
1.41547
1.82377
2.04442
1.98834
1.73003
1.44835
1.1709
0.805442
0.374997
0.439019
12.1542
17.7168
18.4379
17.3344
16.0793
14.8055
13.5798
12.4325
11.3916
10.4862
9.80483
9.2328
8.70585
8.25055
7.87097
7.4782
7.22702
6.85233
6.70142
6.6734
6.12154
6.04579
7.1966
5.93594
5.84357
5.75601
5.68197
5.61943
5.56815
5.52761
5.49758
5.47817
5.46978
5.47312
5.48944
5.52038
5.56832
5.63646
5.72908
5.85198
6.0136
6.22626
6.50781
6.8848
7.39928
8.12053
9.17159
10.9286
14.1803
20.1864
31.3537
47.7764
66.2251
99.5346
70.723
8.43446
6.5143
10.2589
24.9539
60.2505
74.2827
1605.49
0.0124541
0.11109
0.308109
0.605445
0.996094
1.44528
1.84615
2.0449
1.95292
1.65838
1.31964
1.05565
0.838969
0.574862
0.254033
0.428786
11.965
16.8961
17.3513
16.0943
14.8119
13.5846
12.4389
11.4036
10.513
9.81323
9.24817
8.74447
8.2741
7.87712
7.53001
7.17543
6.95073
6.62298
6.5216
6.50529
5.99359
5.9691
6.90588
5.83289
5.75532
5.67988
5.61721
5.56542
5.52445
5.49399
5.47403
5.46491
5.46727
5.48217
5.5112
5.55648
5.62098
5.70877
5.82518
5.97774
6.1773
6.43981
6.78874
7.25964
7.91014
8.83792
10.2947
12.9345
17.705
26.5416
41.3929
57.3063
87.4699
100.62
25.2648
7.67975
3.23178
12.9153
35.4523
60.6515
111.448
1927.99
0.0126126
0.112872
0.313288
0.617852
1.01833
1.47404
1.86874
2.0398
1.91219
1.59816
1.24997
0.958137
0.759664
0.605261
0.41673
0.171293
0.419397
11.376
16.1455
16.1492
14.8284
13.5906
12.4457
11.4105
10.525
9.83082
9.24832
8.75241
8.31302
7.89382
7.54482
7.22781
6.91193
6.70605
6.42733
6.36839
6.35768
5.88222
5.90605
6.66605
5.74208
5.67901
5.61484
5.5629
5.52138
5.49045
5.46997
5.46018
5.46167
5.47539
5.50274
5.54575
5.60711
5.69054
5.80116
5.94583
6.13421
6.38039
6.70523
7.14008
7.73335
8.56547
9.79985
11.9947
15.8759
22.9186
35.4143
51.7986
73.613
103.222
60.4206
5.66943
3.00906
3.68227
18.3929
39.494
59.2052
155.009
2310.21
0.0127615
0.114321
0.318313
0.628357
1.03964
1.50294
1.89365
2.03648
1.87415
1.53736
1.19015
0.904775
0.693737
0.554373
0.446453
0.308763
0.11335
0.412839
10.6473
15.3777
14.9144
13.6032
12.4526
11.4167
10.5328
9.84452
9.26012
8.75266
8.32042
7.93314
7.56745
7.24956
6.96493
6.6793
6.49203
6.25718
6.2345
6.22597
5.78853
5.85711
6.47183
5.66224
5.61377
5.5602
5.51851
5.48699
5.46598
5.45558
5.45628
5.46894
5.49486
5.53588
5.59451
5.67421
5.77962
5.91728
6.09599
6.32823
6.63248
7.03647
7.5828
8.3386
9.43217
11.2662
14.4971
20.2245
30.5153
45.9055
61.5045
96.1174
90.3407
17.5734
8.49891
4.87736
13.0297
10.95
51.8666
60.1444
228.582
2744.6
0.0129102
0.115541
0.322555
0.63856
1.05679
1.53014
1.91916
2.03669
1.8425
1.48517
1.13558
0.859385
0.656725
0.511743
0.415489
0.337832
0.233452
0.0716145
0.410233
9.94348
14.6084
13.7178
12.4637
11.4238
10.5394
9.85279
9.27871
8.76915
8.32779
7.94363
7.59769
7.27471
6.98733
6.73281
6.47392
6.30448
6.1124
6.1175
6.10941
5.71173
5.81694
6.3319
5.59225
5.55891
5.51547
5.48374
5.46208
5.45108
5.45105
5.46276
5.48742
5.52669
5.58297
5.65939
5.76031
5.89171
6.06185
6.28213
6.56882
6.94649
7.45268
8.14641
9.12948
10.6963
13.4311
18.1801
26.6766
40.6364
56.3122
83.67
105.913
41.8944
7.12366
10.6778
17.5628
8.5991
8.30621
83.4475
44.0968
349.948
3204.03
0.0130673
0.117104
0.326044
0.646173
1.07199
1.55172
1.94132
2.04077
1.81763
1.44372
1.08936
0.818307
0.625382
0.48763
0.388021
0.320104
0.262123
0.179496
0.0404251
0.412289
9.34131
13.8911
12.5962
11.4347
10.5436
9.85916
9.28516
8.7858
8.34287
7.95017
7.6082
7.30641
7.01418
6.75893
6.5285
6.29032
6.14133
5.98825
6.01901
6.00843
5.65011
5.78403
6.24335
5.53112
5.51393
5.48031
5.45841
5.44669
5.44596
5.4568
5.4803
5.51808
5.57223
5.64581
5.7428
5.86878
6.03133
6.24102
6.51272
6.86806
7.34012
7.98066
8.87512
10.2389
12.5848
16.5985
23.6541
35.7632
51.4854
71.8961
104.893
72.6024
18.4134
8.09716
20.4284
14.8185
18.421
9.84745
132.147
34.5639
562.678
3661.33
0.0132346
0.118542
0.329986
0.652703
1.08465
1.57059
1.95712
2.04285
1.79802
1.41049
1.05298
0.784514
0.597237
0.46675
0.372356
0.302631
0.252771
0.207742
0.139563
0.0168836
0.418487
8.87633
13.2534
11.5799
10.5539
9.86413
9.29139
8.79227
8.35375
7.9629
7.61921
7.31756
7.04643
6.78422
6.55698
6.34323
6.12964
6.00267
5.88437
5.93538
5.92064
5.60346
5.75644
6.17274
5.47796
5.47847
5.45455
5.44253
5.44099
5.45102
5.47349
5.50985
5.5622
5.63322
5.72679
5.84799
6.00395
6.20432
6.46286
6.79917
7.24241
7.83799
8.65875
9.86267
11.9092
15.3539
21.2995
31.6105
46.5455
61.7626
96.7757
101.293
52.1029
4.25661
12.0221
21.4798
11.0142
20.687
33.3263
185.675
34.2735
979.727
4090.91
0.0134178
0.119899
0.334063
0.661233
1.09647
1.58619
1.97065
2.04043
1.78002
1.38246
1.02486
0.75832
0.574272
0.447939
0.358567
0.292536
0.241959
0.204171
0.167546
0.108946
0.0105298
0.429584
8.54917
12.7113
10.6922
9.87275
9.29694
8.7983
8.36097
7.97686
7.63122
7.3277
7.0601
6.81624
6.58285
6.37514
6.18068
5.98933
5.88444
5.79708
5.86509
5.84465
5.57186
5.73657
6.09226
5.43636
5.45234
5.43819
5.43628
5.4454
5.46689
5.50204
5.55268
5.62149
5.71197
5.82903
5.97915
6.17141
6.41839
6.73814
7.15693
7.71478
8.47521
9.56091
11.3594
14.3627
19.4526
28.2792
42.0512
57.4287
85.6755
110.241
38.4614
16.9227
5.64188
12.0883
10.7003
11.9325
25.9605
52.1361
227.927
31.5978
1836.13
4442.23
0.0136212
0.121772
0.338396
0.669371
1.11044
1.60281
1.98016
2.03754
1.76148
1.35787
1.00034
0.737596
0.556308
0.432558
0.345999
0.283412
0.235724
0.197599
0.167852
0.13686
0.084718
0.0253082
0.445825
8.34938
12.2633
9.98008
9.30631
8.8038
8.3675
7.98389
7.64482
7.3415
7.07
6.8316
6.61308
6.40089
6.21271
6.03645
5.86615
5.78262
5.72387
5.80593
5.77967
5.55332
5.72473
5.98162
5.40948
5.43555
5.43139
5.44004
5.46051
5.49448
5.54364
5.6104
5.6982
5.81151
5.95655