/*--------------------------------*- C++ -*----------------------------------*\
| =========                 |                                                 |
| \\      /  F ield         | OpenFOAM: The Open Source CFD Toolbox           |
|  \\    /   O peration     | Version:  v2012                                 |
|   \\  /    A nd           | Website:  www.openfoam.com                      |
|    \\/     M anipulation  |                                                 |
\*---------------------------------------------------------------------------*/
FoamFile
{
    version     2.0;
    format      ascii;
    class       volScalarField;
    location    "13380";
    object      Rew;
}
// * * * * * * * * * * * * * * * * * * * * * * * * * * * * * * * * * * * * * //

dimensions      [0 0 0 0 0 0 0];


internalField   nonuniform List<scalar> 
31383
(
0.00741871
0.0309121
0.0723648
0.029778
0.28227
0.203702
0.028947
0.271893
0.802505
0.40991
0.0283231
0.264277
0.772898
1.62375
0.707772
0.0278069
0.258555
0.751136
1.56437
2.79325
1.11289
0.0273655
0.25382
0.734779
1.51928
2.69001
4.37135
1.63896
0.026992
0.249768
0.721235
1.48597
2.61264
4.20775
6.41512
2.32086
0.0266742
0.246341
0.709647
1.45837
2.55498
4.08756
6.17829
8.94822
3.20107
0.0263915
0.243423
0.699842
1.43477
2.5077
3.99755
6.00261
8.62679
11.9335
4.3523
0.0261352
0.240828
0.691495
1.41479
2.4663
3.92242
5.87045
8.39004
11.4888
15.0098
5.98529
0.0258956
0.238476
0.68407
1.39778
2.4317
3.85769
5.76072
8.21018
11.1948
14.5235
17.7158
8.17921
0.0256735
0.236277
0.677343
1.38266
2.40224
3.80328
5.66704
8.06051
10.9701
14.203
17.3065
19.6876
10.362
0.0254663
0.23424
0.671057
1.36895
2.37604
3.75729
5.58701
7.93155
10.7827
13.9515
17.0324
19.3678
20.6468
13.019
0.0252786
0.23234
0.665233
1.35616
2.35231
3.71576
5.51948
7.82243
10.6224
13.7413
16.7675
19.1404
20.4365
20.7052
15.6712
0.0251093
0.230618
0.659803
1.3443
2.33016
3.67847
5.45905
7.72972
10.4824
13.5881
16.5651
18.9527
20.3042
20.5693
20.2708
16.5679
0.0249576
0.229065
0.654884
1.33325
2.30965
3.64367
5.40414
7.64679
10.3649
13.4017
16.4132
18.7928
20.1924
20.5204
20.1309
19.6049
16.9802
0.0248209
0.227674
0.650447
1.32324
2.29054
3.61144
5.35335
7.57175
10.2594
13.2675
16.234
18.6519
20.1022
20.4725
20.0971
19.4699
18.6303
17.2195
0.0246998
0.226421
0.646473
1.31422
2.27341
3.58161
5.30592
7.50229
10.1642
13.1481
16.1005
18.537
20.0057
20.4345
20.0651
19.4814
18.5101
17.4339
17.8148
0.0245908
0.225309
0.642892
1.30613
2.25761
3.55441
5.26213
7.43678
10.0936
13.0376
15.9976
18.4151
19.9335
20.402
20.0651
19.4866
18.5613
17.3179
16.1644
17.9419
0.0244933
0.22431
0.639717
1.29885
2.24364
3.52972
5.22213
7.37619
9.99223
12.9526
15.8717
18.3311
19.8551
20.3645
20.0695
19.4922
18.5987
17.3993
16.0278
14.9063
18.4215
0.0244061
0.223416
0.636861
1.29239
2.23104
3.50777
5.18633
7.32156
9.915
12.8398
15.771
18.2255
19.7994
20.3387
20.0709
19.5001
18.6306
17.4565
16.1164
14.7332
13.7186
18.9626
0.0243281
0.222616
0.634308
1.28669
2.21987
3.48798
5.15402
7.27208
9.84515
12.7508
15.6741
18.1409
19.7321
20.3124
20.0674
19.5037
18.6568
17.5076
16.185
14.8215
13.4967
12.6374
19.4393
0.0242579
0.221901
0.632022
1.28138
2.20992
3.47044
5.12501
7.22777
9.78222
12.6698
15.5839
18.0683
19.6775
20.2841
20.0687
19.5052
18.6756
17.5506
16.2464
14.8921
13.5785
12.3568
11.6797
19.851
0.0241943
0.221257
0.629978
1.27673
2.20083
3.45465
5.09928
7.18767
9.72511
12.607
15.5018
17.985
19.6301
20.2634
20.068
19.5109
18.6899
17.5865
16.3
14.9576
13.647
12.427
11.3352
10.8457
20.2649
0.0241359
0.220674
0.628136
1.27257
2.19279
3.44062
5.0762
7.15221
9.67371
12.5303
15.4369
17.9153
19.5786
20.2383
20.0696
19.5176
18.7075
17.6157
16.3454
15.0147
13.7114
12.4898
11.3908
10.4649
10.1412
20.7575
0.024082
0.220138
0.62647
1.26883
2.18559
3.42789
5.05548
7.12026
9.62819
12.4709
15.3598
17.8527
19.5282
20.2192
20.0703
19.5227
18.7249
17.6437
16.3844
15.0644
13.769
12.5502
11.4455
10.5019
9.79241
9.58892
21.3907
0.0240322
0.219643
0.624939
1.26544
2.17911
3.41658
5.03685
7.09168
9.58717
12.4173
15.3056
17.7941
19.4859
20.1963
20.0685
19.5268
18.7422
17.6723
16.419
15.1078
13.8173
12.6048
11.4986
10.5445
9.80669
9.24726
9.16878
22.2782
0.0239866
0.219187
0.623524
1.26232
2.17324
3.40639
5.02024
7.06606
9.55033
12.3692
15.244
17.7473
19.4464
20.1792
20.0675
19.5314
18.7576
17.6992
16.4527
15.146
13.8608
12.6505
11.5477
10.5874
9.83379
9.24521
8.78218
8.8309
23.6593
0.0239452
0.218768
0.622221
1.25944
2.16785
3.39717
5.00528
7.04317
9.51733
12.326
15.1947
17.6944
19.4108
20.1589
20.0661
19.5344
18.7711
17.7249
16.4855
15.1816
13.8993
12.6906
11.5892
10.6275
9.86325
9.26318
8.76419
8.38302
8.5617
25.9277
0.0239074
0.218388
0.621026
1.25679
2.16287
3.38869
4.99173
7.02242
9.48781
12.2873
15.1498
17.655
19.3804
20.1421
20.064
19.5369
18.7838
17.7477
16.5176
15.2173
13.9349
12.7271
11.6248
10.6624
9.89152
9.2856
8.77416
8.34733
8.04165
8.35662
29.2535
0.0238736
0.218042
0.619938
1.25436
2.15828
3.38086
4.97932
7.0037
9.46106
12.2525
15.1097
17.6121
19.3506
20.1272
20.0616
19.5381
18.7952
17.7697
16.5472
15.2513
13.9705
12.7615
11.6576
10.6917
9.91651
9.30773
8.79069
8.34921
7.9864
7.75167
8.21318
31.802
0.0238434
0.217732
0.618949
1.25214
2.15411
3.37365
4.96777
6.98652
9.43689
12.221
15.0736
17.5769
19.3204
20.1122
20.0586
19.5389
18.8044
17.7891
16.5738
15.2835
14.0041
12.795
11.6892
10.7192
9.93774
9.32768
8.80811
8.36018
7.97992
7.67446
7.50799
8.13057
31.076
0.0238161
0.217454
0.618063
1.25013
2.15024
3.36707
4.95718
6.97056
9.41466
12.1925
15.0409
17.5452
19.2955
20.0975
20.0561
19.5381
18.8119
17.8058
16.5983
15.3121
14.0365
12.8269
11.7198
10.7459
9.9578
9.34476
8.82413
8.37306
7.98529
7.65879
7.40545
7.30671
8.11022
31.7704
0.0237909
0.217204
0.61727
1.24833
2.14675
3.36101
4.94747
6.95595
9.3941
12.1663
15.0112
17.5162
19.2731
20.0848
20.0525
19.538
18.8186
17.8204
16.6197
15.3381
14.0651
12.858
11.7492
10.7719
9.97757
9.36101
8.83793
8.38539
7.9939
7.65855
7.37985
7.17483
7.14517
8.15673
35.558
0.0237674
0.216972
0.616554
1.24671
2.14363
3.35556
4.93862
6.94247
9.3752
12.142
14.9838
17.49
19.2524
20.0732
20.0496
19.5372
18.8239
17.8332
16.6386
15.3614
14.0911
12.8852
11.7774
10.7971
9.99689
9.3773
8.85125
8.3962
8.00282
7.66299
7.37378
7.13794
6.97848
7.02181
8.28386
41.496
0.0237436
0.216757
0.615891
1.24526
2.14084
3.35061
4.93059
6.93022
9.35778
12.1197
14.9585
17.4658
19.2336
20.0624
20.0467
19.536
18.8279
17.844
16.6552
15.3817
14.1144
12.9097
11.8023
10.821
10.0157
9.39323
8.86488
8.40684
8.01077
7.6686
7.37406
7.12567
6.92897
6.81397
6.93608
8.53757
50.1019
0.0237236
0.216538
0.615299
1.2439
2.13831
3.34622
4.92334
6.91907
9.34193
12.0991
14.9351
17.4433
19.2163
20.0526
20.0435
19.5343
18.8318
17.8534
16.6695
15.3999
14.1349
12.9319
11.8248
10.8423
10.0334
9.40885
8.87825
8.41799
8.01895
7.67392
7.37654
7.1217
6.90997
6.74966
6.67904
6.88878
8.95673
62.7993
0.0237868
0.216355
0.614646
1.24267
2.13597
3.34225
4.91687
6.90906
9.32748
12.0803
14.9136
17.4225
19.201
20.0439
20.0407
19.5331
18.8349
17.8617
16.6822
15.416
14.153
12.9515
11.8451
10.8615
10.0493
9.42354
8.89151
8.42909
8.02777
7.67978
7.37924
7.12093
6.90152
6.72306
6.59735
6.57247
6.88165
9.54175
82.1115
0.029791
0.216919
0.614123
1.24137
2.1338
3.33856
4.91104
6.90011
9.31452
12.0633
14.8939
17.4033
19.185
20.0354
20.0383
19.5317
18.8374
17.8691
16.6933
15.4301
14.1692
12.9688
11.8632
10.879
10.0636
9.43669
8.90394
8.44021
8.03681
7.68663
7.38291
7.12118
6.89753
6.70984
6.56222
6.47021
6.49375
6.91806
10.3142
112.71
0.0244278
425.078
0.61566
1.24031
2.13158
3.33513
4.90559
6.89199
9.3029
12.0478
14.8775
17.3856
19.1711
20.0268
20.0356
19.5306
18.8393
17.8751
16.7035
15.4423
14.1835
12.9842
11.8789
10.8944
10.0766
9.44847
8.91502
8.45067
8.04603
7.69376
7.38778
7.12273
6.89519
6.70244
6.54367
6.42512
6.36682
6.44306
7.00285
11.3184
163.43
0.024612
3.76595
793.187
1.24321
2.12975
3.33164
4.90054
6.88443
9.29235
12.034
14.8596
17.3708
19.1582
20.0192
20.0332
19.5295
18.8418
17.881
16.7122
15.4535
14.1959
12.9979
11.893
10.9079
10.0881
9.4592
8.9249
8.45992
8.05471
7.70126
7.39319
7.12577
6.89463
6.69748
6.5326
6.40062
6.31006
6.28641
6.42149
7.14304
12.6207
251.268
0.0267349
10.5099
7.43446
1112.81
2.13428
3.32876
4.8954
6.87742
9.28254
12.0214
14.8449
17.3558
19.1464
20.0122
20.0309
19.5282
18.8437
17.8863
16.7203
15.4635
14.207
13.0099
11.9056
10.92
10.0982
9.46861
8.93389
8.46813
8.06235
7.70824
7.39906
7.12954
6.89585
6.69478
6.52486
6.3855
6.27871
6.21582
6.22878
6.43108
7.34833
14.3086
407.299
0.0255099
40.971
21.005
10.613
1363.72
3.33492
4.89116
6.87031
9.27343
12.0097
14.8316
17.3414
19.1362
20.0056
20.0283
19.5266
18.8452
17.8911
16.7276
15.4725
14.2174
13.0205
11.9167
10.9309
10.1073
9.4769
8.94175
8.47563
8.06907
7.71443
7.40464
7.13391
6.89801
6.69418
6.51996
6.37479
6.25912
6.17659
6.14167
6.19434
6.47489
7.63185
16.4901
676.866
0.0240387
27.9053
83.4727
30.2912
13.8157
1543.69
4.89857
6.8644
9.26548
11.9989
14.8192
17.3294
19.1255
19.9993
20.0259
19.5253
18.8464
17.8955
16.7344
15.4808
14.2266
13.0303
11.9265
10.9405
10.1153
9.48426
8.94866
8.48214
8.07525
7.7198
7.40946
7.13814
6.90098
6.69478
6.51752
6.36751
6.24509
6.15179
6.0931
6.08728
6.18414
6.55739
8.01169
19.2841
1081.04
0.0237733
8.72129
56.7469
121.282
38.2131
16.2952
1649.25
6.87213
9.25642
11.9878
14.8077
17.3181
19.1164
19.9935
20.0233
19.5236
18.8473
17.8992
16.7406
15.4885
14.2351
13.0392
11.9355
10.949
10.1225
9.49085
8.95475
8.48786
8.08058
7.72486
7.41364
7.14172
6.90395
6.69636
6.51653
6.36313
6.23525
6.13408
6.06233
6.02765
6.0529
6.20006
6.6848
8.52627
22.7763
1526.41
0.0235584
6.24493
17.7027
82.3952
151.397
44.0986
18.9087
1662.99
9.26302
11.9785
14.7969
17.3075
19.1079
19.9884
20.0209
19.5218
18.8477
17.9023
16.7461
15.4955
14.243
13.0473
11.9436
10.9568
10.1289
9.49666
8.96022
8.49285
8.08525
7.72907
7.41755
7.14477
6.90637
6.6981
6.51674
6.36053
6.22881
6.12141
6.04041
5.98988
5.98
6.03924
6.24477
6.86556
9.3074
26.8771
1689.1
0.023513
0.788346
12.6593
25.8863
102.999
173.68
49.1394
21.0655
1562.59
11.9824
14.7862
17.2969
19.0999
19.9831
20.0186
19.5199
18.8479
17.9048
16.7506
15.5017
14.2502
13.055
11.951
10.9639
10.1347
9.50188
8.96501
8.49736
8.08926
7.73274
7.42079
7.14766
6.90836
6.69939
6.51725
6.35933
6.22448
6.11271
6.02454
5.96308
5.93394
5.95035
6.0477
6.32214
7.111
10.4544
31.0053
1285.03
0.0234963
0.553302
1.83188
18.6615
32.7203
118.188
188.148
52.1467
23.2621
1339.22
14.7866
17.288
19.0919
19.9784
20.0162
19.518
18.8477
17.9071
16.7547
15.5071
14.2565
13.0619
11.9581
10.9703
10.1401
9.50658
8.96931
8.50128
8.09287
7.73591
7.42359
7.14997
6.91029
6.70039
6.51747
6.35862
6.22182
6.10651
6.01335
5.9436
5.90146
5.8944
5.93936
6.08033
6.43746
7.43631
11.9857
34.2156
844.656
0.0234842
0.252998
1.32072
2.97828
24.4192
38.2906
128.947
193.974
54.3146
25.3086
1057.03
17.2856
19.0856
19.9737
20.0141
19.5161
18.8473
17.9086
16.7581
15.5118
14.2621
13.068
11.9645
10.9766
10.145
9.51089
8.97318
8.50481
8.09602
7.73877
7.42595
7.15194
6.91174
6.70141
6.51748
6.35775
6.21986
6.10233
6.00512
5.92956
5.87778
5.8552
5.87152
5.94823
6.14007
6.59786
7.86203
13.9379
38.1301
611.914
0.0234658
0.230524
0.693769
2.26915
4.54708
29.4821
42.8294
134.411
189.814
54.2804
26.2384
779.806
19.0814
19.9699
20.0122
19.5142
18.8469
17.9097
16.7607
15.5157
14.267
13.0734
11.9702
10.9821
10.1496
9.51489
8.97673
8.50799
8.09889
7.74119
7.42807
7.15356
6.91294
6.70205
6.51761
6.35679
6.2179
6.09903
5.99926
5.91907
5.86051
5.82662
5.82431
5.86599
5.97877
6.23097
6.81302
8.42182
16.3971
46.5884
527.906
0.023448
0.246711
0.643047
1.34722
3.4007
6.30476
33.1663
46.4373
134.415
174.077
52.7417
26.2215
555.542
19.9657
20.0101
19.5131
18.8463
17.9109
16.7629
15.5188
14.271
13.0781
11.9752
10.9872
10.1538
9.51868
8.98004
8.5109
8.10142
7.74343
7.42989
7.15503
6.91388
6.70251
6.51746
6.35604
6.21593
6.09593
5.99454
5.91136
5.84744
5.8056
5.78995
5.80917
5.87898
6.03354
6.35847
7.09604
9.21207
19.5162
60.0195
478.708
0.0234355
0.233873
0.674025
1.27157
2.24941
4.74305
8.06114
36.3903
50.2556
128.31
149.531
48.4377
25.7867
394.547
20.0052
19.5114
18.8466
17.9117
16.7651
15.5216
14.2742
13.082
11.9795
10.9915
10.1576
9.52207
8.98317
8.51365
8.10377
7.74541
7.43153
7.15626
6.91472
6.70278
6.51721
6.35511
6.2143
6.09293
5.99021
5.90509
5.83765
5.78958
5.76456
5.76795
5.81057
5.91227
6.11608
6.52985
7.4647
10.4352
23.5053
81.7778
471.488
0.0234249
0.217465
0.645654
1.31385
2.15546
3.43389
6.39181
10.1001
39.8542
52.3971
116.899
120.553
43.4964
24.0068
283.842
19.5002
18.8461
17.9134
16.7669
15.5243
14.2773
13.0851
11.983
10.9953
10.1608
9.52513
8.98597
8.51625
8.10602
7.74723
7.43298
7.15735
6.91537
6.70302
6.51684
6.35415
6.21258
6.09039
5.98614
5.89945
5.82967
5.77744
5.74513
5.7374
5.76113
5.82975
5.96829
6.23109
6.75492
7.94304
12.148
28.5273
119.854
491.637
0.0234146
0.216391
0.610317
1.27255
2.20187
3.32394
4.96825
8.36294
12.7087
42.811
53.3061
100.891
95.6758
37.5891
22.2359
208.337
18.8328
17.9142
16.7694
15.5267
14.28
13.0881
11.9858
10.9983
10.1636
9.52767
8.98848
8.51857
8.10813
7.74902
7.43435
7.15834
6.91598
6.70316
6.51649
6.35314
6.21091
6.08785
5.98263
5.8942
5.82258
5.76751
5.73025
5.71397
5.72444
5.77041
5.86853
6.0504
6.38489
7.04692
8.56724
14.4109
34.3753
193.027
482.022
0.0234053
0.216586
0.609609
1.22212
2.14818
3.37765
4.89679
6.88585
11.1328
15.6313
43.1633
51.7593
84.3819
74.6887
31.9682
20.2206
156.436
17.9006
16.7713
15.5296
14.2826
13.0907
11.9885
11.0007
10.166
9.52993
8.99054
8.52063
8.11004
7.75071
7.4357
7.15925
6.91651
6.70326
6.51611
6.35221
6.20925
6.08544
5.97924
5.88967
5.81605
5.7588
5.71812
5.69592
5.69631
5.72639
5.79719
5.92943
6.16306
6.58589
7.42383
9.43106
17.3279
40.0383
344.288
419.775
0.0233977
0.21459
0.610584
1.22242
2.08526
3.31713
4.96557
6.87167
9.39819
14.185
18.1136
43.1889
47.5778
68.7317
58.7975
26.929
18.5314
119.944
16.7553
15.5321
14.2857
13.0933
11.9909
11.0031
10.1678
9.53174
8.99234
8.52229
8.11168
7.75223
7.43699
7.16021
6.917
6.70337
6.51574
6.35131
6.20774
6.08312
5.97606
5.88537
5.8104
5.75085
5.70757
5.68124
5.67454
5.69266
5.74435
5.84342
6.01579
6.31213
6.84519
7.91039
10.7758
21.0623
44.969
621.053
302.354
0.0233925
0.213463
0.606993
1.2278
2.08993
3.24176
4.88235
7.04811
9.26097
12.2099
16.837
20.5324
41.3559
42.323
55.2095
46.7515
23.5023
16.9452
93.8842
15.5117
14.2883
13.0961
11.9933
11.0051
10.1695
9.53314
8.99377
8.52374
8.11301
7.75349
7.43817
7.16114
6.9176
6.70347
6.51542
6.35049
6.20633
6.08101
5.97306
5.88138
5.80512
5.74398
5.69804
5.66858
5.65688
5.66649
5.70389
5.77984
5.91167
6.1319
6.50526
7.17783
8.54053
12.7002
25.888
54.5178
847.68
142.413
0.0233821
0.213187
0.603785
1.22171
2.10039
3.25298
4.81376
6.93046
9.47605
12.0112
14.9622
19.0232
22.0126
37.7384
37.3042
44.5708
37.7735
20.5201
15.4126
74.6663
14.2656
13.0988
11.9959
11.0072
10.171
9.53445
8.99483
8.52484
8.11412
7.75449
7.43911
7.16199
6.91819
6.7037
6.51513
6.34975
6.20502
6.07907
5.97031
5.87764
5.80025
5.73763
5.68979
5.65727
5.64179
5.64531
5.67243
5.7312
5.8349
6.00534
6.28356
6.75275
7.60438
9.38674
15.3263
32.134
71.1016
811.127
3.405
0.0231315
0.21269
0.602119
1.2141
2.08881
3.27425
4.8035
6.82867
9.32448
12.0998
14.7658
17.4411
20.7767
22.5099
33.9209
32.7135
36.3869
31.9621
18.0586
13.9217
60.3009
13.0767
11.9984
11.0095
10.1726
9.53557
8.99581
8.52562
8.11493
7.75531
7.4398
7.16261
6.91872
6.70396
6.51503
6.34907
6.20386
6.07729
5.96782
5.87423
5.79573
5.7318
5.68225
5.64746
5.62838
5.62731
5.64702
5.69335
5.77628
5.91231
6.12889
6.47834
7.06853
8.15382
10.7012
18.8448
39.5155
96.6941
712.313
106.802
0.0182081
0.21059
0.60207
1.21249
2.08031
3.25842
4.80013
6.77366
9.14478
11.9812
14.8531
17.3257
19.4246
21.6245
22.1268
30.4588
28.5555
30.365
27.1767
15.887
12.6006
49.7496
11.9792
11.0117
10.1745
9.53677
8.99666
8.52633
8.11545
7.75585
7.44034
7.16303
6.91906
6.70421
6.51497
6.34863
6.2028
6.07569
5.96554
5.87116
5.79162
5.72644
5.67537
5.63857
5.61675
5.61144
5.62554
5.66283
5.73068
5.84146
6.01572
6.28828
6.72634
7.47142
8.87075
12.6315
23.495
45.9603
139.573
517.703
195.383
0.00251337
0.166308
0.595085
1.21156
2.07645
3.24624
4.78298
6.72743
9.09536
11.77
14.7426
17.4532
19.3258
20.4724
21.497
21.2003
27.1501
24.8949
25.7482
22.9181
14.0966
11.4403
41.8816
10.9963
10.1763
9.53814
8.99758
8.52693
8.1159
7.75613
7.44062
7.16332
6.91922
6.70427
6.51493
6.34825
6.20201
6.07424
5.9635
5.86836
5.78793
5.72156
5.66907
5.63048
5.60629
5.59767
5.60676
5.63719
5.69398
5.78639
5.9298
6.14996
6.49142
7.0413
7.98772
9.86432
15.3255
29.4902
50.6751
207.439
204.763
126.12
0.00492192
0.0272486
0.472077
1.19946
2.07557
3.24053
4.7653
6.70787
9.07848
11.7793
14.5432
17.319
19.452
20.3032
20.4582
20.6219
20.3003
24.0725
21.8657
21.8087
19.5141
12.5932
10.5247
36.0424
10.164
9.53945
8.99864
8.52764
8.11628
7.75634
7.44069
7.16335
6.91926
6.70418
6.51473
6.34793
6.20132
6.07309
5.96165
5.86585
5.78458
5.71721
5.66334
5.6231
5.59681
5.58538
5.59047
5.61494
5.66333
5.74219
5.8631
6.04532
6.32137
6.74871
7.44176
8.65453
11.4072
19.0276
36.8336
64.3119
273.422
3.16395
56.0315
0.00768112
0.0393636
0.0893521
0.955341
2.05638
3.23872
4.75859
6.69101
9.05637
11.7759
14.5739
17.2038
19.3152
20.4219
20.3881
19.9106
19.8431
19.0456
21.4302
19.1203
18.621
16.6465
11.3441
9.80574
30.8554
9.52852
8.99973
8.52843
8.11678
7.75651
7.44068
7.16322
6.91906
6.70398
6.51441
6.34747
6.20071
6.07208
5.96012
5.86358
5.78157
5.71325
5.65823
5.61639
5.58818
5.57428
5.57602
5.59566
5.63692
5.70547
5.80972
5.96425
6.1933
6.53833
7.07424
7.95351
9.54713
13.6514
24.0646
44.5508
85.0408
273.201
80.4632
25.3137
0.0088565
0.0668916
0.0965461
0.204565
1.64663
3.21063
4.75696
6.68062
9.03476
11.7524
14.6191
17.2031
19.2143
20.328
20.5131
19.9276
19.296
18.8192
17.7151
18.9342
16.84
15.9862
14.3987
10.3524
9.19332
26.1764
8.98976
8.52938
8.11733
7.75682
7.44066
7.163
6.91874
6.70357
6.51397
6.34691
6.2
6.07119
5.95879
5.86167
5.77885
5.70968
5.65358
5.61042
5.58036
5.5642
5.56303
5.57866
5.61409
5.67403
5.7656
5.89958
6.09436
6.3807
6.81205
7.48726
8.61348
10.9082
16.8134
30.7222
50.7987
113.421
190.904
98.3591
16.6176
0.00951384
0.078594
0.181444
0.164233
0.39281
2.5844
4.71111
6.6777
9.01771
11.7217
14.5749
17.2149
19.1792
20.1545
20.4375
20.0487
19.258
18.3361
17.5538
16.2936
16.8096
14.8303
13.8299
12.6788
9.62861
8.67103
22.0969
8.52025
8.11815
7.75716
7.44076
7.16279
6.91832
6.70306
6.51336
6.34625
6.19921
6.07022
5.9576
5.85999
5.77653
5.70647
5.64939
5.60499
5.57339
5.5551
5.55127
5.56346
5.59406
5.64695
5.72808
5.8464
6.0157
6.25931
6.61667
7.15761
8.01474
9.49332
12.9375
21.2352
38.8741
60.3729
145.442
47.6549
53.8626
14.9603
0.00983652
0.0848566
0.216953
0.349728
0.228624
0.680887
3.8182
6.61366
9.016
11.7173
14.5626
17.192
19.1739
20.1735
20.3523
19.9849
19.3589
18.317
17.1931
16.2001
14.8894
14.9903
13.1565
12.1834
11.3366
9.02473
8.21812
18.7501
8.1097
7.75784
7.44089
7.16271
6.91793
6.70244
6.51265
6.34543
6.19832
6.0692
5.95637
5.8585
5.77449
5.70369
5.64561
5.60009
5.56707
5.54699
5.54069
5.54973
5.57623
5.62329
5.69585
5.80142
5.95131
6.16316
6.46683
6.9135
7.59596
8.69525
10.8124
15.846
27.3162
46.934
77.8857
150.075
34.3224
19.8212
12.3483
0.0099711
0.0880609
0.235539
0.426735
0.571665
0.2701
1.10284
5.40337
8.93925
11.705
14.5416
17.1552
19.1369
20.2314
20.3723
19.9259
19.3087
18.4464
17.1807
15.932
14.8498
13.5902
13.3482
11.8089
11.0163
10.3123
8.51946
7.8249
16.045
7.74995
7.44147
7.16265
6.91767
6.70188
6.51184
6.34454
6.1973
6.06807
5.95511
5.857
5.77266
5.70123
5.64232
5.59567
5.56136
5.53965
5.53126
5.53742
5.56019
5.60233
5.66783
5.76295
5.89716
6.08483
6.34866
6.72723
7.28811
8.15655
9.60511
12.79
19.9754
35.1858
53.1035
99.7752
131.156
66.5944
16.4373
3.48023
0.010268
0.0894932
0.245764
0.465875
0.711798
0.840471
0.26282
1.7037
7.3865
11.6275
14.5512
17.1436
19.13
20.2087
20.3947
19.9184
19.2681
18.4136
17.2999
15.9219
14.6466
13.5832
12.3728
12.0115
10.7747
10.0731
9.55799
8.08825
7.48845
13.9804
7.43402
7.16311
6.91743
6.70145
6.51111
6.34354
6.19621
6.06685
5.95375
5.85549
5.77086
5.69902
5.63939
5.5918
5.55622
5.53302
5.52273
5.52645
5.54584
5.58355
5.64312
5.72965
5.85105
6.01933
6.25284
6.581
7.05458
7.76396
8.88222
10.9819
15.6507
25.789
44.0023
65.443
118.517
65.4407
74.5957
21.6826
6.57283
0.0105936
0.0924235
0.25044
0.48744
0.781605
1.06965
1.13017
0.182344
2.53679
9.73432
14.4515
17.1542
19.1055
20.1858
20.3987
19.9459
19.307
18.3713
17.3048
16.0206
14.6687
13.4485
12.3872
11.3022
10.9457
9.93355
9.3369
8.93582
7.71337
7.19932
12.3469
7.15601
6.91779
6.70103
6.51051
6.34264
6.19504
6.06557
5.95233
5.8539
5.76907
5.69688
5.63675
5.58834
5.55169
5.52704
5.51505
5.51655
5.53307
5.56679
5.62106
5.70038
5.81129
5.96378
6.17312
6.46306
6.87225
7.46818
8.37409
9.86298
13.0373
19.761
33.6132
51.9105
84.0471
113.365
4.11057
37.9441
13.583
4.49011
0.0108701
0.0954365
0.258644
0.49825
0.820078
1.17974
1.47217
1.37548
0.0295434
3.65986
12.3203
17.0613
19.1236
20.1912
20.3757
19.9324
19.3188
18.4181
17.2812
16.0389
14.7826
13.4571
12.318
11.3302
10.4258
10.1131
9.26256
8.73845
8.42685
7.38858
6.94254
11.0662
6.91093
6.70127
6.5099
6.34188
6.19396
6.06421
5.95085
5.85225
5.76721
5.69478
5.63423
5.58522
5.54763
5.52176
5.50811
5.50765
5.52158
5.55189
5.60142
5.6744
5.77649
5.91608
6.10586
6.36542
6.72592
7.23873
7.99498
9.17374
11.3807
16.0176
25.6351
42.8982
60.8296
102.583
89.6025
53.3133
16.9685
2.07243
3.85995
0.0111269
0.0979775
0.267449
0.515776
0.839692
1.23677
1.62602
1.83189
1.47426
0.152568
5.10522
14.8423
19.0376
20.1852
20.3606
19.9362
19.3208
18.4319
17.2876
16.0231
14.7745
13.5372
12.3243
11.279
10.4479
9.74441
9.43475
8.68756
8.23862
8.00205
7.10302
6.72862
10.024
6.69457
6.51004
6.34108
6.19303
6.06296
5.94931
5.85055
5.76532
5.69264
5.63178
5.58226
5.54397
5.51703
5.50197
5.49961
5.51125
5.53852
5.58399
5.65131
5.74574
5.87451
6.04829
6.28347
6.60548
7.05558
7.70304
8.67328
10.3033
13.6205
20.3329
33.66
51.5849
78.4433
110.274
20.2417
34.3811
2.85131
7.74904
8.47338
0.0113834
0.100358
0.275257
0.533881
0.869406
1.26489
1.68781
2.01425
1.99796
1.36054
0.304517
6.85367
16.9145
20.1226
20.3843
19.9297
19.3176
18.4336
17.3058
16.0366
14.7376
13.5527
12.3739
11.2986
10.4001
9.77142
9.16253
8.84829
8.19873
7.81535
7.65196
6.85409
6.54204
9.19083
6.50338
6.3411
6.19204
6.06185
5.94787
5.84881
5.76338
5.69047
5.62931
5.57942
5.54051
5.51274
5.49646
5.49246
5.50191
5.52651
5.56841
5.63084
5.71848
5.83791
5.99835
6.21358
6.50491
6.9057
7.47135
8.29701
9.57615
12.0212
16.8685
26.5457
43.2483
59.784
96.817
78.6409
35.7995
0.255502
4.94814
5.08588
1.24
0.0116359
0.102763
0.282272
0.549476
0.900047
1.30646
1.70963
2.04451
2.16812
1.86845
1.09234
0.396647
8.74448
18.2169
20.3283
19.9378
19.3219
18.4332
17.307
16.0609
14.7603
13.5373
12.3893
11.3511
10.4214
9.73085
9.19414
8.65173
8.34373
7.7812
7.46451
7.3462
6.63434
6.38473
8.52567
6.33429
6.19194
6.06068
5.94658
5.84717
5.76142
5.68827
5.62684
5.57659
5.53723
5.50873
5.49146
5.48605
5.49361
5.51567
5.55441
5.61262
5.69437
5.80557
5.95457
6.15322
6.41946
6.78125
7.28298
8.00023
9.07079
10.9197
14.543
21.6036
35.015
52.3425
77.874
104.056
23.3143
16.2964
9.39624
2.87247
4.47663
26.5364
0.0118715
0.105108
0.28925
0.563825
0.926444
1.34865
1.75172
2.02236
2.11851
1.98765
1.51957
0.795938
0.436373
10.4763
18.651
19.8917
19.3354
18.4382
17.313
16.0652
14.7961
13.5475
12.3999
11.3535
10.4762
9.74846
9.17267
8.68795
8.20356
7.92269
7.42278
7.16802
7.08481
6.4393
6.2492
7.98543
6.18475
6.06044
5.94522
5.84568
5.75954
5.68605
5.62435
5.57377
5.53399
5.50494
5.4868
5.48024
5.48615
5.506
5.54178
5.59624
5.67295
5.77703
5.91599
6.10052
6.34601
6.67594
7.12749
7.76069
8.68073
10.141
12.9287
18.2209
28.4351
44.8994
61.6227
96.6238
79.251
20.2934
5.37103
7.59501
4.82627
10.0004
90.9254
0.0120866
0.107301
0.295988
0.578107
0.950467
1.38523
1.79201
2.03355
2.02709
1.866
1.5894
1.12679
0.551249
0.4445
11.6825
18.4073
19.2861
18.4503
17.3197
16.0693
14.7993
13.571
12.4163
11.3637
10.4753
9.797
9.18933
8.68288
8.24796
7.81746
7.5525
7.11403
6.9155
6.86093
6.26737
6.13896
7.55306
6.05256
5.94485
5.8441
5.75784
5.68391
5.62185
5.57095
5.53078
5.50122
5.48243
5.47484
5.47939
5.49732
5.53051
5.5815
5.65373
5.75173
5.88203
6.05425
6.28215
6.5858
6.99643
7.56426
8.37197
9.58577
11.7739
15.8668
23.6156
37.6001
54.3122
81.0735
101.754
21.278
3.61492
9.13478
0.798747
10.8823
10.0517
141.028
0.0122804
0.109288
0.302338
0.591902
0.974174
1.41546
1.82376
2.0444
1.98833
1.73001
1.44832
1.17088
0.805415
0.374895
0.438778
12.1533
17.716
18.4376
17.3344
16.0793
14.8055
13.5798
12.4325
11.3916
10.4862
9.80482
9.2328
8.70585
8.25054
7.87097
7.4782
7.227
6.85233
6.7015
6.6734
6.12135
6.04596
7.19674
5.93579
5.84358
5.75601
5.68197
5.61943
5.56815
5.52761
5.49758
5.47818
5.46979
5.47313
5.48944
5.52038
5.56832
5.63647
5.72909
5.852
6.01361
6.22628
6.50784
6.88482
7.3993
8.12055
9.17159
10.9285
14.18
20.1855
31.3512
47.769
66.2018
99.454
70.7502
5.9676
9.77585
3.49922
3.60101
7.38742
2.98439
74.2817
0.0124533
0.111088
0.308107
0.605441
0.996088
1.44527
1.84614
2.04488
1.9529
1.65836
1.31962
1.05562
0.838947
0.574836
0.25391
0.428473
11.9636
16.895
17.3509
16.0943
14.8119
13.5846
12.4389
11.4036
10.513
9.81323
9.24817
8.74447
8.2741
7.87711
7.53001
7.17542
6.9507
6.62299
6.52171
6.50529
5.99336
5.9693
6.90605
5.83271
5.75533
5.67988
5.61721
5.56542
5.52445
5.49399
5.47403
5.46491
5.46728
5.48218
5.51121
5.55648
5.62098
5.70877
5.82519
5.97776
6.17732
6.43983
6.78877
7.25967
7.91017
8.83793
10.2947
12.9344
17.7045
26.5399
41.3879
57.2922
87.4168
100.523
26.164
3.01911
6.94361
0.91531
5.94382
7.87985
2.26988
44.0637
0.0126119
0.11287
0.313286
0.617848
1.01833
1.47404
1.86873
2.03979
1.91218
1.59814
1.24996
0.958116
0.75964
0.605239
0.416705
0.171133
0.418984
11.3739
16.144
16.1488
14.8283
13.5906
12.4457
11.4105
10.525
9.83082
9.24832
8.75241
8.31302
7.89382
7.54482
7.2278
6.91192
6.70602
6.42733
6.36852
6.35768
5.88194
5.90629
6.66625
5.74186
5.67902
5.61484
5.5629
5.52138
5.49045
5.46997
5.46019
5.46168
5.4754
5.50275
5.54575
5.60712
5.69055
5.80117
5.94584
6.13423
6.38041
6.70525
7.14011
7.73339
8.5655
9.79984
11.9946
15.8756
22.9175
35.4108
51.7889
73.582
103.117
60.4378
7.3484
8.40132
3.26433
4.19802
6.19551
22.3515
8.75046
54.6602
0.0127609
0.114319
0.318311
0.628352
1.03964
1.50293
1.89364
2.03647
1.87414
1.53735
1.19013
0.904759
0.693717
0.554349
0.446432
0.308738
0.113119
0.412294
10.6445
15.3758
14.9138
13.6031
12.4526
11.4167
10.5328
9.84452
9.26012
8.75266
8.32042
7.93314
7.56745
7.24956
6.96492
6.67929
6.49199
6.25719
6.23466
6.22597
5.7882
5.85738
6.47207
5.66198
5.61377
5.56021
5.51851
5.48698
5.46598
5.45558
5.45628
5.46895
5.49487
5.53589
5.59452
5.67421
5.77963
5.91729
6.09601
6.32825
6.63251
7.0365
7.58284
8.33864
9.4322
11.2662
14.497
20.2239
30.5131
45.8983
61.4847
96.046
90.1623
18.3746
5.16412
4.04236
5.44053
6.46646
21.3712
17.7407
15.986
72.8538
0.0129097
0.11554
0.322553
0.638556
1.05679
1.53013
1.91914
2.03668
1.84249
1.48516
1.13557
0.859371
0.65671
0.511724
0.415465
0.337811
0.233428
0.0712361
0.409516
9.93957
14.6059
13.7172
12.4637
11.4238
10.5394
9.85279
9.27871
8.76914
8.32779
7.94363
7.59769
7.27471
6.98732
6.73281
6.4739
6.30443
6.11242
6.11769
6.1094
5.71134
5.81725
6.33218
5.59194
5.55891
5.51548
5.48374
5.46208
5.45108
5.45105
5.46277
5.48743
5.5267
5.58298
5.6594
5.76032
5.89172
6.06186
6.28215
6.56884
6.94652
7.45271
8.14646
9.12953
10.6963
13.431
18.1797
26.6752
40.632
56.2985
83.6239
105.775
41.737
3.13101
5.30576
6.98323
3.40482
25.7492
10.7578
26.5301
23.9884
72.7564
0.0130668
0.117103
0.326042
0.646169
1.07198
1.55171
1.9413
2.04076
1.81762
1.44371
1.08935
0.818295
0.625368
0.487616
0.388003
0.32008
0.262103
0.17947
0.0396936
0.411354
9.33603
13.8878
12.5954
11.4346
10.5436
9.85916
9.28515
8.7858
8.34287
7.95017
7.6082
7.30641
7.01418
6.75892
6.52848
6.29029
6.14128
5.98827
6.01925
6.00841
5.64965
5.78439
6.24367
5.53075
5.51392
5.48032
5.45841
5.44669
5.44596
5.4568
5.48031
5.51809
5.57224
5.64582
5.74281
5.86879
6.03133
6.24103
6.51275
6.86809
7.34015
7.9807
8.87517
10.2389
12.5848
16.5982
23.6531
35.7603
51.4768
71.8679
104.788
72.3208
18.5103
4.23818
5.56917
0.527935
24.9144
20.4844
6.1536
18.9333
33.3446
39.2002
0.0132342
0.118541
0.329985
0.6527
1.08464
1.57058
1.95711
2.04283
1.79801
1.41047
1.05297
0.784505
0.597226
0.466738
0.372343
0.302613
0.252747
0.207722
0.139535
0.0147756
0.417274
8.86927
13.2491
11.5789
10.5538
9.86413
9.29139
8.79227
8.35375
7.9629
7.6192
7.31756
7.04643
6.78421
6.55697
6.34322
6.12961
6.00261
5.88439
5.93567
5.92061
5.60292
5.75686
6.1731
5.47752
5.47846
5.45456
5.44253
5.44099
5.45102
5.4735
5.50986
5.56221
5.63324
5.72681
5.84801
6.00396
6.20433
6.46288
6.7992
7.24245
7.83803
8.6588
9.86272
11.9092
15.3538
21.2989
31.6083
46.539
61.7446
96.7084
101.066
51.6135
3.37899
4.7691
3.32712
22.3965
24.1117
6.56116
10.8098
3.44159
10.8354
10.3046
0.0134175
0.119898
0.334062
0.661231
1.09647
1.58618
1.97064
2.04041
1.78
1.38244
1.02484
0.75831
0.574264
0.447929
0.358555
0.292524
0.241941
0.204147
0.167527
0.108913
0.00569879
0.428022
8.53984
12.7058
10.691
9.87268
9.29694
8.7983
8.36097
7.97686
7.63122
7.3277
7.06009
6.81623
6.58285
6.37513
6.18066
5.98929
5.88437
5.79711
5.86543
5.84461
5.57124
5.73706
6.09269
5.43585
5.45234
5.43819
5.43628
5.4454
5.4669
5.50205
5.55269
5.62151
5.71199
5.82905
5.97916
6.17142
6.4184
6.73816
7.15696
7.71483
8.47526
9.56096
11.3595
14.3626
19.4522
28.2777
42.0467
57.4158
85.6321
110.088
37.739
7.43366
3.97189
3.99418
17.9987
23.4103
12.4734
11.9146
16.4021
12.9123
43.7969
74.5783
0.013621
0.121771
0.338395
0.66937
1.11044
1.6028
1.98015
2.03753
1.76146
1.35785
1.00032
0.737583
0.556298
0.432551
0.34599
0.283401
0.235712
0.197582
0.167828
0.136842
0.0846732
0.023387
0.443837
8.33717
12.2564
9.97862
9.30623
8.8038
8.3675
7.98389
7.64482
7.3415
7.07
6.8316
6.61308
6.40089
6.2127
6.03643
5.8661
5.78253
5.72392
5.80634
5.77961
5.55261
5.72532
5.98209
5.40889
5.43554
5.4314
5.44004
5.46051
5.49448
5.54365
5.61042
5.69822
5.81153
5.95657
6.14165
6.37855
6.68376
7.08145
7.60743
8.31772