/*--------------------------------*- C++ -*----------------------------------*\
| =========                 |                                                 |
| \\      /  F ield         | OpenFOAM: The Open Source CFD Toolbox           |
|  \\    /   O peration     | Version:  v2012                                 |
|   \\  /    A nd           | Website:  www.openfoam.com                      |
|    \\/     M anipulation  |                                                 |
\*---------------------------------------------------------------------------*/
FoamFile
{
    version     2.0;
    format      ascii;
    class       volScalarField;
    location    "13380";
    object      rho;
}
// * * * * * * * * * * * * * * * * * * * * * * * * * * * * * * * * * * * * * //

dimensions      [1 -3 0 0 0 0 0];


internalField   nonuniform List<scalar> 
31383
(
0.302173
0.301748
0.302854
0.301413
0.302512
0.303624
0.301285
0.302166
0.303375
0.304497
0.301247
0.302024
0.303011
0.304354
0.305491
0.301182
0.301973
0.302851
0.303965
0.305473
0.306631
0.30109
0.301897
0.302784
0.303781
0.305051
0.306761
0.307944
0.301033
0.301794
0.302694
0.303695
0.304837
0.306297
0.308254
0.309461
0.301025
0.301728
0.302578
0.303587
0.304727
0.306045
0.307736
0.309994
0.311223
0.300994
0.301712
0.3025
0.303455
0.304597
0.305905
0.307438
0.309408
0.312025
0.313283
0.300892
0.301673
0.302474
0.303364
0.304446
0.305749
0.307262
0.309053
0.311354
0.314389
0.315704
0.300717
0.301565
0.302426
0.303326
0.304339
0.305576
0.307074
0.308833
0.310932
0.313612
0.317098
0.318649
0.300484
0.301383
0.30231
0.303268
0.304286
0.305448
0.306873
0.308607
0.310657
0.313109
0.316203
0.320148
0.322121
0.300216
0.301144
0.30212
0.303141
0.304215
0.305379
0.306722
0.308373
0.310386
0.312772
0.31561
0.319127
0.323511
0.326174
0.299972
0.300871
0.301874
0.302943
0.304078
0.305293
0.306633
0.308193
0.310113
0.312447
0.3152
0.318434
0.322356
0.32714
0.331062
0.299758
0.300621
0.301594
0.302688
0.303868
0.305142
0.306528
0.30808
0.309899
0.312128
0.314814
0.317944
0.321556
0.325843
0.330992
0.336478
0.29957
0.300402
0.301339
0.302401
0.303604
0.30492
0.30636
0.307953
0.309756
0.311874
0.314446
0.31749
0.320982
0.324934
0.329545
0.335044
0.34248
0.299418
0.30021
0.301114
0.302138
0.303307
0.304644
0.306123
0.307766
0.309604
0.311697
0.314142
0.317066
0.320457
0.324273
0.328521
0.333436
0.339271
0.348991
0.299303
0.300055
0.300917
0.301907
0.303036
0.304336
0.305833
0.307511
0.309394
0.311514
0.313926
0.316711
0.31997
0.323675
0.32777
0.332293
0.33749
0.34363
0.355857
0.299218
0.299937
0.300758
0.301705
0.302798
0.304055
0.305513
0.307204
0.309117
0.311277
0.31371
0.316452
0.319564
0.323124
0.327096
0.331447
0.336225
0.341669
0.348088
0.362959
0.299159
0.299848
0.300636
0.30154
0.302589
0.303808
0.30522
0.306868
0.308791
0.310978
0.313441
0.3162
0.319257
0.322662
0.32648
0.330694
0.335284
0.340282
0.345938
0.352618
0.37028
0.299122
0.299787
0.300544
0.301413
0.302418
0.303591
0.304963
0.306562
0.308437
0.310626
0.313114
0.315894
0.318966
0.322308
0.325962
0.33001
0.33445
0.339244
0.344427
0.350267
0.357199
0.377874
0.299101
0.299747
0.300479
0.301317
0.302286
0.303413
0.304736
0.306292
0.308114
0.310251
0.312735
0.315536
0.318623
0.321975
0.325559
0.329434
0.333696
0.338328
0.343292
0.348631
0.354632
0.361818
0.385727
0.299093
0.299724
0.300437
0.301249
0.302185
0.303274
0.30455
0.306054
0.30783
0.309909
0.312336
0.315129
0.318231
0.321593
0.325184
0.328981
0.33306
0.337504
0.342294
0.347398
0.35287
0.359019
0.36647
0.393806
0.299092
0.299714
0.300411
0.301203
0.302113
0.303168
0.304404
0.305858
0.307579
0.309608
0.311972
0.314702
0.317794
0.321167
0.324764
0.328562
0.332553
0.336806
0.341399
0.346317
0.351538
0.357128
0.363416
0.371155
0.402086
0.299092
0.299711
0.300399
0.301175
0.302063
0.303091
0.30429
0.305703
0.30737
0.309341
0.311653
0.314315
0.317339
0.320699
0.324303
0.328102
0.332089
0.336247
0.34064
0.345351
0.350375
0.355697
0.361394
0.367821
0.375876
0.410559
0.299092
0.29971
0.300394
0.30116
0.302031
0.303036
0.304207
0.305582
0.307205
0.309119
0.311367
0.313974
0.316925
0.320215
0.323802
0.327605
0.331589
0.335736
0.340028
0.344531
0.349338
0.35445
0.359862
0.365665
0.372248
0.380645
0.419227
0.299094
0.299708
0.300391
0.301152
0.302013
0.303
0.304147
0.305491
0.307074
0.308941
0.31113
0.313669
0.316562
0.319775
0.323289
0.327072
0.331055
0.335195
0.33947
0.343866
0.348457
0.353343
0.358532
0.36403
0.369951
0.376716
0.385486
0.428109
0.299105
0.299709
0.300387
0.301147
0.302002
0.302978
0.304106
0.305425
0.306975
0.308799
0.310937
0.313415
0.316236
0.319387
0.322822
0.326528
0.330487
0.334624
0.338888
0.343262
0.347739
0.3524
0.357353
0.362615
0.36821
0.374271
0.381237
0.390419
0.437249
0.299125
0.299718
0.300386
0.301141
0.301994
0.302964
0.30408
0.305378
0.306901
0.30869
0.310782
0.313206
0.315963
0.31904
0.322411
0.326034
0.329913
0.334023
0.33828
0.342639
0.347089
0.351629
0.356348
0.361364
0.366707
0.37242
0.378637
0.385817
0.395458
0.446748
0.299155
0.299737
0.300394
0.301138
0.301986
0.302953
0.304062
0.305347
0.306847
0.308607
0.310662
0.313037
0.315737
0.318748
0.322041
0.325598
0.32939
0.333416
0.337644
0.341994
0.346424
0.350932
0.355524
0.360296
0.365382
0.370826
0.376671
0.383053
0.390464
0.400619
0.456757
0.299199
0.299766
0.300412
0.301145
0.301981
0.302942
0.304047
0.305324
0.30681
0.308545
0.310569
0.312904
0.315554
0.318505
0.32173
0.325206
0.328929
0.332866
0.337007
0.341324
0.345742
0.350227
0.354781
0.359419
0.36425
0.369424
0.374983
0.380969
0.387527
0.395189
0.405922
0.467306
0.299256
0.299809
0.30044
0.301161
0.301986
0.302935
0.304033
0.305305
0.306781
0.3085
0.310498
0.312799
0.315407
0.318306
0.321469
0.324874
0.328514
0.332379
0.336428
0.340656
0.345039
0.349507
0.354034
0.358628
0.363317
0.368226
0.373501
0.379184
0.385319
0.392066
0.400001
0.411388
0.478093
0.299322
0.299866
0.300482
0.301187
0.302
0.302937
0.304023
0.305287
0.306757
0.308466
0.310445
0.312718
0.315289
0.318144
0.321254
0.324596
0.328162
0.331941
0.335916
0.340049
0.344339
0.34877
0.353277
0.357839
0.362478
0.367235
0.372236
0.37762
0.383434
0.389728
0.396677
0.40491
0.417042
0.48895
0.299393
0.299931
0.300538
0.301228
0.302025
0.302948
0.304021
0.305272
0.306734
0.308435
0.310402
0.312655
0.315197
0.318014
0.321078
0.324364
0.327864
0.331568
0.335456
0.339512
0.343705
0.34804
0.352506
0.357044
0.361646
0.366346
0.371187
0.376284
0.381785
0.387738
0.394203
0.401369
0.409927
0.422914
0.500231
0.299466
0.300001
0.300602
0.301283
0.302064
0.302971
0.304031
0.305268
0.306715
0.308406
0.310365
0.312604
0.315125
0.31791
0.320935
0.324173
0.327616
0.331251
0.335061
0.339028
0.343143
0.347378
0.351746
0.35624
0.360813
0.365471
0.370246
0.375175
0.380377
0.386003
0.392104
0.398751
0.406149
0.415067
0.429039
0.51228
0.299538
0.300073
0.300671
0.301346
0.302117
0.303009
0.304051
0.305274
0.306707
0.308383
0.31033
0.312559
0.315065
0.317827
0.320819
0.324016
0.327409
0.330986
0.334726
0.338613
0.342636
0.346791
0.351056
0.355449
0.359974
0.364599
0.369326
0.374182
0.379206
0.38452
0.390278
0.396538
0.403378
0.411027
0.420344
0.435469
0.525269
0.299579
0.300145
0.300742
0.301414
0.302179
0.30306
0.304087
0.305292
0.306709
0.308369
0.3103
0.312517
0.315011
0.317758
0.320726
0.323889
0.327238
0.330764
0.334443
0.338259
0.3422
0.346261
0.350443
0.354731
0.359152
0.363724
0.368413
0.373216
0.378159
0.383285
0.388718
0.394617
0.401046
0.408092
0.416012
0.425775
0.44228
0.539398
0.299932
0.300185
0.300813
0.301484
0.302246
0.303121
0.304136
0.305324
0.306724
0.308368
0.310281
0.312481
0.314961
0.317696
0.320646
0.323784
0.327098
0.330579
0.334206
0.33796
0.341828
0.345805
0.349891
0.354093
0.358405
0.362869
0.367502
0.372262
0.377145
0.382182
0.387416
0.392977
0.399026
0.405634
0.412902
0.421115
0.431381
0.449557
0.5549
0.300191
0.300537
0.300853
0.301554
0.302315
0.303187
0.304195
0.305372
0.306753
0.308378
0.310275
0.312456
0.314918
0.317638
0.320575
0.323695
0.326982
0.330426
0.334007
0.337707
0.341511
0.345414
0.349414
0.353519
0.357742
0.362094
0.366614
0.371313
0.376148
0.381119
0.386256
0.391607
0.397302
0.403511
0.41031
0.417815
0.426348
0.437184
0.457397
0.572061
0.299928
0.300933
0.301204
0.301593
0.302384
0.303255
0.304259
0.305428
0.306798
0.308404
0.31028
0.312443
0.314886
0.317587
0.320509
0.323615
0.326882
0.330299
0.333842
0.337494
0.341243
0.34508
0.349004
0.353021
0.357144
0.361404
0.365809
0.370391
0.375161
0.380078
0.385142
0.390387
0.395861
0.401701
0.408079
0.415082
0.42284
0.431725
0.443213
0.465914
0.591207
0.299884
0.300544
0.301776
0.301944
0.302422
0.303322
0.304326
0.30549
0.306852
0.308445
0.310302
0.312444
0.314868
0.317548
0.320451
0.32354
0.326793
0.330188
0.333702
0.337316
0.341016
0.344796
0.348654
0.352592
0.356626
0.360782
0.365092
0.369555
0.374205
0.379051
0.384056
0.389221
0.394579
0.400186
0.406178
0.412737
0.419956
0.427989
0.437261
0.449501
0.475248
0.612716
0.300234
0.300506
0.301236
0.302733
0.302772
0.303359
0.304391
0.305555
0.306912
0.308497
0.31034
0.312461
0.314864
0.317524
0.320405
0.323473
0.326709
0.330089
0.333582
0.337165
0.340825
0.344555
0.348355
0.352225
0.356178
0.360242
0.364446
0.368811
0.373337
0.378059
0.382989
0.388088
0.39336
0.39884
0.404586
0.410741
0.417491
0.424943
0.433271
0.442975
0.45609
0.48557
0.636917
0.300104
0.300902
0.301205
0.302013
0.303827
0.303708
0.304427
0.305619
0.306974
0.308553
0.310388
0.312495
0.314875
0.317513
0.320374
0.323421
0.326635
0.329996
0.333473
0.337033
0.340662
0.344352
0.3481
0.35191
0.355793
0.359774
0.363883
0.36814
0.372564
0.37716
0.38196
0.386979
0.392179
0.397564
0.403173
0.409068
0.415395
0.422349
0.43005
0.438701
0.448886
0.463027
0.497094
0.663866
0.299831
0.300743
0.301657
0.301993
0.302892
0.305085
0.304776
0.305653
0.307036
0.308613
0.310441
0.312538
0.314904
0.31752
0.320358
0.323383
0.326574
0.329914
0.333371
0.336915
0.340521
0.344178
0.347883
0.351641
0.355462
0.359371
0.363396
0.367554
0.371868
0.376358
0.381028
0.385913
0.391027
0.396334
0.40184
0.407586
0.413638
0.420148
0.42732
0.435288
0.444291
0.455021
0.470376
0.510076
0.693053
0.299798
0.300439
0.301459
0.302512
0.302886
0.303893
0.306541
0.306002
0.307068
0.308672
0.310498
0.312588
0.314944
0.317544
0.320359
0.32336
0.326529
0.329846
0.33328
0.336804
0.340392
0.344025
0.347697
0.351411
0.355179
0.359025
0.362975
0.367046
0.371259
0.375635
0.380196
0.384946
0.389921
0.395137
0.400557
0.406192
0.412084
0.418303
0.425008
0.432412
0.440668
0.450059
0.461409
0.478213
0.524804
0.723126
0.299767
0.300401
0.301113
0.302262
0.303487
0.303905
0.305042
0.308224
0.307416
0.308702
0.310554
0.312642
0.31499
0.317579
0.320378
0.323356
0.3265
0.329794
0.333204
0.336705
0.340273
0.343887
0.347534
0.351214
0.354936
0.358727
0.362611
0.366606
0.37073
0.375003
0.379446
0.384083
0.388919
0.393991
0.399314
0.404856
0.410626
0.416672
0.423069
0.429981
0.437634
0.446203
0.456023
0.468087
0.48666
0.541569
0.752214
0.29977
0.300365
0.301066
0.301863
0.30317
0.304604
0.305076
0.306367
0.310149
0.30905
0.310582
0.312694
0.315039
0.317621
0.320408
0.323369
0.32649
0.329758
0.333145
0.336621
0.340165
0.343759
0.347386
0.351041
0.354727
0.358471
0.362298
0.366226
0.370271
0.374452
0.378789
0.383305
0.388024
0.392952
0.398126
0.403565
0.409234
0.415149
0.421359
0.427945
0.435077
0.442998
0.451908
0.462208
0.475099
0.495906
0.560493
0.775848
0.29978
0.300367
0.301023
0.301803
0.302705
0.304206
0.305893
0.306426
0.3079
0.31228
0.310928
0.312719
0.315088
0.317667
0.320445
0.323395
0.326498
0.329741
0.333103
0.336555
0.340074
0.343643
0.347249
0.350883
0.354543
0.358249
0.362029
0.365897
0.369874
0.373973
0.378216
0.382623
0.387218
0.392024
0.39705
0.402334
0.407894
0.413699
0.419767
0.42615
0.432936
0.440306
0.448516
0.457799
0.468638
0.4825
0.506168
0.581299
0.792176
0.299774
0.300377
0.301023
0.301751
0.302629
0.303659
0.305394
0.307379
0.307987
0.309667
0.314569
0.313063
0.31511
0.317711
0.320487
0.323428
0.326518
0.329744
0.33308
0.336506
0.340001
0.343544
0.347125
0.350737
0.354375
0.358054
0.361795
0.365614
0.369529
0.373558
0.377717
0.382027
0.38651
0.391189
0.396089
0.401219
0.406618
0.412306
0.418256
0.424485
0.431053
0.438053
0.445677
0.4542
0.463896
0.475348
0.490358
0.517669
0.603391
0.803061
0.299778
0.30037
0.301031
0.301747
0.302564
0.303562
0.304749
0.306761
0.309084
0.309784
0.31169
0.316943
0.315451
0.31773
0.320527
0.323465
0.326546
0.329759
0.333077
0.336478
0.339945
0.343463
0.347018
0.350604
0.35422
0.357876
0.361588
0.365367
0.369231
0.373197
0.377283
0.381507
0.38589
0.390453
0.395222
0.400222
0.405462
0.410984
0.416809
0.422911
0.429312
0.436076
0.443305
0.451202
0.460066
0.470221
0.482376
0.498759
0.530653
0.626945
0.810996
0.29977
0.300375
0.301024
0.301754
0.302557
0.303482
0.304625
0.306
0.308333
0.311014
0.311836
0.313969
0.319342
0.318067
0.320543
0.323501
0.326579
0.329782
0.333087
0.336469
0.33991
0.343401
0.346931
0.35049
0.354078
0.357712
0.3614
0.365149
0.368971
0.372884
0.376905
0.381054
0.385349
0.389809
0.394459
0.399324
0.404429
0.409786
0.415438
0.421407
0.42767
0.434255
0.441227
0.448702
0.456894
0.466133
0.476802
0.489771
0.507821
0.545397
0.652412
0.816781
0.29977
0.300365
0.301028
0.301746
0.302561
0.303469
0.304527
0.305846
0.307444
0.310128
0.313149
0.314141
0.316484
0.321733
0.320875
0.323513
0.32661
0.32981
0.333105
0.336473
0.339895
0.34336
0.346862
0.350395
0.353956
0.357562
0.361226
0.36495
0.368741
0.372611
0.376578
0.380659
0.384876
0.389246
0.39379
0.398532
0.403498
0.408715
0.414197
0.419986
0.426108
0.432542
0.43932
0.446517
0.454255
0.462768
0.472421
0.483672
0.497593
0.517757
0.562238
0.679789
0.821018
0.29977
0.300366
0.301017
0.301748
0.302552
0.303471
0.304508
0.305725
0.307252
0.309106
0.312144
0.315449
0.316678
0.319201
0.32411
0.323839
0.326619
0.329837
0.333128
0.336486
0.339895
0.343339
0.346814
0.350319
0.353854
0.357431
0.361067
0.364766
0.368531
0.372368
0.376291
0.380316
0.384464
0.388753
0.393203
0.397837
0.402676
0.40775
0.413086
0.418699
0.424633
0.430917
0.437533
0.444519
0.451954
0.459977
0.468842
0.478955
0.49087
0.505919
0.52885
0.581573
0.70887
0.824606
0.299779
0.300365
0.301017
0.301737
0.302552
0.30346
0.304506
0.305699
0.307107
0.308874
0.311009
0.314364
0.317871
0.319412
0.322075
0.32648
0.326937
0.329842
0.33315
0.336505
0.339902
0.343333
0.346788
0.350265
0.353772
0.357322
0.360928
0.364598
0.368337
0.372147
0.376036
0.380015
0.384104
0.388323
0.39269
0.397226
0.401954
0.406898
0.412086
0.417548
0.423299
0.429387
0.435843
0.442652
0.449859
0.457552
0.465884
0.475135
0.485765
0.498446
0.514845
0.541394
0.60376
0.738971
0.827619
0.299781
0.300374
0.301017
0.301736
0.30254
0.303459
0.304493
0.305693
0.307071
0.308701
0.310733
0.31316
0.316756
0.320383
0.322303
0.32507
0.328858
0.330151
0.333152
0.336522
0.339916
0.343336
0.346776
0.350233
0.353711
0.357232
0.360811
0.364451
0.36816
0.371943
0.375803
0.379747
0.383788
0.387947
0.392241
0.396692
0.401319
0.406148
0.411201
0.41651
0.422105
0.428003
0.434254
0.440892
0.447908
0.455351
0.463323
0.471993
0.481672
0.492886
0.50646
0.524498
0.555711
0.62885
0.768765
0.829981
0.299783
0.300376
0.301024
0.301735
0.302538
0.303444
0.304489
0.305677
0.30706
0.308656
0.310535
0.312841
0.315546
0.319291
0.322971
0.325322
0.328169
0.331261
0.333451
0.33652
0.339929
0.343345
0.346774
0.350216
0.353673
0.357165
0.360714
0.364326
0.368004
0.371756
0.375588
0.379502
0.383507
0.387616
0.391847
0.396223
0.400762
0.405487
0.410422
0.415592
0.421029
0.426764
0.432818
0.439242
0.446074
0.45331
0.461009
0.469282
0.478323
0.488481
0.500364
0.514989
0.53511
0.572147
0.656255
0.795298
0.831483
0.299789
0.300378
0.301026
0.301742
0.302536
0.303441
0.304473
0.305671
0.307042
0.308639
0.310478
0.312621
0.315189
0.318141
0.321944
0.325629
0.32846
0.331344
0.333705
0.336807
0.339923
0.343353
0.346778
0.350208
0.35365
0.357121
0.360641
0.364222
0.36787
0.371591
0.375391
0.379276
0.38325
0.387321
0.391501
0.395812
0.400273
0.404907
0.409735
0.414782
0.420076
0.425648
0.431532
0.437751
0.444359
0.451398
0.45887
0.466845
0.475448
0.484899
0.495597
0.50825
0.524131
0.547006
0.591094
0.685647
0.813499
0.832217
0.299767
0.300383
0.301028
0.301743
0.302542
0.303438
0.304468
0.305652
0.307033
0.308618
0.310455
0.312553
0.314956
0.317754
0.320907
0.324695
0.328357
0.331685
0.334567
0.336207
0.340197
0.343343
0.346781
0.350207
0.353637
0.357092
0.36059
0.364141
0.367759
0.371449
0.375217
0.37907
0.383013
0.387051
0.391192
0.395449
0.399844
0.404397
0.409131
0.414068
0.419235
0.424658
0.430374
0.436416
0.44281
0.449613
0.456874
0.464601
0.472874
0.48184
0.491749
0.503059
0.516614
0.534007
0.56055
0.613047
0.71711
0.822638
0.832257
0.299962
0.300361
0.301033
0.301744
0.302542
0.303444
0.304464
0.305645
0.30701
0.308604
0.31043
0.312523
0.314876
0.317517
0.3205
0.323808
0.327526
0.331183
0.334971
0.337807
0.338785
0.343603
0.346768
0.350205
0.353632
0.357074
0.360555
0.364084
0.367672
0.37133
0.375067
0.378886
0.382796
0.386802
0.390909
0.395125
0.399464
0.403948
0.408599
0.413439
0.418492
0.423784
0.429346
0.435213
0.441423
0.448004
0.455015
0.462514
0.470516
0.479116
0.488483
0.498905
0.510921
0.525539
0.54484
0.576148
0.638485
0.749177
0.827215
0.832012
0.308292
0.300553
0.30101
0.301749
0.302544
0.303443
0.304468
0.305639
0.307001
0.308578
0.310412
0.312494
0.31484
0.317428
0.32027
0.323393
0.326821
0.330439
0.334122
0.338291
0.341048
0.341453
0.347013
0.350188
0.353624
0.357063
0.360531
0.364044
0.367608
0.371235
0.37494
0.378727
0.382603
0.386574
0.390648
0.394829
0.399125
0.403551
0.40813
0.412884
0.417837
0.423012
0.428438
0.434146
0.440173
0.446561
0.45334
0.460576
0.468331
0.476632
0.485592
0.495404
0.50641
0.519244
0.535133
0.556965
0.594255
0.667278
0.779309
0.829656
0.831473
0.382331
0.308815
0.301198
0.301726
0.302548
0.303444
0.304467
0.305643
0.306994
0.308566
0.310382
0.312472
0.314808
0.317386
0.320172
0.323176
0.326413
0.329929
0.333441
0.337144
0.341628
0.344274
0.344229
0.350418
0.353604
0.357051
0.360515
0.364014
0.367561
0.371165
0.374838
0.378592
0.382435
0.386371
0.390409
0.394555
0.398815
0.403197
0.407715
0.412395
0.417258
0.422329
0.427634
0.433201
0.439064
0.445262
0.451839
0.458831
0.466308
0.474341
0.482969
0.492326
0.50264
0.514314
0.528108
0.545545
0.570771
0.615369
0.698051
0.804394
0.830694
0.830722
0.503719
0.382706
0.309373
0.301909
0.302525
0.303448
0.304467
0.30564
0.306996
0.308558
0.310367
0.312437
0.314782
0.31735
0.320126
0.323073
0.326215
0.329541
0.333112
0.336515
0.340224
0.344966
0.347489
0.347142
0.353818
0.357027
0.360498
0.363993
0.367525
0.371112
0.37476
0.378482
0.382291
0.386194
0.390196
0.394305
0.398529
0.402872
0.407344
0.411961
0.416747
0.421726
0.426923
0.432364
0.438081
0.444108
0.450489
0.457268
0.464488
0.472224
0.480559
0.489547
0.499348
0.510231
0.522679
0.537613
0.557039
0.586711
0.639948
0.730274
0.820075
0.83077
0.830185
0.565437
0.504315
0.383088
0.309976
0.3027
0.303424
0.30447
0.30564
0.306992
0.308558
0.310356
0.31242
0.314742
0.317319
0.320087
0.323023
0.326108
0.32937
0.332748
0.336349
0.339635
0.343343
0.348296
0.350707
0.3502
0.357225
0.36047
0.363969
0.367499
0.37107
0.3747
0.378397
0.382173
0.386041
0.390009
0.394081
0.398266
0.402572
0.407004
0.411573
0.416294
0.421193
0.426293
0.431623
0.43721
0.443086
0.449288
0.455862
0.462858
0.470323
0.478341
0.487007
0.496394
0.506694
0.518228
0.531582
0.547888
0.569986
0.605302
0.668152
0.76345
0.827068
0.83067
0.829865
0.597922
0.566056
0.504932
0.383485
0.310635
0.303591
0.304446
0.305643
0.306991
0.308553
0.310355
0.312407
0.314723
0.317276
0.320053
0.322981
0.326055
0.329261
0.33261
0.336013
0.339615
0.342779
0.346495
0.351615
0.353936
0.35338
0.360651
0.363937
0.36747
0.371038
0.374652
0.378331
0.382081
0.385916
0.389847
0.393884
0.398031
0.402298
0.406691
0.411218
0.415888
0.42072
0.425737
0.430967
0.436438
0.442178
0.448223
0.454611
0.461392
0.468621
0.476352
0.484677
0.493709
0.503542
0.514407
0.526696
0.541122
0.559158
0.584824
0.627128
0.699266
0.793354
0.829345
0.830446
0.829633
0.617717
0.598645
0.566706
0.505596
0.383901
0.311365
0.304604
0.305618
0.306993
0.30855
0.310349
0.312403
0.314707
0.317254
0.320005
0.322943
0.326012
0.329206
0.332501
0.335907
0.339311
0.34289
0.345935
0.349674
0.354937
0.357179
0.356658
0.364102
0.367434
0.371003
0.374614
0.378277
0.382008
0.385815
0.389713
0.393713
0.397824
0.402051
0.406404
0.41089
0.415517
0.420295
0.425243
0.430386
0.435753
0.441373
0.447276
0.453501
0.460088
0.467092
0.474572
0.482592
0.491255
0.500692
0.511027
0.522542
0.535713
0.551428
0.571769
0.602073
0.652694
0.732155
0.81513
0.82986
0.830317
0.829423
0.633608
0.618553
0.599404
0.567417
0.506308
0.384341
0.312182
0.305763
0.306967
0.308552
0.310345
0.312395
0.314701
0.317236
0.319981
0.322893
0.325971
0.329162
0.332446
0.335802
0.339237
0.342624
0.346161
0.349102
0.35288
0.358271
0.360442
0.360016
0.367581
0.370963
0.374574
0.378232
0.381947
0.385735
0.389605
0.39357
0.397644
0.401833
0.406146
0.410589
0.415174
0.419906
0.424799
0.429869
0.435147
0.440658
0.446437
0.452514
0.45893
0.46573
0.472974
0.480728
0.489063
0.498099
0.50799
0.518898
0.531165
0.545381
0.562711
0.586148
0.622331
0.682007
0.76581
0.82538
0.829826
0.830251
0.82922
0.644955
0.634569
0.619427
0.600224
0.56819
0.507074
0.384814
0.313106
0.307098
0.308525
0.310346
0.31239
0.314691
0.317229
0.319961
0.322866
0.325917
0.329118
0.332402
0.335747
0.339138
0.342582
0.345938
0.349424
0.352286
0.356119
0.361622
0.363731
0.363449
0.371092
0.374529
0.378185
0.381896
0.385667
0.389517
0.393454
0.397492
0.401643
0.405916
0.410319
0.41486
0.419548
0.424392
0.429405
0.434606
0.440025
0.44569
0.451637
0.457899
0.464521
0.471551
0.479054
0.487105
0.495789
0.505241
0.515646
0.52721
0.540359
0.55583
0.575306
0.602811
0.646234
0.713957
0.79655
0.828686
0.829769
0.83022
0.829046
0.654312
0.646018
0.635571
0.620366
0.601112
0.569034
0.507893
0.385324
0.314159
0.308639
0.310318
0.31239
0.314685
0.317217
0.319952
0.322845
0.325889
0.329061
0.332355
0.335702
0.339085
0.342491
0.34593
0.349246
0.352689
0.355501
0.359401
0.364996
0.367051
0.366958
0.374639
0.378137
0.381843
0.38561
0.389442
0.393358
0.397367
0.401482
0.405716
0.410078
0.414576
0.419219
0.424018
0.42898
0.434121
0.43946
0.445028
0.450858
0.456984
0.463444
0.470287
0.477564
0.485349
0.493728
0.502798
0.512717
0.523708
0.536035
0.550231
0.567283
0.58964
0.622367
0.674048
0.747607
0.81779
0.829307
0.829659
0.830185
0.828903
0.662405
0.655472
0.647125
0.636642
0.621375
0.602075
0.569952
0.508759
0.385882
0.315365
0.310412
0.312362
0.314685
0.31721
0.319939
0.322834
0.325866
0.329031
0.332296
0.335654
0.339039
0.342439
0.345848
0.349271
0.352549
0.355968
0.358751
0.362732
0.368396
0.370407
0.37055
0.378227
0.38179
0.38555
0.389379
0.393276
0.397263
0.401348
0.405545
0.409867
0.414324
0.418923
0.423674
0.428588
0.433676
0.438952
0.444438
0.450165
0.456169
0.462487
0.46916
0.47624
0.483787
0.491882
0.500622
0.510123
0.520572
0.532239
0.545464
0.560923
0.580087
0.606236
0.645511
0.705235
0.781341
0.826731
0.829375
0.829608
0.830149
0.828732
0.669358
0.66366
0.656679
0.648304
0.637787
0.622465
0.60312
0.570937
0.509652
0.386492
0.316747
0.312433
0.314655
0.317208
0.319931
0.32282
0.325853
0.329007
0.332265
0.335593
0.338988
0.342396
0.345799
0.3492
0.352604
0.355862
0.359266
0.36204
0.366115
0.371823
0.373806
0.374224
0.381859
0.385492
0.389312
0.393206
0.397174
0.401236
0.405402
0.409686
0.414101
0.418657
0.423363
0.428229
0.433267
0.438487
0.443906
0.449547
0.455444
0.461634
0.468157
0.475059
0.482398
0.490239
0.498674
0.507817
0.517805
0.528862
0.541317
0.555613
0.572682
0.594675
0.625728
0.672689
0.738623
0.809213
0.828965
0.829314
0.829597
0.830137
0.82855
0.67542
0.670701
0.664963
0.657958
0.649562
0.639017
0.62364
0.604238
0.571967
0.510542
0.387167
0.31832
0.314701
0.317177
0.319928
0.32281
0.325838
0.328993
0.33224
0.335561
0.338928
0.342344
0.345757
0.349156
0.352544
0.355943
0.359194
0.362587
0.36537
0.369551
0.375283
0.377254
0.377983
0.385541
0.389249
0.393132
0.397096
0.401139
0.405282
0.409534
0.41391
0.418423
0.423085
0.427904
0.432891
0.438059
0.443419
0.44899
0.454797
0.460875
0.467264
0.474009
0.481159
0.488779
0.496943
0.505756
0.515351
0.525895
0.537656
0.551043
0.56665
0.585881
0.611589
0.648842
0.70353
0.773095
0.824394
0.829246
0.829252
0.829604
0.830132
0.828325
0.68079
0.676844
0.67209
0.666339
0.65932
0.650909
0.640333
0.624888
0.605401
0.572997
0.511388
0.387912
0.320089
0.317198
0.319896
0.322807
0.325827
0.328976
0.332225
0.335535
0.338896
0.342282
0.345706
0.349116
0.352507
0.355893
0.3593
0.362547
0.365935
0.368745
0.373043
0.37878
0.380759
0.381829
0.389275
0.393064
0.397015
0.401054
0.405176
0.409404
0.413748
0.418221
0.422839
0.427612
0.43255
0.437666
0.442971
0.448481
0.454213
0.460196
0.466468
0.473071
0.480056
0.487476
0.495404
0.503926
0.513163
0.52327
0.534454
0.547041
0.561542
0.57886
0.600971
0.631498
0.676055
0.736732
0.804049
0.828509
0.829192
0.829248
0.82962
0.830123
0.828082
0.685623
0.682289
0.678315
0.673555
0.667799
0.660772
0.652341
0.641717
0.626174
0.606555
0.573975
0.512164
0.388731
0.322044
0.31989
0.322774
0.325823
0.328965
0.332207
0.335519
0.338869
0.342249
0.345644
0.349063
0.352468
0.355861
0.359261
0.362678
0.365927
0.369314
0.37217
0.376592
0.382319
0.384325
0.385762
0.393066
0.396942
0.400965
0.405084
0.40929
0.413609
0.418049
0.422626
0.427354
0.432245
0.437309
0.44256
0.448012
0.45368
0.459585
0.465756
0.472236
0.479071
0.486315
0.494031
0.5023
0.511221
0.520936
0.531631
0.543559
0.557128
0.573028
0.592638
0.618526
0.65514
0.706951
0.771403
0.822673
0.82907
0.829157
0.829254
0.829641
0.830107
0.827833
0.690004
0.68719
0.683833
0.679859
0.675104
0.669351
0.66231
0.653832
0.643118
0.627435
0.607638
0.574858
0.512857
0.389624
0.324162
0.322741
0.325789
0.32896
0.332195
0.3355
0.338851
0.342222
0.345609
0.349001
0.352415
0.355825
0.359233
0.36265
0.36608
0.369335
0.372729
0.375647
0.380201
0.385902
0.387961
0.389784
0.396919
0.400887
0.404987
0.40919
0.413486
0.417901
0.422443
0.427128
0.431973
0.436988
0.442186
0.447581
0.453188
0.459025
0.465114
0.471489
0.478193
0.485279
0.492807
0.500848
0.509496
0.518866
0.529127
0.540502
0.553311
0.568074
0.585833
0.608474
0.639263
0.682918
0.740286
0.803499
0.828151
0.829033
0.829156
0.829266
0.829658
0.830082
0.827574
0.69398
0.691632
0.688801
0.68545
0.68149
0.676748
0.670988
0.663899
0.65532
0.644461
0.6286
0.608605
0.57563
0.513462
0.390574
0.326416
0.32573
0.328926
0.332189
0.335487
0.338831
0.342204
0.345582
0.348967
0.352353
0.355772
0.3592
0.362628
0.366065
0.36951
0.372778
0.376184
0.379182
0.383872
0.389537
0.391673
0.393897
0.400837
0.404903
0.409084
0.413377
0.417768
0.422284
0.426934
0.431735
0.436702
0.44185
0.44719
0.452737
0.45851
0.464528
0.470814
0.477407
0.484355
0.491715
0.499555
0.507957
0.517029
0.52691
0.5378
0.549974
0.563835
0.580143
0.600382
0.62699
0.663912
0.714237
0.775284
0.822813
0.828864
0.829016
0.82916
0.829274
0.829672
0.830055
0.827326
0.697605
0.695663
0.693303
0.690485
0.687155
0.683215
0.678473
0.672668
0.665468
0.656721
0.645677
0.629627
0.609441
0.576295
0.513999
0.391567
0.328781
0.328841
0.332154
0.335481
0.338818
0.342183
0.345563
0.348938
0.352318
0.355709
0.359146
0.362596
0.366048
0.369508
0.372972
0.376257
0.379684
0.382777
0.387607
0.393225
0.395466
0.398102
0.404825
0.408995
0.413263
0.417651
0.422142
0.426765
0.431529
0.436451
0.441549
0.446837
0.452327
0.458038
0.463987
0.470198
0.476698
0.483527
0.49074
0.4984
0.506586
0.515392
0.524946
0.535413
0.547037
0.56016
0.575341
0.593717
0.61722
0.648954
0.692702
0.748064
0.807092
0.828132
0.828859
0.829017
0.829165
0.829279
0.829687
0.830028
0.826972
0.700909
0.699339
0.697389
0.695047
0.692256
0.688953
0.685018
0.680231
0.674308
0.666926
0.65797
0.646733
0.630509
0.610157
0.576869
0.514471
0.392583
0.331238
0.332047
0.335445
0.338811
0.342169
0.345541
0.348918
0.352289
0.355674
0.359083
0.362543
0.36602
0.369497
0.372984
0.37647
0.379777
0.383235
0.386437
0.391408
0.396975
0.399349
0.4024
0.408886
0.413167
0.417528
0.422015
0.426613
0.431349
0.436233
0.441285
0.446521
0.451957
0.457607
0.463491
0.469631
0.476049
0.482779
0.489866
0.497369
0.505362
0.513934
0.523195
0.5333
0.544448
0.556941
0.571226
0.588158
0.609272
0.637049
0.675043
0.724722
0.783444
0.8245
0.828729
0.828845
0.829022
0.829165
0.829286
0.829706
0.830002
0.826556
0.703918
0.702688
0.701115
0.699187
0.696879
0.694121
0.690827
0.686844
0.681931
0.675815
0.668212
0.659044
0.647631
0.63126
0.61077
0.577367
0.514892
0.393605
0.333785
0.33532
0.338775
0.342161
0.345526
0.348896
0.352269
0.355645
0.359048
0.36248
0.365967
0.369474
0.37298
0.376497
0.380007
0.383343
0.38684
0.390167
0.395279
0.40079
0.403326
0.406793
0.413025
0.417425
0.421883
0.426476
0.431186
0.436041
0.441054
0.446242
0.451624
0.457218
0.46304
0.46911
0.475453
0.482096
0.489077
0.496445
0.504269
0.512631
0.521637
0.531419
0.54216
0.554109
0.567646
0.583446
0.602709
0.627418
0.66065
0.705185
0.759278
0.813253
0.828393
0.828742
0.828849
0.82902
0.829161
0.829296
0.829737
0.829959
0.826103
0.706654
0.705739
0.704508
0.702962
0.701073
0.698804
0.696058
0.692713
0.688596
0.683478
0.677132
0.66931
0.659954
0.648395
0.631902
0.6113
0.577803
0.515272
0.394623
0.33642
0.338638
0.342125
0.345518
0.34888
0.352246
0.355624
0.359019
0.362445
0.365903
0.369421
0.37296
0.3765
0.38005
0.383589
0.386959
0.390505
0.393971
0.399221
0.404677
0.407405
0.411283
0.417246
0.421774
0.426334
0.43104
0.435868
0.44085
0.445997
0.45133
0.456868
0.462631
0.468635
0.474905
0.481468
0.488356
0.49561
0.503288
0.511468
0.520246
0.529747
0.540128
0.551615
0.564519
0.579383
0.597206
0.619541
0.648928
0.688469
0.738112
0.794594
0.82638
0.82872
0.828744
0.82885
0.829014
0.829157
0.829323
0.82976
0.829893
0.825623
0.709142
0.708511
0.707599
0.7064
0.704897
0.703052
0.700797
0.697999
0.694509
0.690175
0.684818
0.678249
0.670236
0.660726
0.649047
0.632457
0.611764
0.57819
0.515617
0.395638
0.339137
0.341981
0.345481
0.348872
0.352229
0.3556
0.358996
0.362415
0.365868
0.369357
0.372909
0.376485
0.380061
0.383647
0.387217
0.390629
0.394236
0.397852