/*--------------------------------*- C++ -*----------------------------------*\
| =========                 |                                                 |
| \\      /  F ield         | OpenFOAM: The Open Source CFD Toolbox           |
|  \\    /   O peration     | Version:  v2012                                 |
|   \\  /    A nd           | Website:  www.openfoam.com                      |
|    \\/     M anipulation  |                                                 |
\*---------------------------------------------------------------------------*/
FoamFile
{
    version     2.0;
    format      ascii;
    class       volScalarField;
    location    "13380";
    object      T;
}
// * * * * * * * * * * * * * * * * * * * * * * * * * * * * * * * * * * * * * //

dimensions      [0 0 0 1 0 0 0];


internalField   nonuniform List<scalar> 
31383
(
275.708
275.689
275.088
275.691
274.992
274.39
275.695
275.004
274.21
273.604
275.699
275.02
274.237
273.328
272.713
275.703
275.035
274.27
273.376
272.327
271.699
275.706
275.049
274.299
273.43
272.403
271.184
270.541
275.71
275.063
274.326
273.476
272.483
271.296
269.871
269.214
275.713
275.074
274.351
273.519
272.551
271.408
270.027
268.356
267.69
275.715
275.085
274.372
273.557
272.612
271.501
270.178
268.568
266.61
265.93
275.718
275.094
274.392
273.591
272.667
271.585
270.303
268.767
266.89
264.605
263.891
275.72
275.103
274.409
273.621
272.715
271.66
270.414
268.928
267.144
264.969
262.345
261.452
275.722
275.11
274.425
273.648
272.758
271.725
270.511
269.071
267.349
265.287
262.797
259.846
258.634
275.724
275.118
274.439
273.672
272.796
271.782
270.597
269.196
267.529
265.542
263.185
260.39
257.145
255.422
275.726
275.124
274.452
273.694
272.83
271.834
270.671
269.305
267.687
265.765
263.497
260.851
257.783
254.293
251.651
275.728
275.13
274.464
273.714
272.861
271.879
270.738
269.4
267.824
265.959
263.768
261.224
258.319
255.024
251.335
247.601
275.729
275.135
274.475
273.733
272.889
271.92
270.797
269.486
267.943
266.129
263.999
261.544
258.752
255.634
252.16
248.295
243.262
275.73
275.14
274.485
273.749
272.915
271.958
270.851
269.561
268.049
266.275
264.208
261.818
259.124
256.127
252.844
249.218
245.202
238.725
275.731
275.145
274.494
273.764
272.938
271.992
270.9
269.629
268.143
266.406
264.385
262.065
259.442
256.548
253.395
249.975
246.225
242.093
234.12
275.733
275.149
274.502
273.778
272.959
272.023
270.945
269.692
268.228
266.521
264.542
262.275
259.726
256.911
253.866
250.585
247.053
243.214
238.993
229.54
275.734
275.152
274.509
273.79
272.978
272.052
270.985
269.748
268.306
266.624
264.682
262.46
259.971
257.233
254.271
251.105
247.719
244.108
240.214
235.924
225.003
275.734
275.156
274.516
273.801
272.995
272.077
271.022
269.799
268.377
266.722
264.806
262.627
260.184
257.511
254.63
251.552
248.286
244.828
241.171
237.246
232.899
220.482
275.735
275.159
274.522
273.811
273.011
272.1
271.055
269.846
268.44
266.808
264.923
262.774
260.379
257.753
254.941
251.947
248.774
245.441
241.942
238.264
234.327
229.926
215.994
275.736
275.161
274.527
273.82
273.025
272.121
271.085
269.887
268.498
266.886
265.027
262.911
260.549
257.974
255.21
252.29
249.205
245.968
242.599
239.084
235.403
231.465
227.009
211.564
275.737
275.164
274.532
273.829
273.038
272.14
271.111
269.925
268.55
266.957
265.121
263.035
260.707
258.167
255.456
252.588
249.58
246.434
243.163
239.782
236.269
232.598
228.665
224.145
207.208
275.737
275.166
274.537
273.836
273.049
272.157
271.136
269.959
268.597
267.02
265.205
263.146
260.85
258.346
255.672
252.858
249.906
246.84
243.662
240.382
237.006
233.508
229.854
225.928
221.331
202.933
275.738
275.168
274.541
273.843
273.06
272.173
271.158
269.99
268.64
267.078
265.283
263.245
260.979
258.508
255.871
253.095
250.2
247.192
244.096
240.911
237.639
234.282
230.807
227.17
223.242
218.559
198.738
275.738
275.17
274.545
273.85
273.07
272.187
271.178
270.018
268.679
267.131
265.353
263.337
261.093
258.654
256.05
253.314
250.459
247.509
244.474
241.372
238.198
234.947
231.616
228.165
224.54
220.596
215.816
194.617
275.739
275.172
274.548
273.855
273.079
272.2
271.197
270.044
268.714
267.178
265.416
263.419
261.2
258.784
256.213
253.511
250.696
247.788
244.812
241.774
238.685
235.534
232.312
229.01
225.577
221.949
217.982
213.09
190.549
275.739
275.174
274.551
273.861
273.087
272.212
271.214
270.068
268.746
267.221
265.473
263.494
261.294
258.905
256.358
253.689
250.911
248.044
245.111
242.133
239.109
236.046
232.925
229.735
226.455
223.028
219.392
215.396
210.377
186.499
275.74
275.175
274.554
273.866
273.094
272.223
271.229
270.089
268.775
267.26
265.525
263.562
261.382
259.012
256.492
253.849
251.105
248.275
245.384
242.45
239.488
236.492
233.461
230.374
227.21
223.941
220.512
216.864
212.833
207.668
182.413
275.74
275.177
274.557
273.87
273.101
272.233
271.243
270.108
268.801
267.296
265.572
263.623
261.46
259.111
256.612
253.996
251.279
248.484
245.63
242.739
239.823
236.889
233.927
230.932
227.875
224.725
221.46
218.026
214.361
210.29
204.957
178.296
275.741
275.178
274.56
273.875
273.108
272.242
271.256
270.126
268.825
267.328
265.615
263.679
261.531
259.2
256.722
254.128
251.439
248.671
245.853
243
240.127
237.24
234.343
231.419
228.455
225.415
222.273
219.008
215.566
211.881
207.762
202.236
174.274
275.741
275.179
274.562
273.879
273.114
272.251
271.268
270.142
268.847
267.358
265.654
263.73
261.596
259.281
256.821
254.25
251.583
248.844
246.053
243.236
240.401
237.559
234.71
231.852
228.962
226.019
222.988
219.85
216.582
213.128
209.419
205.244
199.496
170.406
275.741
275.18
274.564
273.882
273.119
272.259
271.279
270.157
268.868
267.385
265.69
263.776
261.656
259.356
256.913
254.359
251.716
248.999
246.238
243.448
240.65
237.846
235.042
232.234
229.412
226.545
223.614
220.59
217.452
214.178
210.71
206.973
202.734
196.729
166.563
275.742
275.181
274.567
273.886
273.124
272.266
271.289
270.172
268.887
267.41
265.722
263.818
261.709
259.423
256.996
254.46
251.835
249.142
246.404
243.643
240.873
238.106
235.341
232.579
229.809
227.012
224.16
221.237
218.217
215.077
211.794
208.308
204.538
200.225
193.923
162.646
275.742
275.182
274.569
273.889
273.129
272.273
271.299
270.185
268.904
267.433
265.753
263.857
261.759
259.484
257.071
254.552
251.945
249.271
246.557
243.82
241.079
238.34
235.612
232.89
230.168
227.424
224.643
221.803
218.887
215.867
212.722
209.427
205.92
202.112
197.712
191.062
158.624
275.742
275.184
274.57
273.892
273.134
272.279
271.308
270.197
268.92
267.454
265.781
263.893
261.804
259.54
257.14
254.635
252.046
249.391
246.695
243.982
241.265
238.555
235.857
233.172
230.49
227.796
225.07
222.303
219.471
216.558
213.537
210.384
207.075
203.542
199.691
195.192
188.123
154.47
275.743
275.184
274.572
273.895
273.138
272.285
271.316
270.208
268.936
267.474
265.807
263.926
261.845
259.592
257.203
254.711
252.137
249.499
246.823
244.129
241.435
238.75
236.081
233.426
230.782
228.129
225.454
222.744
219.988
217.162
214.25
211.224
208.061
204.733
201.172
197.272
192.657
185.08
150.155
275.693
275.187
274.574
273.898
273.142
272.291
271.324
270.218
268.949
267.493
265.831
263.957
261.884
259.639
257.26
254.781
252.22
249.598
246.939
244.265
241.591
238.93
236.285
233.659
231.046
228.432
225.8
223.141
220.443
217.695
214.872
211.958
208.925
205.749
202.401
198.807
194.852
190.101
181.911
145.65
275.741
275.012
274.578
273.9
273.146
272.296
271.331
270.228
268.962
267.51
265.853
263.986
261.92
259.683
257.314
254.844
252.297
249.688
247.045
244.388
241.734
239.093
236.472
233.871
231.288
228.706
226.113
223.498
220.853
218.165
215.421
212.599
209.681
206.638
203.446
200.075
196.445
192.426
187.516
178.589
140.933
275.739
275.175
274.244
273.905
273.149
272.301
271.338
270.237
268.974
267.526
265.874
264.012
261.953
259.724
257.363
254.904
252.366
249.771
247.142
244.501
241.865
239.243
236.643
234.066
231.508
228.957
226.396
223.821
221.221
218.587
215.905
213.165
210.341
207.415
204.361
201.151
197.753
194.083
189.991
184.895
175.085
135.985
275.722
275.168
274.544
273.378
273.156
272.306
271.345
270.246
268.986
267.541
265.893
264.037
261.984
259.762
257.409
254.958
252.431
249.847
247.231
244.604
241.984
239.381
236.8
234.244
231.711
229.185
226.656
224.114
221.555
218.966
216.34
213.663
210.922
208.095
205.16
202.091
198.861
195.433
191.717
187.541
182.226
171.367
130.816
275.732
275.11
274.529
273.837
272.394
272.314
271.35
270.255
268.997
267.555
265.911
264.06
262.013
259.798
257.452
255.009
252.491
249.917
247.312
244.699
242.093
239.506
236.944
234.408
231.896
229.395
226.892
224.382
221.856
219.31
216.73
214.11
211.435
208.692
205.859
202.913
199.827
196.574
193.113
189.345
185.072
179.497
167.398
125.5
275.742
275.145
274.421
273.813
273.043
271.27
271.36
270.262
269.008
267.568
265.928
264.081
262.039
259.831
257.491
255.057
252.547
249.982
247.388
244.786
242.194
239.621
237.076
234.559
232.066
229.587
227.11
224.626
222.133
219.621
217.084
214.511
211.894
209.219
206.472
203.63
200.671
197.567
194.288
190.79
186.964
182.578
176.693
163.14
120.209
275.743
275.183
274.492
273.645
273.006
272.143
269.982
270.273
269.017
267.582
265.944
264.101
262.064
259.861
257.528
255.101
252.599
250.043
247.458
244.866
242.286
239.727
237.196
234.696
232.223
229.764
227.308
224.851
222.385
219.906
217.404
214.875
212.306
209.691
207.013
204.261
201.408
198.434
195.309
192.001
188.461
184.568
180.051
173.799
158.563
115.204
275.745
275.19
274.567
273.763
272.766
272.09
271.118
268.508
269.029
267.593
265.961
264.121
262.088
259.89
257.563
255.142
252.647
250.099
247.523
244.941
242.371
239.824
237.307
234.822
232.366
229.927
227.492
225.057
222.618
220.166
217.698
215.204
212.68
210.114
207.497
204.816
202.055
199.191
196.199
193.05
189.71
186.123
182.154
177.483
170.784
153.658
110.743
275.745
275.195
274.582
273.885
272.942
271.766
271.046
269.945
266.842
267.608
265.973
264.14
262.111
259.917
257.595
255.18
252.693
250.152
247.584
245.01
242.45
239.913
237.408
234.937
232.497
230.075
227.66
225.247
222.83
220.406
217.966
215.506
213.019
210.498
207.932
205.312
202.625
199.854
196.976
193.964
190.789
187.413
183.774
179.718
174.864
167.601
148.475
107.365
275.745
275.196
274.594
273.911
273.123
272.013
270.621
269.851
268.602
265.021
265.991
264.156
262.134
259.943
257.626
255.217
252.736
250.201
247.64
245.075
242.523
239.997
237.502
235.043
232.617
230.211
227.814
225.421
223.026
220.625
218.213
215.782
213.329
210.846
208.326
205.758
203.134
200.438
197.656
194.761
191.728
188.524
185.108
181.41
177.252
172.182
164.205
143.167
105.149
275.745
275.196
274.597
273.931
273.164
272.265
270.955
269.313
268.484
267.069
263.092
264.177
262.152
259.97
257.656
255.251
252.775
250.248
247.694
245.136
242.592
240.074
237.589
235.141
232.728
230.336
227.956
225.581
223.207
220.827
218.439
216.036
213.613
211.164
208.683
206.161
203.59
200.96
198.255
195.459
192.546
189.488
186.252
182.792
179.026
174.751
169.424
160.558
137.929
103.718
275.745
275.197
274.598
273.937
273.195
272.324
271.292
269.748
267.827
266.926
265.336
261.122
262.178
259.99
257.686
255.284
252.814
250.291
247.744
245.193
242.657
240.147
237.671
235.232
232.83
230.451
228.085
225.727
223.372
221.013
218.647
216.269
213.874
211.455
209.009
206.528
204.004
201.428
198.789
196.073
193.262
190.329
187.244
183.972
180.461
176.618
172.205
166.571
156.631
132.748
102.697
275.746
275.197
274.599
273.94
273.205
272.369
271.374
270.182
268.372
266.165
265.17
263.41
259.161
260.022
257.709
255.318
252.85
250.333
247.791
245.247
242.718
240.215
237.747
235.318
232.925
230.557
228.205
225.861
223.523
221.184
218.839
216.484
214.113
211.724
209.308
206.863
204.38
201.852
199.268
196.62
193.891
191.062
188.107
184.992
181.68
178.113
174.18
169.605
163.599
152.399
127.566
101.962
275.746
275.198
274.601
273.942
273.21
272.383
271.434
270.291
268.914
266.82
264.351
263.225
261.317
257.235
257.746
255.343
252.887
250.373
247.837
245.298
242.775
240.279
237.819
235.397
233.013
230.656
228.315
225.985
223.662
221.34
219.015
216.681
214.334
211.97
209.584
207.17
204.723
202.236
199.702
197.111
194.452
191.707
188.859
185.878
182.731
179.374
175.742
171.707
166.939
160.461
147.837
122.428
101.428
275.746
275.198
274.602
273.945
273.213
272.391
271.454
270.37
269.053
267.468
265.096
262.423
261.116
259.093
255.349
255.388
252.915
250.413
247.88
245.346
242.829
240.34
237.887
235.472
233.097
230.748
228.417
226.099
223.79
221.483
219.176
216.862
214.537
212.197
209.836
207.452
205.038
202.588
200.097
197.555
194.954
192.281
189.52
186.651
183.642
180.458
177.05
173.345
169.189
164.192
157.096
142.924
117.406
100.98
275.746
275.199
274.603
273.947
273.217
272.395
271.465
270.397
269.154
267.641
265.831
263.224
260.424
258.881
256.781
253.495
252.968
250.444
247.923
245.393
242.881
240.397
237.951
235.543
233.175
230.835
228.513
226.205
223.908
221.615
219.324
217.028
214.724
212.406
210.07
207.712
205.327
202.911
200.457
197.959
195.408
192.795
190.108
187.329
184.435
181.396
178.17
174.705
170.915
166.618
161.346
153.458
137.675
112.623
100.604
275.746
275.199
274.604
273.949
273.22
272.401
271.471
270.411
269.188
267.764
266.039
264.005
261.236
258.382
256.559
254.415
251.662
250.505
247.956
245.44
242.93
240.452
238.011
235.61
233.249
230.916
228.603
226.305
224.017
221.737
219.46
217.18
214.895
212.597
210.284
207.951
205.593
203.208
200.787
198.328
195.822
193.261
190.634
187.931
185.131
182.21
179.136
175.864
172.334
168.445
163.981
158.377
149.506
132.186
108.258
100.309
275.746
275.199
274.604
273.95
273.223
272.406
271.478
270.419
269.206
267.806
266.183
264.247
262.009
259.162
256.312
254.179
252.013
249.838
248.027
245.475
242.98
240.505
238.069
235.674
233.319
230.994
228.688
226.398
224.12
221.851
219.586
217.321
215.051
212.773
210.481
208.171
205.839
203.48
201.091
198.666
196.199
193.684
191.111
188.47
185.748
182.924
179.974
176.861
173.536
169.932
165.928
161.266
155.237
145.213
126.67
104.645
100.119
275.746
275.199
274.605
273.951
273.225
272.41
271.486
270.429
269.217
267.829
266.234
264.406
262.278
259.872
257.027
254.219
251.751
249.598
248.008
245.556
243.018
240.558
238.124
235.735
233.385
231.067
228.768
226.486
224.217
221.957
219.703
217.45
215.196
212.934
210.662
208.373
206.065
203.732
201.371
198.977
196.545
194.07
191.544
188.957
186.299
183.557
180.708
177.725
174.568
171.183
167.492
163.354
158.453
151.862
140.56
121.243
102.303
100.021
275.746
275.2
274.606
273.952
273.227
272.412
271.491
270.438
269.23
267.843
266.263
264.467
262.446
260.161
257.632
254.85
252.107
249.303
247.194
246.162
243.109
240.597
238.18
235.793
233.449
231.136
228.844
226.569
224.308
222.057
219.812
217.571
215.329
213.083
210.827
208.559
206.272
203.964
201.629
199.264
196.864
194.424
191.939
189.4
186.799
184.122
181.357
178.479
175.458
172.252
168.799
165.008
160.709
155.523
148.195
135.528
115.925
101.167
100.005
275.747
275.2
274.606
273.953
273.228
272.415
271.494
270.445
269.242
267.859
266.279
264.501
262.516
260.329
257.932
255.324
252.646
249.957
246.858
244.823
244.29
240.7
238.222
235.851
233.51
231.203
228.916
226.648
224.394
222.151
219.915
217.684
215.453
213.22
210.98
208.729
206.463
204.176
201.867
199.528
197.157
194.751
192.302
189.805
187.252
184.633
181.936
179.146
176.235
173.172
169.91
166.377
162.469
157.981
152.432
144.184
130.13
110.961
100.607
100.023
275.776
275.205
274.607
273.954
273.23
272.417
271.498
270.45
269.251
267.874
266.299
264.52
262.554
260.406
258.092
255.625
252.971
250.419
247.759
244.435
242.497
242.382
238.336
235.895
233.571
231.266
228.986
226.723
224.476
222.24
220.012
217.79
215.57
213.348
211.121
208.886
206.637
204.372
202.084
199.771
197.428
195.051
192.636
190.176
187.666
185.098
182.46
179.74
176.92
173.974
170.863
167.536
163.912
159.865
155.148
149.114
139.792
124.518
106.671
100.31
100.074
275.869
275.308
274.615
273.955
273.231
272.419
271.501
270.455
269.257
267.885
266.317
264.543
262.576
260.448
258.173
255.771
253.26
250.588
248.165
245.538
242.048
240.225
240.428
236.02
233.617
231.33
229.052
226.795
224.554
222.325
220.105
217.89
215.679
213.467
211.252
209.031
206.798
204.551
202.284
199.994
197.677
195.328
192.943
190.518
188.046
185.521
182.935
180.276
177.53
174.679
171.691
168.526
165.124
161.393
157.182
152.188
145.508
134.998
119.032
103.342
100.184
100.151
275.865
275.599
274.811
273.969
273.232
272.42
271.503
270.459
269.263
267.892
266.33
264.565
262.602
260.472
258.219
255.856
253.388
250.856
248.193
245.898
243.316
239.706
238.001
238.411
233.752
231.378
229.119
226.864
224.629
222.406
220.193
217.986
215.782
213.58
211.375
209.165
206.947
204.716
202.468
200.2
197.906
195.583
193.226
190.832
188.395
185.909
183.369
180.763
178.081
175.306
172.419
169.384
166.156
162.667
158.81
154.403
149.048
141.556
129.814
113.784
101.366
100.172
100.199
275.88
275.544
275.323
274.277
273.252
272.422
271.505
270.462
269.268
267.9
266.34
264.58
262.628
260.502
258.245
255.904
253.475
250.961
248.438
245.804
243.64
241.105
237.415
235.818
236.33
231.524
229.168
226.933
224.7
222.483
220.276
218.076
215.881
213.686
211.491
209.292
207.085
204.868
202.637
200.388
198.116
195.817
193.487
191.122
188.717
186.267
183.766
181.207
178.58
175.871
173.064
170.136
167.047
163.747
160.157
156.15
151.507
145.663
137.21
124.335
108.839
100.509
100.184
100.219
275.859
275.584
275.204
275.037
273.694
272.451
271.507
270.464
269.272
267.906
266.348
264.591
262.644
260.53
258.277
255.931
253.524
251.048
248.517
246.025
243.441
241.405
238.912
235.174
233.667
234.204
229.324
226.985
224.772
222.557
220.356
218.163
215.974
213.787
211.6
209.411
207.215
205.01
202.794
200.561
198.309
196.032
193.727
191.389
189.014
186.596
184.132
181.614
179.035
176.384
173.645
170.801
167.826
164.676
161.292
157.582
153.397
148.454
141.969
132.436
118.806
104.735
100.234
100.21
100.227
275.837
275.53
275.265
274.842
274.737
273.052
271.545
270.467
269.274
267.91
266.356
264.602
262.658
260.549
258.308
255.966
253.552
251.098
248.601
246.078
243.634
241.116
239.203
236.741
232.973
231.545
232.052
227.151
224.825
222.632
220.432
218.245
216.063
213.884
211.704
209.523
207.337
205.143
202.939
200.721
198.486
196.229
193.947
191.634
189.287
186.9
184.469
181.989
179.452
176.851
174.172
171.4
168.514
165.485
162.264
158.781
154.93
150.531
145.181
137.903
127.25
113.472
101.932
100.173
100.224
100.23
275.814
275.468
275.179
274.92
274.454
274.42
272.336
270.516
269.278
267.914
266.361
264.611
262.67
260.564
258.329
255.998
253.589
251.126
248.65
246.158
243.662
241.278
238.837
237.033
234.59
230.805
229.449
229.888
225.002
222.686
220.51
218.324
216.148
213.975
211.804
209.63
207.452
205.268
203.075
200.87
198.65
196.411
194.149
191.859
189.538
187.18
184.78
182.334
179.836
177.278
174.651
171.942
169.132
166.199
163.108
159.803
156.203
152.184
147.513
141.62
133.415
121.781
108.489
100.666
100.177
100.231
100.23
275.796
275.399
275.077
274.803
274.545
274.038
274.081
271.531
269.34
267.918
266.365
264.617
262.68
260.578
258.345
256.02
253.623
251.164
248.679
246.206
243.736
241.283
238.967
236.607
234.891
232.457
228.666
227.374
227.718
222.873
220.566
218.404
216.229
214.063
211.898
209.732
207.562
205.386
203.203
201.009
198.802
196.579
194.335
192.066
189.768
187.436
185.066
182.652
180.189
177.671
175.09
172.434
169.69
166.837
163.849
160.686
157.283
153.546
149.323
144.284
137.707
128.482
116.334
104.3
100.263
100.185
100.233
100.223
275.779
275.345
274.963
274.66
274.397
274.137
273.594
273.714
270.619
267.995
266.37
264.622
262.687
260.589
258.36
256.037
253.646
251.199
248.718
246.234
243.783
241.35
238.948
236.704
234.418
232.767
230.335
226.553
225.318
225.54
220.764
218.462
216.312
214.147
211.989
209.829
207.667
205.499
203.325
201.141
198.945
196.735
194.507
192.257
189.98
187.672
185.329
182.945
180.515
178.033
175.493
172.885
170.198
167.414
164.511
161.46
158.213
154.694
150.791
146.309
140.778
133.381
123.181
111.102
101.587
100.188
100.2
100.236
100.21
275.761
275.293
274.871
274.5
274.213
273.957
273.695
273.125
273.316
269.582
266.464
264.627
262.693
260.597
258.372
256.053
253.664
251.223
248.754
246.273
243.81
241.395
239.008
236.663
234.486
232.258
230.658
228.22
224.462
223.276
223.355
218.67
216.372
214.232
212.075
209.922
207.766
205.607
203.44
201.265
199.08
196.881
194.666
192.432
190.175
187.889
185.57
183.214
180.815
178.367
175.864
173.299
170.661
167.937
165.109
162.149
159.024
155.677
152.02
147.917
143.08
136.925
128.6
117.734
106.308
100.486
100.179
100.207
100.239
100.197
275.745
275.242
274.785
274.371
274.006
273.733
273.482
273.222
272.643
272.88
268.404
264.741
262.699
260.603
258.381
256.066
253.681
251.242
248.779
246.311
243.851
241.421
239.049
236.714
234.426
232.303
230.126
228.563
226.111
222.394
221.246
221.162
216.59
214.294
212.162
210.011
207.862
205.709
203.551
201.384
199.208
197.019
194.816
192.595
190.355
188.088
185.792
183.461
181.09
178.674
176.207
173.68
171.087
168.415
165.649
162.769
159.743
156.531
153.066
149.243
144.88
139.571
132.661
123.406
112.415
102.644
100.214
100.186
100.211
100.239
100.185
275.73
275.195
274.701
274.25
273.839
273.478
273.216
272.976
272.729
272.165
272.401
267.076
262.833
260.61
258.387
256.076
253.695
251.26
248.797
246.335
243.887
241.461
239.074
236.751
234.469
232.227
230.149
228.018
226.48
224.009
220.343
219.224
218.963
214.522
212.226
210.101
207.953
205.808
203.656
201.497
199.329
197.15
194.957
192.749
190.521
188.272
185.996
183.688
181.343
178.956
176.521
174.031
171.478
168.853
166.143
163.33
160.389
157.286
153.971
150.364
146.336
141.617
135.712
127.936
117.996
107.408
100.748
100.18
100.194
100.211
100.237
100.174
275.716
275.152
274.625
274.133
273.683
273.272
272.915
272.669
272.451
272.237
271.711
271.875
265.597
260.764
258.395
256.083
253.705
251.274
248.816
246.354
243.911
241.497
239.113
236.774
234.501
232.262
230.058
228.02
225.932
224.407
221.913
218.309
217.206
216.759
212.465
210.166
208.046
205.901
203.757
201.605
199.445
197.274
195.091
192.893
190.678
188.443
186.184
183.897
181.575
179.215
176.81
174.354
171.839
169.256
166.595
163.84
160.972
157.962
154.767
151.329
147.553
143.25
138.062
131.434
122.788
112.681
103.274
100.247
100.186
100.194
100.212
100.236
100.161
275.704
275.112
274.554
274.027
273.533
273.08
272.67
272.325
272.108
271.931
271.772
271.297
271.298
263.982
258.569
256.091
253.713
251.285
248.831
246.373
243.93
241.522
239.149
236.813
234.522
232.291
230.085
227.915
225.914
223.865
222.342
219.822
216.288
215.19
214.549
210.416
208.113
205.997
203.853
201.709
199.556
197.393
195.218
193.03
190.826
188.603
186.359
184.089
181.789
179.453
177.076
174.65
172.17
169.627
167.01
164.308
161.502
158.57
155.478
152.175
148.589
144.596
139.92
134.144
126.693
117.422
107.622
100.929
100.177
100.19
100.194
100.211
100.235
100.145
275.694
275.078
274.49
273.93
273.398
272.898
272.445
272.047
271.731
271.56
271.445
271.354
270.929
270.674
262.255
256.285
253.721
251.293
248.842
246.389
243.95
241.54
239.174
236.848
234.561
232.31
230.11
227.935
225.797
223.829
221.814
220.284
217.735
214.279
213.174
212.335
208.374
206.065
203.951
201.808
199.662
197.507
195.34
193.16
190.966
188.754
186.523
184.268
181.986
179.672
177.319
174.923
172.474
169.968
167.392
164.737
161.987
159.122
156.116
152.926
149.493
145.727
141.436
136.28
129.794
121.541
112.136
103.326
100.259
100.182
100.189
100.193
100.212
100.234
100.125
275.685
275.048
274.434
273.842
273.274
272.733
272.231
271.791
271.428
271.163
271.056
271.013
270.988
270.605
270.01
260.441
253.934
251.302
248.851
246.401
243.967
241.561
239.193
236.873
234.596
232.348
230.127
227.957
225.809
223.701
221.762
219.777
218.231
215.653
212.28
211.154
210.119
206.337
204.021
201.908
199.763
197.616
195.456
193.285
191.099
188.897
186.677
184.436
182.169
179.874
177.544
175.172
172.754
170.28
167.743
165.131
162.431
159.627
156.693
153.598
150.292
146.703
142.695
138.009
132.256
124.976
116.211
107.08
100.892
100.172
100.183
100.188
100.193
100.213
100.233
100.099
275.677
275.021
274.384
273.764
273.162
272.583
272.039
271.55
271.149
270.847
270.65
270.612
270.64
270.674
270.321
269.321
258.565
251.532
248.86
246.409
243.978
241.577
239.213
236.892
234.62
232.382
230.165
227.972
225.827
223.705
221.625
219.712
217.751
216.182
213.576
210.289
209.129
207.9
204.305
201.98
199.867
197.719
195.568
193.404
191.227
189.034
186.824
184.594
182.341
180.061
177.75
175.402
173.01
170.567
168.065
165.493
162.839
160.088
157.219
154.205
151.004
147.56
143.769
139.433
134.245
127.781
119.783
110.957
102.863
100.243
100.172
100.182
100.188
100.193
100.214
100.232
100.077
275.669
274.996
274.339
273.695
273.064
272.449
271.865
271.335
270.888
270.555
270.331
270.207
270.232
270.321
270.403
270.07
268.619
256.644
249.104
246.419
243.988
241.589
239.23
236.913
234.639
232.406
230.199
228.009
225.84
223.719
221.62
219.566
217.675
215.733
214.134
211.501
208.302
207.096
205.679
202.276
199.94
197.825
195.674
193.519
191.349
189.165
186.963
184.744
182.503
180.237
177.942
175.614
173.246
170.831
168.36
165.824
163.213
160.511
157.7
154.756
151.646
148.319
144.701
140.637
135.874
130.067
122.844
114.491
105.955
100.681
100.17
100.174
100.181
100.187
100.194
100.215
100.229
100.057
275.662
274.974
274.299
273.634
272.976
272.33
271.71
271.141
270.657
270.283
270.032
269.889
269.83
269.909
270.048
270.168
269.846
267.917
254.682
246.672
243.997
241.599
239.242
236.929
234.66
232.425
230.222
228.042
225.876
223.729
221.63
219.552
217.522
215.65
213.723
212.087
209.43
206.319
205.054
203.458
200.249
197.901
195.783
193.627
191.466
189.289
187.097
184.886
182.656
180.402
178.122
175.811
173.464
171.073
168.631
166.129
163.555
160.898
158.14
155.259
152.227
149.002
145.522
141.671
137.242
131.945
125.422
117.593
109.282
102.069
100.208
100.168
100.173
100.18
100.188
100.195
100.215
100.225
100.035
275.656
274.954
274.263
273.578
272.898
272.224
271.572
270.969
270.451
270.043
269.755
269.587
269.515
269.51
269.632
269.812
269.962
269.645
267.219
252.684
244.256
241.608
239.252
236.942
234.677
232.446
230.241
228.065
225.908
223.764
221.637
219.558
217.5
215.491
213.635
211.717
210.04
207.363
204.337
203.002
201.237
198.223
195.86
193.739
191.577
189.409
187.225
185.023
182.802
180.559
178.291
175.995
173.665
171.296
168.88
166.408
163.869
161.253
158.543
155.719
152.756
149.618
146.255
142.575
138.408
133.514
127.573
120.356
112.347
104.434
100.44
100.166
100.168
100.172
100.181
100.188
100.194
100.214
100.222
100.012
275.65
274.936
274.231
273.529
272.827
272.13
271.449
270.816
270.268
269.831
269.513
269.309
269.212
269.197
269.237
269.394
269.606
269.779
269.46
266.527
250.656
241.868
239.261
236.952
234.689
232.463
230.262
228.084
225.931
223.796
221.671
219.562
217.501
215.461
213.472
211.628
209.713
207.991
205.297
202.353
200.939
199.013
196.198
193.818
191.692
189.524
187.348
185.154
182.942
180.708
178.452
176.169
173.854
171.503
169.109
166.664
164.158
161.578
158.911
156.14
153.238
150.177
146.912
143.372
139.418
134.844
129.376
122.732
115.113
107.225
101.211
100.173
100.167
100.168
100.172
100.181
100.187
100.194
100.215
100.217
99.9866
275.645
274.92
274.202
273.485
272.765
272.045
271.34
270.681
270.106
269.644
269.3
269.067
268.934
268.895
268.926
269
269.185
269.423
269.616
269.291
265.838
248.603
239.518
236.961
234.7
232.476
230.28
228.105
225.95
223.818
221.702
219.595
217.502
215.457
213.433
211.461
209.626
207.71
205.939
203.234
200.366
198.864
196.784
194.173
191.773
189.64
187.465
185.28
183.076
180.852
178.605
176.333
174.032
171.697
169.322
166.901
164.422
161.876
159.249
156.523
153.679
150.686
147.507
144.084
140.304
135.989
130.905
124.769
117.549
109.905
102.776
100.254
100.163
100.166
100.168
100.173
100.18
100.186
100.195
100.214
100.211
99.9611
275.64
274.907
274.178
273.446
272.71
271.97
271.243
270.561
269.963
269.478
269.112
268.855
268.693
268.616
268.622
268.69
268.793
269
269.26
269.467
269.132
265.147
246.526
237.211
234.709
232.487
230.293
228.123
225.971
223.836
221.724
219.625
217.533
215.455
213.424
211.414
209.459
207.629
205.706
203.884
201.172
198.374
196.779
194.547
192.147
189.724
187.584
185.399
183.204
180.989
178.752
176.489
174.2
171.879
169.521
167.119
164.666
162.15
159.558
156.875
154.081
151.15
148.048
144.725
141.089
136.988
132.218
126.52
119.74
112.335
104.905
100.562
100.154
100.162
100.166
100.168
100.173
100.178
100.186
100.197
100.216
100.203
99.9357
275.636
274.895
274.156
273.413
272.661
271.904
271.158
270.455
269.837
269.332
268.945
268.667
268.481
268.376
268.344
268.386
268.482
268.608
268.834
269.112
269.332
268.982
264.45
244.425
234.948
232.496
230.304
228.136
225.989
223.858
221.742
219.647
217.562
215.483
213.418
211.401
209.404
207.462
205.634
203.699
201.825
199.111
196.374
194.684
192.307
190.12
187.67
185.522
183.327
181.121
178.892
176.64
174.361
172.052
169.709
167.324
164.891
162.402
159.841
157.196
154.448
151.573
148.54
145.305
141.791
137.867
133.357
128.027
121.676
114.54
107.199
101.339
100.147
100.153
100.162
100.166
100.168
100.171
100.178
100.186
100.198
100.215
100.191
99.9108
275.631
274.885
274.139
273.385
272.62
271.847
271.082
270.361
269.726
269.204
268.799
268.501
268.294
268.165
268.104
268.107
268.177
268.298
268.442
268.684
268.978
269.208
268.84
263.737
242.298
232.726
230.313
228.147
226.002
223.876
221.763
219.664
217.583
215.512
213.445
211.391
209.386
207.401
205.47
203.639
201.687
199.76
197.05
194.363
192.577
190.071
188.088
185.609
183.453
181.246
179.027
176.783
174.515
172.216
169.886
167.517
165.102
162.634
160.102
157.491
154.783
151.958
148.986
145.83
142.422
138.648
134.354
129.333
123.366
116.521
109.355
102.667
100.224
100.135
100.153
100.162
100.166
100.167
100.171
100.178
100.186
100.201
100.215
100.174
99.8868
275.628
274.876
274.124
273.362
272.586
271.798
271.017
270.279
269.627
269.09
268.67
268.355
268.129
267.979
267.894
267.868
267.898
267.992
268.131
268.292
268.547
268.854
269.093
268.702
263.003
240.142
230.534
228.156
226.014
223.889
221.781
219.685
217.6
215.532
213.472
211.416
209.372
207.377
205.402
203.48