/*--------------------------------*- C++ -*----------------------------------*\
| =========                 |                                                 |
| \\      /  F ield         | OpenFOAM: The Open Source CFD Toolbox           |
|  \\    /   O peration     | Version:  v2012                                 |
|   \\  /    A nd           | Website:  www.openfoam.com                      |
|    \\/     M anipulation  |                                                 |
\*---------------------------------------------------------------------------*/
FoamFile
{
    version     2.0;
    format      ascii;
    class       volScalarField;
    location    "13380";
    object      TuM;
}
// * * * * * * * * * * * * * * * * * * * * * * * * * * * * * * * * * * * * * //

dimensions      [0 0 0 0 0 0 0];


internalField   nonuniform List<scalar> 
31383
(
0.00382793
0.00385587
0.00154857
0.00371823
0.00217287
0.00126499
0.00361578
0.00208574
0.00431135
0.00187508
0.00353816
0.0020202
0.00412261
0.00817347
0.00292901
0.00347432
0.00197059
0.00397942
0.00781297
0.0133552
0.00431015
0.00342013
0.00192979
0.00387102
0.0075391
0.012765
0.0198923
0.00602688
0.00337403
0.00189535
0.00378181
0.00733176
0.0123163
0.0190131
0.027897
0.00812401
0.00333433
0.00186609
0.00370678
0.00716109
0.0119766
0.018344
0.0266673
0.0374795
0.0106665
0.00329928
0.00184087
0.00364301
0.00701757
0.0116969
0.0178372
0.0257301
0.0358413
0.0486679
0.0137364
0.0032683
0.00181871
0.00358804
0.00689559
0.0114616
0.0174199
0.0250199
0.03459
0.0465793
0.0613003
0.0174297
0.00324018
0.00179902
0.00353987
0.00679042
0.0112617
0.0170689
0.0244349
0.0336407
0.0449785
0.0587572
0.0749359
0.0218483
0.00321484
0.00178111
0.00349693
0.00669829
0.0110893
0.0167705
0.0239428
0.0328583
0.0437619
0.056797
0.0719902
0.0888839
0.0270676
0.0031917
0.00176492
0.00345779
0.00661614
0.0109383
0.0165133
0.0235242
0.0321997
0.0427579
0.0553027
0.0697
0.0856342
0.102371
0.0331307
0.00317072
0.0017501
0.00342231
0.00654126
0.0108037
0.0162879
0.0231633
0.0316392
0.0419119
0.0540672
0.0679471
0.0830825
0.0989377
0.114778
0.0399759
0.00315169
0.00173673
0.00338979
0.00647339
0.010681
0.016087
0.0228471
0.0311557
0.0411911
0.0530244
0.0664939
0.0811225
0.0962151
0.111267
0.125773
0.0473568
0.00313459
0.00172464
0.00336051
0.00641115
0.0105698
0.0159039
0.0225653
0.0307322
0.0405688
0.0521342
0.0652636
0.0794914
0.0941167
0.108459
0.122255
0.135323
0.0551464
0.00311897
0.00171375
0.00333411
0.00635515
0.0104678
0.015738
0.0223085
0.0303546
0.0400237
0.051365
0.064213
0.0781046
0.092363
0.106287
0.119418
0.131819
0.143509
0.0631483
0.00310491
0.00170388
0.0033103
0.00630465
0.010376
0.0155858
0.0220757
0.0300105
0.0395377
0.0506909
0.0633024
0.0769225
0.0908676
0.104465
0.117219
0.128975
0.140045
0.150413
0.0710913
0.00309207
0.00169498
0.00328882
0.00625909
0.0102933
0.0154489
0.0218623
0.0296987
0.0390946
0.0500897
0.0625039
0.0758927
0.0895926
0.102909
0.115371
0.126767
0.137219
0.14701
0.156162
0.0785492
0.00308041
0.00168692
0.00326942
0.00621802
0.0102186
0.0153254
0.0216702
0.0294129
0.0386931
0.0495413
0.0617915
0.0749886
0.0884783
0.101581
0.113792
0.124921
0.135022
0.144218
0.152832
0.160907
0.08537
0.00306981
0.00167961
0.00325195
0.00618092
0.0101513
0.0152141
0.0214971
0.0291556
0.0383251
0.0490449
0.0611411
0.0741834
0.0874977
0.100418
0.112443
0.123341
0.133186
0.142043
0.150079
0.157652
0.164796
0.0915976
0.0030602
0.00167299
0.00323614
0.00614753
0.0100906
0.0151137
0.0213409
0.0289236
0.0379938
0.0485896
0.0605543
0.073447
0.0866283
0.0993928
0.111259
0.121989
0.131614
0.140227
0.147933
0.154939
0.161619
0.16797
0.0971838
0.00305143
0.00166699
0.00322183
0.00611729
0.0100358
0.015023
0.0212
0.0287142
0.0376949
0.0481795
0.0600148
0.0727841
0.0858315
0.0984879
0.110216
0.120803
0.130267
0.138672
0.146143
0.152824
0.158945
0.164875
0.170555
0.102089
0.00304344
0.00166154
0.00320888
0.00608995
0.0099863
0.0149414
0.0210728
0.0285254
0.0374251
0.0478092
0.0595286
0.072174
0.0851153
0.0976577
0.109297
0.119758
0.129086
0.137339
0.14461
0.151061
0.156859
0.162235
0.167547
0.172655
0.106289
0.00303608
0.00165657
0.00319717
0.0060652
0.00994151
0.0148675
0.0209583
0.0283549
0.0371817
0.0474746
0.0590888
0.0716237
0.0844565
0.0969125
0.108456
0.118838
0.128043
0.13617
0.143295
0.149552
0.155122
0.160177
0.164939
0.169752
0.174362
0.109781
0.00302928
0.001652
0.00318649
0.00604282
0.00990097
0.0148006
0.0208546
0.0282013
0.0369617
0.0471728
0.0586917
0.0711247
0.0838616
0.0962291
0.107702
0.118
0.127128
0.135137
0.142143
0.148256
0.153637
0.158464
0.162906
0.16717
0.171586
0.17575
0.112582
0.003023
0.00164778
0.00317664
0.00602242
0.00986429
0.0147402
0.0207608
0.0280622
0.0367636
0.0468997
0.0583326
0.0706752
0.0833208
0.0956108
0.107012
0.117249
0.126297
0.134232
0.141124
0.147123
0.15236
0.157001
0.161213
0.165158
0.169028
0.17313
0.176878
0.114716
0.00301715
0.00164389
0.00316759
0.00600361
0.00983087
0.0146854
0.0206759
0.0279364
0.0365841
0.0466537
0.0580072
0.0702669
0.0828341
0.0950475
0.106387
0.116564
0.125554
0.133413
0.140231
0.146119
0.151244
0.155741
0.159769
0.163483
0.167034
0.170594
0.174437
0.17779
0.116185
0.00301172
0.00164028
0.00315922
0.0059863
0.00980006
0.0146356
0.0205991
0.0278225
0.0364217
0.0464306
0.057714
0.0698969
0.0823902
0.0945404
0.105818
0.115944
0.124877
0.132681
0.139427
0.145239
0.150255
0.15464
0.158525
0.162055
0.165374
0.168616
0.171922
0.175541
0.178511
0.116945
0.00300666
0.00163693
0.00315149
0.00597033
0.00977172
0.0145896
0.0205291
0.0277194
0.0362746
0.0462286
0.0574479
0.0695626
0.0819883
0.0940765
0.105304
0.115378
0.124264
0.132017
0.138709
0.14445
0.149389
0.153665
0.157437
0.160824
0.163958
0.166967
0.169958
0.173048
0.176471
0.17906
0.116807
0.00300196
0.00163384
0.00314434
0.00595556
0.00974554
0.0145473
0.0204646
0.0276255
0.0361414
0.0460456
0.0572066
0.0692587
0.0816237
0.0936563
0.104834
0.114867
0.123705
0.131416
0.138061
0.143748
0.148615
0.152812
0.156474
0.159748
0.162738
0.165562
0.16832
0.171098
0.174002
0.177249
0.179453
0.115387
0.00299758
0.00163098
0.00313777
0.0059419
0.00972134
0.0145082
0.0204052
0.0275389
0.03602
0.0458798
0.0569879
0.068983
0.0812922
0.093274
0.104407
0.114398
0.1232
0.130867
0.137473
0.143115
0.147927
0.152052
0.155633
0.158795
0.161671
0.164351
0.166925
0.169471
0.172066
0.174806
0.177894
0.179701
0.112484
0.00299349
0.00162833
0.0031317
0.00592936
0.00969897
0.0144721
0.0203504
0.0274592
0.0359081
0.0457287
0.0567896
0.0687327
0.0809907
0.0929262
0.104017
0.113972
0.122735
0.130371
0.136936
0.142541
0.147309
0.151377
0.154884
0.157963
0.160728
0.163292
0.165722
0.168085
0.170449
0.172886
0.175482
0.178421
0.179811
0.108483
0.0029896
0.00162586
0.0031261
0.00591777
0.00967841
0.0144387
0.0202997
0.0273856
0.0358052
0.0455893
0.0566087
0.0685057
0.0807166
0.092609
0.103663
0.113583
0.122313
0.129914
0.13645
0.142017
0.146748
0.150772
0.15422
0.157224
0.159903
0.162355
0.16467
0.166889
0.169071
0.171279
0.173577
0.176046
0.17884
0.17979
0.103639
0.00298592
0.00162351
0.00312089
0.00590708
0.00965944
0.0144081
0.0202529
0.0273176
0.0357101
0.045461
0.0564418
0.0682983
0.0804677
0.0923201
0.103339
0.113227
0.121926
0.129499
0.136003
0.141542
0.146235
0.150222
0.153626
0.15657
0.159172
0.161536
0.163739
0.165843
0.167882
0.169909
0.171982
0.174157
0.176509
0.179161
0.179644
0.0980912
0.00298221
0.00162131
0.00311597
0.00589716
0.00964193
0.0143797
0.0202098
0.0272548
0.0356222
0.0453426
0.0562883
0.068107
0.0802401
0.0920574
0.103043
0.112902
0.121572
0.129116
0.135595
0.141104
0.145771
0.149721
0.153088
0.155986
0.158526
0.160811
0.162926
0.164918
0.166842
0.168727
0.17062
0.172573
0.174639
0.176882
0.179388
0.17937
0.0918383
0.00297929
0.00161907
0.00311134
0.00588777
0.00962567
0.0143536
0.02017
0.0271969
0.0355409
0.045233
0.0561464
0.0679309
0.0800299
0.091817
0.102773
0.112604
0.121247
0.128766
0.135219
0.140706
0.145343
0.149266
0.152595
0.155456
0.157949
0.160171
0.162206
0.164109
0.165922
0.167693
0.169445
0.171219
0.173067
0.175034
0.177174
0.179526
0.178958
0.0848511
0.00298361
0.00161732
0.00310662
0.00587894
0.0096103
0.0143294
0.0201334
0.0271436
0.0354661
0.0451316
0.0560151
0.067768
0.0798364
0.0915946
0.102526
0.112333
0.12095
0.128444
0.134874
0.140337
0.144952
0.148846
0.152149
0.154971
0.157426
0.159601
0.161571
0.163394
0.165118
0.166778
0.168416
0.170051
0.171723
0.173475
0.175351
0.177391
0.179575
0.178385
0.0770952
0.00378875
0.00161567
0.00310297
0.00586992
0.00959585
0.0143064
0.0200993
0.0270943
0.035397
0.0450383
0.0558934
0.0676172
0.0796572
0.09139
0.102298
0.112084
0.120678
0.12815
0.134557
0.139998
0.14459
0.148463
0.151737
0.154532
0.156948
0.159083
0.161006
0.162764
0.164407
0.165978
0.167506
0.169029
0.170562
0.172141
0.173808
0.175598
0.177536
0.179532
0.177616
0.0685527
0.00302071
0.00301755
0.00309252
0.00586297
0.0095811
0.0142848
0.020067
0.0270485
0.0353331
0.044952
0.0557812
0.0674773
0.0794914
0.0912005
0.102088
0.111854
0.120429
0.12788
0.134267
0.139686
0.144258
0.148108
0.15136
0.154127
0.156515
0.158611
0.160493
0.162203
0.163781
0.165271
0.16671
0.168124
0.169546
0.170988
0.172484
0.174071
0.175779
0.177613
0.179393
0.176598
0.0592667
0.00303954
0.00174523
0.0069414
0.00584207
0.0095697
0.0142628
0.0200368
0.0270051
0.0352738
0.0448722
0.0556773
0.0673481
0.0793372
0.0910248
0.101894
0.111642
0.120199
0.127632
0.134
0.1394
0.143951
0.147781
0.151011
0.153755
0.156115
0.158182
0.160025
0.161695
0.163224
0.164649
0.166007
0.167332
0.168646
0.169978
0.17134
0.17276
0.174272
0.175898
0.177622
0.179151
0.17526
0.0494036
0.00331567
0.00180776
0.00349134
0.012969
0.00953525
0.0142458
0.0200058
0.0269644
0.0352177
0.044798
0.0555813
0.0672282
0.0791945
0.0908612
0.101713
0.111446
0.119987
0.127404
0.133756
0.139137
0.143669
0.147479
0.150688
0.153411
0.155749
0.157786
0.159601
0.161231
0.16272
0.164095
0.165388
0.166632
0.167858
0.169083
0.170337
0.171625
0.172974
0.174415
0.175958
0.177562
0.178793
0.173501
0.0393516
0.00317484
0.00230269
0.00370382
0.00658923
0.0208219
0.0141942
0.0199819
0.0269229
0.035165
0.0447278
0.0554919
0.067117
0.0790622
0.0907094
0.101544
0.111263
0.11979
0.127192
0.133529
0.138896
0.143411
0.147202
0.150391
0.153093
0.155408
0.157423
0.159209
0.16081
0.162259
0.163595
0.164838
0.166017
0.167162
0.1683
0.169448
0.170631
0.171851
0.173133
0.174502
0.17596
0.177429
0.178304
0.171179
0.0298065
0.00299748
0.00208618
0.00513241
0.00701238
0.0107182
0.0305374
0.019909
0.0268908
0.0351109
0.0446618
0.0554072
0.0670135
0.0789389
0.0905684
0.101387
0.111092
0.119607
0.126997
0.13332
0.138673
0.143173
0.146946
0.150117
0.152799
0.155094
0.157086
0.158849
0.160421
0.161842
0.163138
0.164341
0.165469
0.166549
0.167608
0.168669
0.169748
0.170865
0.172021
0.173239
0.174537
0.175902
0.177218
0.177667
0.168092
0.021694
0.00297185
0.0017768
0.00450095
0.00975865
0.0114128
0.015913
0.0421715
0.0267918
0.0350693
0.044594
0.0553275
0.0669154
0.0788238
0.0904369
0.101241
0.110933
0.119435
0.126814
0.133127
0.138466
0.142952
0.146712
0.149866
0.152529
0.154803
0.156775
0.158514
0.160064
0.161456
0.162723
0.163887
0.164976
0.166005
0.166998
0.16798
0.168973
0.169989
0.171045
0.172141
0.173295
0.174517
0.175782
0.176922
0.176859
0.163964
0.0157711
0.00294559
0.00173964
0.00358162
0.00850037
0.0158758
0.0169215
0.0222812
0.055644
0.0349388
0.0445417
0.0552459
0.066823
0.0787146
0.0903131
0.101104
0.110784
0.119274
0.126643
0.132946
0.138275
0.142749
0.146494
0.149634
0.15228
0.154536
0.156486
0.158205
0.159732
0.161102
0.16234
0.163475
0.164525
0.165514
0.166457
0.167374
0.168289
0.169219
0.170177
0.171176
0.172212
0.173301
0.174444
0.175597
0.176528
0.175836
0.158454
0.012109
0.00294172
0.00160285
0.00346142
0.006708
0.013771
0.0235119
0.0236138
0.0299337
0.0705375
0.0443742
0.0551832
0.0667283
0.0786115
0.0901957
0.100975
0.110644
0.119124
0.126482
0.132776
0.138097
0.142561
0.146294
0.149419
0.152051
0.154289
0.156222
0.157919
0.159426
0.160773
0.161989
0.163095
0.164116
0.165067
0.16597
0.166836
0.167685
0.168539
0.169414
0.170317
0.17126
0.172237
0.173257
0.174315
0.17534
0.176023
0.174526
0.151224
0.010252
0.00294072
0.00159528
0.00306595
0.00645998
0.0108285
0.0203336
0.032739
0.0315692
0.0389374
0.0859522
0.0549738
0.066656
0.0785058
0.0900848
0.100852
0.110512
0.118982
0.126332
0.132617
0.137929
0.142384
0.146108
0.149221
0.151838
0.154062
0.155977
0.157656
0.159142
0.160468
0.161661
0.162746
0.163738
0.16466
0.165525
0.166352
0.167151
0.16794
0.168738
0.16956
0.170411
0.171299
0.172215
0.173162
0.174125
0.175004
0.175388
0.17282
0.142163
0.00953815
0.00293971
0.00159442
0.00304713
0.00577918
0.0104052
0.0159535
0.0282639
0.04357
0.0408237
0.049242
0.100679
0.0664021
0.0784255
0.089971
0.100736
0.110386
0.118848
0.12619
0.132467
0.137771
0.142218
0.145934
0.149037
0.151642
0.153851
0.155751
0.157413
0.158881
0.160186
0.161359
0.162421
0.163391
0.164285
0.165121
0.16591
0.16667
0.167408
0.168142
0.16889
0.169661
0.170461
0.171294
0.172145
0.173015
0.17387
0.174577
0.174599
0.170568
0.131366
0.00932364
0.00293791
0.00159374
0.00304248
0.00574247
0.00941749
0.0153067
0.022158
0.0376143
0.0558235
0.051303
0.0605985
0.113708
0.0781276
0.0898851
0.100617
0.110267
0.11872
0.126054
0.132325
0.137622
0.142062
0.14577
0.148865
0.15146
0.153657
0.155542
0.157189
0.158639
0.159926
0.161078
0.16212
0.163068
0.16394
0.164748
0.165509
0.166231
0.166931
0.167615
0.168298
0.168997
0.16972
0.170469
0.171244
0.172027
0.17281
0.173543
0.174047
0.173625
0.167584
0.118808
0.00927745
0.00293648
0.00159255
0.00303971
0.00573021
0.00935509
0.0140024
0.0212427
0.0295326
0.0483198
0.0689865
0.0627311
0.0725255
0.124627
0.089547
0.100528
0.110144
0.118598
0.125925
0.132189
0.13748
0.141914
0.145615
0.148703
0.15129
0.153477
0.155349
0.156982
0.158416
0.159686
0.16082
0.161841
0.162769
0.163619
0.164406
0.165139
0.165833
0.166495
0.167141
0.167775
0.168411
0.169063
0.169739
0.170435
0.171149
0.171857
0.172542
0.173134
0.173397
0.172426
0.163646
0.104597
0.00927711
0.00293538
0.00159159
0.00303585
0.00572326
0.00933089
0.0139057
0.0196226
0.028317
0.0381449
0.0600891
0.0822193
0.0746031
0.0843939
0.133539
0.100155
0.110053
0.118473
0.125802
0.132059
0.137345
0.141773
0.145469
0.14855
0.15113
0.153308
0.155171
0.15679
0.15821
0.159465
0.160582
0.161584
0.162492
0.163322
0.164087
0.164798
0.165465
0.1661
0.166709
0.167305
0.167891
0.168483
0.169089
0.169716
0.170357
0.171005
0.171632
0.172205
0.172631
0.172603
0.170919
0.158481
0.0888853
0.00928733
0.00293432
0.00159088
0.00303245
0.00571427
0.00931749
0.0138649
0.0194827
0.02639
0.03662
0.0479805
0.0723568
0.0946387
0.0863002
0.0956088
0.140771
0.10965
0.118381
0.125676
0.131936
0.137215
0.141639
0.145329
0.148405
0.150978
0.153149
0.155003
0.156612
0.158019
0.15926
0.160361
0.161347
0.162236
0.163046
0.163792
0.164482
0.165127
0.165736
0.166317
0.166876
0.167426
0.167968
0.168515
0.169076
0.169652
0.170235
0.170811
0.171344
0.171789
0.17202
0.171639
0.168982
0.151768
0.0719251
0.00930046
0.00293316
0.0015902
0.00303002
0.00570607
0.0093008
0.0138425
0.0194202
0.0261978
0.0344028
0.0461612
0.0588595
0.0844183
0.105679
0.0972664
0.10576
0.146667
0.117951
0.125583
0.131809
0.137092
0.14151
0.145195
0.148266
0.150834
0.152998
0.154845
0.156446
0.157843
0.15907
0.160157
0.161127
0.162001
0.162792
0.163518
0.164189
0.164813
0.1654
0.165955
0.166488
0.167002
0.167508
0.168006
0.16851
0.169023
0.169546
0.170065
0.170561
0.170988
0.171284
0.171282
0.170467
0.166431
0.143188
0.054369
0.00931291
0.00293218
0.00158947
0.00302802
0.00570026
0.00928533
0.0138154
0.0193863
0.0261085
0.0341506
0.0436918
0.0567914
0.0703864
0.0956844
0.115192
0.107143
0.114678
0.15152
0.125129
0.131716
0.136965
0.141387
0.145066
0.148133
0.150696
0.152856
0.154695
0.156289
0.157677
0.158894
0.159968
0.160925
0.161782
0.162558
0.163265
0.163916
0.164522
0.165088
0.165622
0.16613
0.166617
0.167088
0.167552
0.168007
0.168466
0.16893
0.169395
0.169844
0.170249
0.170554
0.170675
0.170394
0.169039
0.163026
0.132576
0.0375742
0.00932329
0.00293135
0.00158885
0.00302602
0.00569574
0.00927441
0.0137899
0.0193458
0.0260606
0.0340301
0.0433756
0.0541455
0.068155
0.082005
0.105834
0.123293
0.1158
0.122393
0.155555
0.131241
0.136873
0.141259
0.144943
0.148004
0.150563
0.152718
0.154553
0.15614
0.157521
0.158729
0.159793
0.160736
0.16158
0.162341
0.163032
0.163665
0.164251
0.164799
0.165313
0.1658
0.166263
0.166707
0.167137
0.167559
0.167971
0.168382
0.168794
0.169196
0.169566
0.169867
0.170032
0.169946
0.169327
0.16726
0.158468
0.12015
0.0235644
0.00933025
0.00293068
0.00158832
0.0030243
0.00569136
0.00926616
0.013772
0.0193074
0.0260036
0.033966
0.0432216
0.0537685
0.0654475
0.0797211
0.0931437
0.114783
0.130185
0.123301
0.128994
0.158944
0.13638
0.141168
0.144816
0.147882
0.150436
0.152587
0.154417
0.155999
0.157373
0.158574
0.159629
0.160562
0.161393
0.16214
0.162816
0.163433
0.164002
0.164531
0.165026
0.165494
0.165936
0.166357
0.166761
0.16715
0.167529
0.167896
0.168258
0.168612
0.168944
0.169225
0.169407
0.169406
0.169074
0.168041
0.16499
0.152412
0.105883
0.0139095
0.00933395
0.00292965
0.00158786
0.00302293
0.00568764
0.00925834
0.0137587
0.0192805
0.0259497
0.0338902
0.0431402
0.0535828
0.0650231
0.0770823
0.0909127
0.103367
0.122564
0.136071
0.129708
0.134573
0.161816
0.14066
0.144726
0.147755
0.150314
0.152459
0.154286
0.155863
0.157233
0.158427
0.159475
0.160399
0.16122
0.161953
0.162616
0.163218
0.163772
0.164283
0.16476
0.165209
0.165633
0.166034
0.166415
0.166779
0.167127
0.167463
0.167782
0.168091
0.168381
0.168634
0.168813
0.168857
0.168661
0.168033
0.16649
0.16201
0.144456
0.0896228
0.00845314
0.00933527
0.00289646
0.00158722
0.0030218
0.00568476
0.00925169
0.0137463
0.019261
0.0259118
0.033818
0.0430441
0.0534852
0.0648125
0.0766327
0.088454
0.101265
0.112445
0.129269
0.141117
0.135108
0.139249
0.164269
0.144206
0.147665
0.150187
0.152338
0.154159
0.155732
0.157097
0.158287
0.159329
0.160246
0.161057
0.161781
0.16243
0.163019
0.163558
0.164054
0.164514
0.164945
0.165351
0.165734
0.166096
0.166438
0.166762
0.167068
0.167358
0.167627
0.167877
0.168096
0.168259
0.168319
0.168202
0.167775
0.166789
0.164579
0.158016
0.134155
0.0714786
0.00597123
0.00933564
0.00221658
0.00157503
0.00302036
0.00568245
0.00924667
0.0137358
0.0192427
0.0258845
0.0337674
0.0429524
0.0533696
0.0647022
0.076409
0.0880042
0.0990524
0.110513
0.120333
0.13502
0.145486
0.139617
0.143158
0.166379
0.147137
0.150098
0.152212
0.154038
0.155606
0.156967
0.158153
0.15919
0.1601
0.160905
0.161619
0.162258
0.162834
0.16336
0.163841
0.164287
0.164701
0.165089
0.165455
0.165799
0.166123
0.166426
0.16671
0.166972
0.167213
0.167427
0.167611
0.167749
0.167809
0.167733
0.167425
0.166721
0.165297
0.162163
0.152606
0.121437
0.0524721
0.00511124
0.00933498
0.000251205
0.00129215
0.00300763
0.00567964
0.00924277
0.013728
0.0192274
0.0258593
0.0337313
0.0428882
0.0532591
0.064571
0.0762922
0.0877801
0.0986224
0.108564
0.118595
0.127128
0.139962
0.149193
0.14336
0.146435
0.168199
0.149563
0.152123
0.153912
0.155485
0.156841
0.158023
0.159056
0.159962
0.16076
0.161467
0.162098
0.162664
0.163176
0.163644
0.164076
0.164475
0.164848
0.165197
0.165525
0.165831
0.166117
0.16638
0.166621
0.166837
0.167025
0.167177
0.167288
0.167335
0.167275
0.167038
0.166504
0.165467
0.163498
0.159013
0.145315
0.106866
0.0346307
0.00487868
0.00933366
0.000634069
0.000480745
0.00261359
0.00565718
0.00923809
0.013722
0.0192161
0.0258381
0.0336982
0.0428427
0.0531819
0.0644452
0.0761511
0.0876632
0.0984092
0.108166
0.116889
0.125582
0.132912
0.144186
0.15228
0.146459
0.149207
0.169764
0.151583
0.153823
0.15536
0.156721
0.157898
0.158927
0.159829
0.160622
0.161323
0.161947
0.162504
0.163006
0.163461
0.16388
0.164266
0.164624
0.164957
0.165269
0.16556
0.165829
0.166077
0.166299
0.166495
0.166661
0.166791
0.166874
0.166902
0.166842
0.166643
0.166217
0.165414
0.16397
0.161273
0.154804
0.135666
0.0900443
0.0204966
0.00482482
0.00933314
0.000659846
0.00217464
0.00125382
0.00493556
0.00920173
0.013715
0.0192076
0.0258226
0.0336703
0.042801
0.0531274
0.0643575
0.0760174
0.0875202
0.0982981
0.10797
0.116526
0.124103
0.131534
0.1378
0.147741
0.154838
0.14903
0.151585
0.171097
0.153279
0.155271
0.156595
0.157778
0.158802
0.1597
0.16049
0.161187
0.161803
0.162354
0.162847
0.163292
0.163698
0.164071
0.164416
0.164736
0.165032
0.165308
0.165563
0.165795
0.166001
0.166181
0.166328
0.166439
0.166504
0.16651
0.166442
0.16626
0.165898
0.165246
0.164119
0.162178
0.158445
0.149095
0.123443
0.0709999
0.0113471
0.00481392
0.00933333
0.000689232
0.00168333
0.00579825
0.00240222
0.00802905
0.013661
0.0191978
0.0258112
0.0336499
0.0427659
0.0530771
0.0642959
0.0759229
0.0873857
0.0981597
0.107869
0.116349
0.123776
0.130257
0.136552
0.141892
0.150707
0.156959
0.151178
0.153651
0.172191
0.154723
0.156507
0.157652
0.158682
0.159576
0.160362
0.161055
0.161668
0.162211
0.162698
0.163135
0.16353
0.163891
0.164223
0.16453
0.164813
0.165074
0.165314
0.165533
0.165726
0.165891
0.166023
0.166118
0.166168
0.16616
0.166078
0.1659
0.165573
0.165019
0.164099
0.162579
0.159992
0.154736
0.141349
0.10893
0.0509729
0.0063821
0.00481163
0.00933377
0.000713111
0.00164502
0.00445163
0.0107551
0.00391932
0.0119183
0.0191225
0.025798
0.0336352
0.0427403
0.0530353
0.0642385
0.0758573
0.0872901
0.0980305
0.107739
0.11626
0.12362
0.129966
0.13544
0.140747
0.145299
0.153184
0.158716
0.152992
0.155459
0.173059
0.155955
0.157564
0.158557
0.159457
0.160238
0.160928
0.161537
0.162076
0.162556
0.162986
0.163373
0.163724
0.164044
0.164339
0.16461
0.164858
0.165084
0.165289
0.16547
0.165622
0.165742
0.165824
0.165861
0.165841
0.165752
0.165568
0.165261
0.164766
0.163983
0.16274
0.16074
0.157251
0.149748
0.131009
0.092005
0.0325025
0.0041805
0.00481128
0.00933431
0.000735588
0.00169536
0.00433792
0.0085872
0.0166336
0.00583195
0.0166839
0.025698
0.0336183
0.042722
0.0530049
0.064191
0.0757959
0.0872243
0.0979387
0.107619
0.116139
0.123541
0.12983
0.135182
0.139764
0.144233
0.148135
0.155266
0.160174
0.154544
0.157052
0.173725
0.157007
0.158469
0.159332
0.160119
0.160804
0.16141
0.161947
0.162422
0.162846
0.163226
0.163568
0.163878
0.164161
0.16442
0.164657
0.164871
0.165062
0.16523
0.165372
0.165481
0.165552
0.165578
0.16555
0.165453
0.165269
0.164968
0.164512
0.163817
0.16276
0.161125
0.158508
0.153703
0.142946
0.117956
0.0725498
0.0183984
0.00345095
0.00481148
0.00933499
0.000753287
0.0018398
0.00447103
0.00836573
0.0140016
0.0232807
0.00818855
0.0224336
0.0334912
0.0427013
0.0529829
0.0641565
0.0757447
0.0871617
0.0978753
0.107534
0.11603
0.12343
0.129761
0.135063
0.139533
0.143353
0.147124
0.150512
0.157031
0.161388
0.155883
0.158464
0.174219
0.157906
0.159244
0.159995
0.160686
0.161287
0.161821
0.162293
0.162712
0.163086
0.163422
0.163724
0.163996
0.164244
0.16447
0.164673
0.164853
0.165009
0.165138
0.165238
0.1653
0.165318
0.165282
0.16518
0.164994
0.164702
0.164265
0.163632
0.1627
0.161313
0.159199
0.155726
0.148976
0.133719
0.10259
0.0517504
0.0096434
0.00326938
0.00481189
0.00933582
0.00077394
0.00198613
0.0048643
0.00862465
0.0136988
0.0205546
0.0306376
0.0110558
0.0292806
0.042547
0.0529585
0.0641316
0.0757075
0.0871093
0.0978137
0.107474
0.115953
0.123333
0.129661
0.135004
0.13943
0.143142
0.146324
0.149531
0.152524
0.158548
0.162406
0.157044
0.159723
0.174565
0.158675
0.159907
0.160562
0.16117
0.161699
0.162168
0.162585
0.162954
0.163284
0.163579
0.163843
0.164081
0.164296
0.164488
0.164658
0.164803
0.164922
0.165011
0.165065
0.165075
0.165034
0.164927
0.164742
0.164456
0.164037
0.16344
0.162599
0.161383
0.159595
0.156861
0.152147
0.142549
0.121711
0.0844445
0.0324867
0.00510707
0.00323139
0.00481234
0.00933685
0.000795961
0.00208405
0.00526532
0.00939585
0.0141294
0.020268
0.0281453
0.0386184
0.0145172
0.0373084
0.0527806
0.0641039
0.0756806
0.0870711
0.0977621
0.107415
0.115898
0.123263
0.129574
0.134913
0.139379
0.143053
0.146129
0.148788
0.151551
0.154255
0.159857
0.163259
0.158054
0.160851
0.174784
0.159332
0.160474
0.161046
0.161581
0.162047
0.162461
0.162827
0.163153
0.163442
0.1637
0.16393
0.164134
0.164316
0.164476
0.164612
0.164721
0.1648
0.164845
0.16485
0.164803
0.164694
0.164509
0.164228
0.163824
0.163259
0.162474
0.161383
0.159825
0.157545
0.153947
0.1474
0.133788
0.107031
0.0637005
0.0178662
0.00320405
0.00322415
0.00481279
0.00933793
0.000816228
0.00217678
0.00553175
0.0101746
0.0153972
0.0209259
0.0279908
0.0366457
0.0470299
0.0186691
0.0465142
0.0639116
0.0756509
0.0870429
0.0977242
0.107366
0.115842
0.123213
0.129513
0.134838
0.139297
0.143009
0.14605
0.148602
0.150846
0.153268
0.155754
0.160988
0.163967
0.158939
0.161865
0.174889
0.159892
0.160958
0.161458
0.16193
0.16234
0.162705
0.163027
0.163312
0.163564
0.163788
0.163984
0.164157
0.164307
0.164433
0.164533
0.164604
0.164641
0.164638
0.164588
0.164477
0.164293
0.164017
0.163626
0.163086
0.16235
0.161341
0.159951
0.157976
0.155046
0.150198
0.140954
0.122178
0.0896805
0.0425125
0.00895221
0.00262484
0.00322285
0.00481336
0.00933898
0.000834671
0.0022678
0.00578351
0.0106923
0.0166149
0.0227469
0.0289271
0.0367339
0.0457982
0.05555
0.0236142
0.0567398
0.0754567
0.0870125
0.0976957
0.107329
0.115796
0.123161
0.129467
0.134783
0.139232
0.142936
0.146012
0.148532
0.150665
0.152585
0.154747
0.157059
0.161966
0.164548
0.159719
0.162779
0.174889
0.16037
0.16137
0.161807
0.162225
0.162585
0.162906
0.163188
0.163436
0.163653
0.163844
0.164008
0.164149
0.164267
0.164359
0.164421
0.164451
0.164441
0.164386
0.164274
0.16409
0.16382
0.163441
0.162923
0.162224
0.161284
0.160009
0.158255
0.155759
0.151916
0.14522
0.132147
0.107733
0.0693174
0.0245424
0.00448162
0.0024961
0.00322274
0.00481396
0.00934005
0.000852074
0.00234823
0.00603124
0.0111817
0.0174299
0.0244257
0.03132
0.0379768
0.0462071
0.055166
0.0638054
0.0294315
0.0676315
0.0868307
0.0976658
0.107301
0.115761
0.123117
0.129418
0.134742
0.139184
0.142879
0.145944
0.148498
0.150599
0.152401
0.154075
0.156024
0.158201
0.162811
0.165018
0.160412
0.163601
0.174793
0.160774
0.161719
0.162102
0.16247
0.162787
0.163068
0.163313
0.163527
0.163711
0.16387
0.164003
0.164112
0.164195
0.164251
0.164274
0.164258
0.164197
0.164083
0.163902
0.163636
0.163267
0.162768
0.162101
0.161215
0.160033
0.158438
0.156241
0.15304
0.147871
0.138453
0.120439
0.0906236
0.0473935
0.0123921
0.00267765
0.00247207
0.00322297
0.0048145
0.00934135
0.000868142
0.00241854
0.00625017
0.0116633
0.0182046
0.0255667
0.0334514
0.0408979
0.0477344
0.0559054
0.064235
0.0715047
0.0361386
0.0786842
0.0975088
0.107272
0.115733
0.123084
0.129377
0.134696
0.139145
0.142834
0.145894
0.148434
0.150567
0.152335
0.153885
0.155355
0.157134
0.159206
0.163539
0.16539
0.161031
0.16434
0.17461
0.161115
0.162014
0.162349
0.162673
0.16295
0.163194
0.163406
0.163587
0.16374
0.163867
0.163968
0.164044
0.164091
0.164108
0.164087
0.164022
0.163904
0.163723
0.163463
0.163103
0.16262
0.161982
0.161141
0.160034
0.158562
0.156577
0.15381
0.14961
0.142475
0.129203
0.105843
0.0702489
0.0278205
0.00585338
0.00216202
0.00246776
0.00322331
0.00481509
0.00934274
0.000882855
0.00247877
0.00644119
0.0120891
0.0189633
0.0266581
0.0349246
0.0434157
0.0510422
0.0576342
0.065243
0.0726133
0.07851
0.0436394
0.0893755
0.10715
0.115705
0.123057
0.129347
0.134658
0.139102
0.142798
0.145853
0.148389
0.150506
0.152304
0.153814
0.155156
0.156459
0.158101
0.160093
0.164164
0.165676
0.16159
0.164998
0.174346
0.161402
0.16226
0.162552
0.162837
0.163078
0.163288
0.163467
0.163617
0.163738
0.163834
0.163902
0.163943
0.163953
0.163927
0.163858
0.163737
0.163556
0.163299
0.162949
0.162481
0.161866
0.161065
0.16002
0.158647
0.156826
0.154357
0.150802
0.145137
0.135123
0.117007
0.0884303
0.0478761
0.014018
0.00296994
0.00205767
0.00246689
0.0032238
0.00481552
0.00934429
0.000896178
0.00253291
0.00660444
0.0124605
0.0196344
0.0277197
0.0363397
0.0451811
0.0537995
0.0611087
0.0670625
0.073804
0.0801382
0.0848158
0.0516928
0.0993085
0.115624
0.123031
0.12932
0.134629
0.139067
0.142759
0.145819
0.148352
0.150465
0.152246
0.153784
0.155081
0.15625
0.157416
0.15895
0.16088
0.164699
0.165888
0.162096
0.165579
0.174011
0.161639
0.162464
0.162717
0.162967
0.163173
0.163351
0.163499
0.163618
0.163708
0.163771
0.163805
0.163808
0.163777
0.163704
0.163582
0.163399
0.163144
0.162802
0.162348
0.161754
0.160986
0.159993
0.158704
0.157014
0.154766
0.151651
0.146961
0.139132
0.125094
0.101918
0.0675508
0.0277238
0.00642363
0.00201435
0.00203981
0.00246669
0.00322431
0.00481595
0.00934616
0.000908019
0.00258193
0.00675107
0.0127781
0.0202222
0.028659
0.0377048
0.0468785
0.0557548
0.0639194
0.0705054
0.0756293
0.0814443
0.0868276
0.0904893
0.0599551
0.108266
0.122991
0.129295
0.134602
0.139039
0.142725
0.145782
0.14832
0.150431
0.152207
0.153727
0.155049
0.156168
0.157193
0.158249
0.159697
0.161581
0.165152
0.166036
0.16256
0.166085
0.173611
0.161833
0.162629
0.162848
0.163063
0.163238
0.163385
0.163502
0.16359
0.163648
0.163676
0.163674
0.163637
0.16356
0.163435
0.163253
0.163
0.162662
0.16222
0.161648
0.160908
0.159959
0.158739
0.157159
0.155084
0.152286
0.148259
0.141898
0.130932
0.112063
0.0836937
0.0447849
0.0136197
0.0030389
0.00180283
0.00203657
0.00246674
0.00322484
0.0048163
0.00934823
0.000918212
0.00262564
0.00688385
0.0130633
0.0207273
0.0294846
0.03891
0.0484985
0.0576343
0.0659372
0.0732316
0.0789344
0.083235
0.0882103
0.0927836
0.0956237
0.0680831
0.116199
0.129301
0.134579
0.139013
0.142699
0.145751
0.148284
0.150401
0.152176
0.15369
0.154993
0.156134
0.157103
0.15801
0.158978
0.16036
0.162207
0.165533
0.166129
0.162985
0.166515
0.173156
0.161989
0.162759
0.162945
0.163129
0.163274
0.163391
0.163477
0.163531
0.163556
0.163549
0.163506
0.163425
0.163297
0.163114
0.162864
0.162531
0.162098
0.161542
0.160831
0.15992
0.158758
0.157268
0.155335
0.15278
0.149225
0.14387
0.135037
0.119822
0.0961501
0.061884
0.024901
0.00603647
0.00188041
0.0017673
0.00203565
0.00246697
0.00322539
0.00481677
0.00935017
0.00092681
0.00266281
0.0070022
0.0133216
0.0211813
0.0301976
0.0399711
0.0499215
0.0594076
0.0678808
0.0752202
0.0815189
0.0863762
0.0899584
0.0942263
0.0981277