/*--------------------------------*- C++ -*----------------------------------*\
| =========                 |                                                 |
| \\      /  F ield         | OpenFOAM: The Open Source CFD Toolbox           |
|  \\    /   O peration     | Version:  v2012                                 |
|   \\  /    A nd           | Website:  www.openfoam.com                      |
|    \\/     M anipulation  |                                                 |
\*---------------------------------------------------------------------------*/
FoamFile
{
    version     2.0;
    format      ascii;
    class       volVectorField;
    location    "13380";
    object      U;
}
// * * * * * * * * * * * * * * * * * * * * * * * * * * * * * * * * * * * * * //

dimensions      [0 1 -1 0 0 0 0];


internalField   nonuniform List<vector> 
31383
(
(4.99479 0.00652989 0)
(5.00632 -7.47076e-05 0)
(14.9281 0.0197125 0)
(4.82805 0.00017132 0)
(15.0978 -6.252e-05 0)
(24.9257 0.0331138 0)
(4.69538 0.000510274 0)
(14.5602 0.000535663 0)
(25.3922 0.000128112 0)
(35.1056 0.0467628 0)
(4.59485 0.0007974 0)
(14.16 0.00126734 0)
(24.4877 0.000912006 0)
(36.0164 0.000547348 0)
(45.6318 0.0608157 0)
(4.51218 0.00104436 0)
(13.8566 0.00187542 0)
(23.8142 0.00184379 0)
(34.7327 0.00143635 0)
(47.1003 0.000880096 0)
(56.6934 0.0753967 0)
(4.44199 0.00120553 0)
(13.6071 0.00239352 0)
(23.3037 0.00261884 0)
(33.7766 0.00255943 0)
(45.4206 0.00204319 0)
(58.7752 0.00157446 0)
(68.2608 0.0906347 0)
(4.38228 0.00137173 0)
(13.3953 0.00272868 0)
(22.8837 0.00328114 0)
(33.0519 0.00349087 0)
(44.1693 0.00333217 0)
(56.6783 0.00276511 0)
(71.1658 0.00213925 0)
(80.4558 0.10665 0)
(4.33087 0.00147716 0)
(13.2151 0.00307364 0)
(22.5271 0.00370846 0)
(32.4557 0.00428461 0)
(43.2207 0.00440322 0)
(55.1159 0.00420441 0)
(68.6274 0.00360692 0)
(84.372 0.00299988 0)
(93.3402 0.123563 0)
(4.28547 0.00155573 0)
(13.0599 0.00329077 0)
(22.2238 0.00415181 0)
(31.9494 0.00479345 0)
(42.4402 0.00531678 0)
(53.9313 0.00540472 0)
(66.7359 0.00518302 0)
(81.3689 0.00459673 0)
(98.4414 0.00410702 0)
(107.097 0.141441 0)
(4.24535 0.0016171 0)
(12.9229 0.00345096 0)
(21.9625 0.00443021 0)
(31.5187 0.0053224 0)
(41.7774 0.00589982 0)
(52.9564 0.00643003 0)
(65.3012 0.0065045 0)
(79.1304 0.00629786 0)
(94.9532 0.00576617 0)
(113.335 0.0050878 0)
(121.862 0.160382 0)
(4.20894 0.00168158 0)
(12.8018 0.00357527 0)
(21.7319 0.00463467 0)
(31.1478 0.00565247 0)
(41.2135 0.00650884 0)
(52.1285 0.0070814 0)
(64.1205 0.00763568 0)
(77.4318 0.00773336 0)
(92.3554 0.00758122 0)
(109.341 0.00715396 0)
(128.824 0.00679156 0)
(138.577 0.180485 0)
(4.17613 0.00171635 0)
(12.6919 0.00370785 0)
(21.528 0.00479397 0)
(30.8202 0.0058927 0)
(40.7279 0.00688706 0)
(51.4241 0.00776555 0)
(63.1176 0.00835068 0)
(76.0335 0.0089647 0)
(90.3823 0.00912378 0)
(106.383 0.00907091 0)
(124.366 0.00879723 0)
(144.613 0.00811546 0)
(156.328 0.201843 0)
(4.14618 0.00175968 0)
(12.5928 0.00377678 0)
(21.3429 0.00496527 0)
(30.5307 0.0060792 0)
(40.2991 0.00716055 0)
(50.8175 0.0081881 0)
(62.2642 0.00910656 0)
(74.8455 0.00973809 0)
(88.7575 0.0104493 0)
(104.133 0.0107129 0)
(121.069 0.0108035 0)
(139.741 0.0107189 0)
(160.355 0.0104401 0)
(174.86 0.224494 0)
(4.11901 0.0017893 0)
(12.5024 0.00386567 0)
(21.1762 0.00505272 0)
(30.268 0.0062826 0)
(39.9201 0.00737301 0)
(50.2819 0.00849142 0)
(61.5294 0.00957055 0)
(73.8345 0.0105619 0)
(87.3763 0.0112752 0)
(102.279 0.0121259 0)
(118.549 0.0125363 0)
(136.139 0.0128025 0)
(155.124 0.0129189 0)
(175.743 0.0121766 0)
(195.181 0.248425 0)
(4.09438 0.00181256 0)
(12.4204 0.00392464 0)
(21.024 0.00516757 0)
(30.0313 0.00638246 0)
(39.5762 0.00760708 0)
(49.8084 0.00872728 0)
(60.8805 0.00990103 0)
(72.9639 0.0110638 0)
(86.2006 0.0121624 0)
(100.707 0.0129968 0)
(116.475 0.0140291 0)
(133.376 0.0146168 0)
(151.259 0.0150699 0)
(170.204 0.015352 0)
(190.607 0.014956 0)
(214.905 0.273767 0)
(4.07224 0.0018369 0)
(12.346 0.00397138 0)
(20.8859 0.00524356 0)
(29.8152 0.00651776 0)
(39.2662 0.00771897 0)
(49.3789 0.00898937 0)
(60.3069 0.0101586 0)
(72.195 0.011418 0)
(85.1881 0.012698 0)
(99.3593 0.0139424 0)
(114.727 0.0149379 0)
(131.102 0.0161836 0)
(148.289 0.0169573 0)
(166.122 0.0175587 0)
(184.788 0.0179484 0)
(204.924 0.0171191 0)
(234.317 0.300729 0)
(4.05201 0.00184787 0)
(12.2792 0.00402065 0)
(20.7608 0.00530466 0)
(29.6192 0.00660507 0)
(38.9833 0.00787369 0)
(48.9917 0.00911146 0)
(59.7865 0.0104467 0)
(71.5153 0.0116951 0)
(84.2935 0.0130719 0)
(98.2024 0.0145065 0)
(113.204 0.0159346 0)
(129.183 0.0171245 0)
(145.843 0.0185903 0)
(162.98 0.0195132 0)
(180.515 0.0202191 0)
(198.833 0.0207095 0)
(218.662 0.0203121 0)
(253.093 0.329316 0)
(4.03381 0.00185301 0)
(12.2181 0.0040416 0)
(20.6483 0.0053681 0)
(29.4415 0.00667516 0)
(38.7268 0.00797258 0)
(48.6383 0.00928348 0)
(59.3174 0.010578 0)
(70.8987 0.0120066 0)
(83.5029 0.013366 0)
(97.1799 0.0148948 0)
(111.906 0.0165206 0)
(127.511 0.0181622 0)
(143.775 0.0195547 0)
(160.386 0.0212266 0)
(177.22 0.022235 0)
(194.385 0.0230672 0)
(212.312 0.0236434 0)
(231.759 0.0229181 0)
(270.805 0.359667 0)
(4.01719 0.00186663 0)
(12.1632 0.00405074 0)
(20.5455 0.00539478 0)
(29.2818 0.00674793 0)
(38.4941 0.00805162 0)
(48.3179 0.0093923 0)
(58.8894 0.0107658 0)
(70.3429 0.012146 0)
(82.7874 0.0136974 0)
(96.2764 0.0152024 0)
(110.761 0.0169171 0)
(126.082 0.0187631 0)
(141.976 0.0206253 0)
(158.196 0.0222067 0)
(174.499 0.0240178 0)
(190.951 0.0251345 0)
(207.712 0.0260951 0)
(225.168 0.0267129 0)
(244.199 0.026366 0)
(287.302 0.391915 0)
(4.00207 0.00188134 0)
(12.113 0.00407779 0)
(20.453 0.00540667 0)
(29.1359 0.00677633 0)
(38.2851 0.00813328 0)
(48.0274 0.00947939 0)
(58.5013 0.0108837 0)
(69.8358 0.0123479 0)
(82.1387 0.0138431 0)
(95.4663 0.0155502 0)
(109.745 0.0172344 0)
(124.829 0.0191617 0)
(140.433 0.0212337 0)
(156.289 0.0233007 0)
(172.208 0.0250047 0)
(188.12 0.0269125 0)
(204.162 0.0282002 0)
(220.442 0.0292595 0)
(237.378 0.0298928 0)
(255.995 0.0293473 0)
(302.733 0.426186 0)
(3.98835 0.00189004 0)
(12.0674 0.00410736 0)
(20.3685 0.00544304 0)
(29.0046 0.00678767 0)
(38.0941 0.00816357 0)
(47.7663 0.00956862 0)
(58.1493 0.0109783 0)
(69.3759 0.0124737 0)
(81.5488 0.0140571 0)
(94.7174 0.0156996 0)
(108.838 0.0175958 0)
(123.705 0.0194841 0)
(139.082 0.0216296 0)
(154.652 0.0239104 0)
(170.215 0.0261158 0)
(185.738 0.0278912 0)
(201.233 0.0299484 0)
(216.79 0.0313872 0)
(232.54 0.0325299 0)
(248.944 0.0331602 0)
(267.175 0.0329498 0)
(317.333 0.462543 0)
(3.9759 0.00189805 0)
(12.026 0.00412462 0)
(20.2918 0.00548205 0)
(28.8846 0.00682805 0)
(37.9222 0.00817471 0)
(47.5278 0.00959998 0)
(57.833 0.0110742 0)
(68.9589 0.0125745 0)
(81.014 0.0141891 0)
(94.0433 0.015923 0)
(107.997 0.0177439 0)
(122.707 0.0198553 0)
(137.868 0.0219517 0)
(153.218 0.024298 0)
(168.497 0.0267201 0)
(183.664 0.0290117 0)
(198.766 0.0309008 0)
(213.778 0.033118 0)
(228.8 0.0346636 0)
(244.006 0.0358793 0)
(259.889 0.0365039 0)
(277.782 0.0362943 0)
(331.159 0.501074 0)
(3.96454 0.0019024 0)
(11.9884 0.00414015 0)
(20.222 0.00550497 0)
(28.7756 0.00687197 0)
(37.7653 0.00821943 0)
(47.3131 0.00961029 0)
(57.5441 0.0111058 0)
(68.5841 0.0126759 0)
(80.5288 0.0142944 0)
(93.432 0.0160589 0)
(107.241 0.0179739 0)
(121.785 0.0199973 0)
(136.791 0.0223288 0)
(151.931 0.0246156 0)
(166.995 0.0270957 0)
(181.875 0.0296038 0)
(196.62 0.0320165 0)
(211.239 0.0340295 0)
(225.716 0.0363687 0)
(240.188 0.0380003 0)
(254.859 0.0392915 0)
(270.249 0.0399372 0)
(287.865 0.0401006 0)
(344.241 0.541959 0)
(3.95419 0.00190583 0)
(11.9541 0.00414777 0)
(20.1588 0.0055254 0)
(28.6766 0.00689712 0)
(37.6226 0.00826862 0)
(47.1171 0.00965947 0)
(57.2841 0.0111147 0)
(68.2417 0.0127068 0)
(80.0927 0.0143996 0)
(92.8782 0.0161666 0)
(106.555 0.0181108 0)
(120.953 0.0202308 0)
(135.8 0.0224609 0)
(150.789 0.0249957 0)
(165.65 0.0274075 0)
(180.312 0.0299638 0)
(194.764 0.0325887 0)
(209.03 0.0351273 0)
(223.115 0.0372296 0)
(237.04 0.0396692 0)
(250.97 0.0413785 0)
(265.132 0.0427741 0)
(280.068 0.0434937 0)
(297.477 0.0439253 0)
(356.622 0.585386 0)
(3.94465 0.00190928 0)
(11.9229 0.00415374 0)
(20.1011 0.00553656 0)
(28.5868 0.00691879 0)
(37.493 0.00829639 0)
(46.9389 0.0097135 0)
(57.0466 0.0111681 0)
(67.9336 0.0127136 0)
(79.6942 0.0144287 0)
(92.3782 0.0162737 0)
(105.939 0.0182187 0)
(120.199 0.0203655 0)
(134.902 0.0226955 0)
(149.74 0.0251143 0)
(164.454 0.0277875 0)
(178.916 0.0302692 0)
(193.145 0.0329266 0)
(207.117 0.03567 0)
(220.853 0.0382985 0)
(234.385 0.0404704 0)
(247.766 0.0429954 0)
(261.178 0.0448022 0)
(274.867 0.0463538 0)
(289.397 0.0472605 0)
(306.67 0.0482769 0)
(368.358 0.631555 0)
(3.93585 0.00191954 0)
(11.8941 0.00415989 0)
(20.0485 0.00554478 0)
(28.5049 0.00692901 0)
(37.3755 0.00831961 0)
(46.7771 0.00974381 0)
(56.8307 0.0112263 0)
(67.6521 0.0127701 0)
(79.3356 0.0144322 0)
(91.9223 0.016299 0)
(105.372 0.0183253 0)
(119.521 0.020472 0)
(134.089 0.0228249 0)
(148.79 0.0253478 0)
(163.36 0.0278916 0)
(177.673 0.0306463 0)
(191.703 0.0332209 0)
(205.45 0.0359779 0)
(218.893 0.0388024 0)
(232.078 0.0415003 0)
(245.064 0.0437261 0)
(257.923 0.0463479 0)
(270.852 0.0482946 0)
(284.114 0.0501107 0)
(298.313 0.051159 0)
(315.504 0.0528649 0)
(379.513 0.680667 0)
(3.92771 0.00192699 0)
(11.8675 0.00418063 0)
(20 0.00555316 0)
(28.4302 0.00693686 0)
(37.2683 0.00833014 0)
(46.6303 0.00976836 0)
(56.6346 0.0112586 0)
(67.3963 0.0128319 0)
(79.008 0.014491 0)
(91.512 0.0162982 0)
(104.861 0.018344 0)
(118.898 0.0205747 0)
(133.358 0.0229278 0)
(147.93 0.0254698 0)
(162.369 0.0281226 0)
(176.539 0.0307349 0)
(190.419 0.0335922 0)
(203.968 0.0362558 0)
(217.183 0.0390722 0)
(230.076 0.0419562 0)
(242.715 0.0447065 0)
(255.178 0.046995 0)
(267.55 0.0497467 0)
(280.041 0.0519344 0)
(292.945 0.0539685 0)
(306.89 0.0549522 0)
(324.047 0.0576568 0)
(390.155 0.732935 0)
(3.92012 0.00192621 0)
(11.8429 0.00419514 0)
(19.9553 0.00558038 0)
(28.3615 0.00694518 0)
(37.1705 0.00833822 0)
(46.4964 0.00977943 0)
(56.4568 0.011284 0)
(67.1639 0.0128658 0)
(78.7102 0.0145551 0)
(91.137 0.0163578 0)
(104.399 0.0183378 0)
(118.337 0.0205847 0)
(132.686 0.0230244 0)
(147.154 0.0255672 0)
(161.47 0.0282363 0)
(175.512 0.0309633 0)
(189.248 0.0336616 0)
(202.648 0.0366165 0)
(215.667 0.0393291 0)
(228.33 0.0421803 0)
(240.678 0.0451052 0)
(252.792 0.047913 0)
(264.766 0.0502943 0)
(276.693 0.0532697 0)
(288.812 0.0556494 0)
(301.433 0.0576982 0)
(315.174 0.0586348 0)
(332.348 0.0625189 0)
(400.371 0.788537 0)
(3.91309 0.00192774 0)
(11.82 0.00419218 0)
(19.9139 0.00559978 0)
(28.298 0.0069763 0)
(37.0805 0.00834702 0)
(46.3743 0.00978764 0)
(56.2946 0.0112954 0)
(66.9531 0.0128913 0)
(78.4396 0.0145899 0)
(90.7961 0.0164228 0)
(103.977 0.0183965 0)
(117.825 0.0205711 0)
(132.081 0.023024 0)
(146.442 0.0256561 0)
(160.66 0.0283271 0)
(174.581 0.0310676 0)
(188.189 0.0338855 0)
(201.447 0.036663 0)
(214.317 0.0396745 0)
(226.783 0.0424111 0)
(238.899 0.0452758 0)
(250.722 0.0482443 0)
(262.346 0.0511352 0)
(273.871 0.0537022 0)
(285.417 0.0568489 0)
(297.239 0.0592163 0)
(309.626 0.0612916 0)
(323.198 0.0622885 0)
(340.443 0.0676519 0)
(410.285 0.847574 0)
(3.90654 0.00193557 0)
(11.7988 0.00419427 0)
(19.8754 0.00559675 0)
(28.2392 0.00699754 0)
(36.9973 0.00838223 0)
(46.2619 0.00979682 0)
(56.1466 0.0113032 0)
(66.7607 0.0129029 0)
(78.1941 0.014615 0)
(90.4862 0.016457 0)
(103.594 0.0184609 0)
(117.36 0.0206275 0)
(131.528 0.023001 0)
(145.801 0.0256431 0)
(159.916 0.0284074 0)
(173.74 0.0311509 0)
(187.228 0.0339781 0)
(200.36 0.0368793 0)
(213.091 0.0396941 0)
(225.407 0.042736 0)
(237.325 0.0454754 0)
(248.914 0.0483532 0)
(260.244 0.0513867 0)
(271.418 0.0544517 0)
(282.557 0.057155 0)
(293.797 0.0602664 0)
(305.371 0.0626249 0)
(317.556 0.0648232 0)
(330.991 0.0659302 0)
(348.362 0.073043 0)
(420.042 0.910038 0)
(3.90045 0.00193817 0)
(11.779 0.00420996 0)
(19.8397 0.00560034 0)
(28.1846 0.00699158 0)
(36.9205 0.00840619 0)
(46.158 0.00983606 0)
(56.0104 0.0113122 0)
(66.5854 0.0129098 0)
(77.97 0.0146261 0)
(90.205 0.0164811 0)
(103.245 0.0184935 0)
(116.936 0.020689 0)
(131.026 0.0230534 0)
(145.213 0.0256101 0)
(159.244 0.0283807 0)
(172.968 0.0312224 0)
(186.36 0.0340527 0)
(199.376 0.0369573 0)
(211.981 0.0398995 0)
(224.159 0.0427249 0)
(235.926 0.0457749 0)
(247.315 0.0485153 0)
(258.409 0.0514244 0)
(269.287 0.0546114 0)
(280.07 0.0578041 0)
(290.897 0.0604393 0)
(301.882 0.0635112 0)
(313.24 0.0659455 0)
(325.249 0.0683065 0)
(338.58 0.0695915 0)
(356.137 0.0788008 0)
(429.64 0.976054 0)
(3.89477 0.00193866 0)
(11.7607 0.00421468 0)
(19.8064 0.00562203 0)
(28.1339 0.00699393 0)
(36.8489 0.00839827 0)
(46.0621 0.00986243 0)
(55.8846 0.011355 0)
(66.4239 0.0129183 0)
(77.7658 0.0146316 0)
(89.9484 0.0164914 0)
(102.929 0.0185147 0)
(116.551 0.0207187 0)
(130.566 0.02311 0)
(144.679 0.0256573 0)
(158.629 0.0283371 0)
(172.27 0.031181 0)
(185.563 0.0341132 0)
(198.485 0.0370212 0)
(210.977 0.0399599 0)
(223.031 0.0429159 0)
(234.66 0.0457285 0)
(245.897 0.0487835 0)
(256.788 0.0515419 0)
(267.426 0.0545688 0)
(277.91 0.0578645 0)
(288.378 0.0609825 0)
(298.944 0.0635429 0)
(309.704 0.0666512 0)
(320.872 0.0691906 0)
(332.732 0.0717684 0)
(345.989 0.0732978 0)
(363.795 0.0850375 0)
(438.792 1.04615 0)
(3.88947 0.00193786 0)
(11.7435 0.00421535 0)
(19.7755 0.00562968 0)
(28.0866 0.00701869 0)
(36.7825 0.00840021 0)
(45.9727 0.00985235 0)
(55.7683 0.0113837 0)
(66.2748 0.0129642 0)
(77.5777 0.0146391 0)
(89.7143 0.0164944 0)
(102.64 0.0185236 0)
(116.202 0.0207364 0)
(130.148 0.0231352 0)
(144.19 0.0257072 0)
(158.069 0.0283779 0)
(171.629 0.0311266 0)
(184.841 0.0340557 0)
(197.668 0.0370683 0)
(210.067 0.0400112 0)
(222.01 0.0429554 0)
(233.516 0.0459016 0)
(244.614 0.0486964 0)
(255.351 0.051771 0)
(265.784 0.0546343 0)
(276.024 0.0577376 0)
(286.188 0.0609397 0)
(296.391 0.0639736 0)
(306.727 0.0665318 0)
(317.29 0.0696985 0)
(328.292 0.0723849 0)
(340.026 0.07523 0)
(353.239 0.0770767 0)
(371.365 0.0919115 0)
(447.391 1.12096 0)
(3.88444 0.00193079 0)
(11.7275 0.00421305 0)
(19.7466 0.00563192 0)
(28.0427 0.00702677 0)
(36.7207 0.0084287 0)
(45.8898 0.00985374 0)
(55.6601 0.0113711 0)
(66.1369 0.0129948 0)
(77.404 0.0146873 0)
(89.4988 0.0165003 0)
(102.376 0.0185235 0)
(115.882 0.020742 0)
(129.769 0.0231494 0)
(143.746 0.0257266 0)
(157.556 0.0284212 0)
(171.047 0.0311606 0)
(184.179 0.03399 0)
(196.926 0.0369927 0)
(209.233 0.0400425 0)
(221.085 0.0429919 0)
(232.479 0.0459169 0)
(243.456 0.0488471 0)
(254.052 0.0516363 0)
(264.329 0.0548165 0)
(274.36 0.0577489 0)
(284.275 0.0607288 0)
(294.172 0.0638219 0)
(304.142 0.0668416 0)
(314.275 0.0694178 0)
(324.663 0.0726774 0)
(335.522 0.0755486 0)
(347.152 0.0787133 0)
(360.351 0.0809567 0)
(378.875 0.0997397 0)
(455.741 1.20012 0)
(3.87967 0.00192781 0)
(11.7123 0.00419775 0)
(19.7197 0.00562883 0)
(28.0018 0.0070293 0)
(36.6633 0.00843784 0)
(45.8125 0.00988584 0)
(55.5596 0.0113717 0)
(66.0086 0.0129796 0)
(77.2434 0.0147193 0)
(89.2997 0.0165503 0)
(102.133 0.0185266 0)
(115.591 0.0207382 0)
(129.423 0.0231502 0)
(143.342 0.0257366 0)
(157.089 0.0284341 0)
(170.513 0.0311964 0)
(183.577 0.0340164 0)
(196.245 0.0369149 0)
(208.474 0.039947 0)
(220.235 0.0430051 0)
(231.54 0.0459365 0)
(242.406 0.0488344 0)
(252.882 0.0517591 0)
(263.016 0.0546269 0)
(272.887 0.0578829 0)
(282.59 0.0606871 0)
(292.234 0.0635252 0)
(301.894 0.0665736 0)
(311.658 0.0695983 0)
(321.61 0.0722248 0)
(331.845 0.0756079 0)
(342.58 0.0787027 0)
(354.126 0.0822407 0)
(367.344 0.0849726 0)
(386.354 0.108322 0)
(464.064 1.28283 0)
(3.87486 0.00192649 0)
(11.6979 0.00419148 0)
(19.6941 0.00560908 0)
(27.9636 0.0070253 0)
(36.6097 0.00844092 0)
(45.7408 0.00989621 0)
(55.466 0.0114071 0)
(65.8895 0.0129789 0)
(77.0939 0.0147011 0)
(89.1157 0.0165831 0)
(101.909 0.0185777 0)
(115.322 0.0207378 0)
(129.106 0.0231419 0)
(142.972 0.025732 0)
(156.664 0.0284398 0)
(170.027 0.0312025 0)
(183.023 0.0340417 0)
(195.625 0.0369316 0)
(207.778 0.0398561 0)
(219.463 0.0428877 0)
(230.679 0.045929 0)
(241.455 0.0488338 0)
(251.82 0.0517134 0)
(261.834 0.0547148 0)
(271.559 0.057636 0)
(281.098 0.0607756 0)
(290.527 0.0634301 0)
(299.931 0.0661881 0)
(309.381 0.0692067 0)
(318.961 0.0722671 0)
(328.754 0.0749724 0)
(338.855 0.0785106 0)
(349.483 0.0818683 0)
(360.966 0.0858362 0)
(374.236 0.0891719 0)
(393.844 0.118381 0)
(472.413 1.3685 0)
(3.87106 0.00191962 0)
(11.6834 0.00418796 0)
(19.6699 0.00560114 0)
(27.9273 0.00700138 0)
(36.5597 0.0084376 0)
(45.6739 0.0099 0)
(55.3792 0.0114186 0)
(65.7786 0.0130173 0)
(76.9552 0.0146992 0)
(88.9444 0.0165612 0)
(101.701 0.0186104 0)
(115.074 0.020789 0)
(128.815 0.0231377 0)
(142.634 0.0257189 0)
(156.275 0.028429 0)
(169.583 0.0312038 0)
(182.518 0.0340403 0)
(195.055 0.0369446 0)
(207.143 0.039861 0)
(218.753 0.0427829 0)
(229.894 0.0457881 0)
(240.582 0.0488023 0)
(250.858 0.0516884 0)
(260.761 0.0546292 0)
(270.364 0.0576893 0)
(279.755 0.0604746 0)
(289.017 0.0634723 0)
(298.203 0.0660375 0)
(307.392 0.0687294 0)
(316.656 0.0717441 0)
(326.073 0.0748672 0)
(335.726 0.0776806 0)
(345.709 0.0814061 0)
(356.248 0.0850676 0)
(367.685 0.0895271 0)
(381.046 0.0935987 0)
(401.404 0.130031 0)
(480.832 1.45647 0)
(3.87688 0.00181085 0)
(11.672 0.00417246 0)
(19.6454 0.00559539 0)
(27.8929 0.00699201 0)
(36.5121 0.00841058 0)
(45.6114 0.00989626 0)
(55.2981 0.011423 0)
(65.6756 0.0130297 0)
(76.826 0.0147397 0)
(88.7854 0.0165573 0)
(101.508 0.0185842 0)
(114.845 0.0208207 0)
(128.545 0.023188 0)
(142.323 0.0257103 0)
(155.92 0.0284112 0)
(169.177 0.0311865 0)
(182.057 0.0340371 0)
(194.535 0.0369343 0)
(206.559 0.0398603 0)
(218.106 0.0427739 0)
(229.173 0.0456685 0)
(239.786 0.0486353 0)
(249.975 0.0516286 0)
(259.788 0.0545728 0)
(269.279 0.0575627 0)
(278.547 0.060498 0)
(287.659 0.0631164 0)
(296.675 0.0660307 0)
(305.644 0.0685214 0)
(314.643 0.0711721 0)
(323.74 0.0742049 0)
(333.012 0.0774185 0)
(342.54 0.0803694 0)
(352.422 0.084316 0)
(362.886 0.0883248 0)
(374.3 0.0933438 0)
(387.792 0.0982762 0)
(409.087 0.144091 0)
(489.357 1.54566 0)
(4.81355 0.00183627 0)
(11.6893 0.00387928 0)
(19.6262 0.00557338 0)
(27.8581 0.00698377 0)
(36.4671 0.00839982 0)
(45.5521 0.00986546 0)
(55.2224 0.011419 0)
(65.5795 0.0130347 0)
(76.706 0.0147526 0)
(88.6371 0.0165998 0)
(101.329 0.018578 0)
(114.631 0.0207894 0)
(128.296 0.0232177 0)
(142.035 0.0257589 0)
(155.592 0.0283974 0)
(168.806 0.0311641 0)
(181.636 0.0340123 0)
(194.06 0.0369259 0)
(206.026 0.0398394 0)
(217.509 0.0427576 0)
(228.514 0.0456439 0)
(239.055 0.0484998 0)
(249.169 0.0514324 0)
(258.895 0.0544773 0)
(268.295 0.057474 0)
(277.449 0.0603348 0)
(286.437 0.0631092 0)
(295.302 0.0656177 0)
(304.098 0.0684643 0)
(312.874 0.0709048 0)
(321.703 0.0735355 0)
(330.652 0.0766089 0)
(339.795 0.0799403 0)
(349.214 0.0830596 0)
(359.007 0.0872635 0)
(369.412 0.0916671 0)
(380.822 0.0973217 0)
(394.493 0.103352 0)
(416.944 0.160947 0)
(498.017 1.63475 0)
(3.91893 0.00187494 0)
(14.5577 0.00409378 0)
(19.6547 0.00509468 0)
(27.8309 0.00695421 0)
(36.4217 0.00838799 0)
(45.4959 0.00985331 0)
(55.1505 0.0113846 0)
(65.4897 0.0130307 0)
(76.5939 0.0147581 0)
(88.4995 0.0166126 0)
(101.162 0.0186211 0)
(114.432 0.0207797 0)
(128.064 0.0231803 0)
(141.769 0.0257854 0)
(155.289 0.0284444 0)
(168.463 0.031145 0)
(181.25 0.0339851 0)
(193.624 0.0368923 0)
(205.538 0.0398253 0)
(216.965 0.0427244 0)
(227.907 0.04561 0)
(238.386 0.0484571 0)
(248.428 0.051279 0)
(258.08 0.0542461 0)
(267.393 0.0573416 0)
(276.454 0.06022 0)
(285.328 0.0629081 0)
(294.067 0.065577 0)
(302.71 0.0679921 0)
(311.31 0.0707954 0)
(319.913 0.0732067 0)
(328.59 0.0758393 0)
(337.407 0.0789754 0)
(346.436 0.0824526 0)
(355.758 0.0857731 0)
(365.477 0.0902743 0)
(375.838 0.0951254 0)
(387.267 0.101502 0)
(401.17 0.10901 0)
(425.024 0.181476 0)
(506.825 1.7219 0)
(3.94058 0.00184661 0)
(11.8876 0.00412588 0)
(24.5717 0.00556385 0)
(27.8699 0.00622447 0)
(36.3861 0.00834995 0)
(45.4391 0.00983822 0)
(55.0824 0.0113712 0)
(65.4044 0.0129929 0)
(76.4893 0.0147542 0)
(88.371 0.0166181 0)
(101.006 0.0186336 0)
(114.248 0.0208236 0)
(127.848 0.0231665 0)
(141.521 0.0257412 0)
(155.009 0.0284676 0)
(168.147 0.0311901 0)
(180.894 0.0339609 0)
(193.226 0.0368599 0)
(205.091 0.0397814 0)
(216.467 0.0427038 0)
(227.352 0.0455632 0)
(237.769 0.0484034 0)
(247.75 0.0512165 0)
(257.33 0.0540684 0)
(266.568 0.0570746 0)
(275.541 0.0600568 0)
(284.322 0.062766 0)
(292.946 0.0653341 0)
(301.462 0.0679163 0)
(309.907 0.0702621 0)
(318.332 0.0730433 0)
(326.78 0.0754463 0)
(335.321 0.0781027 0)
(344.02 0.0813237 0)
(352.947 0.0849765 0)
(362.186 0.0885337 0)
(371.843 0.0933769 0)
(382.174 0.0987357 0)
(393.646 0.105935 0)
(407.844 0.115425 0)
(433.38 0.206794 0)
(515.764 1.80514 0)
(4.28011 0.00186175 0)
(11.9649 0.00403616 0)
(20.1358 0.00560757 0)
(34.9575 0.00717089 0)
(36.4346 0.0072931 0)
(45.3946 0.00979088 0)
(55.0136 0.0113525 0)
(65.3237 0.0129784 0)
(76.3899 0.014713 0)
(88.2509 0.0166143 0)
(100.861 0.0186395 0)
(114.074 0.0208344 0)
(127.647 0.0232099 0)
(141.29 0.0257228 0)
(154.748 0.0284161 0)
(167.854 0.0312098 0)
(180.566 0.0340035 0)
(192.859 0.0368299 0)
(204.682 0.0397435 0)
(216.01 0.0426485 0)
(226.844 0.0455349 0)
(237.205 0.0483414 0)
(247.125 0.0511408 0)
(256.643 0.0539802 0)
(265.809 0.0568711 0)
(274.707 0.0597607 0)
(283.399 0.062571 0)
(291.928 0.0651606 0)
(300.329 0.0676288 0)
(308.646 0.0701485 0)
(316.914 0.0724476 0)
(325.181 0.075228 0)
(333.49 0.0776428 0)
(341.909 0.0803447 0)
(350.503 0.0836742 0)
(359.342 0.087534 0)
(368.508 0.091368 0)
(378.115 0.0966036 0)
(388.432 0.10254 0)
(399.975 0.110682 0)
(414.539 0.122745 0)
(442.07 0.238584 0)
(524.755 1.88275 0)
(4.10567 0.00185069 0)
(12.9869 0.00404798 0)
(20.2914 0.00538002 0)
(28.7304 0.00712349 0)
(45.8299 0.0088924 0)
(45.451 0.00831093 0)
(54.9598 0.0112948 0)
(65.2421 0.0129554 0)
(76.2958 0.0146975 0)
(88.1367 0.0165699 0)
(100.725 0.0186351 0)
(113.913 0.0208405 0)
(127.459 0.0232191 0)
(141.075 0.025765 0)
(154.504 0.028393 0)
(167.581 0.0311507 0)
(180.261 0.0340175 0)
(192.52 0.0368696 0)
(204.305 0.039707 0)
(215.591 0.0426046 0)
(226.379 0.0454667 0)
(236.689 0.0483037 0)
(246.552 0.0510624 0)
(256.01 0.0538759 0)
(265.114 0.0567558 0)
(273.939 0.0595379 0)
(282.554 0.0622449 0)
(290.995 0.0649303 0)
(299.3 0.0674216 0)
(307.501 0.0698138 0)
(315.64 0.0722942 0)
(323.748 0.0745677 0)
(331.874 0.0773678 0)
(340.059 0.0798147 0)
(348.368 0.0825854 0)
(356.869 0.0860482 0)
(365.629 0.0901498 0)
(374.734 0.0943054 0)
(384.303 0.0999917 0)
(394.623 0.106588 0)
(406.268 0.115818 0)
(421.281 0.13121 0)
(451.149 0.2791 0)
(533.62 1.95241 0)
(3.88709 0.00186761 0)
(12.424 0.00412777 0)
(22.007 0.00543508 0)
(28.9824 0.00668116 0)
(37.7532 0.00872857 0)
(57.2967 0.0107561 0)
(55.0215 0.00928059 0)
(65.1783 0.0128861 0)
(76.2005 0.0146699 0)
(88.0287 0.0165537 0)
(100.596 0.0185877 0)
(113.762 0.0208363 0)
(127.282 0.0232259 0)
(140.873 0.0257721 0)
(154.277 0.0284331 0)
(167.325 0.0311229 0)
(179.977 0.0339507 0)
(192.205 0.0368771 0)
(203.957 0.0397432 0)
(215.205 0.0425613 0)
(225.952 0.0454162 0)
(236.215 0.0482205 0)
(246.028 0.0510132 0)
(255.429 0.0537758 0)
(264.472 0.0566206 0)
(273.234 0.0594017 0)
(281.777 0.0620024 0)
(290.141 0.06457 0)
(298.357 0.0671543 0)
(306.461 0.0695694 0)
(314.483 0.0719094 0)
(322.461 0.0743732 0)
(330.427 0.0766422 0)
(338.425 0.0794818 0)
(346.497 0.0819814 0)
(354.71 0.0848451 0)
(363.128 0.0884689 0)
(371.82 0.0928509 0)
(380.874 0.0973798 0)
(390.418 0.103584 0)
(400.758 0.110939 0)
(412.54 0.121438 0)
(428.098 0.14132 0)
(460.664 0.331706 0)
(542.055 2.00949 0)
(3.85516 0.00189613 0)
(11.7385 0.00411592 0)
(20.9841 0.00559103 0)
(31.4124 0.00679034 0)
(38.1178 0.00799257 0)
(47.2947 0.0104597 0)
(69.4444 0.0128297 0)
(65.242 0.0102052 0)
(76.1259 0.0145874 0)
(87.9193 0.016521 0)
(100.474 0.0185711 0)
(113.619 0.0207862 0)
(127.118 0.0232215 0)
(140.684 0.0257793 0)
(154.063 0.0284385 0)
(167.087 0.0311603 0)
(179.711 0.0339178 0)
(191.911 0.0368022 0)
(203.634 0.0397436 0)
(214.849 0.0425931 0)
(225.558 0.0453658 0)
(235.781 0.0481626 0)
(245.546 0.0509134 0)
(254.897 0.0537086 0)
(263.884 0.0564986 0)
(272.584 0.0592431 0)
(281.064 0.061844 0)
(289.354 0.0643047 0)
(297.493 0.0667584 0)
(305.508 0.0692634 0)
(313.432 0.0716249 0)
(321.293 0.0739351 0)
(329.127 0.076404 0)
(336.963 0.07869 0)
(344.846 0.081589 0)
(352.818 0.0841626 0)
(360.943 0.0871457 0)
(369.288 0.0909617 0)
(377.922 0.0956676 0)
(386.936 0.100629 0)
(396.467 0.107432 0)
(406.848 0.115665 0)
(418.809 0.127665 0)
(435.023 0.153709 0)
(470.635 0.399487 0)
(549.672 2.05373 0)
(3.82721 0.00192637 0)
(11.6252 0.0041598 0)
(19.7767 0.0055284 0)
(29.8689 0.00710728 0)
(41.2928 0.00818561 0)
(47.7865 0.00932165 0)
(57.4485 0.0123539 0)
(82.2787 0.0151304 0)
(76.1869 0.0110914 0)
(87.8334 0.0164234 0)
(100.351 0.018533 0)
(113.483 0.0207695 0)
(126.961 0.0231695 0)
(140.507 0.0257758 0)
(153.863 0.0284466 0)
(166.863 0.0311642 0)
(179.463 0.0339518 0)
(191.637 0.0367633 0)
(203.331 0.0396598 0)
(214.518 0.0425848 0)
(225.195 0.045392 0)
(235.38 0.0481046 0)
(245.105 0.0508476 0)
(254.409 0.053587 0)
(263.344 0.0564132 0)
(271.988 0.0591067 0)
(280.406 0.0616617 0)
(288.633 0.0641201 0)
(296.698 0.0664692 0)
(304.635 0.0688298 0)
(312.469 0.0712787 0)
(320.231 0.0736079 0)
(327.946 0.0759111 0)
(335.65 0.0784062 0)
(343.369 0.0807297 0)
(351.149 0.0837088 0)
(359.031 0.0863793 0)
(367.079 0.0895111 0)
(375.36 0.0935549 0)
(383.945 0.0986342 0)
(392.928 0.104098 0)
(402.461 0.111593 0)
(412.905 0.120851 0)
(425.092 0.134654 0)
(442.117 0.169283 0)
(481.02 0.487732 0)
(556.171 2.08511 0)
(3.8225 0.00193081 0)
(11.5303 0.00418287 0)
(19.5515 0.00556144 0)
(28.0907 0.00693909 0)
(39.173 0.00871076 0)
(51.7431 0.00960858 0)
(58.079 0.0106999 0)
(68.2974 0.0144521 0)
(95.6428 0.0176952 0)
(87.8859 0.0119585 0)
(100.254 0.0184177 0)
(113.346 0.0207256 0)
(126.812 0.0231531 0)
(140.338 0.0257228 0)
(153.675 0.0284439 0)
(166.653 0.031174 0)
(179.229 0.0339537 0)
(191.379 0.036793 0)
(203.048 0.0396143 0)
(214.209 0.0424922 0)
(224.857 0.0453739 0)
(235.01 0.0481242 0)
(244.698 0.0507818 0)
(253.961 0.0535083 0)
(262.849 0.0562688 0)
(271.441 0.0590117 0)
(279.801 0.0615102 0)
(287.966 0.0639106 0)
(295.967 0.0662565 0)
(303.83 0.0685145 0)
(311.586 0.0708056 0)
(319.258 0.0732197 0)
(326.873 0.0755373 0)
(334.458 0.0778557 0)
(342.044 0.0803987 0)
(349.657 0.0827815 0)
(357.344 0.0858618 0)
(365.145 0.0886543 0)
(373.125 0.0919675 0)
(381.351 0.0962799 0)
(389.896 0.10179 0)
(398.86 0.107837 0)
(408.409 0.116137 0)
(418.941 0.126605 0)
(431.413 0.142619 0)
(449.474 0.189462 0)
(491.656 0.603927 0)
(560.747 2.10706 0)
(3.82126 0.00194462 0)
(11.5109 0.0041841 0)
(19.3696 0.00559044 0)
(27.73 0.00694432 0)
(36.7766 0.00840045 0)
(48.9947 0.0104308 0)
(62.8481 0.0111003 0)
(69.0705 0.0121435 0)
(79.8938 0.0167958 0)
(109.135 0.0205333 0)
(100.291 0.0128457 0)
(113.239 0.02059 0)
(126.663 0.0231023 0)
(140.178 0.0257075 0)
(153.496 0.0283917 0)
(166.455 0.031173 0)
(179.009 0.0339666 0)
(191.137 0.0367923 0)
(202.783 0.0396387 0)
(213.919 0.0424389 0)
(224.541 0.0452723 0)
(234.667 0.0480951 0)
(244.322 0.0507933 0)
(253.548 0.0534299 0)
(262.395 0.056176 0)
(270.939 0.0588519 0)
(279.247 0.0614033 0)
(287.354 0.0637403 0)
(295.293 0.0660187 0)
(303.091 0.0682712 0)
(310.773 0.0704618 0)
(318.366 0.0727049 0)
(325.89 0.0751059 0)
(333.374 0.0774321 0)
(340.84 0.0797879 0)
(348.319 0.0824008 0)
(355.837 0.0848653 0)
(363.441 0.0880704 0)
(371.17 0.0910125 0)
(379.089 0.0945442 0)
(387.269 0.0991732 0)
(395.783 0.105181 0)
(404.739 0.111906 0)
(414.321 0.121147 0)
(424.971 0.133057 0)
(437.795 0.15188 0)
(457.176 0.216016 0)
(502.179 0.752739 0)
(563.43 2.12666 0)
(3.81998 0.00196121 0)
(11.5041 0.00421327 0)
(19.3266 0.00558608 0)
(27.4456 0.00698882 0)
(36.2602 0.00835026 0)
(45.9334 0.00993056 0)
(59.4267 0.0123139 0)
(74.6437 0.0126708 0)
(80.8036 0.013674 0)
(92.2249 0.0194181 0)
(122.308 0.0236052 0)
(113.255 0.0138104 0)
(126.545 0.0229443 0)
(140.017 0.0256484 0)
(153.326 0.0283782 0)
(166.266 0.0311227 0)
(178.802 0.0339674 0)
(190.908 0.0368098 0)
(202.533 0.0396346 0)
(213.647 0.042457 0)
(224.245 0.0452098 0)
(234.344 0.0479835 0)
(243.973 0.0507516 0)
(253.166 0.0534281 0)
(261.976 0.0560833 0)
(270.479 0.0587531 0)
(278.738 0.0612287 0)
(286.793 0.0636159 0)
(294.673 0.065829 0)
(302.409 0.0680031 0)
(310.026 0.0701858 0)
(317.544 0.0723304 0)
(324.989 0.0745467 0)
(332.381 0.0769551 0)
(339.744 0.0793099 0)
(347.103 0.0817258 0)
(354.486 0.0844323 0)
(361.919 0.0870029 0)
(369.447 0.0903582 0)
(377.112 0.0934818 0)
(384.979 0.0972746 0)
(393.12 0.102276 0)
(401.614 0.108858 0)
(410.574 0.116375 0)
(420.207 0.126724 0)
(431.01 0.14036 0)
(444.267 0.162931 0)
(465.275 0.250957 0)
(512.161 0.930631 0)
(565.018 2.14451 0)
(3.81766 0.00197258 0)
(11.4986 0.00425052 0)
(19.3082 0.00561942 0)
(27.3719 0.00697567 0)
(35.8599 0.00840043 0)
(45.2441 0.00980138 0)
(55.659 0.0115656 0)
(70.5307 0.0143938 0)
(87.0765 0.0143367 0)
(93.252 0.0153205 0)
(105.183 0.0223318 0)
(134.758 0.0268449 0)
(126.534 0.0149147 0)
(139.891 0.0254687 0)
(153.155 0.0283095 0)
(166.087 0.0311123 0)
(178.604 0.0339206 0)
(190.692 0.0368126 0)
(202.297 0.0396583 0)
(213.39 0.0424491 0)
(223.967 0.0452208 0)
(234.043 0.0479112 0)
(243.646 0.0506292 0)
(252.812 0.0533686 0)
(261.589 0.0560683 0)
(270.053 0.058653 0)
(278.271 0.0611242 0)
(286.277 0.0634228 0)
(294.105 0.0656861 0)
(301.782 0.0677925 0)
(309.335 0.069886 0)
(316.788 0.0720189 0)
(324.158 0.0741385 0)
(331.47 0.0763487 0)
(338.742 0.0787856 0)
(345.997 0.0811897 0)
(353.258 0.0836897 0)
(360.554 0.0865144 0)
(367.909 0.0892181 0)
(375.37 0.0927518 0)
(382.979 0.0960931 0)
(390.802 0.100195 0)
(398.914 0.105634 0)
(407.395 0.112883 0)
(416.374 0.121325 0)
(426.079 0.132986 0)
(437.076 0.148702 0)
(450.859 0.176448 0)
(473.803 0.296689 0)
(521.605 1.12394 0)
(566.212 2.15622 0)
(3.81583 0.00198414 0)
(11.49 0.00427395 0)