/*--------------------------------*- C++ -*----------------------------------*\
| =========                 |                                                 |
| \\      /  F ield         | OpenFOAM: The Open Source CFD Toolbox           |
|  \\    /   O peration     | Version:  v2012                                 |
|   \\  /    A nd           | Website:  www.openfoam.com                      |
|    \\/     M anipulation  |                                                 |
\*---------------------------------------------------------------------------*/
FoamFile
{
    version     2.0;
    format      ascii;
    class       volScalarField;
    location    "13380";
    object      V;
}
// * * * * * * * * * * * * * * * * * * * * * * * * * * * * * * * * * * * * * //

dimensions      [0 3 0 0 0 0 0];


internalField   nonuniform List<scalar> 
31383
(
1.1565e-09
1.0986e-09
1.17034e-09
1.0437e-09
1.11175e-09
1.19821e-09
9.914e-10
1.05619e-09
1.13823e-09
1.24043e-09
9.418e-10
1.00327e-09
1.08135e-09
1.17833e-09
1.29748e-09
8.946e-10
9.53073e-10
1.02716e-09
1.11944e-09
1.23252e-09
1.37009e-09
8.498e-10
9.05308e-10
9.75771e-10
1.06334e-09
1.17093e-09
1.30149e-09
1.45909e-09
8.072e-10
8.59972e-10
9.26868e-10
1.01014e-09
1.11226e-09
1.23645e-09
1.38604e-09
1.56557e-09
7.667e-10
8.16862e-10
8.80452e-10
9.59512e-10
1.05661e-09
1.17449e-09
1.31678e-09
1.48719e-09
1.69085e-09
7.283e-10
7.75877e-10
8.36316e-10
9.11461e-10
1.00366e-09
1.11573e-09
1.25079e-09
1.41287e-09
1.60615e-09
1.83618e-09
6.916e-10
7.37018e-10
7.94355e-10
8.6577e-10
9.53391e-10
1.05981e-09
1.18821e-09
1.34206e-09
1.52584e-09
1.7443e-09
2.00375e-09
6.57e-10
6.99878e-10
7.5457e-10
8.22332e-10
9.05598e-10
1.00674e-09
1.12866e-09
1.27492e-09
1.44939e-09
1.65719e-09
1.90343e-09
2.19521e-09
6.24e-10
6.64864e-10
7.16546e-10
7.81145e-10
8.60161e-10
9.56274e-10
1.07214e-09
1.21102e-09
1.37688e-09
1.57414e-09
1.80831e-09
2.08525e-09
2.41292e-09
5.899e-10
6.31469e-10
6.80698e-10
7.41782e-10
8.1708e-10
9.0829e-10
1.01839e-09
1.15037e-09
1.30788e-09
1.49539e-09
1.71765e-09
1.98105e-09
2.29212e-09
2.65955e-09
5.604e-10
5.96961e-10
6.46508e-10
7.04672e-10
7.75906e-10
8.62795e-10
9.67296e-10
1.09271e-09
1.24239e-09
1.42045e-09
1.63167e-09
1.88178e-09
2.17758e-09
2.5264e-09
2.93803e-09
5.324e-10
5.67108e-10
6.11178e-10
6.69277e-10
7.37088e-10
8.19318e-10
9.18849e-10
1.03788e-09
1.18012e-09
1.34927e-09
1.54989e-09
1.78763e-09
2.06846e-09
2.40009e-09
2.79094e-09
3.25173e-09
5.0575e-10
5.38773e-10
5.80614e-10
6.32703e-10
7.00066e-10
7.78328e-10
8.72543e-10
9.85896e-10
1.12091e-09
1.28159e-09
1.47232e-09
1.69804e-09
1.96497e-09
2.27982e-09
2.65147e-09
3.08888e-09
3.60435e-09
4.8043e-10
5.11804e-10
5.51604e-10
6.01063e-10
6.61809e-10
7.39234e-10
8.28888e-10
9.36215e-10
1.06477e-09
1.21729e-09
1.39855e-09
1.61301e-09
1.86645e-09
2.16576e-09
2.51855e-09
2.93447e-09
3.42384e-09
3.99999e-09
4.5637e-10
4.86181e-10
5.23992e-10
5.71031e-10
6.2871e-10
6.98834e-10
7.87251e-10
8.89378e-10
1.01112e-09
1.15632e-09
1.32838e-09
1.53211e-09
1.77294e-09
2.05727e-09
2.39255e-09
2.78747e-09
3.25274e-09
3.79978e-09
4.44374e-09
4.335e-10
4.61833e-10
4.97759e-10
5.42447e-10
5.97294e-10
6.63886e-10
7.44233e-10
8.44706e-10
9.60508e-10
1.09805e-09
1.26182e-09
1.4552e-09
1.6841e-09
1.95424e-09
2.2726e-09
2.64801e-09
3.08975e-09
3.6099e-09
4.22121e-09
4.94063e-09
4.1178e-10
4.38689e-10
4.72831e-10
5.1529e-10
5.67396e-10
6.30718e-10
7.07017e-10
7.98542e-10
9.12235e-10
1.04315e-09
1.1982e-09
1.38235e-09
1.59964e-09
1.85624e-09
2.15879e-09
2.51526e-09
2.93512e-09
3.42891e-09
4.01021e-09
4.69322e-09
5.49661e-09
3.8708e-10
4.16709e-10
4.49136e-10
4.89484e-10
5.3899e-10
5.99147e-10
6.71689e-10
7.58605e-10
8.62387e-10
9.90787e-10
1.13825e-09
1.31273e-09
1.51949e-09
1.76306e-09
2.05057e-09
2.3893e-09
2.78802e-09
3.25731e-09
3.80926e-09
4.45863e-09
5.22137e-09
6.11841e-09
3.6415e-10
3.91713e-10
4.26633e-10
4.64953e-10
5.11997e-10
5.69151e-10
6.38064e-10
7.20702e-10
8.19263e-10
9.36643e-10
1.08108e-09
1.24705e-09
1.44289e-09
1.67476e-09
1.94769e-09
2.26952e-09
2.64836e-09
3.09406e-09
3.61868e-09
4.23516e-09
4.96039e-09
5.81209e-09
6.81364e-09
3.4293e-10
3.68509e-10
4.01042e-10
4.41655e-10
4.86341e-10
5.40648e-10
6.0612e-10
6.84626e-10
7.78332e-10
8.89803e-10
1.022e-09
1.18438e-09
1.3707e-09
1.5904e-09
1.85014e-09
2.15562e-09
2.51556e-09
2.93912e-09
3.43732e-09
4.02328e-09
4.71183e-09
5.52164e-09
6.4724e-09
7.59028e-09
3.2333e-10
3.47035e-10
3.77285e-10
4.15163e-10
4.61976e-10
5.13554e-10
5.75766e-10
6.50348e-10
7.39374e-10
8.45318e-10
9.70893e-10
1.11963e-09
1.30188e-09
1.5108e-09
1.75687e-09
2.04765e-09
2.38938e-09
2.79178e-09
3.26514e-09
3.8216e-09
4.47605e-09
5.24485e-09
6.14885e-09
7.21022e-09
8.45789e-09
3.0533e-10
3.272e-10
3.55299e-10
3.90569e-10
4.34265e-10
4.87821e-10
5.4691e-10
6.17779e-10
7.0236e-10
8.02979e-10
9.2241e-10
1.06364e-09
1.23074e-09
1.43489e-09
1.66901e-09
1.94447e-09
2.26971e-09
2.65167e-09
3.10142e-09
3.63022e-09
4.25168e-09
4.9824e-09
5.84073e-09
6.84986e-09
8.03434e-09
9.42669e-09
2.8748e-10
3.08985e-10
3.34993e-10
3.6781e-10
4.0854e-10
4.58558e-10
5.19508e-10
5.8682e-10
6.67186e-10
7.62779e-10
8.76262e-10
1.0105e-09
1.16916e-09
1.3565e-09
1.58518e-09
1.84716e-09
2.1553e-09
2.51886e-09
2.94581e-09
3.44824e-09
4.03872e-09
4.7327e-09
5.54847e-09
6.50651e-09
7.63279e-09
8.95469e-09
1.05085e-08
2.7264e-10
2.90921e-10
3.16343e-10
3.46788e-10
3.84733e-10
4.31394e-10
4.88348e-10
5.57418e-10
6.33753e-10
7.24579e-10
8.32369e-10
9.59914e-10
1.11075e-09
1.2887e-09
1.49852e-09
1.75438e-09
2.04747e-09
2.39197e-09
2.79824e-09
3.27519e-09
3.83626e-09
4.4957e-09
5.27036e-09
6.18094e-09
7.25026e-09
8.50709e-09
9.98226e-09
1.17161e-08
2.5922e-10
2.75904e-10
2.97849e-10
3.27482e-10
3.62744e-10
4.06255e-10
4.59419e-10
5.23982e-10
6.02002e-10
6.88268e-10
7.90661e-10
9.1188e-10
1.05515e-09
1.22428e-09
1.42358e-09
1.6585e-09
1.94463e-09
2.27227e-09
2.6572e-09
3.11115e-09
3.64378e-09
4.27029e-09
5.00638e-09
5.87113e-09
6.88743e-09
8.0807e-09
9.48337e-09
1.11294e-08
1.30638e-08
2.4723e-10
2.62323e-10
2.82474e-10
3.08337e-10
3.4255e-10
3.83036e-10
4.32647e-10
4.92941e-10
5.65892e-10
6.53783e-10
7.51039e-10
8.66236e-10
1.00232e-09
1.16297e-09
1.35246e-09
1.57556e-09
1.83833e-09
2.1581e-09
2.52426e-09
2.95434e-09
3.46125e-09
4.056e-09
4.75538e-09
5.57707e-09
6.54221e-09
7.67642e-09
9.00811e-09
1.05731e-08
1.24095e-08
1.45684e-08
2.3659e-10
2.50189e-10
2.6857e-10
2.9242e-10
3.22524e-10
3.61712e-10
4.0792e-10
4.64214e-10
5.32371e-10
6.14567e-10
7.13409e-10
8.22805e-10
9.52102e-10
1.10475e-09
1.28476e-09
1.49684e-09
1.74637e-09
2.0402e-09
2.39747e-09
2.80651e-09
3.28683e-09
3.85282e-09
4.51674e-09
5.29745e-09
6.21454e-09
7.29162e-09
8.55729e-09
1.00431e-08
1.17891e-08
1.38391e-08
1.62471e-08
2.2733e-10
2.39422e-10
2.56148e-10
2.78026e-10
3.05875e-10
3.40566e-10
3.85209e-10
4.37682e-10
5.0135e-10
5.78161e-10
6.70616e-10
7.81558e-10
9.04389e-10
1.04945e-09
1.22044e-09
1.42192e-09
1.65912e-09
1.93817e-09
2.26645e-09
2.66554e-09
3.12239e-09
3.65863e-09
4.29049e-09
5.03162e-09
5.90293e-09
6.92638e-09
8.12834e-09
9.54062e-09
1.11986e-08
1.31475e-08
1.54331e-08
1.812e-08
2.1941e-10
2.30051e-10
2.45124e-10
2.65167e-10
2.90818e-10
3.22986e-10
3.62688e-10
4.13318e-10
4.72696e-10
5.4447e-10
6.3089e-10
7.34678e-10
8.59097e-10
9.96855e-10
1.15929e-09
1.3507e-09
1.57607e-09
1.84131e-09
2.15311e-09
2.51985e-09
2.96553e-09
3.47556e-09
4.07428e-09
4.77961e-09
5.60672e-09
6.57916e-09
7.72124e-09
9.06239e-09
1.06385e-08
1.24882e-08
1.46619e-08
1.72129e-08
2.0211e-08
2.1281e-10
2.22036e-10
2.3553e-10
2.53755e-10
2.77365e-10
3.07089e-10
3.43965e-10
3.89156e-10
4.4638e-10
5.13351e-10
5.94126e-10
6.91157e-10
8.07565e-10
9.46888e-10
1.1012e-09
1.28306e-09
1.49716e-09
1.74914e-09
2.04553e-09
2.3938e-09
2.80344e-09
3.30099e-09
3.87045e-09
4.53873e-09
5.32588e-09
6.24903e-09
7.3341e-09
8.60843e-09
1.0105e-08
1.18629e-08
1.39272e-08
1.63527e-08
1.91986e-08
2.25425e-08
2.0755e-10
2.15357e-10
2.27324e-10
2.43823e-10
2.65428e-10
2.92886e-10
3.27035e-10
3.69066e-10
4.20284e-10
4.84772e-10
5.60169e-10
6.50881e-10
7.59726e-10
8.9009e-10
1.04604e-09
1.21879e-09
1.42219e-09
1.66157e-09
1.94312e-09
2.2742e-09
2.66324e-09
3.1206e-09
3.67602e-09
4.31163e-09
5.05746e-09
5.93597e-09
6.96604e-09
8.17686e-09
9.59866e-09
1.12684e-08
1.32304e-08
1.55328e-08
1.82387e-08
2.14139e-08
2.51458e-08
2.0362e-10
2.10034e-10
2.20486e-10
2.35328e-10
2.55039e-10
2.8028e-10
3.11908e-10
3.50898e-10
3.9859e-10
4.56432e-10
5.28984e-10
6.1368e-10
7.15455e-10
8.37363e-10
9.83299e-10
1.1577e-09
1.35092e-09
1.57836e-09
1.84584e-09
2.16036e-09
2.53018e-09
2.96452e-09
3.4751e-09
4.09503e-09
4.80441e-09
5.63682e-09
6.61712e-09
7.76656e-09
9.11753e-09
1.07041e-08
1.25673e-08
1.47552e-08
1.73247e-08
2.03433e-08
2.38863e-08
2.8048e-08
2.0105e-10
2.06057e-10
2.15036e-10
2.28249e-10
2.46154e-10
2.69309e-10
2.98485e-10
3.34668e-10
3.78972e-10
4.32871e-10
4.98059e-10
5.79516e-10
6.74563e-10
7.88568e-10
9.25032e-10
1.08824e-09
1.28323e-09
1.49924e-09
1.7534e-09
2.0522e-09
2.40353e-09
2.8164e-09
3.30132e-09
3.87122e-09
4.56309e-09
5.35478e-09
6.28364e-09
7.3775e-09
8.66011e-09
1.01675e-08
1.1938e-08
1.40157e-08
1.6458e-08
1.93239e-08
2.26921e-08
2.66438e-08
3.1288e-08
1.9983e-10
2.03457e-10
2.10964e-10
2.22608e-10
2.38749e-10
2.59926e-10
2.86804e-10
3.20265e-10
3.61443e-10
4.11564e-10
4.72349e-10
5.45637e-10
6.3701e-10
7.43497e-10
8.71111e-10
1.02379e-09
1.20626e-09
1.42412e-09
1.66551e-09
1.94943e-09
2.28317e-09
2.67539e-09
3.13634e-09
3.6776e-09
4.31373e-09
5.08576e-09
5.96924e-09
7.00567e-09
8.22604e-09
9.65735e-09
1.13391e-08
1.33138e-08
1.56327e-08
1.83571e-08
2.15545e-08
2.53123e-08
2.9721e-08
3.49014e-08
2e-10
2.02222e-10
2.083e-10
2.18394e-10
2.32848e-10
2.52107e-10
2.76812e-10
3.0773e-10
3.45887e-10
3.92527e-10
4.49099e-10
5.17471e-10
5.99755e-10
7.02091e-10
8.21323e-10
9.64148e-10
1.1348e-09
1.3387e-09
1.58206e-09
1.85174e-09
2.16881e-09
2.54143e-09
2.97935e-09
3.49382e-09
4.09798e-09
4.8078e-09
5.66938e-09
6.65515e-09
7.81152e-09
9.17367e-09
1.07698e-08
1.26464e-08
1.48494e-08
1.74366e-08
2.04757e-08
2.40434e-08
2.82352e-08
3.31536e-08
3.89336e-08
2.26903e-10
2.02394e-10
2.07036e-10
2.15638e-10
2.28439e-10
2.45876e-10
2.68484e-10
2.97008e-10
3.3235e-10
3.75634e-10
4.28326e-10
4.92e-10
5.68782e-10
6.61046e-10
7.75615e-10
9.09026e-10
1.06866e-09
1.25938e-09
1.48716e-09
1.75894e-09
2.06012e-09
2.41415e-09
2.83019e-09
3.31893e-09
3.8932e-09
4.56734e-09
5.35954e-09
6.32084e-09
7.42068e-09
8.71105e-09
1.02304e-08
1.20119e-08
1.4105e-08
1.65635e-08
1.94495e-08
2.28405e-08
2.68198e-08
3.14968e-08
3.69838e-08
4.34318e-08
2.12068e-10
2.31596e-10
2.07212e-10
2.1433e-10
2.25556e-10
2.4122e-10
2.61847e-10
2.88073e-10
3.20772e-10
3.60932e-10
4.0988e-10
4.69243e-10
5.40785e-10
6.26936e-10
7.30285e-10
8.58405e-10
1.00758e-09
1.18599e-09
1.39906e-09
1.65343e-09
1.9569e-09
2.29317e-09
2.68843e-09
3.15277e-09
3.69827e-09
4.33914e-09
5.09149e-09
5.97536e-09
7.04792e-09
8.27524e-09
9.71491e-09
1.14103e-08
1.33973e-08
1.57331e-08
1.84755e-08
2.16958e-08
2.54776e-08
2.9918e-08
3.51346e-08
4.12563e-08
4.84493e-08
1.96986e-10
2.18481e-10
2.38506e-10
2.14512e-10
2.24187e-10
2.38176e-10
2.56889e-10
2.80954e-10
3.11124e-10
3.48357e-10
3.93826e-10
4.4906e-10
5.15771e-10
5.96076e-10
6.92587e-10
8.08221e-10
9.515e-10
1.1182e-09
1.31754e-09
1.55548e-09
1.8395e-09
2.17828e-09
2.55368e-09
2.99486e-09
3.5131e-09
4.12194e-09
4.83704e-09
5.67652e-09
6.66274e-09
7.85959e-09
9.22888e-09
1.08353e-08
1.27263e-08
1.49434e-08
1.75489e-08
2.06085e-08
2.42003e-08
2.84202e-08
3.33735e-08
3.91941e-08
4.60231e-08
5.40479e-08
1.82374e-10
2.03519e-10
2.26428e-10
2.47898e-10
2.24378e-10
2.36731e-10
2.53647e-10
2.75634e-10
3.03434e-10
3.37878e-10
3.80106e-10
4.31484e-10
4.93574e-10
5.68505e-10
6.58484e-10
7.665e-10
8.9586e-10
1.05595e-09
1.24223e-09
1.46483e-09
1.73053e-09
2.04761e-09
2.42571e-09
2.84478e-09
3.33716e-09
3.91555e-09
4.59489e-09
5.39289e-09
6.32949e-09
7.43009e-09
8.76533e-09
1.02929e-08
1.2085e-08
1.41946e-08
1.66681e-08
1.9575e-08
2.29884e-08
2.69959e-08
3.17038e-08
3.723e-08
4.37222e-08
5.13409e-08
6.0293e-08
1.68233e-10
1.88008e-10
2.11336e-10
2.36339e-10
2.60004e-10
2.36932e-10
2.52108e-10
2.72155e-10
2.97688e-10
3.29527e-10
3.68672e-10
4.1644e-10
4.74267e-10
5.44039e-10
6.28014e-10
7.28771e-10
8.49601e-10
9.94221e-10
1.17306e-09
1.3811e-09
1.62971e-09
1.9263e-09
2.28021e-09
2.70224e-09
3.1699e-09
3.71944e-09
4.36483e-09
5.12292e-09
6.01317e-09
7.05852e-09
8.28603e-09
9.77558e-09
1.14804e-08
1.34793e-08
1.58332e-08
1.85932e-08
2.1836e-08
2.5644e-08
3.01145e-08
3.53665e-08
4.15302e-08
4.87747e-08
5.72739e-08
6.72603e-08
1.55357e-10
1.72078e-10
1.94942e-10
2.20864e-10
2.48595e-10
2.7505e-10
2.52322e-10
2.70504e-10
2.93921e-10
3.23287e-10
3.5956e-10
4.03913e-10
4.57755e-10
5.22745e-10
6.00986e-10
6.95062e-10
8.07794e-10
9.42898e-10
1.10448e-09
1.30422e-09
1.53654e-09
1.81403e-09
2.14513e-09
2.54014e-09
3.01108e-09
3.53303e-09
4.14624e-09
4.86642e-09
5.71209e-09
6.70584e-09
7.87166e-09
9.24137e-09
1.09038e-08
1.28046e-08
1.5035e-08
1.76616e-08
2.074e-08
2.43577e-08
2.8606e-08
3.35931e-08
3.94525e-08
4.63296e-08
5.44107e-08
6.38918e-08
7.50337e-08
1.4361e-10
1.57962e-10
1.7748e-10
2.03526e-10
2.32527e-10
2.63471e-10
2.93269e-10
2.70734e-10
2.92127e-10
3.19207e-10
3.52751e-10
3.9393e-10
4.43986e-10
5.04533e-10
5.77464e-10
6.65149e-10
7.70443e-10
8.96486e-10
1.04747e-09
1.22797e-09
1.45099e-09
1.71035e-09
2.02013e-09
2.38964e-09
2.83046e-09
3.35599e-09
3.93846e-09
4.62266e-09
5.42629e-09
6.37017e-09
7.47836e-09
8.77923e-09
1.03079e-08
1.21611e-08
1.42829e-08
1.67713e-08
1.97012e-08
2.31352e-08
2.7172e-08
3.19104e-08
3.74748e-08
4.40108e-08
5.16832e-08
6.06979e-08
7.1275e-08
8.37046e-08
1.32876e-10
1.45391e-10
1.62263e-10
1.84637e-10
2.14134e-10
2.46563e-10
2.81271e-10
3.14913e-10
2.92376e-10
3.1727e-10
3.48309e-10
3.86471e-10
4.33012e-10
4.89346e-10
5.57345e-10
6.39116e-10
7.37274e-10
8.55008e-10
9.95897e-10
1.16458e-09
1.36616e-09
1.61515e-09
1.90467e-09
2.25038e-09
2.66277e-09
3.15466e-09
3.7411e-09
4.39096e-09
5.15447e-09
6.05102e-09
7.10376e-09
8.34058e-09
9.79215e-09
1.14966e-08
1.35658e-08
1.59323e-08
1.87085e-08
2.19761e-08
2.58083e-08
3.03104e-08
3.55973e-08
4.18047e-08
4.90965e-08
5.76559e-08
6.77121e-08
7.95128e-08
9.33781e-08
1.23081e-10
1.34151e-10
1.48918e-10
1.68347e-10
1.93798e-10
2.26954e-10
2.63315e-10
3.02251e-10
3.40261e-10
3.1754e-10
3.46205e-10
3.81593e-10
4.24812e-10
4.7724e-10
5.40591e-10
6.16849e-10
7.08406e-10
8.18211e-10
9.49845e-10
1.10726e-09
1.29564e-09
1.52073e-09
1.79862e-09
2.12176e-09
2.50761e-09
2.96779e-09
3.51668e-09
4.17096e-09
4.8961e-09
5.74798e-09
6.74812e-09
7.92308e-09
9.30263e-09
1.09216e-08
1.28244e-08
1.51317e-08
1.77722e-08
2.08683e-08
2.45153e-08
2.87892e-08
3.38124e-08
3.97107e-08
4.66355e-08
5.47708e-08
6.43181e-08
7.55378e-08
8.87015e-08
1.0417e-07
1.14035e-10
1.24096e-10
1.37146e-10
1.54198e-10
1.76378e-10
2.05082e-10
2.42308e-10
2.82982e-10
3.26733e-10
3.69632e-10
3.465e-10
3.79277e-10
4.19451e-10
4.68204e-10
5.27239e-10
5.98294e-10
6.83725e-10
7.86198e-10
9.08967e-10
1.05604e-09
1.23187e-09
1.44221e-09
1.69346e-09
2.00364e-09
2.36429e-09
2.79485e-09
3.30834e-09
3.92077e-09
4.65089e-09
5.45993e-09
6.41017e-09
7.52642e-09
8.83697e-09
1.03759e-08
1.21828e-08
1.43045e-08
1.68792e-08
1.98243e-08
2.32796e-08
2.73469e-08
3.21155e-08
3.77196e-08
4.42996e-08
5.20246e-08
6.10988e-08
7.17511e-08
8.42673e-08
9.89525e-08
1.16209e-07
1.05686e-10
1.14878e-10
1.26749e-10
1.4183e-10
1.61338e-10
1.86427e-10
2.18739e-10
2.6035e-10
3.05914e-10
3.55004e-10
4.03412e-10
3.796e-10
4.16895e-10
4.62294e-10
5.17246e-10
5.83496e-10
6.63159e-10
7.58808e-10
8.73379e-10
1.01059e-09
1.17487e-09
1.37121e-09
1.60604e-09
1.8865e-09
2.23265e-09
2.63509e-09
3.11554e-09
3.68849e-09
4.37182e-09
5.18616e-09
6.08894e-09
7.14949e-09
8.39455e-09
9.85656e-09
1.15738e-08
1.35894e-08
1.59565e-08
1.88286e-08
2.21146e-08
2.59689e-08
3.0507e-08
3.58267e-08
4.20781e-08
4.94184e-08
5.80358e-08
6.81604e-08
8.00432e-08
9.40055e-08
1.10389e-07
1.29642e-07
9.79372e-11
1.06422e-10
1.17265e-10
1.31e-10
1.48281e-10
1.70377e-10
1.98688e-10
2.34891e-10
2.81415e-10
3.3236e-10
3.87463e-10
4.41978e-10
4.1724e-10
4.59499e-10
5.10707e-10
5.72447e-10
6.46778e-10
7.35971e-10
8.42951e-10
9.7104e-10
1.12431e-09
1.30778e-09
1.52699e-09
1.78912e-09
2.10211e-09
2.48838e-09
2.93745e-09
3.47354e-09
4.11276e-09
4.87508e-09
5.78386e-09
6.79121e-09
7.97415e-09
9.3631e-09
1.09945e-08
1.29104e-08
1.51583e-08
1.77996e-08
2.10038e-08
2.46697e-08
2.89694e-08
3.40316e-08
3.99665e-08
4.69407e-08
5.51287e-08
6.47435e-08
7.60372e-08
8.92934e-08
1.0487e-07
1.23148e-07
1.4462e-07
9.07579e-11
9.85786e-11
1.08601e-10
1.21151e-10
1.36896e-10
1.56515e-10
1.81482e-10
2.13265e-10
2.53819e-10
3.05712e-10
3.62688e-10
4.24462e-10
4.8579e-10
4.599e-10
5.07608e-10
5.65232e-10
6.34531e-10
7.1777e-10
8.17595e-10
9.37199e-10
1.08031e-09
1.2515e-09
1.45636e-09
1.70105e-09
1.9936e-09
2.3429e-09
2.77392e-09
3.27501e-09
3.87319e-09
4.58647e-09
5.43693e-09
6.45095e-09
7.57433e-09
8.89419e-09
1.04438e-08
1.22639e-08
1.44009e-08
1.69092e-08
1.9856e-08
2.34303e-08
2.75194e-08
3.23164e-08
3.79645e-08
4.45848e-08
5.23643e-08
6.15005e-08
7.22251e-08
8.48246e-08
9.96134e-08
1.16989e-07
1.3738e-07
1.61338e-07
8.41103e-11
9.13131e-11
1.00567e-10
1.1218e-10
1.26571e-10
1.44457e-10
1.66657e-10
1.94729e-10
2.30385e-10
2.75701e-10
3.3359e-10
3.97195e-10
4.66492e-10
5.35436e-10
5.0804e-10
5.61802e-10
6.26512e-10
7.04189e-10
7.97386e-10
9.09007e-10
1.04267e-09
1.20252e-09
1.39368e-09
1.62236e-09
1.89547e-09
2.22196e-09
2.61176e-09
3.09267e-09
3.65172e-09
4.31903e-09
5.11485e-09
6.0638e-09
7.19483e-09
8.44848e-09
9.92057e-09
1.16499e-08
1.368e-08
1.60644e-08
1.88628e-08
2.21493e-08
2.61369e-08
3.06996e-08
3.6051e-08
4.2351e-08
4.97366e-08
5.84167e-08
6.86073e-08
8.05726e-08
9.46283e-08
1.11127e-07
1.30515e-07
1.53255e-07
1.79986e-07
7.79561e-11
8.45989e-11
9.31263e-11
1.03863e-10
1.17181e-10
1.33542e-10
1.53793e-10
1.78785e-10
2.10332e-10
2.50217e-10
3.00841e-10
3.65307e-10
4.36443e-10
5.14022e-10
5.91443e-10
5.6228e-10
6.2271e-10
6.95311e-10
7.82288e-10
8.8655e-10
1.01131e-09
1.16062e-09
1.33912e-09
1.55253e-09
1.8078e-09
2.11258e-09
2.47692e-09
2.91184e-09
3.44835e-09
4.07218e-09
4.81679e-09
5.70441e-09
6.76345e-09
8.02497e-09
9.42342e-09
1.10665e-08
1.29952e-08
1.52602e-08
1.79201e-08
2.10416e-08
2.47086e-08
2.91573e-08
3.42468e-08
4.02162e-08
4.72455e-08
5.54845e-08
6.51673e-08
7.65364e-08
8.9884e-08
1.05566e-07
1.2397e-07
1.45596e-07
1.7097e-07
2.00786e-07
7.2251e-11
7.83941e-11
8.62611e-11
9.61609e-11
1.08479e-10
1.23629e-10
1.42157e-10
1.64974e-10
1.93079e-10
2.28433e-10
2.73051e-10
3.29498e-10
4.01376e-10
4.80701e-10
5.67668e-10
6.54533e-10
6.2324e-10
6.91082e-10
7.72414e-10
8.69753e-10
9.86298e-10
1.12571e-09
1.29247e-09
1.49176e-09
1.72999e-09
2.01485e-09
2.35499e-09
2.76152e-09
3.24683e-09
3.84563e-09
4.54149e-09
5.37217e-09
6.36261e-09
7.54361e-09
8.95148e-09
1.05119e-08
1.23441e-08
1.4496e-08
1.7023e-08
1.99903e-08
2.34729e-08
2.75637e-08
3.2526e-08
3.82039e-08
4.48644e-08
5.27045e-08
6.18968e-08
7.2698e-08
8.53811e-08
1.0027e-07
1.17763e-07
1.38295e-07
1.62421e-07
1.90728e-07
2.23991e-07
6.69656e-11
7.2647e-11
7.99234e-11
8.90605e-11
1.00421e-10
1.14441e-10
1.31592e-10
1.52487e-10
1.78167e-10
2.09661e-10
2.49271e-10
2.99116e-10
3.62111e-10
4.42048e-10
5.30684e-10
6.28001e-10
7.25437e-10
6.9166e-10
7.67727e-10
8.58765e-10
9.67633e-10
1.09789e-09
1.25359e-09
1.43979e-09
1.66228e-09
1.92814e-09
2.24606e-09
2.6256e-09
3.07928e-09
3.62067e-09
4.28867e-09
5.06513e-09
5.99167e-09
7.09692e-09
8.41454e-09
9.98505e-09
1.17253e-08
1.37701e-08
1.61706e-08
1.89894e-08
2.22998e-08
2.6185e-08
3.07485e-08
3.6285e-08
4.26193e-08
5.0048e-08
5.8796e-08
6.90498e-08
8.10998e-08
9.52469e-08
1.11861e-07
1.31372e-07
1.54282e-07
1.81192e-07
2.12777e-07
2.49885e-07
6.20682e-11
6.7324e-11
7.40561e-11
8.251e-11
9.29977e-11
1.05932e-10
1.21819e-10
1.41148e-10
1.64675e-10
1.93473e-10
2.28802e-10
2.73054e-10
3.28753e-10
3.98952e-10
4.88021e-10
5.86782e-10
6.95801e-10
8.05e-10
7.6838e-10
8.53564e-10
9.5542e-10
1.07709e-09
1.22259e-09
1.39648e-09
1.60436e-09
1.85267e-09
2.14938e-09
2.50416e-09
2.92762e-09
3.43363e-09
4.03794e-09
4.78299e-09
5.64922e-09
6.68319e-09
7.91589e-09
9.38592e-09
1.11378e-08
1.308e-08
1.53605e-08
1.80387e-08
2.11831e-08
2.48764e-08
2.92106e-08
3.43015e-08
4.04779e-08
4.75438e-08
5.58325e-08
6.55907e-08
7.70296e-08
9.04742e-08
1.06259e-07
1.24788e-07
1.46563e-07
1.72107e-07
2.02139e-07
2.37369e-07
2.78757e-07
5.75307e-11
6.23957e-11
6.8626e-11
7.64493e-11
8.61512e-11
9.8096e-11
1.12744e-10
1.30671e-10
1.52434e-10
1.78835e-10
2.11142e-10
2.50652e-10
3.00122e-10
3.62265e-10
4.40559e-10
5.3958e-10
6.4989e-10
7.71831e-10
8.94213e-10
8.5429e-10
9.49612e-10
1.06349e-09
1.19944e-09
1.36196e-09
1.55609e-09
1.78813e-09
2.06525e-09
2.39637e-09
2.79212e-09
3.26475e-09
3.8295e-09
4.50337e-09
5.33473e-09
6.30122e-09
7.45461e-09
8.82991e-09
1.04697e-08
1.24244e-08
1.45907e-08
1.71353e-08
2.01223e-08
2.36312e-08
2.77506e-08
3.25856e-08
3.82656e-08
4.51554e-08
5.30386e-08
6.22845e-08
7.31705e-08
8.59321e-08
1.00928e-07
1.18539e-07
1.39218e-07
1.63496e-07
1.92004e-07
2.25502e-07
2.64796e-07
3.10983e-07
5.33257e-11
5.78325e-11
6.35996e-11
7.08392e-11
7.9822e-11
9.08706e-11
1.04407e-10
1.20935e-10
1.41106e-10
1.65557e-10
1.95166e-10
2.31314e-10
2.75542e-10
3.30748e-10
4.00108e-10
4.87269e-10
5.97579e-10
7.20481e-10
8.57087e-10
9.9409e-10
9.5042e-10
1.05704e-09
1.18431e-09
1.33616e-09
1.51763e-09
1.73434e-09
1.9933e-09
2.30258e-09
2.672e-09
3.11386e-09
3.641e-09
4.27091e-09
5.02285e-09
5.95042e-09
7.02855e-09
8.31537e-09
9.84953e-09
1.1679e-08
1.38597e-08
1.62764e-08
1.91146e-08
2.24479e-08
2.63612e-08
3.09575e-08
3.63517e-08
4.26872e-08
5.0374e-08
5.91678e-08
6.94826e-08
8.16253e-08
9.58643e-08
1.12596e-07
1.32237e-07
1.55298e-07
1.82394e-07
2.14197e-07
2.51558e-07
2.95403e-07
3.46921e-07
4.94272e-11
5.36041e-11
5.89457e-11
6.56492e-11
7.39619e-11
8.4195e-11
9.67192e-11
1.11992e-10
1.30606e-10
1.53248e-10
1.80679e-10
2.13829e-10
2.54279e-10
3.03674e-10
3.65369e-10
4.42671e-10
5.39816e-10
6.62414e-10
7.99643e-10
9.52448e-10
1.10583e-09
1.05794e-09
1.17712e-09
1.3193e-09
1.48889e-09
1.69147e-09
1.93334e-09
2.22235e-09
2.56745e-09
2.97973e-09
3.47247e-09
4.06068e-09
4.76357e-09
5.60255e-09
6.63726e-09
7.83994e-09
9.27557e-09
1.09871e-08
1.30283e-08
1.54607e-08
1.81567e-08
2.13234e-08
2.50415e-08
2.94076e-08
3.45349e-08
4.05522e-08
4.76206e-08
5.61953e-08
6.60058e-08
7.75125e-08
9.1063e-08
1.06943e-07
1.256e-07
1.47521e-07
1.73248e-07
2.03476e-07
2.38947e-07
2.8063e-07
3.29547e-07
3.87023e-07
4.58155e-11
4.96848e-11
5.46359e-11
6.08449e-11
6.8541e-11
7.80129e-11
8.96084e-11
1.0375e-10
1.2094e-10
1.41846e-10
1.6725e-10
1.97959e-10
2.35074e-10
2.80284e-10
3.35479e-10
4.04301e-10
4.90568e-10
5.98681e-10
7.35119e-10
8.87975e-10
1.0592e-09
1.23084e-09
1.17812e-09
1.31129e-09
1.47009e-09
1.65943e-09
1.88554e-09
2.15549e-09
2.47804e-09
2.86299e-09
3.32302e-09
3.87286e-09
4.52909e-09
5.31334e-09
6.2491e-09
7.40349e-09
8.74543e-09
1.03469e-08
1.22564e-08
1.45331e-08
1.7247e-08
2.02546e-08
2.37871e-08
2.79351e-08
3.2806e-08
3.85258e-08
4.52386e-08
5.31237e-08
6.26895e-08
7.36343e-08
8.64707e-08
1.01583e-07
1.19299e-07
1.40126e-07
1.64568e-07
1.93274e-07
2.26988e-07
2.66568e-07
3.13073e-07
3.67636e-07
4.3175e-07
4.24674e-11
4.60546e-11
5.06412e-11
5.63955e-11
6.35258e-11
7.22947e-11
8.30274e-11
9.61198e-11
1.12037e-10
1.31352e-10
1.54807e-10
1.83269e-10
2.17629e-10
2.59139e-10
3.09676e-10
3.71285e-10
4.48081e-10
5.44198e-10
6.64712e-10
8.16283e-10
9.86871e-10
1.17838e-09
1.37059e-09
1.3124e-09
1.46116e-09
1.63848e-09
1.84984e-09
2.10221e-09
2.40353e-09
2.76325e-09
3.19308e-09
3.70618e-09
4.3196e-09
5.05168e-09
5.92651e-09
6.97082e-09
8.25841e-09
9.75551e-09
1.1542e-08
1.36722e-08
1.62125e-08
1.92396e-08
2.25949e-08
2.65359e-08
3.11633e-08
3.65968e-08
4.2978e-08
5.04665e-08
5.92631e-08
6.99354e-08
8.21447e-08
9.64644e-08
1.13327e-07
1.33091e-07
1.56318e-07
1.83591e-07
2.15608e-07
2.53226e-07
2.97375e-07
3.49259e-07
4.10124e-07
4.81653e-07
3.93639e-11
4.26898e-11
4.69401e-11
5.22715e-11
5.88795e-11
6.70049e-11
7.69432e-11
8.90599e-11
1.03803e-10
1.21682e-10
1.43353e-10
1.69619e-10
2.01483e-10
2.39931e-10
2.8631e-10
3.4275e-10
4.11547e-10
4.97194e-10
6.04363e-10
7.38408e-10
9.07142e-10
1.09715e-09
1.31165e-09
1.52671e-09
1.46241e-09
1.62853e-09
1.8265e-09
2.06241e-09
2.34405e-09
2.68013e-09
3.08183e-09
3.56112e-09
4.1337e-09
4.81802e-09
5.63479e-09
6.61084e-09
7.77562e-09
9.21242e-09
1.08823e-08
1.28755e-08
1.52519e-08
1.80855e-08
2.14628e-08
2.52059e-08
2.96024e-08
3.47644e-08
4.08264e-08
4.79445e-08
5.62992e-08
6.6113e-08
7.80187e-08
9.16351e-08
1.07616e-07
1.26422e-07
1.48475e-07
1.74383e-07
2.0481e-07
2.40531e-07
2.82493e-07
3.31747e-07
3.89618e-07
4.57523e-07
5.37321e-07
3.64866e-11
3.95695e-11
4.35119e-11
4.84527e-11
5.45746e-11
6.21045e-11
7.13127e-11
8.25339e-11
9.61777e-11
1.12739e-10
1.32797e-10
1.57083e-10
1.86487e-10
2.22119e-10
2.65092e-10
3.16906e-10
3.79958e-10
4.56696e-10
5.5227e-10
6.71656e-10
8.20972e-10
1.00835e-09
1.22045e-09
1.46039e-09
1.70111e-09
1.62991e-09
1.81542e-09
2.03637e-09
2.29959e-09
2.61399e-09
2.98902e-09
3.43695e-09
3.97191e-09
4.61067e-09
5.37416e-09
6.28544e-09
7.37437e-09
8.6737e-09
1.02765e-08
1.21394e-08
1.43629e-08
1.70142e-08
2.01752e-08
2.39427e-08
2.81188e-08
3.30232e-08
3.8782e-08
4.55443e-08
5.34857e-08
6.28057e-08
7.37522e-08
8.70293e-08
1.02229e-07
1.20048e-07
1.41035e-07
1.6563e-07
1.94539e-07
2.28481e-07
2.68331e-07
3.1514e-07
3.70085e-07
4.34649e-07
5.10415e-07
5.99426e-07
3.38213e-11
3.66759e-11
4.03311e-11
4.49141e-11
5.0588e-11
5.75637e-11
6.60982e-11
7.64945e-11
8.91289e-11
1.04462e-10
1.23042e-10
1.45523e-10
1.7271e-10
2.05612e-10
2.4545e-10
2.93454e-10
3.5133e-10
4.21701e-10
5.07353e-10
6.13862e-10
7.46991e-10
9.13052e-10
1.12158e-09
1.3577e-09
1.62656e-09
1.89584e-09
1.81696e-09
2.024e-09
2.2706e-09
2.56449e-09
2.91504e-09
3.33356e-09
3.83353e-09
4.43021e-09
5.14288e-09
5.99471e-09
7.01125e-09
8.22582e-09
9.67571e-09
1.14636e-08
1.3542e-08
1.60227e-08
1.89799e-08
2.25064e-08
2.67097e-08
3.13681e-08
3.68396e-08
4.32639e-08
5.08076e-08
5.96666e-08
7.00612e-08
8.22763e-08
9.70944e-08
1.14042e-07
1.33928e-07
1.57331e-07
1.84775e-07
2.17024e-07
2.54885e-07
2.99338e-07
3.51565e-07
4.12864e-07
4.84893e-07
5.69393e-07
6.687e-07
3.13514e-11
3.39973e-11
3.73812e-11
4.16304e-11
4.68947e-11
5.33586e-11
6.12652e-11
7.09021e-11
8.26076e-11
9.68087e-11
1.14012e-10
1.34836e-10
1.60008e-10
1.90415e-10
2.27191e-10
2.71721e-10
3.25352e-10
3.89974e-10
4.68523e-10
5.64042e-10
6.8284e-10
8.311e-10
1.01603e-09
1.24755e-09
1.51112e-09
1.81186e-09
2.11327e-09
2.02572e-09
2.25685e-09
2.53202e-09
2.85994e-09
3.25127e-09
3.71822e-09
4.27586e-09
4.94147e-09
5.73672e-09
6.68683e-09
7.82093e-09
9.17624e-09
1.07933e-08
1.2788e-08
1.51068e-08
1.78739e-08
2.11731e-08
2.51074e-08
2.97962e-08
3.49932e-08
4.10968e-08
4.82633e-08
5.66789e-08
6.65606e-08
7.81646e-08
9.17855e-08
1.08311e-07
1.27225e-07
1.49399e-07
1.7552e-07
2.06131e-07
2.42103e-07
2.84343e-07
3.33941e-07
3.92194e-07
4.6058e-07
5.40924e-07
6.35205e-07
7.45995e-07
2.90619e-11
3.15161e-11
3.46521e-11
3.85852e-11
4.34651e-11
4.94636e-11
5.67906e-11
6.57191e-11
7.65699e-11
8.97276e-11
1.05661e-10
1.24935e-10
1.48255e-10
1.76412e-10
2.10421e-10
2.51517e-10
3.0124e-10
3.61131e-10
4.33311e-10
5.20929e-10
6.27525e-10
7.59884e-10
9.25162e-10
1.13077e-09
1.38829e-09
1.68183e-09
2.01874e-09
2.35597e-09
2.25879e-09
2.51666e-09
2.82395e-09
3.18971e-09
3.62631e-09
4.14724e-09
4.76932e-09
5.51218e-09
6.39905e-09
7.4593e-09
8.72457e-09
1.0236e-08
1.20404e-08
1.42656e-08
1.68521e-08
1.99392e-08
2.36197e-08
2.80087e-08
3.32395e-08
3.90369e-08
4.5846e-08
5.38401e-08
6.32289e-08
7.42565e-08
8.71926e-08
1.02392e-07
1.20831e-07
1.41925e-07
1.66672e-07
1.95803e-07
2.29952e-07
2.70085e-07
3.17209e-07
3.72529e-07
4.37527e-07
5.13808e-07
6.03452e-07
7.0863e-07
8.32212e-07
2.69394e-11
2.92153e-11
3.21231e-11
3.57678e-11
4.02856e-11
4.58464e-11
5.26449e-11
6.09182e-11
7.09732e-11
8.3167e-11
9.79326e-11
1.15784e-10
1.37373e-10
1.63462e-10
1.9495e-10
2.32953e-10
2.78883e-10
3.34397e-10
4.01278e-10
4.81811e-10
5.79615e-10
6.98496e-10
8.46073e-10
1.03006e-09
1.25909e-09
1.54487e-09
1.87245e-09
2.2495e-09
2.62682e-09
2.5188e-09
2.80671e-09
3.14935e-09
3.55755e-09
4.04463e-09
4.62585e-09
5.32003e-09
6.14859e-09
7.13828e-09
8.3209e-09
9.73216e-09
1.1419e-08
1.34315e-08
1.59138e-08
1.87995e-08
2.22431e-08
2.63495e-08
3.12455e-08
3.70808e-08
4.35483e-08
5.11445e-08
6.00634e-08
7.0537e-08
8.28361e-08
9.72714e-08
1.14225e-07
1.34796e-07
1.5833e-07
1.85933e-07
2.18428e-07
2.5653e-07
3.013e-07
3.53869e-07
4.15591e-07
4.88093e-07
5.73198e-07
6.73197e-07
7.90525e-07
9.28404e-07
2.4972e-11
2.7082e-11
2.97791e-11
3.31592e-11
3.73446e-11
4.2493e-11
4.87964e-11
5.64723e-11
6.57899e-11
7.70889e-11
9.07715e-11
1.07317e-10
1.27312e-10
1.51462e-10
1.80637e-10
2.15834e-10
2.58278e-10
3.09586e-10
3.71581e-10
4.46216e-10
5.36128e-10
6.45191e-10
7.77854e-10
9.4231e-10
1.14734e-09
1.40192e-09
1.71986e-09
2.08452e-09
2.50694e-09
2.92903e-09
2.809e-09
3.13024e-09
3.51265e-09
3.96804e-09
4.51162e-09
5.16e-09
5.93438e-09
6.85877e-09
7.96267e-09
9.282e-09
1.08568e-08
1.2738e-08
1.49836e-08
1.7753e-08
2.09718e-08
2.48139e-08
2.93944e-08
3.48564e-08
4.1366e-08
4.85821e-08
5.70554e-08
6.70056e-08
7.86896e-08
9.24113e-08
1.08513e-07
1.2743e-07
1.50378e-07
1.76628e-07
2.07421e-07
2.43682e-07
2.86178e-07
3.36126e-07
3.9477e-07
4.63622e-07
5.44506e-07
6.39448e-07
7.51005e-07
8.81896e-07
1.0357e-06
2.31493e-11
2.51044e-11
2.76044e-11
3.07399e-11
3.46218e-11
3.9391e-11
4.52264e-11
5.23442e-11
6.09893e-11
7.14597e-11
8.41393e-11
9.94736e-11
1.18005e-10
1.40375e-10
1.67383e-10
1.99988e-10
2.39315e-10
2.86722e-10
3.44006e-10
4.1322e-10
4.96523e-10
5.9686e-10
7.18562e-10
8.66425e-10
1.04981e-09
1.27806e-09
1.56145e-09
1.91434e-09
2.32124e-09
2.79413e-09
3.26612e-09
3.133e-09
3.49143e-09
3.91806e-09
4.42619e-09
5.03236e-09
5.75587e-09
6.61982e-09
7.65102e-09
8.88253e-09
1.03545e-08
1.2111e-08
1.42101e-08