/*--------------------------------*- C++ -*----------------------------------*\
| =========                 |                                                 |
| \\      /  F ield         | OpenFOAM: The Open Source CFD Toolbox           |
|  \\    /   O peration     | Version:  v2012                                 |
|   \\  /    A nd           | Website:  www.openfoam.com                      |
|    \\/     M anipulation  |                                                 |
\*---------------------------------------------------------------------------*/
FoamFile
{
    version     2.0;
    format      ascii;
    class       volScalarField;
    location    "13380";
    object      xx;
}
// * * * * * * * * * * * * * * * * * * * * * * * * * * * * * * * * * * * * * //

dimensions      [0 0 0 0 0 0 0];


internalField   nonuniform List<scalar> 
31383
(
7.72889e-07
7.81937e-07
7.72546e-07
7.25499e-07
1.4596e-06
1.52555e-06
6.85506e-07
1.34185e-06
1.72354e-05
7.20001e-06
6.56234e-07
1.25771e-06
1.57229e-05
0.000133883
3.1683e-05
6.32505e-07
1.19634e-06
1.46353e-05
0.000122048
0.000645248
0.000111352
6.12561e-07
1.14677e-06
1.38437e-05
0.000113526
0.000588185
0.00231233
0.000329981
5.95942e-07
1.10549e-06
1.32058e-05
0.000107322
0.000547035
0.00210866
0.00680648
0.000866807
5.81975e-07
1.07116e-06
1.26779e-05
0.000102324
0.000517071
0.00196147
0.00621374
0.0173561
0.00208725
5.69692e-07
1.04232e-06
1.22398e-05
9.81895e-05
0.000492918
0.00185418
0.00578379
0.0158793
0.0394414
0.00470859
5.58669e-07
1.01713e-06
1.18716e-05
9.47575e-05
0.000472939
0.00176766
0.00546993
0.0148017
0.0362167
0.0810805
0.0100878
5.48461e-07
9.9453e-07
1.15517e-05
9.18739e-05
0.000456353
0.00169606
0.0052165
0.014013
0.0338424
0.0748397
0.152086
0.0206919
5.39083e-07
9.73668e-07
1.12648e-05
8.93698e-05
0.000442416
0.0016366
0.00500659
0.0133748
0.0320974
0.0701864
0.141311
0.262257
0.0407428
5.30407e-07
9.54545e-07
1.10005e-05
8.7124e-05
0.000430314
0.00158661
0.00483213
0.0128452
0.0306805
0.0667481
0.133141
0.245475
0.419575
0.0769982
5.22607e-07
9.36892e-07
1.07587e-05
8.50566e-05
0.000419464
0.00154321
0.00468538
0.0124045
0.0295012
0.0639428
0.127067
0.232506
0.395628
0.62975
0.139395
5.1562e-07
9.21104e-07
1.05359e-05
8.31656e-05
0.000409476
0.0015043
0.0045579
0.0120333
0.0285184
0.0615965
0.122081
0.222802
0.376735
0.597887
0.887834
0.240581
5.09403e-07
9.07014e-07
1.03374e-05
8.14232e-05
0.000400343
0.00146849
0.00444363
0.0117106
0.0276886
0.0596388
0.117887
0.214784
0.362518
0.572139
0.851858
1.19457
0.396041
5.03831e-07
8.94461e-07
1.01606e-05
7.98715e-05
0.00039193
0.00143574
0.0043384
0.0114213
0.0269663
0.0579806
0.114383
0.207995
0.350688
0.552669
0.821154
1.15066
1.57235
0.620091
4.98917e-07
8.83282e-07
1.00031e-05
7.84905e-05
0.000384436
0.00140558
0.0042422
0.0111545
0.0263182
0.0565338
0.111402
0.202318
0.340611
0.536366
0.797944
1.11164
1.51895
2.03534
0.920685
4.94518e-07
8.73394e-07
9.8634e-06
7.72593e-05
0.000377767
0.00137871
0.00415356
0.0109107
0.0257193
0.055235
0.108791
0.197463
0.332166
0.5224
0.776649
1.08181
1.46928
1.97103
2.59449
1.29508
4.90603e-07
8.64603e-07
9.73961e-06
7.61681e-05
0.000371822
0.00135479
0.0040746
0.010686
0.0251723
0.0540314
0.106447
0.193196
0.324923
0.510663
0.758262
1.05673
1.43132
1.90848
2.51967
3.26438
1.68229
4.87112e-07
8.56781e-07
9.63006e-06
7.52009e-05
0.000366553
0.00133348
0.0040043
0.0104856
0.0246674
0.0529324
0.104268
0.189368
0.318531
0.500593
0.742765
1.03521
1.39963
1.86094
2.4427
3.18009
4.06005
2.12884
4.84e-07
8.49814e-07
9.53265e-06
7.4345e-05
0.000361883
0.00131458
0.00394163
0.0103071
0.024217
0.051916
0.10228
0.185793
0.312802
0.491673
0.729488
1.01704
1.37261
1.82112
2.3838
3.08597
3.96859
4.99678
2.64639
4.81206e-07
8.43606e-07
9.44592e-06
7.35839e-05
0.000357751
0.00129783
0.00388605
0.010148
0.0238154
0.0510083
0.100435
0.182526
0.307433
0.48368
0.717701
1.00151
1.3497
1.78711
2.33438
3.01374
3.85465
4.90317
6.09079
3.24269
4.78686e-07
8.3805e-07
9.36867e-06
7.29065e-05
0.000354076
0.00128301
0.00383678
0.0100068
0.0234572
0.0501965
0.098785
0.179491
0.302517
0.476178
0.70711
0.987595
1.33019
1.75824
2.2921
2.95291
3.76673
4.76655
6.00227
7.35977
3.91831
4.76375e-07
8.33036e-07
9.2997e-06
7.23032e-05
0.000350805
0.00126983
0.00379317
0.00988153
0.023139
0.0494729
0.0973056
0.176771
0.297945
0.469292
0.697185
0.974981
1.3127
1.73362
2.2561
2.90084
3.69245
4.66029
5.84008
7.27629
8.81802
4.66947
4.74244e-07
8.28438e-07
9.23744e-06
7.17646e-05
0.000347891
0.00125809
0.00375438
0.00977063
0.0228566
0.048829
0.0959874
0.174326
0.293839
0.462893
0.688048
0.963231
1.29681
1.71173
2.22533
2.85646
3.62879
4.57039
5.71289
7.08675
8.70119
10.4569
5.4904
4.72286e-07
8.24209e-07
9.18035e-06
7.12783e-05
0.00034529
0.00124764
0.00371983
0.00967196
0.0226065
0.0482575
0.0948101
0.172151
0.290141
0.457132
0.679565
0.952444
1.28205
1.69176
2.19819
2.81842
3.57475
4.49322
5.60517
6.93681
8.48605
10.3207
12.289
6.36368
4.70494e-07
8.20325e-07
9.12792e-06
7.08325e-05
0.000342941
0.0012383
0.00368904
0.00958407
0.0223838
0.0477506
0.0937649
0.170199
0.286849
0.451936
0.671921
0.942403
1.26844
1.6733
2.17348
2.78489
3.52831
4.42775
5.51257
6.80962
8.31428
10.0735
12.1745
14.3634
7.24484
4.68866e-07
8.16778e-07
9.07979e-06
7.04231e-05
0.000340788
0.00122988
0.00366156
0.0095057
0.0221853
0.0472991
0.092837
0.168467
0.283889
0.447304
0.665021
0.933377
1.25588
1.65618
2.15056
2.75459
3.48733
4.37168
5.43376
6.70018
8.16838
9.87338
11.8931
14.2917
16.7029
8.05596
4.67388e-07
8.13558e-07
9.03591e-06
7.00473e-05
0.000338811
0.00122215
0.00363674
0.00943572
0.0220082
0.0468962
0.0920099
0.166925
0.281262
0.443132
0.658856
0.925236
1.24448
1.64042
2.12928
2.72635
3.4503
4.32206
5.36657
6.60676
8.04291
9.7028
11.6612
13.9746
16.704
19.331
8.7547
4.66066e-07
8.10648e-07
8.99609e-06
6.97048e-05
0.000336996
0.00121506
0.00361398
0.00937252
0.02185
0.0465365
0.091271
0.165549
0.278915
0.439432
0.653306
0.917949
1.23422
1.62611
2.10962
2.70026
3.41592
4.27709
5.30698
6.52718
7.93548
9.55593
11.4626
13.7074
16.3514
19.4467
22.2705
9.59707
4.64885e-07
8.08044e-07
8.96023e-06
6.93939e-05
0.000335341
0.00120854
0.00359308
0.00931454
0.021707
0.0462151
0.0906108
0.164319
0.276822
0.436117
0.648381
0.911418
1.22503
1.61321
2.0919
2.67612
3.38417
4.23555
5.25288
6.45657
7.84375
9.43008
11.2913
13.4769
16.0451
19.0607
22.5581
25.5425
10.9691
4.63822e-07
8.05723e-07
8.92814e-06
6.9114e-05
0.000333838
0.0012026
0.0035739
0.00926131
0.0215759
0.0459244
0.0900204
0.163219
0.274948
0.433162
0.64396
0.905612
1.21679
1.60168
2.0759
2.65439
3.35473
4.19716
5.203
6.39244
7.76241
9.32254
11.1443
13.2777
15.7788
18.7121
22.1444
26.0793
29.1639
12.0064
4.62838e-07
8.0363e-07
8.89957e-06
6.88634e-05
0.000332486
0.00119721
0.00355641
0.00921243
0.0214555
0.0456577
0.0894861
0.162234
0.27327
0.43051
0.640016
0.900371
1.20944
1.59131
2.06156
2.6348
3.32828
4.16156
5.15686
6.33333
7.68861
9.22719
11.0187
13.1066
15.5479
18.4055
21.7504
25.6485
30.0541
33.1443
12.3119
4.61924e-07
8.01696e-07
8.87379e-06
6.86404e-05
0.000331276
0.00119235
0.00354053
0.00916786
0.0213449
0.0454127
0.0889955
0.161342
0.271767
0.428135
0.636474
0.895719
1.20287
1.58208
2.04868
2.61719
3.30446
4.1296
5.11423
6.27867
7.62076
9.14071
10.9072
12.9602
15.3493
18.1387
21.3991
25.2073
29.6238
34.5283
37.4822
12.3152
4.61e-07
7.99904e-07
8.84997e-06
6.84391e-05
0.000330198
0.001188
0.00352622
0.00912739
0.021244
0.0451876
0.0885446
0.160523
0.270404
0.426006
0.633299
0.891521
1.19699
1.57382
2.0372
2.6014
3.28301
4.10085
5.07592
6.22829
7.55809
9.06128
10.8062
12.8304
15.1791
17.9088
21.0919
24.8068
29.1355
34.1261
39.5483
42.0579
11.9798
4.6022e-07
7.98076e-07
8.82791e-06
6.8253e-05
0.000329225
0.00118413
0.0035134
0.00909092
0.0211524
0.0449822
0.0881302
0.15977
0.269152
0.424074
0.630449
0.887795
1.19169
1.56641
2.02689
2.58731
3.2638
4.07496
5.04145
6.18296
7.50044
8.98794
10.7135
12.7126
15.0281
17.7115
20.8264
24.4543
28.6815
33.5935
39.2158
45.16
46.7408
11.2833
4.62643e-07
7.96567e-07
8.80523e-06
6.80807e-05
0.000328326
0.00118064
0.00350199
0.00905826
0.0210698
0.0447955
0.087752
0.159077
0.267998
0.422295
0.627863
0.884413
1.18696
1.55975
2.01766
2.57464
3.24665
4.05172
5.0104
6.14215
7.44846
8.92055
10.6279
12.6046
14.8912
17.5364
20.5983
24.1486
28.2785
33.0824
38.6458
44.9577
51.4064
51.5513
10.2245
7.58518e-07
7.96808e-07
8.78688e-06
6.79036e-05
0.000327494
0.00117741
0.00349168
0.00902913
0.0209957
0.0446271
0.087408
0.158444
0.266936
0.420655
0.625482
0.881366
1.18271
1.55377
2.00938
2.5633
3.23122
4.03101
4.9825
6.10535
7.40168
8.85981
10.5493
12.505
14.7658
17.3776
20.3957
23.8856
27.9278
32.6238
38.0753
44.3637
51.4204
58.3249
56.4506
8.83405
4.89446e-07
3.37267e-06
8.74824e-06
6.77604e-05
0.000326639
0.00117442
0.00348214
0.00900281
0.0209297
0.0444762
0.0870965
0.157869
0.265968
0.419149
0.623289
0.87854
1.17885
1.54842
2.00193
2.55313
3.21739
4.01236
4.95767
6.07233
7.35951
8.80516
10.4785
12.4136
14.6501
17.2321
20.2119
23.6517
27.6253
32.2227
37.5563
43.7337
50.8245
58.675
65.9428
61.3582
7.19336
4.97536e-07
1.01166e-06
5.136e-05
6.74352e-05
0.000325947
0.00117135
0.00347333
0.00897846
0.02087
0.0443416
0.0868175
0.157347
0.265086
0.417775
0.621275
0.875948
1.17527
1.54353
1.99524
2.54399
3.20499
3.99562
4.9353
6.04288
7.32164
8.75589
10.4149
12.3313
14.544
17.098
20.0436
23.4395
27.356
31.8758
37.0993
43.1497
50.1379
58.1119
66.7934
74.273
66.1624
5.44039
5.91984e-07
1.09188e-06
1.25447e-05
0.000387308
0.000324357
0.00116886
0.00346426
0.00895595
0.0208148
0.0442198
0.0865691
0.156879
0.264287
0.416521
0.619432
0.873566
1.172
1.53905
1.98915
2.53573
3.19386
3.98059
4.91519
6.01635
7.28777
8.71164
10.3574
12.2573
14.4485
16.9751
19.8885
23.245
27.1115
31.5665
36.7027
42.6313
49.4859
57.3768
66.3154
75.8458
83.3069
70.7386
3.76407
5.37136e-07
1.76933e-06
1.42517e-05
9.83358e-05
0.00180752
0.00116309
0.00345693
0.00893279
0.0207637
0.044107
0.0863441
0.156461
0.263572
0.415385
0.61775
0.871389
1.16897
1.53491
1.98357
2.52824
3.18377
3.96714
4.89712
5.99246
7.25725
8.67204
10.3059
12.1905
14.3626
16.8646
19.7463
23.0659
26.8873
31.2854
36.3484
42.1797
48.9011
56.6558
65.5473
75.5289
85.8964
93.0068
74.9672
2.36478
4.74406e-07
1.43018e-06
2.72867e-05
0.000113229
0.000472167
0.00632537
0.00343966
0.0089141
0.0207109
0.0440027
0.0861356
0.156083
0.262932
0.414369
0.616227
0.869396
1.16622
1.5311
1.9784
2.52136
3.17463
3.95494
4.88094
5.97098
7.2298
8.63635
10.2597
12.1305
14.2852
16.7652
19.6186
22.9018
26.6808
31.0275
36.0259
41.7751
48.389
56.0002
64.7594
74.7535
85.8488
96.9988
103.295
78.759
1.37744
4.6368e-07
1.02409e-06
2.05322e-05
0.000218373
0.000551776
0.00167752
0.0183198
0.00886898
0.0206682
0.0438941
0.0859427
0.155733
0.262351
0.413461
0.614864
0.867601
1.1637
1.52762
1.97365
2.515
3.16621
3.94386
4.86628
5.95171
7.20505
8.60424
10.2181
12.0768
14.2156
16.6755
19.5038
22.7545
26.4918
30.7899
35.73
41.4061
47.9285
55.4222
64.0302
73.9058
85.1068
97.3714
109.189
114.043
82.1053
0.799948
4.53885e-07
9.73563e-07
1.27699e-05
0.000161167
0.00106318
0.00198885
0.00492362
0.046271
0.0205626
0.0438068
0.0857427
0.155409
0.261813
0.412631
0.613645
0.865994
1.16143
1.52446
1.96931
2.50914
3.15844
3.93368
4.85295
5.93426
7.18282
8.57528
10.1806
12.0284
14.1533
16.595
19.4
22.622
26.322
30.5725
35.4572
41.0672
47.5076
54.9003
63.3816
73.1028
84.2138
96.7241
110.188
122.475
124.224
85.211
0.515916
4.52057e-07
7.91695e-07
1.17858e-05
9.81187e-05
0.000774283
0.00383423
0.0058625
0.0125954
0.104492
0.0435823
0.0855826
0.155074
0.261315
0.411862
0.612531
0.864555
1.15938
1.52159
1.96536
2.50379
3.15129
3.92425
4.84074
5.91839
7.1627
8.54926
10.1468
11.9848
14.097
16.5227
19.3069
22.5023
26.1695
30.3773
35.2076
40.7547
47.1205
54.4218
62.7928
72.3803
83.3404
95.8108
109.725
124.381
136.829
133.273
88.7301
0.397368
4.51397e-07
7.79066e-07
8.65138e-06
8.96048e-05
0.000465803
0.00276371
0.0113543
0.0148922
0.0288909
0.212543
0.0851483
0.154807
0.260798
0.411151
0.611498
0.863246
1.15756
1.51899
1.96176
2.49892
3.14476
3.91559
4.82938
5.90382
7.14441
8.52571
10.1164
11.9454
14.0464
16.4576
19.2234
22.3949
26.0316
30.2019
34.9835
40.4686
46.7631
53.9809
62.2509
71.7197
82.5428
94.8763
108.831
124.229
140.013
152.17
141.528
93.4184
0.359176
4.50927e-07
7.77223e-07
8.49269e-06
6.62322e-05
0.000421961
0.0016448
0.00812055
0.0291599
0.0335769
0.0603138
0.389395
0.154043
0.260387
0.410412
0.610539
0.862029
1.1559
1.51669
1.95853
2.49448
3.13881
3.90767
4.81896
5.8903
7.12755
8.50429
10.0889
11.91
14.0006
16.3989
19.1481
22.2986
25.9079
30.0434
34.7822
40.2119
46.4358
53.5733
61.7503
71.1088
81.8067
94.0057
107.854
123.415
140.348
157.116
168.35
149.164
95.2707
0.3518
4.50213e-07
7.76083e-07
8.45002e-06
6.49798e-05
0.000316982
0.00147871
0.00477443
0.0207456
0.0667271
0.0685881
0.115517
0.644328
0.259162
0.409828
0.609539
0.8609
1.15435
1.51458
1.95565
2.49051
3.13339
3.90045
4.80941
5.87788
7.11196
8.48454
10.0638
11.8779
13.9595
16.3458
19.0802
22.2117
25.797
29.9012
34.6002
39.9812
46.1424
53.1998
61.2868
70.5427
81.1218
93.1924
106.917
122.424
139.704
158.182
175.682
185.13
156.12
88.9117
0.353972
4.49526e-07
7.74452e-07
8.42654e-06
6.45345e-05
0.000310723
0.00113249
0.00425966
0.0120169
0.0473673
0.1373
0.128613
0.204104
0.975059
0.408027
0.608759
0.859702
1.15291
1.51261
1.95301
2.48696
3.12853
3.89388
4.80074
5.86648
7.09764
8.46627
10.0407
11.8487
13.9222
16.2981
19.0188
22.1332
25.6968
29.7735
34.4369
39.7727
45.8786
52.8648
60.8617
70.0173
80.4844
92.4295
106.028
121.437
138.746
157.835
177.806
195.638
201.612
162.08
78.8186
0.357896
4.49042e-07
7.72888e-07
8.39717e-06
6.42964e-05
0.000308159
0.0011092
0.00334034
0.0106659
0.027047
0.0976758
0.254107
0.222822
0.334871
1.37348
0.606295
0.858789
1.15139
1.5108
1.95054
2.48369
3.12418
3.88799
4.79283
5.85615
7.0845
8.4495
10.0194
11.8218
13.8882
16.2549
18.9636
22.0622
25.6064
29.6583
34.2903
39.5856
45.6401
52.5638
60.4803
69.5347
79.891
91.7156
105.185
120.478
137.733
156.981
177.934
199.256
216.831
215.29
166.632
65.2424
0.361523
4.48635e-07
7.71804e-07
8.36853e-06
6.40144e-05
0.000306806
0.00109884
0.00326952
0.00859817
0.0240418
0.0555206
0.182197
0.424152
0.359206
0.51474
1.83161
0.855938
1.15023
1.50887
1.94825
2.48063
3.12017
3.88272
4.78573
5.8467
7.07252
8.4341
9.99978
11.7969
13.8569
16.2154
18.9135
21.9984
25.5245
29.5542
34.158
39.4174
45.426
52.2916
60.1375
69.1016
79.345
91.0486
104.391
119.556
136.718
155.983
177.287
200.104
222.512
239
226.78
169.621
48.9597
0.364885
4.48237e-07
7.7092e-07
8.34877e-06
6.3736e-05
0.00030525
0.00109343
0.00323632
0.00841273
0.019919
0.0497009
0.105168
0.308312
0.64626
0.543772
0.74901
2.34404
1.14667
1.50739
1.94585
2.4778
3.11643
3.87783
4.77938
5.83822
7.06157
8.42007
9.98177
11.774
13.8279
16.1791
18.8678
21.9406
25.4508
29.46
34.0384
39.2657
45.2335
52.0471
59.8274
68.7122
78.8548
90.4333
103.645
118.68
135.724
154.934
176.365
199.809
224.413
247.472
261.752
236.516
171.696
31.9583
0.367823
4.47878e-07
7.70069e-07
8.33403e-06
6.35442e-05
0.000303707
0.00108731
0.00321909
0.00832267
0.0194895
0.0422247
0.0949849
0.184842
0.478616
0.915311
0.781009
1.03398
2.90797
1.50291
1.94398
2.47481
3.11294
3.87328
4.77348
5.83062
7.0517
8.40723
9.96535
11.753
13.8013
16.1454
18.8257
21.8878
25.3841
29.3752
33.9302
39.1286
45.0599
51.8273
59.5488
68.3598
78.4138
89.8803
102.955
117.851
134.765
153.88
175.32
199.054
224.672
250.87
273.93
284.035
244.623
174.529
17.2843
0.370183
4.47589e-07
7.69301e-07
8.32047e-06
6.34068e-05
0.000302644
0.00108121
0.00319988
0.00827631
0.0192754
0.0413314
0.0825821
0.168542
0.303012
0.693643
1.22841
1.06014
1.37443
3.5227
1.93853
2.47249
3.10927
3.86903
4.768
5.82356
7.04278
8.39565
9.95033
11.7339
13.7769
16.1145
18.7867
21.839
25.3231
29.2982
33.8326
39.0044
44.9029
51.6289
59.2982
68.0431
78.0141
89.3823
102.334
117.081
133.853
152.846
174.228
198.071
224.213
251.964
279.41
301.544
301.765
250.844
178.009
7.52351
0.371728
4.47387e-07
7.68695e-07
8.30848e-06
6.32828e-05
0.0003019
0.00107701
0.00318058
0.00822473
0.019166
0.0408782
0.0809046
0.149673
0.278896
0.466609
0.955709
1.58694
1.39626
1.79222
4.1892
2.46613
3.10641
3.86456
4.76285
5.817
7.03455
8.38517
9.93677
11.7164
13.7545
16.0861
18.7507
21.7938
25.2668
29.228
33.7441
38.8924
44.7607
51.4495
59.0721
67.758
77.6549
88.9306
101.773
116.387
133
151.852
173.133
196.979
223.378
251.982
281.714
309.855
329.798
315.594
254.402
165.481
2.79619
0.372527
4.4699e-07
7.68237e-07
8.29946e-06
6.31755e-05
0.000301238
0.00107413
0.00316737
0.0081732
0.0190448
0.0406478
0.0800431
0.146816
0.252392
0.43314
0.681031
1.26998
1.99623
1.80767
2.30364
4.91007
3.09891
3.86108
4.75745
5.81082
7.02685
8.3755
9.9245
11.7005
13.7342
16.0602
18.7179
21.7523
25.2146
29.163
33.6633
38.7907
44.6323
51.2868
58.8675
67.5007
77.3316
88.5244
101.265
115.759
132.228
150.915
172.064
195.846
222.344
251.419
282.462
313.869
341.88
357.959
325.871
254.522
139.052
1.06238
0.372673
4.37476e-07
7.67464e-07
8.2928e-06
6.30969e-05
0.000300668
0.00107158
0.00315841
0.00813768
0.0189231
0.0403936
0.079608
0.145337
0.247949
0.398353
0.636689
0.950913
1.64242
2.39663
2.30464
2.92282
5.68999
3.85189
4.75324
5.80434
7.01956
8.36644
9.91316
11.6862
13.7157
16.0365
18.6879
21.7144
25.1666
29.1029
33.5885
38.6979
44.5158
51.14
58.6818
67.2678
77.0396
88.1586
100.807
115.189
131.53
150.065
171.047
194.719
221.214
250.528
282.343
315.687
348.256
374.97
380.577
332.574
252.41
104.337
0.53605
0.372548
2.70703e-07
7.56669e-07
8.28313e-06
6.3041e-05
0.00030026
0.00106941
0.0031505
0.0081138
0.0188395
0.0401376
0.0791279
0.144594
0.245636
0.391961
0.593335
0.891249
1.26535
2.05501
2.88659
2.9029
3.6654
6.53634
4.74162
5.79928
7.01186
8.35793
9.90252
11.6729
13.699
16.015
18.6604
21.6796
25.1228
29.0475
33.5193
38.612
44.4093
51.0067
58.5142
67.0564
76.7752
87.828
100.394
114.675
130.894
149.293
170.12
193.632
220.055
249.461
281.718
316.251
351.597
384.541
408.375
397.308
335.499
252.757
66.2777
0.394632
0.372149
5.34545e-09
5.37857e-07
8.22348e-06
6.29642e-05
0.000299979
0.00106787
0.0031438
0.00809297
0.0187838
0.0399619
0.0786428
0.143775
0.244484
0.388623
0.584668
0.840977
1.18873
1.64769
2.52485
3.49481
3.61687
4.54399
7.43696
5.78438
7.00588
8.34897
9.89252
11.6605
13.6836
15.9956
18.6355
21.6477
25.0827
28.997
33.4555
38.5324
44.3107
50.8849
58.3618
66.8654
76.5348
87.5285
100.021
114.212
130.32
148.589
169.275
192.634
218.916
248.313
280.801
316.062
353.169
390.003
422.185
440.237
408.632
334.587
253.96
33.5378
0.360204
0.371554
5.87005e-08
1.14079e-07
6.55467e-06
6.25413e-05
0.000299603
0.00106683
0.00313911
0.00807536
0.0187355
0.0398457
0.07831
0.142942
0.243205
0.386969
0.580152
0.830216
1.12784
1.55313
2.09886
3.10505
4.22528
4.46345
5.54464
8.35032
6.98697
8.34216
9.882
11.6488
13.669
15.9777
18.613
21.619
25.0459
28.9507
33.3973
38.4591
44.2194
50.7719
58.2227
66.6916
76.3176
87.2561
99.6831
113.792
129.803
147.953
168.502
191.72
217.86
247.153
279.729
315.421
353.654
393.015
430.534
460.38
464.075
414.35
330.179
215.2
12.9077
0.352386
0.371161
8.01123e-08
3.95766e-06
2.29715e-06
5.02224e-05
0.000297601
0.00106549
0.00313602
0.00806309
0.0186945
0.0397451
0.0780921
0.142373
0.241912
0.385135
0.577932
0.824775
1.11413
1.47944
1.9935
2.64815
3.80893
5.08376
5.45803
6.67529
9.45561
8.3193
9.87399
11.6364
13.6553
15.9608
18.5922
21.5929
25.0127
28.9083
33.344
38.3921
44.1353
50.6673
58.0935
66.5329
76.1199
87.0097
99.3755
113.413
129.334
147.378
167.802
190.88
216.887
246.063
278.595
314.519
353.464
394.494
435.557
472.585
497.977
480.477
414.081
325.096
162.06
4.10443
0.350731
0.370964
9.78701e-08
3.00477e-06
9.90093e-05
1.79704e-05
0.000238996
0.00105838
0.00313206
0.00805518
0.018666
0.0396599
0.0779028
0.142004
0.24102
0.383275
0.57547
0.821941
1.10718
1.46204
1.90986
2.52321
3.31195
4.6459
6.08162
6.60591
7.97621
10.8144
9.84636
11.627
13.6409
15.9448
18.5725
21.5687
24.9825
28.87
33.2952
38.3308
44.0584
50.5708
57.9738
66.3856
75.9392
86.7854
99.097
113.066
128.909
146.857
167.169
190.118
215.987
245.046
277.506
313.483
352.867
395
438.46
480.357
515.234
528.173
489.398
408.045
322.579
101.567
1.3112
0.350294
0.370849
1.11914e-07
3.22483e-06
6.17139e-05
0.000885238
8.53556e-05
0.000850075
0.00311152
0.00804512
0.0186481
0.0396009
0.0777437
0.141682
0.240451
0.381997
0.57296
0.818773
1.10374
1.45321
1.88786
2.43109
3.16139
4.10482
5.62736
7.23329
7.88066
9.46856
12.4436
11.5936
13.6299
15.928
18.5539
21.5459
24.9545
28.8351
33.2511
38.2748
43.988
50.4826
57.8634
66.2489
75.7714
86.5803
98.8436
112.753
128.521
146.385
166.595
189.427
215.168
244.1
276.476
312.452
352.031
394.893
439.989
485.249
526.695
557.177
549.008
490.253
397.746
291.177
48.9168
0.563685
0.350198
0.37076
1.25327e-07
3.66048e-06
6.56692e-05
0.000508599
0.00444599
0.0003034
0.00250301
0.00799423
0.0186255
0.0395643
0.0776347
0.141412
0.239955
0.381188
0.571247
0.815556
1.1001
1.44908
1.87699
2.40399
3.05717
3.92302
5.04178
6.75821
8.54975
9.33768
11.1764
14.3483
13.5896
15.9152
18.5344
21.5244
24.9282
28.8029
33.2109
38.224
43.9237
50.402
57.7625
66.1227
75.6156
86.3897
98.6115
112.468
128.17
145.953
166.073
188.799
214.423
243.233
275.505
311.451
351.139
394.403
440.63
488.242
534.309
573.493
591.718
560.558
482.916
388.68
222.721
17.3094
0.384165
0.35021
0.370682
1.36177e-07
4.52752e-06
7.45706e-05
0.000526971
0.00268429
0.0158166
0.00089793
0.00645685
0.0185153
0.0395186
0.0775666
0.141228
0.239536
0.38048
0.570168
0.813356
1.09637
1.4446
1.87194
2.39071
3.02393
3.80348
4.82454
6.12885
8.01116
10.0149
11.0055
13.1266
16.5196
15.8665
18.5194
21.5018
24.9033
28.7724
33.1738
38.1778
43.8654
50.3283
57.6702
66.0073
75.4718
86.2128
98.3958
112.206
127.85
145.562
165.596
188.228
213.743
242.443
274.61
310.491
350.232
393.765
440.686
489.977
539.343
584.761
619.23
615.481
562.1
469.183
382.911
141.733
4.91298
0.344794
0.350268
0.370638
1.47973e-07
5.45257e-06
9.26867e-05
0.000598191
0.0027075
0.010457
0.045142
0.00234628
0.0150694
0.0393086
0.0774826
0.141115
0.239253
0.379881
0.569216
0.811974
1.09378
1.4401
1.86634
2.38477
3.00814
3.76286
4.68697
5.87913
7.33605
9.43309
11.6584
12.9114
15.3492
18.9428
18.4608
21.4843
24.877
28.7436
33.1386
38.1351
43.8123
50.2615
57.5859
65.9018
75.3403
86.0495
98.1956
111.963
127.557
145.205
165.163
187.705
213.125
241.719
273.788
309.596
349.337
393.048
440.467
490.855
542.634
592.582
635.312
655.802
628.267
553.066
453.703
325.803
68.2336
1.3875
0.336794
0.350329
0.370629
1.60449e-07
6.17335e-06
0.000112747
0.000749614
0.0030615
0.0105105
0.0328924
0.110141
0.00560893
0.0323885
0.0771313
0.140974
0.239081
0.37948
0.568411
0.810755
1.09228
1.43695
1.86078
2.37819
3.0007
3.74394
4.63772
5.72427
7.07683
8.71751
11.0571
13.5278
15.086
17.8778
21.6967
21.4139
24.8568
28.7133
33.1055
38.0946
43.7633
50.2007
57.5094
65.8055
75.2201
85.9
98.0107
111.737
127.284
144.878
164.767
187.228
212.556
241.058
273.033
308.766
348.485
392.294
440.071
491.276
544.703
598.035
646.868
684.027
680.409
628.975
534.994
440.598
233.515
23.2405
0.546734
0.335292
0.350392
0.370607
1.72317e-07
6.8987e-06
0.000128269
0.00093495
0.00392411
0.0118714
0.0333133
0.0881361
0.237323
0.012538
0.0646691
0.140464
0.238867
0.379237
0.567875
0.809727
1.09084
1.43481
1.85691
2.37099
2.9925
3.73449
4.61365
5.66565
6.91416
8.42006
10.3013
12.9087
15.652
17.5637
20.75
24.8185
24.7724
28.6899
33.0705
38.0565
43.7168
50.1445
57.4398
65.7182
75.1104
85.7633
97.8413
111.529
127.031
144.573
164.404
186.794
212.039
240.449
272.34
307.998
347.684
391.551
439.569
491.384
546.067
601.785
655.264
700.62
720.184
692.434
616.78
513.004
404.882
133.039
6.05961
0.36696
0.335056
0.350474
0.370571
1.83516e-07
7.64049e-06
0.000143884
0.00107774
0.0049368
0.0153152
0.0376227
0.0903601
0.206767
0.459856
0.0265441
0.120374
0.238223
0.378933
0.567555
0.809043
1.08967
1.43311
1.85429
2.36602
2.98398
3.72388
4.60296
5.63556
6.85197
8.23842
9.96156
12.1133
15.0169
18.0636
20.3839
24.0072
28.3549
28.5888
33.0434
38.0161
43.673
50.0911
57.3754
65.6388
75.011
85.6387
97.6865
111.337
126.796
144.29
164.066
186.394
211.565
239.893
271.698
307.291
346.935
390.834
439.025
491.286
546.928
604.496
661.335
712.947
749.156
743.513
690.299
593.605
494.053
303.959
53.8352
1.53045
0.331836
0.335076
0.350559
0.370514
1.94345e-07
8.33715e-06
0.000159967
0.00122102
0.00570417
0.0191992
0.0483953
0.101976
0.215067
0.430276
0.811317
0.053512
0.209213
0.378229
0.567152
0.808638
1.08886
1.43163
1.85227
2.3632
2.97841
3.71423
4.59116
5.62293
6.81782
8.1658
9.75866
11.7271
14.1831
17.4142
20.8001
23.5898
27.6961
32.3606
32.9227
37.9849
43.6266
50.0408
57.3144
65.5652
74.9207
85.5259
97.5454
111.163
126.581
144.027
163.751
186.021
211.129
239.383
271.11
306.632
346.24
390.149
438.469
491.07
547.443
606.448
665.925
722.159
769.143
783.811
752.562
673.167
566.103
463.244
185.191
14.9847
0.546951
0.325495
0.335166
0.350634
0.370453
2.04661e-07
8.98261e-06
0.000175103
0.00137144
0.00647431
0.0221322
0.060082
0.129871
0.242001
0.45412
0.803461
1.32026
0.102733
0.340431
0.566468
0.808127
1.08841
1.43068
1.85047
2.36085
2.97488
3.70846
4.57908
5.61007
6.80262
8.13082
9.67376
11.5003
13.7459
16.5437
20.1375
23.9034
27.2306
31.8689
36.8978
37.8412
43.5906
49.9876
57.2568
65.4956
74.837
85.4233
97.4177
111.003
126.384
143.786
163.459
185.673
210.722
238.913
270.57
306.025
345.586
389.506
437.916
490.784
547.732
607.859
669.413
729.321
782.52
814.905
803.911
745.2
643.956
541.812
350.015
81.1014
3.4177
0.356619
0.324393
0.335288
0.350696
0.370401
2.14408e-07
9.56913e-06
0.000189104
0.00151365
0.00728485
0.0250775
0.0689174
0.15892
0.303088
0.508128
0.856558
1.36471
2.00907
0.187145
0.521435
0.807516
1.08781
1.43012
1.8493
2.35869
2.9718
3.70439
4.57179
5.59582
6.78723
8.11447
9.63275
11.4012
13.4925
16.0511
19.2326
23.228
27.4209
31.3608
36.584
42.0366
43.4197
49.9463
57.1957
65.4299
74.7577
85.3285
97.3017
110.859
126.205
143.566
163.191
185.35
210.341
238.473
270.072
305.465
344.979
388.89
437.382
490.457
547.866
608.892
672.101
734.926
793.132
838.468
845.552
807.437
721.022
611.526
500.436
214.757
23.3912
0.883134
0.323016
0.324204
0.335425
0.350742
0.37036
2.23518e-07
1.01189e-05
0.000201787
0.0016445
0.00805178
0.0281633
0.0777749
0.180898
0.363765
0.621883
0.951266
1.46305
2.14334
2.89573
0.321984
0.757693
1.08809
1.42937
1.84864
2.35727
2.96926
3.7004
4.5677
5.58677
6.77189
8.09664
9.61352
11.3532
13.3769
15.7682
18.6804
22.2914
26.7324
31.4063
36.0417
41.9067
47.8554
49.7434
57.1484
65.3601
74.6829
85.2386
97.1945
110.729
126.044
143.366
162.945
185.054
209.987
238.06
269.603
304.946
344.416
388.312
436.854
490.113
547.894
609.653
674.2
739.387
801.601
855.159
878.981
859.661
792.189
684.685
581.589
370.175
93.851
5.0888
0.406443
0.317437
0.324198
0.335568
0.35078
0.370347
2.31907e-07
1.06352e-05
0.000213675
0.00176207
0.00875719
0.0310797
0.0869735
0.202788
0.409482
0.729068
1.13483
1.61111
2.30353
3.16341
3.99737
0.521945
1.05325
1.42913
1.84773
2.35645
2.96758
3.69737
4.56325
5.58169
6.76154
8.07969
9.59271
11.3304
13.3206
15.6337
18.3648
21.676
25.7675
30.7033
35.9203
41.341
47.9109
54.4434
56.9089
65.3059
74.6035
85.1537
97.0928
110.608
125.897
143.185
162.722
184.783
209.662
237.677
269.162
304.457
343.891
387.771
436.348
489.742
547.855
610.215
675.864
742.98
808.481
867.425
905.637
903.102
854.498
759.043
647.778
514.374
218.54
26.1803
1.14598
0.32555
0.316447
0.324261
0.335712
0.350812
0.37027
2.3943e-07
1.1113e-05
0.000224843
0.00187221
0.00939088
0.0337628
0.0956316
0.225205
0.454451
0.809617
1.30071
1.87763
2.51629
3.40218
4.44845
5.33172
0.798491
1.40782
1.84596
2.35532
2.96661
3.69541
4.5596
5.57685
6.75482
8.06865
9.57337
11.3061
13.2935
15.5676
18.2086
21.3248
25.0856
29.7136
35.1998
41.0308
47.335
54.6796
61.9006
65.0248
74.5416
85.0635
96.9968
110.493
125.761
143.021
162.521
184.536
209.364
237.323
268.752
303.995
343.394
387.264
435.868
489.369
547.738
610.635
677.201
745.916
814.121
877.55
926.832
939.285
908.26
828.4
715.146
612.433
362.906
88.9368
5.35107
0.439115
0.312821
0.31619
0.324374
0.335856
0.350843
0.370157
2.46088e-07
1.15383e-05
0.000235185
0.00197594
0.00998451
0.0361765
0.103586
0.246131
0.499614
0.888086
1.42537
2.1107
2.8759
3.69049
4.78316
6.02441
6.91765
1.15924
1.81534
2.35088
2.96516
3.69437
4.55737
5.57275
6.74948
8.0616
9.56076
11.284
13.265
15.5354
18.131
21.1437
24.6961
28.9629
34.189
40.2882
46.8147
54.1083
62.3072
70.3386
74.2135
84.9932
96.8948
110.385
125.633
142.87
162.339
184.314
209.094
237.001
268.373
303.564
342.922
386.779
435.411
489.001
547.583
610.907
678.29
748.348
818.812
885.943
944.028
969.286
954.18
891.452
785.269
673.745
502.18
197.329
22.4388
1.13115
0.325674
0.310736
0.316096
0.324526
0.336002
0.350861
0.370034
2.51734e-07
1.18953e-05
0.000244382
0.00207219
0.0105436
0.0384376
0.110746
0.265266
0.54128
0.965454
1.54586
2.28645
3.18266
4.15265
5.15834
6.4739
7.92125
8.77455
1.60901
2.29608
2.95658
3.69257
4.55616
5.57016
6.74484
8.05534
9.55271
11.2696
13.2398
15.5018
18.0925
21.0527
24.4868
28.5325
33.368
39.2602
46.0438
53.3581
61.7553
70.9002
79.8815
84.6128
96.815
110.27
125.512
142.727
162.172
184.114
208.851
236.708
268.028
303.165
342.48
386.313
434.966
488.641
547.403
611.086
679.133
750.39
822.763
893.008
956.038
994.309
993.273
946.898
852.919
738.054
628.613
327.752
69.9288
4.23474
0.425057
0.308846
0.310204
0.316092
0.324716
0.33613
0.350865
0.369904
2.56438e-07
1.21626e-05
0.000252078
0.00215768
0.0110625
0.0405643
0.117442
0.282445
0.57909
1.03598
1.6628
2.45542
3.41541
4.53961
5.73345
6.94865
8.50677
10.1737
10.9224
2.15134
2.86032
3.67777
4.55411
5.56863
6.74191
8.05013
9.54552
11.2604
13.2234
15.4729
18.0529
21.0066
24.3801
28.2917
32.8951
38.3689
45.0016
52.5506
60.7579
70.381
80.5794
90.5332
96.3773
110.18
125.383
142.592
162.013
183.929
208.632
236.445
267.714
302.801
342.07
385.876
434.534
488.279
547.205
611.198
679.807
752.048
826.128
899.028
966.263
1014.99
1026.63
995.517
915.326
800.298
692.496
461.287
155.824
15.2569
0.895114
0.319423
0.306227
0.309942
0.316173
0.32492
0.336239
0.35086
0.369772
2.60385e-07