# y+ ()       
# Time        	patch         	min           	max           	average       
2700          	base	3.613896e-02	6.424893e-01	2.565485e-01
