# p  FACE_DATA 398
# x  y  z  p
-0.7975 0 0.025 4472.25
-0.79239 0 0.025 3670.44
-0.787056 0 0.025 2946.76
-0.781492 0 0.025 2848.73
-0.775691 0 0.025 2789.49
-0.769649 0 0.025 2784.87
-0.763362 0 0.025 2811.77
-0.756822 0 0.025 2833.22
-0.750025 0 0.025 2847.99
-0.742968 0 0.025 2854.68
-0.735648 0 0.025 2859.33
-0.72806 0 0.025 2861.9
-0.720203 0 0.025 2863.35
-0.712076 0 0.025 2862.45
-0.703677 0 0.025 2861.59
-0.695006 0 0.025 2861.48
-0.686065 0 0.025 2860.51
-0.676855 0 0.025 2859.57
-0.667379 0 0.025 2854.61
-0.65764 0 0.025 2850.86
-0.647644 0 0.025 2851.36
-0.637397 0 0.025 2847.76
-0.626906 0 0.025 2843.29
-0.616179 0 0.025 2843.53
-0.605224 0 0.025 2838.99
-0.594054 0 0.025 2836.7
-0.582678 0 0.025 2833.15
-0.57111 0 0.025 2831.97
-0.559364 0 0.025 2828.78
-0.547454 0 0.025 2825.42
-0.535396 0 0.025 2822.93
-0.523205 0 0.025 2820.42
-0.510901 0 0.025 2819.58
-0.4985 0 0.025 2817.17
-0.486021 0 0.025 2813.28
-0.473483 0 0.025 2812.03
-0.460905 0 0.025 2811.18
-0.448308 0 0.025 2808.49
-0.435709 0 0.025 2805.54
-0.42313 0 0.025 2802.73
-0.41059 0 0.025 2800.39
-0.39811 0 0.025 2799.55
-0.385706 0 0.025 2801.1
-0.373398 0 0.025 2800.51
-0.361205 0 0.025 2796.48
-0.349141 0 0.025 2792.07
-0.337226 0 0.025 2788.96
-0.325475 0 0.025 2788.03
-0.313901 0 0.025 2790.96
-0.30252 0 0.025 2792.91
-0.291343 0 0.025 2793.55
-0.280382 0 0.025 2791.24
-0.269646 0 0.025 2787.17
-0.259148 0 0.025 2782.13
-0.248893 0 0.025 2777.91
-0.23889 0 0.025 2775.1
-0.229143 0 0.025 2774.16
-0.219659 0 0.025 2775.41
-0.210441 0 0.025 2778.38
-0.201491 0 0.025 2781.81
-0.192812 0 0.025 2785.05
-0.184405 0 0.025 2786.69
-0.176269 0 0.025 2787.22
-0.168404 0 0.025 2785.9
-0.160808 0 0.025 2783.49
-0.15348 0 0.025 2780.19
-0.146415 0 0.025 2776.42
-0.13961 0 0.025 2772.26
-0.133063 0 0.025 2768.43
-0.126767 0 0.025 2765.13
-0.120718 0 0.025 2762.58
-0.11491 0 0.025 2760.65
-0.109339 0 0.025 2759.4
-0.103997 0 0.025 2758.75
-0.0988805 0 0.025 2758.57
-0.0939808 0 0.025 2759.03
-0.0892928 0 0.025 2759.96
-0.0848096 0 0.025 2761.24
-0.0805248 0 0.025 2762.82
-0.0764316 0 0.025 2764.65
-0.0725237 0 0.025 2766.63
-0.0687943 0 0.025 2768.68
-0.065237 0 0.025 2770.68
-0.0618454 0 0.025 2772.54
-0.058613 0 0.025 2774.19
-0.0555337 0 0.025 2775.62
-0.0526013 0 0.025 2776.78
-0.0498099 0 0.025 2777.73
-0.0471536 0 0.025 2778.49
-0.0446266 0 0.025 2779.12
-0.0422235 0 0.025 2779.63
-0.039939 0 0.025 2780.05
-0.0377676 0 0.025 2780.36
-0.0357044 0 0.025 2780.58
-0.0337445 0 0.025 2780.77
-0.0318832 0 0.025 2780.82
-0.0301159 0 0.025 2815.75
-0.0284383 0 0.025 3432.75
-0.0268461 0 0.025 5151.17
-0.0253353 0 0.025 6580.19
-0.023902 0 0.025 7485.71
-0.0225426 0 0.025 8076.81
-0.0212532 0 0.025 8532.97
-0.0200306 0 0.025 8902.81
-0.0188715 0 0.025 9218.59
-0.0177728 0 0.025 9490.23
-0.0167313 0 0.025 9727.73
-0.0157444 0 0.025 9942.89
-0.0148092 0 0.025 10138.4
-0.0139232 0 0.025 10318.6
-0.0130838 0 0.025 10485.4
-0.0122887 0 0.025 10640
-0.0115356 0 0.025 10783.7
-0.0108223 0 0.025 10917
-0.0101469 0 0.025 11040
-0.00950727 0 0.025 11152.6
-0.00890168 0 0.025 11255.1
-0.00832835 0 0.025 11347.7
-0.00778557 0 0.025 11431
-0.00727176 0 0.025 11505.7
-0.0067854 0 0.025 11572.4
-0.00632507 0 0.025 11632.3
-0.00588937 0 0.025 11686.6
-0.00547703 0 0.025 11736.8
-0.0050868 0 0.025 11784.2
-0.00471753 0 0.025 11830.6
-0.0043681 0 0.025 11877.9
-0.00403746 0 0.025 11928.2
-0.00372461 0 0.025 11981.8
-0.0034286 0 0.025 12040.4
-0.00314855 0 0.025 12104.5
-0.0028836 0 0.025 12177.2
-0.00263294 0 0.025 12261.5
-0.00239581 0 0.025 12347.5
-0.0021715 0 0.025 12441.4
-0.00195929 0 0.025 12542.4
-0.00175856 0 0.025 12649.7
-0.00156869 0 0.025 12762.4
-0.00138908 0 0.025 12879.5
-0.0012192 0 0.025 12999.8
-0.00105853 0 0.025 13121.8
-0.000906546 0 0.025 13243.2
-0.000762803 0 0.025 13360.8
-0.000626848 0 0.025 13469.6
-0.000498265 0 0.025 13562.2
-0.000376656 0 0.025 13628.5
-0.000261642 0 0.025 13659.8
-0.00015287 0 0.025 13662.2
-5e-05 0 0.025 13747.8
4.14519e-05 2.79596e-05 0.025 13309.6
0.000125371 8.45641e-05 0.025 13401.5
0.000211347 0.000142556 0.025 13363.4
0.000299429 0.000201968 0.025 13290.4
0.000389669 0.000262835 0.025 13203.8
0.000482118 0.000325193 0.025 13114.4
0.000576831 0.000389077 0.025 13027.9
0.000673861 0.000454524 0.025 12948.3
0.000773265 0.000521574 0.025 12878.7
0.0008751 0.000590262 0.025 12821.1
0.000979426 0.000660632 0.025 12776.6
0.0010863 0.000732721 0.025 12746.5
0.00119579 0.000806572 0.025 12727
0.00130795 0.000882227 0.025 12722.5
0.00142285 0.00095973 0.025 12731.6
0.00154056 0.00103912 0.025 12752
0.00166115 0.00112046 0.025 12783.8
0.00178467 0.00120378 0.025 12826.8
0.00191121 0.00128913 0.025 12879.7
0.00204083 0.00137656 0.025 12943.3
0.00217362 0.00146612 0.025 13016.4
0.00230964 0.00155787 0.025 13098.3
0.00244897 0.00165185 0.025 13190.3
0.00259169 0.00174812 0.025 13290.7
0.00273789 0.00184673 0.025 13400
0.00288765 0.00194774 0.025 13518.2
0.00304105 0.00205122 0.025 13645.2
0.00319818 0.00215719 0.025 13781.5
0.00335912 0.00226575 0.025 13926.8
0.00352397 0.00237695 0.025 14081.2
0.00369283 0.00249085 0.025 14245.3
0.00386579 0.00260751 0.025 14419.5
0.00404294 0.00272699 0.025 14604
0.00422438 0.00284938 0.025 14799
0.00441022 0.00297474 0.025 15005.4
0.00460056 0.00310312 0.025 15223.8
0.00479552 0.00323462 0.025 15455.3
0.00499519 0.0033693 0.025 15699.8
0.00519968 0.00350723 0.025 15959.1
0.00540911 0.00364849 0.025 16233.6
0.00562361 0.00379318 0.025 16525
0.00584329 0.00394134 0.025 16834
0.00606826 0.00409309 0.025 17162.1
0.00629865 0.00424849 0.025 17510.7
0.0065346 0.00440764 0.025 17881.7
0.00677623 0.00457063 0.025 18276.2
0.00702368 0.00473753 0.025 18696.8
0.00727707 0.00490844 0.025 19145.1
0.00753655 0.00508347 0.025 19623.4
0.00780227 0.00526269 0.025 20134.2
0.00807436 0.00544622 0.025 20679.7
0.00835298 0.00563415 0.025 21263.2
0.00863826 0.00582659 0.025 21886.9
0.00893038 0.00602362 0.025 22554.8
0.00922949 0.00622537 0.025 23269.5
0.00953574 0.00643195 0.025 24035.6
0.00984929 0.00664345 0.025 24855.9
0.0101703 0.00686 0.025 25738
0.0104991 0.00708171 0.025 26683.5
0.0108356 0.00730871 0.025 27699.5
0.0111801 0.0075411 0.025 28793.5
0.0115329 0.00777902 0.025 29971.8
0.011894 0.00802259 0.025 31240.7
0.0122637 0.00827194 0.025 32611.3
0.0126421 0.00852719 0.025 34094.9
0.0130295 0.0087885 0.025 35698.8
0.013426 0.00905597 0.025 37432.2
0.013832 0.00932978 0.025 39316.1
0.0142475 0.00961003 0.025 41359.9
0.0146727 0.0098969 0.025 43576.3
0.0151081 0.0101905 0.025 45986
0.0155536 0.010491 0.025 48603.3
0.0160097 0.0107986 0.025 51445.5
0.0164764 0.0111134 0.025 54530
0.016954 0.0114356 0.025 57889.9
0.0174427 0.0117653 0.025 61542.3
0.0179429 0.0121026 0.025 65541.1
0.0184548 0.0124479 0.025 69942.7
0.0189786 0.0128013 0.025 74843.8
0.0195146 0.0131628 0.025 80331.9
0.020063 0.0135327 0.025 86474.4
0.0206242 0.0139112 0.025 93352.8
0.0211983 0.0142984 0.025 100987
0.0217857 0.0146947 0.025 109303
0.0223867 0.0151 0.025 118247
0.0230015 0.0155147 0.025 127734
0.0236304 0.0159389 0.025 137815
0.0242738 0.0163729 0.025 148421
0.0249318 0.0168167 0.025 159203
0.025605 0.0172708 0.025 169214
0.0262935 0.0177352 0.025 176451
0.0269977 0.0182102 0.025 180081
0.0277178 0.0186959 0.025 180895
0.0284544 0.0191927 0.025 175040
0.0292075 0.0197008 0.025 169866
0.0299777 0.0202203 0.025 164674
0.0307653 0.0207514 0.025 159413
0.0315704 0.0212945 0.025 154167
0.0323937 0.0218499 0.025 149204
0.0332354 0.0224176 0.025 144642
0.0340959 0.022998 0.025 140580
0.0349755 0.0235913 0.025 136959
0.0358747 0.0241978 0.025 133853
0.0367938 0.0248178 0.025 131298
0.0377331 0.0254513 0.025 129464
0.0386932 0.0260989 0.025 128237
0.0396743 0.0267606 0.025 127393
0.0406769 0.0274369 0.025 126762
0.0417013 0.0281279 0.025 126323
0.042748 0.0288339 0.025 126010
0.0438175 0.0295552 0.025 125709
0.04491 0.0302922 0.025 125483
0.0460262 0.031045 0.025 125389
0.0471662 0.031814 0.025 125328
0.0483306 0.0325995 0.025 125441
0.0495199 0.0334016 0.025 125576
0.0507344 0.0342208 0.025 125765
0.0519746 0.0350573 0.025 125928
0.0532409 0.0359114 0.025 126061
0.0545339 0.0367835 0.025 126132
0.0558538 0.0376739 0.025 126309
0.0572012 0.0385827 0.025 126510
0.0585766 0.0395104 0.025 126666
0.0599804 0.0404573 0.025 126959
0.061413 0.0414236 0.025 127466
0.0628748 0.0424096 0.025 127820
0.0643665 0.0434157 0.025 127910
0.0658883 0.0444422 0.025 127609
0.0674408 0.0454894 0.025 127207
0.0690245 0.0465576 0.025 127108
0.0706398 0.0476471 0.025 127738
0.0722871 0.0487582 0.025 128770
0.0739669 0.0498912 0.025 129438
0.0756797 0.0510466 0.025 129561
0.0774258 0.0522244 0.025 129356
0.0792059 0.053425 0.025 129068
0.0810203 0.0546489 0.025 128972
0.0828694 0.0558961 0.025 129187
0.0847537 0.0571671 0.025 129435
0.0866737 0.0584622 0.025 129577
0.0886298 0.0597816 0.025 129664
0.0906224 0.0611256 0.025 129665
0.0926518 0.0624944 0.025 129695
0.0947185 0.0638884 0.025 129831
0.096823 0.065308 0.025 129871
0.0989659 0.0667532 0.025 129867
0.101147 0.0682245 0.025 129501
0.103367 0.0697219 0.025 129189
0.105626 0.0712458 0.025 128941
0.107926 0.0727965 0.025 128413
0.110265 0.074374 0.025 127954
0.112644 0.0759789 0.025 127227
0.115063 0.0776111 0.025 127446
0.117524 0.0792709 0.025 127588
0.120026 0.0809585 0.025 128209
0.122569 0.0826741 0.025 129307
0.125155 0.0844179 0.025 130076
0.127782 0.0861901 0.025 130458
0.130451 0.0879908 0.025 130341
0.133163 0.08982 0.025 130084
0.135918 0.0916781 0.025 129721
0.138716 0.0935651 0.025 129294
0.141556 0.095481 0.025 128919
0.14444 0.097426 0.025 128724
0.147367 0.0994004 0.025 128077
0.150337 0.101404 0.025 129110
0.153351 0.103437 0.025 129154
0.156408 0.105498 0.025 128043
0.159508 0.107589 0.025 128505
0.162651 0.10971 0.025 127242
0.165838 0.111859 0.025 124446
0.169069 0.114039 0.025 126142
0.172343 0.116247 0.025 124605
0.175659 0.118483 0.025 124705
0.179018 0.120749 0.025 124847
0.182421 0.123045 0.025 124224
0.185866 0.125368 0.025 123799
0.189353 0.12772 0.025 122860
0.192882 0.1301 0.025 121728
0.196453 0.132509 0.025 120897
0.200065 0.134946 0.025 120068
0.203718 0.13741 0.025 120209
0.207412 0.139901 0.025 121281
0.211146 0.14242 0.025 121511
0.214919 0.144965 0.025 121509
0.218732 0.147537 0.025 122430
0.222583 0.150134 0.025 121922
0.226472 0.152757 0.025 122595
0.230399 0.155406 0.025 121711
0.234362 0.15808 0.025 121180
0.238362 0.160777 0.025 119977
0.242396 0.163498 0.025 119931
0.246466 0.166244 0.025 119618
0.250569 0.169012 0.025 120964
0.254706 0.171801 0.025 120542
0.258874 0.174613 0.025 120807
0.263074 0.177446 0.025 120462
0.267304 0.180299 0.025 121070
0.271564 0.183172 0.025 121496
0.275852 0.186064 0.025 120909
0.280168 0.188975 0.025 121373
0.28451 0.191904 0.025 120964
0.288876 0.19485 0.025 120544
0.293268 0.197812 0.025 121451
0.297683 0.20079 0.025 120670
0.302119 0.203782 0.025 120566
0.306577 0.206788 0.025 121477
0.311054 0.209808 0.025 120645
0.315549 0.212841 0.025 120972
0.320063 0.215885 0.025 119908
0.324591 0.218939 0.025 120455
0.329134 0.222003 0.025 120382
0.333691 0.225077 0.025 119866
0.33826 0.228159 0.025 120596
0.342839 0.231248 0.025 120671
0.347428 0.234343 0.025 121873
0.352025 0.237444 0.025 120784
0.356628 0.240548 0.025 121234
0.361237 0.243658 0.025 121439
0.36585 0.246769 0.025 120172
0.370465 0.249882 0.025 121933
0.375082 0.252996 0.025 120842
0.379698 0.25611 0.025 120252
0.384313 0.259223 0.025 121211
0.388926 0.262333 0.025 120448
0.393534 0.265442 0.025 120820
0.398136 0.268546 0.025 121139
0.40273 0.271645 0.025 120460
0.407317 0.274739 0.025 120306
0.411894 0.277826 0.025 119964
0.41646 0.280906 0.025 121299
0.421014 0.283977 0.025 120517
0.425554 0.28704 0.025 120332
0.430079 0.290092 0.025 120794
0.434588 0.293133 0.025 120587
0.439079 0.296162 0.025 121298
0.443551 0.299179 0.025 120988
0.448004 0.302183 0.025 120898
0.452437 0.305172 0.025 120998
0.456846 0.308146 0.025 121294
0.461232 0.311105 0.025 121183
0.465593 0.314047 0.025 121359
0.469929 0.316971 0.025 120970
0.474238 0.319878 0.025 122054
0.47852 0.322766 0.025 121692
0.482773 0.325635 0.025 121708
0.486996 0.328483 0.025 121017
0.491189 0.331311 0.025 120175
0.49535 0.334118 0.025 121173
