# wallHeatFlux  FACE_DATA 398
# x  y  z  wallHeatFlux
-0.7975 0 0.025 -653682
-0.79239 0 0.025 -120288
-0.787056 0 0.025 -70916.1
-0.781492 0 0.025 -63257.3
-0.775691 0 0.025 -64886.6
-0.769649 0 0.025 -65947.2
-0.763362 0 0.025 -66813.5
-0.756822 0 0.025 -66967.2
-0.750025 0 0.025 -66605
-0.742968 0 0.025 -65860.6
-0.735648 0 0.025 -64955.1
-0.72806 0 0.025 -64011.4
-0.720203 0 0.025 -63089.7
-0.712076 0 0.025 -62126.3
-0.703677 0 0.025 -61204.3
-0.695006 0 0.025 -60377.3
-0.686065 0 0.025 -59587
-0.676855 0 0.025 -58833.2
-0.667379 0 0.025 -58062.1
-0.65764 0 0.025 -57349.4
-0.647644 0 0.025 -56734.9
-0.637397 0 0.025 -56086.8
-0.626906 0 0.025 -55434.2
-0.616179 0 0.025 -54953.2
-0.605224 0 0.025 -54333.2
-0.594054 0 0.025 -53786
-0.582678 0 0.025 -53267.3
-0.57111 0 0.025 -52859.3
-0.559364 0 0.025 -52369.7
-0.547454 0 0.025 -51898.3
-0.535396 0 0.025 -51452.1
-0.523205 0 0.025 -51033.8
-0.510901 0 0.025 -50701.6
-0.4985 0 0.025 -50327.2
-0.486021 0 0.025 -49929.7
-0.473483 0 0.025 -49594.5
-0.460905 0 0.025 -49288.7
-0.448308 0 0.025 -48955.1
-0.435709 0 0.025 -48641
-0.42313 0 0.025 -48340
-0.41059 0 0.025 -48048.6
-0.39811 0 0.025 -47793.2
-0.385706 0 0.025 -47621.8
-0.373398 0 0.025 -47407.4
-0.361205 0 0.025 -47106
-0.349141 0 0.025 -46818.5
-0.337226 0 0.025 -46568.5
-0.325475 0 0.025 -46377.1
-0.313901 0 0.025 -46282.1
-0.30252 0 0.025 -46159.5
-0.291343 0 0.025 -46027.3
-0.280382 0 0.025 -45841.3
-0.269646 0 0.025 -45617
-0.259148 0 0.025 -45377.1
-0.248893 0 0.025 -45149.9
-0.23889 0 0.025 -44966
-0.229143 0 0.025 -44824.5
-0.219659 0 0.025 -44743.6
-0.210441 0 0.025 -44705.4
-0.201491 0 0.025 -44686.4
-0.192812 0 0.025 -44665.1
-0.184405 0 0.025 -44616.3
-0.176269 0 0.025 -44544.1
-0.168404 0 0.025 -44431.1
-0.160808 0 0.025 -44302.1
-0.15348 0 0.025 -44165.5
-0.146415 0 0.025 -44019
-0.13961 0 0.025 -43871.1
-0.133063 0 0.025 -43720
-0.126767 0 0.025 -43585.7
-0.120718 0 0.025 -43473.4
-0.11491 0 0.025 -43372.4
-0.109339 0 0.025 -43288.2
-0.103997 0 0.025 -43219.3
-0.0988805 0 0.025 -43170.4
-0.0939808 0 0.025 -43135
-0.0892928 0 0.025 -43111.6
-0.0848096 0 0.025 -43099.1
-0.0805248 0 0.025 -43092.4
-0.0764316 0 0.025 -43096.7
-0.0725237 0 0.025 -43106.3
-0.0687943 0 0.025 -43122.1
-0.065237 0 0.025 -43137.3
-0.0618454 0 0.025 -43148.2
-0.058613 0 0.025 -43158.3
-0.0555337 0 0.025 -43158.6
-0.0526013 0 0.025 -43158.4
-0.0498099 0 0.025 -43153.1
-0.0471536 0 0.025 -43142.5
-0.0446266 0 0.025 -43131.9
-0.0422235 0 0.025 -43126.7
-0.039939 0 0.025 -43116.1
-0.0377676 0 0.025 -43105.1
-0.0357044 0 0.025 -43095.2
-0.0337445 0 0.025 -43084.3
-0.0318832 0 0.025 -43052.2
-0.0301159 0 0.025 -42098.1
-0.0284383 0 0.025 -37851.8
-0.0268461 0 0.025 -41867.4
-0.0253353 0 0.025 -62283.5
-0.023902 0 0.025 -74541.6
-0.0225426 0 0.025 -80938.9
-0.0212532 0 0.025 -85495.4
-0.0200306 0 0.025 -89202.2
-0.0188715 0 0.025 -92315.6
-0.0177728 0 0.025 -95097.2
-0.0167313 0 0.025 -97702.7
-0.0157444 0 0.025 -100180
-0.0148092 0 0.025 -102630
-0.0139232 0 0.025 -105007
-0.0130838 0 0.025 -107199
-0.0122887 0 0.025 -109132
-0.0115356 0 0.025 -110813
-0.0108223 0 0.025 -112261
-0.0101469 0 0.025 -113501
-0.00950727 0 0.025 -114570
-0.00890168 0 0.025 -115534
-0.00832835 0 0.025 -116478
-0.00778557 0 0.025 -117461
-0.00727176 0 0.025 -118545
-0.0067854 0 0.025 -119753
-0.00632507 0 0.025 -121101
-0.00588937 0 0.025 -122603
-0.00547703 0 0.025 -124244
-0.0050868 0 0.025 -126020
-0.00471753 0 0.025 -127932
-0.0043681 0 0.025 -130007
-0.00403746 0 0.025 -132254
-0.00372461 0 0.025 -134616
-0.0034286 0 0.025 -137154
-0.00314855 0 0.025 -139891
-0.0028836 0 0.025 -142886
-0.00263294 0 0.025 -145987
-0.00239581 0 0.025 -148994
-0.0021715 0 0.025 -152216
-0.00195929 0 0.025 -155605
-0.00175856 0 0.025 -159120
-0.00156869 0 0.025 -162771
-0.00138908 0 0.025 -166579
-0.0012192 0 0.025 -170514
-0.00105853 0 0.025 -174514
-0.000906546 0 0.025 -178571
-0.000762803 0 0.025 -182554
-0.000626848 0 0.025 -186096
-0.000498265 0 0.025 -188381
-0.000376656 0 0.025 -187335
-0.000261642 0 0.025 -179072
-0.00015287 0 0.025 -156115
-5e-05 0 0.025 -101626
4.14519e-05 2.79596e-05 0.025 -71488
0.000125371 8.45641e-05 0.025 -83882.9
0.000211347 0.000142556 0.025 -98724.2
0.000299429 0.000201968 0.025 -109731
0.000389669 0.000262835 0.025 -118925
0.000482118 0.000325193 0.025 -127691
0.000576831 0.000389077 0.025 -135973
0.000673861 0.000454524 0.025 -143476
0.000773265 0.000521574 0.025 -150087
0.0008751 0.000590262 0.025 -155872
0.000979426 0.000660632 0.025 -160960
0.0010863 0.000732721 0.025 -165464
0.00119579 0.000806572 0.025 -169505
0.00130795 0.000882227 0.025 -173322
0.00142285 0.00095973 0.025 -176850
0.00154056 0.00103912 0.025 -180235
0.00166115 0.00112046 0.025 -183491
0.00178467 0.00120378 0.025 -186702
0.00191121 0.00128913 0.025 -189919
0.00204083 0.00137656 0.025 -193083
0.00217362 0.00146612 0.025 -196305
0.00230964 0.00155787 0.025 -199596
0.00244897 0.00165185 0.025 -202948
0.00259169 0.00174812 0.025 -206332
0.00273789 0.00184673 0.025 -209848
0.00288765 0.00194774 0.025 -213509
0.00304105 0.00205122 0.025 -217265
0.00319818 0.00215719 0.025 -221163
0.00335912 0.00226575 0.025 -225266
0.00352397 0.00237695 0.025 -229502
0.00369283 0.00249085 0.025 -233944
0.00386579 0.00260751 0.025 -238577
0.00404294 0.00272699 0.025 -243448
0.00422438 0.00284938 0.025 -248578
0.00441022 0.00297474 0.025 -253965
0.00460056 0.00310312 0.025 -259630
0.00479552 0.00323462 0.025 -265581
0.00499519 0.0033693 0.025 -271917
0.00519968 0.00350723 0.025 -278538
0.00540911 0.00364849 0.025 -285595
0.00562361 0.00379318 0.025 -293066
0.00584329 0.00394134 0.025 -300948
0.00606826 0.00409309 0.025 -309370
0.00629865 0.00424849 0.025 -318249
0.0065346 0.00440764 0.025 -327775
0.00677623 0.00457063 0.025 -337948
0.00702368 0.00473753 0.025 -348733
0.00727707 0.00490844 0.025 -360331
0.00753655 0.00508347 0.025 -372645
0.00780227 0.00526269 0.025 -385870
0.00807436 0.00544622 0.025 -400096
0.00835298 0.00563415 0.025 -415345
0.00863826 0.00582659 0.025 -431791
0.00893038 0.00602362 0.025 -449490
0.00922949 0.00622537 0.025 -468499
0.00953574 0.00643195 0.025 -488737
0.00984929 0.00664345 0.025 -511659
0.0101703 0.00686 0.025 -535402
0.0104991 0.00708171 0.025 -562710
0.0108356 0.00730871 0.025 -592721
0.0111801 0.0075411 0.025 -625571
0.0115329 0.00777902 0.025 -662760
0.011894 0.00802259 0.025 -704174
0.0122637 0.00827194 0.025 -748141
0.0126421 0.00852719 0.025 -795297
0.0130295 0.0087885 0.025 -840701
0.013426 0.00905597 0.025 -885218
0.013832 0.00932978 0.025 -928840
0.0142475 0.00961003 0.025 -969958
0.0146727 0.0098969 0.025 -1.01106e+06
0.0151081 0.0101905 0.025 -1.0554e+06
0.0155536 0.010491 0.025 -1.10489e+06
0.0160097 0.0107986 0.025 -1.15693e+06
0.0164764 0.0111134 0.025 -1.21442e+06
0.016954 0.0114356 0.025 -1.27908e+06
0.0174427 0.0117653 0.025 -1.34159e+06
0.0179429 0.0121026 0.025 -1.40865e+06
0.0184548 0.0124479 0.025 -1.48744e+06
0.0189786 0.0128013 0.025 -1.54234e+06
0.0195146 0.0131628 0.025 -1.59994e+06
0.020063 0.0135327 0.025 -1.66654e+06
0.0206242 0.0139112 0.025 -1.70729e+06
0.0211983 0.0142984 0.025 -1.73459e+06
0.0217857 0.0146947 0.025 -1.76815e+06
0.0223867 0.0151 0.025 -1.7939e+06
0.0230015 0.0155147 0.025 -1.81215e+06
0.0236304 0.0159389 0.025 -1.83455e+06
0.0242738 0.0163729 0.025 -1.82678e+06
0.0249318 0.0168167 0.025 -1.83156e+06
0.025605 0.0172708 0.025 -1.82801e+06
0.0262935 0.0177352 0.025 -1.78938e+06
0.0269977 0.0182102 0.025 -1.73983e+06
0.0277178 0.0186959 0.025 -1.69965e+06
0.0284544 0.0191927 0.025 -1.68136e+06
0.0292075 0.0197008 0.025 -1.61554e+06
0.0299777 0.0202203 0.025 -1.56556e+06
0.0307653 0.0207514 0.025 -1.52748e+06
0.0315704 0.0212945 0.025 -1.49143e+06
0.0323937 0.0218499 0.025 -1.46177e+06
0.0332354 0.0224176 0.025 -1.43493e+06
0.0340959 0.022998 0.025 -1.41244e+06
0.0349755 0.0235913 0.025 -1.38497e+06
0.0358747 0.0241978 0.025 -1.38716e+06
0.0367938 0.0248178 0.025 -1.36099e+06
0.0377331 0.0254513 0.025 -1.34459e+06
0.0386932 0.0260989 0.025 -1.33378e+06
0.0396743 0.0267606 0.025 -1.32007e+06
0.0406769 0.0274369 0.025 -1.31595e+06
0.0417013 0.0281279 0.025 -1.30464e+06
0.042748 0.0288339 0.025 -1.31011e+06
0.0438175 0.0295552 0.025 -1.30026e+06
0.04491 0.0302922 0.025 -1.2875e+06
0.0460262 0.031045 0.025 -1.28963e+06
0.0471662 0.031814 0.025 -1.29601e+06
0.0483306 0.0325995 0.025 -1.28573e+06
0.0495199 0.0334016 0.025 -1.2917e+06
0.0507344 0.0342208 0.025 -1.28858e+06
0.0519746 0.0350573 0.025 -1.28743e+06
0.0532409 0.0359114 0.025 -1.29399e+06
0.0545339 0.0367835 0.025 -1.28132e+06
0.0558538 0.0376739 0.025 -1.27824e+06
0.0572012 0.0385827 0.025 -1.27922e+06
0.0585766 0.0395104 0.025 -1.28183e+06
0.0599804 0.0404573 0.025 -1.29188e+06
0.061413 0.0414236 0.025 -1.28036e+06
0.0628748 0.0424096 0.025 -1.30776e+06
0.0643665 0.0434157 0.025 -1.30696e+06
0.0658883 0.0444422 0.025 -1.2794e+06
0.0674408 0.0454894 0.025 -1.26586e+06
0.0690245 0.0465576 0.025 -1.2624e+06
0.0706398 0.0476471 0.025 -1.25912e+06
0.0722871 0.0487582 0.025 -1.2627e+06
0.0739669 0.0498912 0.025 -1.26464e+06
0.0756797 0.0510466 0.025 -1.27815e+06
0.0774258 0.0522244 0.025 -1.28657e+06
0.0792059 0.053425 0.025 -1.27358e+06
0.0810203 0.0546489 0.025 -1.29137e+06
0.0828694 0.0558961 0.025 -1.2603e+06
0.0847537 0.0571671 0.025 -1.30069e+06
0.0866737 0.0584622 0.025 -1.26366e+06
0.0886298 0.0597816 0.025 -1.2629e+06
0.0906224 0.0611256 0.025 -1.26964e+06
0.0926518 0.0624944 0.025 -1.23504e+06
0.0947185 0.0638884 0.025 -1.27485e+06
0.096823 0.065308 0.025 -1.23427e+06
0.0989659 0.0667532 0.025 -1.31809e+06
0.101147 0.0682245 0.025 -1.65429e+06
0.103367 0.0697219 0.025 -1.5629e+06
0.105626 0.0712458 0.025 -1.18531e+06
0.107926 0.0727965 0.025 -1.17582e+06
0.110265 0.074374 0.025 -1.21e+06
0.112644 0.0759789 0.025 -1.77611e+06
0.115063 0.0776111 0.025 -1.2099e+06
0.117524 0.0792709 0.025 -1.653e+06
0.120026 0.0809585 0.025 -1.8073e+06
0.122569 0.0826741 0.025 -1.61097e+06
0.125155 0.0844179 0.025 -1.44546e+06
0.127782 0.0861901 0.025 -1.25897e+06
0.130451 0.0879908 0.025 -1.22022e+06
0.133163 0.08982 0.025 -1.19869e+06
0.135918 0.0916781 0.025 -1.17146e+06
0.138716 0.0935651 0.025 -1.16571e+06
0.141556 0.095481 0.025 -1.17098e+06
0.14444 0.097426 0.025 -1.5167e+06
0.147367 0.0994004 0.025 -2.18963e+06
0.150337 0.101404 0.025 -1.60264e+06
0.153351 0.103437 0.025 -1.56864e+06
0.156408 0.105498 0.025 -2.16155e+06
0.159508 0.107589 0.025 -1.00154e+06
0.162651 0.10971 0.025 -1.46267e+06
0.165838 0.111859 0.025 -3.23997e+06
0.169069 0.114039 0.025 -1.56456e+06
0.172343 0.116247 0.025 -1.87501e+06
0.175659 0.118483 0.025 -1.78503e+06
0.179018 0.120749 0.025 -1.7995e+06
0.182421 0.123045 0.025 -1.87019e+06
0.185866 0.125368 0.025 -1.64882e+06
0.189353 0.12772 0.025 -1.67468e+06
0.192882 0.1301 0.025 -1.75317e+06
0.196453 0.132509 0.025 -1.64672e+06
0.200065 0.134946 0.025 -1.98492e+06
0.203718 0.13741 0.025 -1.81211e+06
0.207412 0.139901 0.025 -884490
0.211146 0.14242 0.025 -948923
0.214919 0.144965 0.025 -1.54484e+06
0.218732 0.147537 0.025 -957046
0.222583 0.150134 0.025 -1.84538e+06
0.226472 0.152757 0.025 -947809
0.230399 0.155406 0.025 -1.74179e+06
0.234362 0.15808 0.025 -1.63294e+06
0.238362 0.160777 0.025 -2.15387e+06
0.242396 0.163498 0.025 -1.86707e+06
0.246466 0.166244 0.025 -2.00121e+06
0.250569 0.169012 0.025 -896791
0.254706 0.171801 0.025 -1.46171e+06
0.258874 0.174613 0.025 -1.46364e+06
0.263074 0.177446 0.025 -1.84469e+06
0.267304 0.180299 0.025 -1.50657e+06
0.271564 0.183172 0.025 -912676
0.275852 0.186064 0.025 -1.54086e+06
0.280168 0.188975 0.025 -888013
0.28451 0.191904 0.025 -1.56287e+06
0.288876 0.19485 0.025 -2.11714e+06
0.293268 0.197812 0.025 -1.53628e+06
0.297683 0.20079 0.025 -1.80495e+06
0.302119 0.203782 0.025 -2.07137e+06
0.306577 0.206788 0.025 -1.47979e+06
0.311054 0.209808 0.025 -1.51888e+06
0.315549 0.212841 0.025 -1.11903e+06
0.320063 0.215885 0.025 -1.85951e+06
0.324591 0.218939 0.025 -1.3436e+06
0.329134 0.222003 0.025 -1.3264e+06
0.333691 0.225077 0.025 -1.98711e+06
0.33826 0.228159 0.025 -1.69134e+06
0.342839 0.231248 0.025 -1.72769e+06
0.347428 0.234343 0.025 -841720
0.352025 0.237444 0.025 -1.80484e+06
0.356628 0.240548 0.025 -1.34716e+06
0.361237 0.243658 0.025 -1.10989e+06
0.36585 0.246769 0.025 -2.30475e+06
0.370465 0.249882 0.025 -1.06519e+06
0.375082 0.252996 0.025 -1.4326e+06
0.379698 0.25611 0.025 -2.24466e+06
0.384313 0.259223 0.025 -1.33688e+06
0.388926 0.262333 0.025 -1.60802e+06
0.393534 0.265442 0.025 -1.34048e+06
0.398136 0.268546 0.025 -847372
0.40273 0.271645 0.025 -1.53482e+06
0.407317 0.274739 0.025 -1.59197e+06
0.411894 0.277826 0.025 -1.95826e+06
0.41646 0.280906 0.025 -811675
0.421014 0.283977 0.025 -1.51069e+06
0.425554 0.28704 0.025 -1.74094e+06
0.430079 0.290092 0.025 -1.41386e+06
0.434588 0.293133 0.025 -1.70855e+06
0.439079 0.296162 0.025 -1.22306e+06
0.443551 0.299179 0.025 -1.57228e+06
0.448004 0.302183 0.025 -1.59951e+06
0.452437 0.305172 0.025 -1.5649e+06
0.456846 0.308146 0.025 -1.45818e+06
0.461232 0.311105 0.025 -1.48196e+06
0.465593 0.314047 0.025 -1.37667e+06
0.469929 0.316971 0.025 -1.81263e+06
0.474238 0.319878 0.025 -957857
0.47852 0.322766 0.025 -1.0658e+06
0.482773 0.325635 0.025 -847820
0.486996 0.328483 0.025 -1.25821e+06
0.491189 0.331311 0.025 -1.86609e+06
0.49535 0.334118 0.025 -1.22046e+06
