# p  FACE_DATA 317
# x  y  z  p
-2.24217 0 0.27 23911.5
-2.12942 0 0.27 23883.8
-2.02231 0 0.27 23857
-1.92055 0 0.27 23846.7
-1.82389 0 0.27 23844
-1.73207 0 0.27 23839.1
-1.64485 0 0.27 23831.4
-1.562 0 0.27 23826.7
-1.48331 0 0.27 23826.4
-1.40856 0 0.27 23824.3
-1.33756 0 0.27 23816.4
-1.27013 0 0.27 23802.4
-1.20608 0 0.27 23784
-1.14539 0 0.27 23762.5
-1.08787 0 0.27 23743
-1.03323 0 0.27 23725.7
-0.981322 0 0.27 23710.7
-0.932014 0 0.27 23698.7
-0.885173 0 0.27 23689.3
-0.84068 0 0.27 23682.4
-0.798416 0 0.27 23677.6
-0.758473 0 0.27 23674.5
-0.720912 0 0.27 23672.9
-0.685558 0 0.27 23672.2
-0.652245 0 0.27 23672.1
-0.620811 0 0.27 23672.1
-0.591171 0 0.27 23671.9
-0.563165 0 0.27 23672.2
-0.536572 0 0.27 23673.1
-0.51125 0 0.27 23674.6
-0.487059 0 0.27 23677
-0.463863 0 0.27 23680.5
-0.441526 0 0.27 23684.8
-0.419915 0 0.27 23689.8
-0.398896 0 0.27 23695.4
-0.378338 0 0.27 23701.1
-0.358104 0 0.27 23706.8
-0.33806 0 0.27 23710.3
-0.318069 0 0.27 23738.3
-0.296809 0 0.27 23756.4
-0.275112 0 0.27 23738.5
-0.255001 0 0.27 23734.7
-0.23636 0 0.27 23762.5
-0.219081 0 0.27 23753.8
-0.203066 0 0.27 23731.2
-0.188221 0 0.27 23729
-0.174462 0 0.27 23726.6
-0.161708 0 0.27 23726.8
-0.149886 0 0.27 23727.8
-0.138929 0 0.27 23727.4
-0.128773 0 0.27 23727.8
-0.119359 0 0.27 23727.2
-0.110632 0 0.27 23727.2
-0.102544 0 0.27 23727.2
-0.0950472 0 0.27 23727.9
-0.0880983 0 0.27 23728
-0.0816572 0 0.27 23728.2
-0.0756869 0 0.27 23727.8
-0.070153 0 0.27 23734.2
-0.0650234 0 0.27 23934.1
-0.0602687 0 0.27 27528.1
-0.0558616 0 0.27 36489
-0.0517765 0 0.27 42740.4
-0.0479899 0 0.27 45668.7
-0.04448 0 0.27 47591.1
-0.0412265 0 0.27 49061.9
-0.0382106 0 0.27 50088.4
-0.0354151 0 0.27 50959
-0.0328237 0 0.27 51712.4
-0.0304215 0 0.27 52357
-0.0281948 0 0.27 52924.1
-0.0261306 0 0.27 53428.8
-0.0242171 0 0.27 53883.3
-0.0224431 0 0.27 54294.8
-0.0207985 0 0.27 54666.7
-0.0192738 0 0.27 55004.5
-0.0178602 0 0.27 55311.4
-0.0165496 0 0.27 55590.4
-0.0153345 0 0.27 55843.4
-0.0142077 0 0.27 56073.8
-0.0131629 0 0.27 56284
-0.0121939 0 0.27 56476.1
-0.0112952 0 0.27 56652.5
-0.0104616 0 0.27 56815.2
-0.0096884 0 0.27 56965.9
-0.00897103 0 0.27 57106.2
-0.00830536 0 0.27 57237.2
-0.00768758 0 0.27 57360.1
-0.0071141 0 0.27 57475.5
-0.00658165 0 0.27 57584.2
-0.00608714 0 0.27 57687.1
-0.00562772 0 0.27 57784.3
-0.00520074 0 0.27 57876.4
-0.00480375 0 0.27 57963.5
-0.00443446 0 0.27 58046.1
-0.00409073 0 0.27 58124.2
-0.00377059 0 0.27 58197.8
-0.00347218 0 0.27 58269.2
-0.00319379 0 0.27 58338
-0.00293381 0 0.27 58400.2
-0.00269075 0 0.27 58459.9
-0.00246319 0 0.27 58516.3
-0.00224984 0 0.27 58569.8
-0.00204945 0 0.27 58620.3
-0.00186089 0 0.27 58668.2
-0.00168306 0 0.27 58713.1
-0.00151492 0 0.27 58755.8
-0.00135552 0 0.27 58795.5
-0.00120394 0 0.27 58833.4
-0.00105929 0 0.27 58867.9
-0.000920752 0 0.27 58901.1
-0.000787523 0 0.27 58930.2
-0.000658834 0 0.27 58957.2
-0.000533942 0 0.27 58980.1
-0.000412129 0 0.27 58996.5
-0.000292693 0 0.27 59012.7
-0.000174943 0 0.27 58991.8
-5.82025e-05 0 0.27 59197.6
6.0278e-05 2.68374e-05 0.27 58474.8
0.000182584 8.12915e-05 0.27 58701
0.000308438 0.000137325 0.27 58658.5
0.000437939 0.000194983 0.27 58643
0.00057119 0.00025431 0.27 58628.4
0.000708293 0.000315353 0.27 58626.3
0.000849358 0.000378158 0.27 58634
0.000994492 0.000442776 0.27 58646.8
0.00114381 0.000509256 0.27 58666.8
0.00129743 0.000577649 0.27 58690.1
0.00145545 0.000648007 0.27 58718.8
0.00161801 0.000720386 0.27 58750.6
0.00178523 0.000794839 0.27 58786.8
0.00195724 0.000871423 0.27 58825.9
0.00213417 0.000950195 0.27 58868.8
0.00231614 0.00103122 0.27 58914.6
0.0025033 0.00111455 0.27 58963.9
0.00269579 0.00120024 0.27 59016
0.00289374 0.00128838 0.27 59071.4
0.00309731 0.00137901 0.27 59129.8
0.00330663 0.00147221 0.27 59191.5
0.00352187 0.00156804 0.27 59257.1
0.00374317 0.00166657 0.27 59325.2
0.0039707 0.00176788 0.27 59396.1
0.00420463 0.00187202 0.27 59470.2
0.00444512 0.0019791 0.27 59547.6
0.00469233 0.00208916 0.27 59628.4
0.00494645 0.0022023 0.27 59712.7
0.00520763 0.00231859 0.27 59800.3
0.00547608 0.00243811 0.27 59891.5
0.00575197 0.00256094 0.27 59986.2
0.00603549 0.00268717 0.27 60084.6
0.00632683 0.00281688 0.27 60186.7
0.00662618 0.00295016 0.27 60292.6
0.00693375 0.0030871 0.27 60402.4
0.00724974 0.0032278 0.27 60516.2
0.00757435 0.00337232 0.27 60634.2
0.0079078 0.00352077 0.27 60756.4
0.00825029 0.00367327 0.27 60882.9
0.00860204 0.00382988 0.27 61014
0.00896328 0.00399071 0.27 61149.8
0.00933422 0.00415586 0.27 61290.4
0.0097151 0.00432544 0.27 61436
0.0101061 0.00449954 0.27 61586.8
0.0105076 0.00467828 0.27 61743.1
0.0109197 0.00486175 0.27 61904.9
0.0113426 0.00505007 0.27 62072.7
0.0117768 0.00524333 0.27 62246.3
0.0122222 0.00544166 0.27 62426.7
0.0126792 0.00564515 0.27 62613.4
0.0131482 0.00585394 0.27 62807.3
0.0136292 0.00606812 0.27 63008.2
0.0141227 0.00628781 0.27 63216.8
0.0146288 0.00651313 0.27 63433
0.0151477 0.00674419 0.27 63657
0.0156799 0.00698113 0.27 63889.5
0.0162254 0.00722403 0.27 64130.4
0.0167847 0.00747303 0.27 64380
0.017358 0.00772826 0.27 64638.6
0.0179454 0.00798982 0.27 64906.3
0.0185474 0.00825783 0.27 65183.4
0.0191641 0.00853242 0.27 65470.1
0.0197959 0.00881371 0.27 65766.5
0.0204431 0.00910183 0.27 66072.9
0.0211057 0.00939688 0.27 66389.1
0.0217843 0.00969898 0.27 66715.3
0.0224789 0.0100083 0.27 67051.5
0.02319 0.0103248 0.27 67397.7
0.0239176 0.0106488 0.27 67754.2
0.0246623 0.0109804 0.27 68120.8
0.025424 0.0113195 0.27 68497.9
0.0262032 0.0116664 0.27 68885.6
0.0270001 0.0120212 0.27 69283.9
0.0278149 0.012384 0.27 69692.8
0.0286479 0.0127549 0.27 70112.7
0.0294992 0.0131339 0.27 70542.8
0.0303692 0.0135212 0.27 70983.9
0.0312581 0.013917 0.27 71435.3
0.0321659 0.0143213 0.27 71896.9
0.0330931 0.014734 0.27 72368.7
0.0340398 0.0151555 0.27 72850.7
0.0350062 0.0155858 0.27 73342.2
0.0359924 0.0160249 0.27 73843.1
0.0369987 0.0164729 0.27 74354.1
0.0380251 0.0169299 0.27 74874
0.0390719 0.0173959 0.27 75402.8
0.0401391 0.0178711 0.27 75940.2
0.041227 0.0183554 0.27 76485.1
0.0423356 0.018849 0.27 77038.5
0.043465 0.0193519 0.27 77599.7
0.0446154 0.0198641 0.27 78166.9
0.0457867 0.0203856 0.27 78739.9
0.046979 0.0209164 0.27 79316.6
0.0481924 0.0214567 0.27 79896.2
0.0494267 0.0220063 0.27 80476.5
0.0506823 0.0225652 0.27 81055.4
0.0519588 0.0231335 0.27 81631.1
0.0532563 0.0237113 0.27 82201
0.0545749 0.0242983 0.27 82763.4
0.0559142 0.0248946 0.27 83315.4
0.0572744 0.0255002 0.27 83856.1
0.0586552 0.0261149 0.27 84383.5
0.0600565 0.0267388 0.27 84897.9
0.0614781 0.0273718 0.27 85399.6
0.0629198 0.0280137 0.27 85888.8
0.0643815 0.0286645 0.27 86368.9
0.0658629 0.029324 0.27 86840
0.0673636 0.0299922 0.27 87305.7
0.0688836 0.030669 0.27 87766.8
0.0704223 0.0313541 0.27 88225.5
0.0719795 0.0320474 0.27 88684.8
0.0735549 0.0327488 0.27 89143.8
0.075148 0.0334581 0.27 89603.7
0.0767585 0.0341751 0.27 90064.9
0.0783859 0.0348996 0.27 90525
0.0800297 0.0356315 0.27 90984.9
0.0816895 0.0363706 0.27 91443.4
0.0833647 0.0371164 0.27 91892.2
0.085055 0.0378689 0.27 92330.7
0.0867595 0.0386278 0.27 92749.1
0.0884779 0.0393929 0.27 93143.5
0.0902095 0.0401639 0.27 93511.9
0.0919538 0.0409405 0.27 93852.2
0.09371 0.0417224 0.27 94163.4
0.0954776 0.0425094 0.27 94449.1
0.0972558 0.0433011 0.27 94714.3
0.0990439 0.0440972 0.27 94963.8
0.100841 0.0448975 0.27 95196.3
0.102647 0.0457015 0.27 95415.3
0.104461 0.046509 0.27 95643
0.106282 0.0473197 0.27 95863.2
0.108109 0.0481331 0.27 96101
0.109941 0.048949 0.27 96336.3
0.111779 0.0497671 0.27 96569.7
0.11362 0.0505868 0.27 96809.5
0.115464 0.051408 0.27 97082.4
0.117311 0.0522302 0.27 97340.1
0.11916 0.0530531 0.27 97581.3
0.121009 0.0538763 0.27 97862.3
0.122857 0.0546995 0.27 98114.7
0.124705 0.0555223 0.27 98339.7
0.126552 0.0563444 0.27 98556
0.128395 0.0571653 0.27 98756.8
0.130236 0.0579847 0.27 98938.3
0.132072 0.0588023 0.27 99100.3
0.133904 0.0596177 0.27 99243.3
0.13573 0.0604306 0.27 99353.9
0.137549 0.0612407 0.27 99425.1
0.139361 0.0620475 0.27 99480.8
0.141165 0.0628508 0.27 99499.1
0.14296 0.0636503 0.27 99565.4
0.144747 0.0644455 0.27 99618.3
0.146523 0.0652363 0.27 99662.2
0.148288 0.0660222 0.27 99715.9
0.150042 0.0668031 0.27 99774.7
0.151784 0.0675785 0.27 99884.9
0.153513 0.0683483 0.27 99969.4
0.155228 0.0691121 0.27 100091
0.15693 0.0698698 0.27 100252
0.158617 0.070621 0.27 100410
0.160289 0.0713654 0.27 100596
0.161946 0.072103 0.27 100770
0.163586 0.0728334 0.27 100938
0.165211 0.0735564 0.27 101119
0.166817 0.0742718 0.27 101285
0.168406 0.0749795 0.27 101451
0.169978 0.0756793 0.27 101612
0.171532 0.0763709 0.27 101737
0.173067 0.0770543 0.27 101854
0.174583 0.0777293 0.27 101946
0.17608 0.0783958 0.27 102061
0.177557 0.0790535 0.27 102185
0.179014 0.0797025 0.27 102223
0.180452 0.0803425 0.27 102256
0.18187 0.0809736 0.27 102337
0.183266 0.0815956 0.27 102411
0.184643 0.0822085 0.27 102519
0.185999 0.0828122 0.27 102587
0.187334 0.0834066 0.27 102640
0.188648 0.0839917 0.27 102725
0.189942 0.0845675 0.27 102778
0.191214 0.0851339 0.27 102885
0.192465 0.085691 0.27 102954
0.193695 0.0862387 0.27 103053
0.194904 0.086777 0.27 103168
0.196093 0.0873059 0.27 103281
0.197259 0.0878254 0.27 103387
0.198405 0.0883357 0.27 103506
0.19953 0.0888366 0.27 103659
0.200635 0.0893284 0.27 103845
0.201718 0.0898108 0.27 104004
0.202782 0.0902841 0.27 104163
0.203824 0.0907483 0.27 104342
0.204846 0.0912035 0.27 104475
0.205848 0.0916496 0.27 104644
0.206831 0.0920869 0.27 104835
0.207793 0.0925153 0.27 105006
0.208735 0.092935 0.27 105208
0.209658 0.093346 0.27 105078
