# wallHeatFlux  FACE_DATA 448
# x  y  z  wallHeatFlux
-0.778 -3.80769e-06 0 -198882
-0.773968 -3.80769e-06 0 -40154.3
-0.769872 -3.80769e-06 0 -24476.2
-0.76571 -3.80769e-06 0 -19627.1
-0.761486 -3.80769e-06 0 -16560.4
-0.757196 -3.80769e-06 0 -14601.9
-0.752841 -3.80769e-06 0 -13270.9
-0.748422 -3.80769e-06 0 -12258.3
-0.743939 -3.80769e-06 0 -11464.9
-0.739391 -3.80769e-06 0 -10818.3
-0.73478 -3.80769e-06 0 -10260.5
-0.730104 -3.80769e-06 0 -9786.98
-0.725364 -3.80769e-06 0 -9403.42
-0.720562 -3.80769e-06 0 -9147.23
-0.715696 -3.80769e-06 0 -9013.34
-0.710769 -3.80769e-06 0 -9157.22
-0.705778 -3.80769e-06 0 -9520.54
-0.700727 -3.80769e-06 0 -10146.2
-0.695615 -3.80769e-06 0 -10895.6
-0.690443 -3.80769e-06 0 -11602.9
-0.685211 -3.80769e-06 0 -12160.9
-0.67992 -3.80769e-06 0 -12596.1
-0.674571 -3.80769e-06 0 -12929.8
-0.669166 -3.80769e-06 0 -13183.2
-0.663704 -3.80769e-06 0 -13361.8
-0.658187 -3.80769e-06 0 -13497.4
-0.652616 -3.80769e-06 0 -13595.4
-0.646993 -3.80769e-06 0 -13650.3
-0.641317 -3.80769e-06 0 -13673.3
-0.635592 -3.80769e-06 0 -13684.1
-0.629817 -3.80769e-06 0 -13674.9
-0.623994 -3.80769e-06 0 -13647.7
-0.618125 -3.80769e-06 0 -13610.7
-0.61221 -3.80769e-06 0 -13562.3
-0.606252 -3.80769e-06 0 -13508.2
-0.600253 -3.80769e-06 0 -13448.6
-0.594213 -3.80769e-06 0 -13388.6
-0.588134 -3.80769e-06 0 -13328.5
-0.582018 -3.80769e-06 0 -13268
-0.575867 -3.80769e-06 0 -13207.3
-0.569683 -3.80769e-06 0 -13140.8
-0.563467 -3.80769e-06 0 -13074.1
-0.557221 -3.80769e-06 0 -13007.5
-0.550946 -3.80769e-06 0 -12950.4
-0.544647 -3.80769e-06 0 -12894
-0.538323 -3.80769e-06 0 -12837.1
-0.531979 -3.80769e-06 0 -12774.6
-0.525613 -3.80769e-06 0 -12717.1
-0.51923 -3.80769e-06 0 -12659.4
-0.512832 -3.80769e-06 0 -12612.2
-0.50642 -3.80769e-06 0 -12564.9
-0.499995 -3.80769e-06 0 -12512.2
-0.493562 -3.80769e-06 0 -12458.7
-0.487123 -3.80769e-06 0 -12405.2
-0.480677 -3.80769e-06 0 -12357
-0.47423 -3.80769e-06 0 -12319
-0.467782 -3.80769e-06 0 -12286.8
-0.461335 -3.80769e-06 0 -12243.6
-0.454892 -3.80769e-06 0 -12199.3
-0.448455 -3.80769e-06 0 -12150.6
-0.442026 -3.80769e-06 0 -12105.9
-0.435607 -3.80769e-06 0 -12062
-0.429202 -3.80769e-06 0 -12033.8
-0.42281 -3.80769e-06 0 -12010.9
-0.416434 -3.80769e-06 0 -11982.7
-0.410078 -3.80769e-06 0 -11948
-0.403743 -3.80769e-06 0 -11903.3
-0.39743 -3.80769e-06 0 -11858.5
-0.391141 -3.80769e-06 0 -11812.6
-0.38488 -3.80769e-06 0 -11778.4
-0.378648 -3.80769e-06 0 -11743.8
-0.372446 -3.80769e-06 0 -11736
-0.366277 -3.80769e-06 0 -11723.1
-0.360142 -3.80769e-06 0 -11703.7
-0.354042 -3.80769e-06 0 -11679.8
-0.347981 -3.80769e-06 0 -11644.7
-0.341959 -3.80769e-06 0 -11604.4
-0.335978 -3.80769e-06 0 -11558.1
-0.33004 -3.80769e-06 0 -11522.5
-0.324146 -3.80769e-06 0 -11487.9
-0.318298 -3.80769e-06 0 -11457.6
-0.312497 -3.80769e-06 0 -11449.3
-0.306744 -3.80769e-06 0 -11446.2
-0.301041 -3.80769e-06 0 -11443.2
-0.29539 -3.80769e-06 0 -11434.4
-0.28979 -3.80769e-06 0 -11421.3
-0.284243 -3.80769e-06 0 -11407
-0.278752 -3.80769e-06 0 -11387.8
-0.273316 -3.80769e-06 0 -11358
-0.267937 -3.80769e-06 0 -11317.3
-0.262614 -3.80769e-06 0 -11281.6
-0.25735 -3.80769e-06 0 -11247.1
-0.252146 -3.80769e-06 0 -11211.6
-0.247001 -3.80769e-06 0 -11187.1
-0.241916 -3.80769e-06 0 -11168.1
-0.236893 -3.80769e-06 0 -11159.9
-0.231931 -3.80769e-06 0 -11151.5
-0.227031 -3.80769e-06 0 -11149.6
-0.222195 -3.80769e-06 0 -11151.9
-0.217421 -3.80769e-06 0 -11154.6
-0.212711 -3.80769e-06 0 -11151.7
-0.208064 -3.80769e-06 0 -11144.6
-0.203482 -3.80769e-06 0 -11135.9
-0.198964 -3.80769e-06 0 -11123.3
-0.19451 -3.80769e-06 0 -11110.4
-0.19012 -3.80769e-06 0 -11092.2
-0.185796 -3.80769e-06 0 -11069.1
-0.181535 -3.80769e-06 0 -11045.2
-0.17734 -3.80769e-06 0 -11021.4
-0.173208 -3.80769e-06 0 -10993.6
-0.169141 -3.80769e-06 0 -10969.4
-0.165138 -3.80769e-06 0 -10947.2
-0.161199 -3.80769e-06 0 -10923.8
-0.157325 -3.80769e-06 0 -10906.3
-0.153513 -3.80769e-06 0 -10888.7
-0.149765 -3.80769e-06 0 -10881.5
-0.14608 -3.80769e-06 0 -10870
-0.142457 -3.80769e-06 0 -10869.2
-0.138897 -3.80769e-06 0 -10861.6
-0.135398 -3.80769e-06 0 -10861.6
-0.131961 -3.80769e-06 0 -10865.6
-0.128584 -3.80769e-06 0 -10869.5
-0.125268 -3.80769e-06 0 -10874.6
-0.122011 -3.80769e-06 0 -10874.4
-0.118815 -3.80769e-06 0 -10878
-0.115677 -3.80769e-06 0 -10883.3
-0.112597 -3.80769e-06 0 -10882.8
-0.109574 -3.80769e-06 0 -10882.9
-0.106609 -3.80769e-06 0 -10882
-0.1037 -3.80769e-06 0 -10876.4
-0.100846 -3.80769e-06 0 -10875.9
-0.098048 -3.80769e-06 0 -10870.7
-0.0953042 -3.80769e-06 0 -10865.3
-0.0926143 -3.80769e-06 0 -10854.5
-0.0899773 -3.80769e-06 0 -10849.3
-0.0873927 -3.80769e-06 0 -10838.6
-0.0848599 -3.80769e-06 0 -10828.3
-0.082378 -3.80769e-06 0 -10823
-0.0799465 -3.80769e-06 0 -10812.7
-0.0775645 -3.80769e-06 0 -10797.2
-0.0752312 -3.80769e-06 0 -10786.8
-0.0729462 -3.80769e-06 0 -10776.7
-0.0707085 -3.80769e-06 0 -10766.5
-0.0685175 -3.80769e-06 0 -10756.5
-0.0663725 -3.80769e-06 0 -10741
-0.0642727 -3.80769e-06 0 -10731.2
-0.0622173 -3.80769e-06 0 -10721.3
-0.0602058 -3.80769e-06 0 -10711.3
-0.0582373 -3.80769e-06 0 -10701.6
-0.0563111 -3.80769e-06 0 -10691.9
-0.0544265 -3.80769e-06 0 -10682.2
-0.0525827 -3.80769e-06 0 -10672.6
-0.0507792 -3.80769e-06 0 -10663
-0.0490152 -3.80769e-06 0 -10658.9
-0.0472898 -3.80769e-06 0 -10649.5
-0.0456025 -3.80769e-06 0 -10640
-0.0439526 -3.80769e-06 0 -10636.1
-0.0423394 -3.80769e-06 0 -10626.7
-0.0407622 -3.80769e-06 0 -10623
-0.0392203 -3.80769e-06 0 -10613.9
-0.0377131 -3.80769e-06 0 -10610.2
-0.0362398 -3.80769e-06 0 -10606.6
-0.0347999 -3.80769e-06 0 -10597.7
-0.0333926 -3.80769e-06 0 -10594.3
-0.0320175 -3.80769e-06 0 -10590.9
-0.0306737 -3.80769e-06 0 -10582.3
-0.0293607 -3.80769e-06 0 -10579.4
-0.0280779 -3.80769e-06 0 -10576.1
-0.0268246 -3.80769e-06 0 -10573.6
-0.0256004 -3.80769e-06 0 -10570.6
-0.0244045 -3.80769e-06 0 -10568.2
-0.0232363 -3.80769e-06 0 -10576.7
-0.0220954 -3.80769e-06 0 -10569
-0.0209812 -3.80769e-06 0 -10395.3
-0.019893 -3.80769e-06 0 -9732.31
-0.0188303 -3.80769e-06 0 -8504.44
-0.0177927 -3.80769e-06 0 -7361.98
-0.0167794 -3.80769e-06 0 -7004.93
-0.0157901 -3.80769e-06 0 -7401.79
-0.0148243 -3.80769e-06 0 -8144.89
-0.0138814 -3.80769e-06 0 -8819.6
-0.0129608 -3.80769e-06 0 -9377.58
-0.0120623 -3.80769e-06 0 -9839.9
-0.0111851 -3.80769e-06 0 -10225
-0.0103289 -3.80769e-06 0 -10558.8
-0.00949328 -3.80769e-06 0 -10858.3
-0.00867767 -3.80769e-06 0 -11107.8
-0.00788168 -3.80769e-06 0 -11326.9
-0.00710485 -3.80769e-06 0 -11499.6
-0.00634675 -3.80769e-06 0 -11654
-0.00560698 -3.80769e-06 0 -11775.2
-0.0048851 -3.80769e-06 0 -11942.6
-0.00418071 -3.80769e-06 0 -12200.5
-0.00349342 -3.80769e-06 0 -12620.8
-0.00282284 -3.80769e-06 0 -13384.8
-0.00216857 -3.80769e-06 0 -14397.7
-0.00153026 -3.80769e-06 0 -15494.9
-0.00090752 -3.80769e-06 0 -15837.7
-0.0003 -3.80769e-06 0 -14334
0.000259937 0.000146262 2.25537e-21 -13138.4
0.000779437 0.000446185 0 -16139.1
0.00129893 0.000746101 0 -19276.9
0.00181858 0.00104611 2.2554e-21 -21764.2
0.00233835 0.00134618 -2.25541e-21 -23861.3
0.00285828 0.00164636 2.25542e-21 -25762.7
0.00337841 0.00194664 0 -27710
0.00389877 0.00224706 0 -29702
0.00441941 0.00254764 -2.25544e-21 -31797
0.00494034 0.00284839 2.25545e-21 -33940.8
0.00546162 0.00314934 -2.25546e-21 -36133.4
0.00598328 0.0034505 2.25547e-21 -38377.2
0.00650535 0.00375191 2.25547e-21 -40708.3
0.00702786 0.00405357 2.25548e-21 -43199
0.00755087 0.00435552 0 -45940.3
0.00807439 0.00465776 -2.25549e-21 -48963.4
0.00859847 0.00496033 2.2555e-21 -52231.2
0.00912315 0.00526324 0 -55688.2
0.00964845 0.00556651 2.25551e-21 -59270.8
0.0101744 0.00587017 0 -62925.4
0.0107011 0.00617424 0 -66652.6
0.0112285 0.00647873 -2.25552e-21 -70436.1
0.0117567 0.00678367 0 -74277.7
0.0122857 0.00708907 0 -78180.4
0.0128156 0.00739497 0 -82148.7
0.0133463 0.00770137 -2.25554e-21 -86189.1
0.0138779 0.00800831 0 -90251.6
0.0144106 0.0083158 0 -94272.7
0.0149442 0.00862387 0 -98285.8
0.0154788 0.00893253 0 -102313
0.0160145 0.00924181 0 -106442
0.0165513 0.00955172 2.25556e-21 -110924
0.0170893 0.00986231 -2.25556e-21 -116091
0.0176284 0.0101736 0 -122233
0.0181687 0.0104855 0 -129302
0.0187103 0.0107982 2.25556e-21 -137075
0.0192532 0.0111117 2.25557e-21 -145378
0.0197975 0.0114259 2.25557e-21 -153777
0.0203431 0.0117408 0 -161910
0.0208901 0.0120566 4.51114e-21 -169574
0.0214385 0.0123732 -4.51114e-21 -176762
0.0219884 0.0126907 0 -183821
0.0225398 0.0130091 4.51114e-21 -190807
0.0230928 0.0133283 0 -197754
0.0236474 0.0136485 0 -204030
0.0242037 0.0139697 0 -209428
0.0247616 0.0142918 -4.51113e-21 -213396
0.0253212 0.0146148 -4.51113e-21 -216421
0.0258825 0.0149389 -4.51114e-21 -217853
0.0264456 0.015264 0 -219264
0.0270106 0.0155902 0 -220343
0.0275774 0.0159174 -4.51112e-21 -221010
0.0281462 0.0162457 0 -221381
0.0287168 0.0165752 4.51111e-21 -221708
0.0292895 0.0169059 -4.51111e-21 -221886
0.0298642 0.0172376 0 -221688
0.0304409 0.0175706 0 -220682
0.0310198 0.0179048 4.5111e-21 -219665
0.0316007 0.0182402 4.5111e-21 -218462
0.0321839 0.0185768 -4.51107e-21 -217000
0.0327693 0.0189148 0 -216065
0.0333569 0.0192541 0 -215091
0.0339469 0.0195947 4.51106e-21 -214496
0.0345392 0.0199366 0 -213465
0.0351339 0.02028 0 -211789
0.035731 0.0206247 4.51105e-21 -209946
0.0363305 0.0209708 -4.51103e-21 -208093
0.0369326 0.0213184 4.51102e-21 -206353
0.0375373 0.0216675 0 -204596
0.0381445 0.0220181 0 -202517
0.0387543 0.0223702 0 -201245
0.0393668 0.0227238 4.51099e-21 -198907
0.0399821 0.023079 -4.51097e-21 -197592
0.0406001 0.0234358 4.51097e-21 -195348
0.041221 0.0237942 0 -193812
0.0418446 0.0241542 0 -192270
0.0424712 0.024516 4.51092e-21 -190745
0.0431006 0.0248794 -4.51094e-21 -189620
0.0437331 0.0252445 0 -188405
0.0443686 0.0256114 4.51089e-21 -186630
0.0450071 0.02598 4.51089e-21 -185627
0.0456487 0.0263505 0 -184233
0.0462935 0.0267227 0 -183226
0.0469415 0.0270968 -4.51085e-21 -181657
0.0475927 0.0274728 0 -180419
0.0482473 0.0278507 -4.51081e-21 -179050
0.0489051 0.0282305 4.51081e-21 -177488
0.0495663 0.0286122 -4.51079e-21 -176296
0.050231 0.0289959 0 -175188
0.0508991 0.0293816 -4.51077e-21 -174046
0.0515707 0.0297694 4.51073e-21 -173033
0.0522459 0.0301592 -4.51073e-21 -172523
0.0529247 0.0305511 0 -171095
0.0536071 0.0309451 0 -170840
0.0542933 0.0313412 -4.51067e-21 -169685
0.0549832 0.0317395 0 -169119
0.0556769 0.03214 0 -168271
0.0563744 0.0325427 0 -167600
0.0570758 0.0329477 -4.5106e-21 -166847
0.0577812 0.0333549 0 -166162
0.0584905 0.0337645 0 -164962
0.0592039 0.0341763 -4.51056e-21 -164515
0.0599214 0.0345905 4.51053e-21 -163239
0.060643 0.0350071 0 -162667
0.0613688 0.0354262 4.51049e-21 -161677
0.0620989 0.0358477 -4.51048e-21 -161094
0.0628332 0.0362716 4.51046e-21 -160400
0.0635719 0.0366981 0 -159775
0.0643149 0.037127 4.51041e-21 -159749
0.0650624 0.0375586 0 -158865
0.0658144 0.0379927 0 -158903
0.0665709 0.0384295 4.51035e-21 -158059
0.0673321 0.0388689 -4.51035e-21 -157687
0.0680979 0.039311 0 -157130
0.0688683 0.0397558 -4.51029e-21 -155978
0.0696435 0.0402034 4.51029e-21 -155386
0.0704236 0.0406537 0 -154437
0.0712085 0.0411069 0 -154140
0.0719983 0.0415628 0 -153236
0.0727931 0.0420217 0 -152773
0.0735929 0.0424834 0 -152573
0.0743978 0.0429481 0 -151995
0.0752078 0.0434158 0 -151751
0.076023 0.0438864 4.5101e-21 -150923
0.0768435 0.0443601 -4.51009e-21 -150723
0.0776693 0.0448369 -4.51004e-21 -150024
0.0785004 0.0453167 4.51003e-21 -149320
0.079337 0.0457997 0 -149007
0.080179 0.0462858 0 -148234
0.0810266 0.0467751 0 -147633
0.0818797 0.0472677 0 -147656
0.0827385 0.0477635 0 -146845
0.083603 0.0482626 0 -146789
0.0844733 0.0487651 4.50985e-21 -146481
0.0853495 0.0492709 -4.50983e-21 -146079
0.0862316 0.0497801 0 -145829
0.0871195 0.0502927 -4.50978e-21 -144865
0.0880135 0.0508089 0 -144527
0.0889136 0.0513285 0 -144056
0.0898198 0.0518517 0 -143221
0.0907322 0.0523785 0 -142839
0.0916509 0.0529089 0 -142249
0.0925758 0.0534429 4.50963e-21 -141888
0.0935072 0.0539806 4.50959e-21 -141477
0.094445 0.054522 0 -141215
0.0953894 0.0550672 4.50953e-21 -140845
0.0963404 0.0556162 0 -140549
0.0972979 0.0561691 0 -140049
0.0982622 0.0567258 0 -139870
0.0992333 0.0572865 0 -139575
0.100211 0.057851 0 -139093
0.101196 0.0584196 0 -138216
0.102188 0.0589922 4.50935e-21 -138312
0.103187 0.0595689 4.50932e-21 -137893
0.104193 0.0601497 -4.50928e-21 -136813
0.105206 0.0607347 0 -137017
0.106226 0.0613239 0 -136256
0.107254 0.0619172 0 -136006
0.10829 0.0625149 4.50918e-21 -135421
0.109332 0.0631169 4.50915e-21 -135195
0.110382 0.0637232 -4.50911e-21 -135076
0.11144 0.064334 -4.50908e-21 -134548
0.112506 0.0649492 4.50905e-21 -134568
0.11358 0.0655688 4.50902e-21 -133611
0.114661 0.066193 0 -133638
0.11575 0.0668218 0 -133562
0.116847 0.0674552 0 -133412
0.117952 0.0680932 0 -133111
0.119065 0.068736 0 -133035
0.120187 0.0693834 4.50884e-21 -132114
0.121316 0.0700357 0 -132080
0.122455 0.0706928 0 -131938
0.123601 0.0713548 -4.50875e-21 -130730
0.124756 0.0720217 0 -131229
0.12592 0.0726935 -4.5087e-21 -130591
0.127093 0.0733704 0 -130381
0.128274 0.0740524 0 -129736
0.129464 0.0747395 4.50859e-21 -129793
0.130663 0.0754317 0 -129447
0.131871 0.0761292 4.50853e-21 -128813
0.133088 0.0768319 4.50851e-21 -129306
0.134315 0.0775399 0 -128771
0.13555 0.0782532 4.50845e-21 -128231
0.136795 0.078972 0 -128419
0.13805 0.0796962 0 -127560
0.139314 0.080426 -4.50834e-21 -127772
0.140587 0.0811613 -4.50831e-21 -126994
0.14187 0.0819021 4.50827e-21 -126720
0.143163 0.0826487 0 -126459
0.144466 0.0834009 0 -126381
0.145779 0.0841589 0 -126368
0.147102 0.0849227 4.50815e-21 -125448
0.148435 0.0856924 4.50811e-21 -125607
0.149779 0.0864679 0 -125288
0.151133 0.0872495 4.50805e-21 -124869
0.152497 0.0880371 4.50801e-21 -124640
0.153871 0.0888307 4.50798e-21 -125127
0.155257 0.0896305 0 -124408
0.156653 0.0904364 4.50791e-21 -124062
0.15806 0.0912487 4.50787e-21 -124384
0.159478 0.0920672 0 -123445
0.160907 0.092892 0 -123189
0.162347 0.0937233 0 -123355
0.163798 0.0945611 4.50774e-21 -122292
0.16526 0.0954054 0 -122750
0.166734 0.0962563 0 -122576
0.168219 0.0971138 0 -121972
0.169716 0.097978 4.50761e-21 -122075
0.171225 0.098849 4.50758e-21 -121593
0.172745 0.0997268 4.50754e-21 -121727
0.174278 0.100611 0 -120742
0.175822 0.101503 0 -120989
0.177379 0.102402 0 -120087
0.178947 0.103308 4.50741e-21 -120795
0.180529 0.10422 4.50737e-21 -120426
0.182122 0.10514 4.50734e-21 -119717
0.183728 0.106068 0 -120236
0.185347 0.107002 -4.50727e-21 -119772
0.186979 0.107944 0 -118922
0.188623 0.108894 0 -119442
0.190281 0.109851 4.50716e-21 -118849
0.191952 0.110815 0 -119050
0.193636 0.111787 -4.5071e-21 -118205
0.195333 0.112767 -4.50707e-21 -118396
0.197044 0.113755 -4.50702e-21 -117962
0.198768 0.114751 -4.507e-21 -117686
0.200506 0.115754 -4.50696e-21 -117415
0.202258 0.116766 0 -117684
0.204024 0.117785 4.50688e-21 -116975
0.205805 0.118813 4.50686e-21 -117421
0.207599 0.119849 0 -116880
0.209408 0.120893 -4.50679e-21 -116595
0.211231 0.121946 -4.50676e-21 -116198
0.213068 0.123007 0 -116835
0.214921 0.124076 0 -115917
0.216788 0.125154 0 -115094
0.21867 0.126241 0 -116064
0.220567 0.127336 0 -115326
0.22248 0.12844 0 -114612
0.224408 0.129553 0 -115544
0.226351 0.130675 0 -114643
0.22831 0.131806 0 -114717
0.230284 0.132946 9.01282e-21 -114297
0.232275 0.134095 0 -114342
0.234282 0.135254 9.01268e-21 -113513
0.236304 0.136421 0 -113982
0.238344 0.137598 9.01253e-21 -113580
0.2404 0.138785 0 -112959
0.242472 0.139982 0 -112337
