# Wall heat-flux
# Time        	patch         	min           	max           	integral      
2700          	base	-3.043755e+06	-2.223390e+04	-8.895382e+03
