/*--------------------------------*- C++ -*----------------------------------*\
| =========                 |                                                 |
| \\      /  F ield         | OpenFOAM: The Open Source CFD Toolbox           |
|  \\    /   O peration     | Version:  v2012                                 |
|   \\  /    A nd           | Website:  www.openfoam.com                      |
|    \\/     M anipulation  |                                                 |
\*---------------------------------------------------------------------------*/
FoamFile
{
    version     2.0;
    format      ascii;
    class       volScalarField;
    location    "2000";
    object      alphat;
}
// * * * * * * * * * * * * * * * * * * * * * * * * * * * * * * * * * * * * * //

dimensions      [1 -1 -1 0 0 0 0];


internalField   nonuniform List<scalar> 
8000
(
3.22685e-22
2.77264e-22
2.48277e-22
2.29608e-22
2.17412e-22
2.45923e-22
3.02329e-22
3.50941e-22
3.92047e-22
4.26407e-22
4.54916e-22
4.78452e-22
4.97815e-22
5.13705e-22
5.2672e-22
5.37367e-22
2.04797e-19
3.07734e-15
3.73979e-11
3.33102e-08
3.53334e-22
2.94218e-22
2.55212e-22
2.32856e-22
2.194e-22
2.46111e-22
3.02505e-22
3.51109e-22
3.92209e-22
4.26565e-22
4.55071e-22
4.78604e-22
4.97965e-22
5.13854e-22
5.26868e-22
5.37514e-22
1.07304e-19
1.33814e-15
1.28798e-11
1.76152e-08
3.55295e-22
2.99824e-22
2.61537e-22
2.37809e-22
2.23146e-22
2.46503e-22
3.02883e-22
3.51474e-22
3.92564e-22
4.26913e-22
4.55412e-22
4.78942e-22
4.98299e-22
5.14185e-22
5.27197e-22
5.37841e-22
4.19028e-20
4.57532e-16
4.00652e-12
9.86796e-09
3.55346e-22
3.06829e-22
2.68814e-22
2.44123e-22
2.28346e-22
2.47111e-22
3.03481e-22
3.5206e-22
3.9314e-22
4.27479e-22
4.55972e-22
4.79495e-22
4.98848e-22
5.1473e-22
5.27739e-22
5.38381e-22
1.5351e-20
1.6134e-16
1.46976e-12
6.76254e-09
3.55348e-22
3.22735e-22
2.78997e-22
2.51741e-22
2.34645e-22
2.47941e-22
3.04312e-22
3.52886e-22
3.93959e-22
4.28292e-22
4.56779e-22
4.80297e-22
4.99646e-22
5.15524e-22
5.2853e-22
5.3917e-22
6.32628e-21
6.72013e-17
6.61141e-13
5.02856e-09
3.55348e-22
3.27482e-22
2.8599e-22
2.58912e-22
2.41332e-22
2.48981e-22
3.05385e-22
3.53972e-22
3.95048e-22
4.2938e-22
4.57864e-22
4.8138e-22
5.00726e-22
5.16602e-22
5.29606e-22
5.40244e-22
3.11624e-21
3.18205e-17
3.27319e-13
2.65482e-09
3.55348e-22
3.2845e-22
2.94301e-22
2.66435e-22
2.48345e-22
2.50297e-22
3.06746e-22
3.55356e-22
3.96444e-22
4.30783e-22
4.5927e-22
4.82787e-22
5.02133e-22
5.18009e-22
5.31013e-22
5.4165e-22
1.76295e-21
1.55611e-17
1.62696e-13
1.34366e-09
3.55348e-22
3.28625e-22
3.0275e-22
2.74162e-22
2.5558e-22
2.5194e-22
3.08451e-22
3.57097e-22
3.98207e-22
4.32559e-22
4.61054e-22
4.84576e-22
5.03926e-22
5.19804e-22
5.32809e-22
5.43447e-22
1.11303e-21
7.35428e-18
7.72218e-14
6.44934e-10
3.55348e-22
3.28657e-22
3.06693e-22
2.81836e-22
2.62896e-22
2.5399e-22
3.10583e-22
3.5928e-22
4.00422e-22
4.34793e-22
4.63302e-22
4.86833e-22
5.06189e-22
5.22071e-22
5.3508e-22
5.4572e-22
7.86929e-22
3.13478e-18
3.27917e-14
2.75179e-10
3.55348e-22
3.28664e-22
3.08074e-22
2.8888e-22
2.70306e-22
2.58236e-22
3.13269e-22
3.62029e-22
4.03211e-22
4.37608e-22
4.66134e-22
4.89677e-22
5.09042e-22
5.2493e-22
5.37943e-22
5.48587e-22
6.30136e-22
1.06852e-18
1.09329e-14
9.0483e-11
3.55348e-22
3.28665e-22
3.08497e-22
2.92689e-22
2.77515e-22
2.64772e-22
3.16685e-22
3.65516e-22
4.06741e-22
4.41168e-22
4.69714e-22
4.93271e-22
5.12645e-22
5.28541e-22
5.41559e-22
5.52206e-22
5.71385e-22
2.76436e-19
2.73419e-15
2.20998e-11
3.55348e-22
3.28666e-22
3.08621e-22
2.94257e-22
2.82308e-22
2.71469e-22
3.21003e-22
3.69941e-22
4.11219e-22
4.4568e-22
4.74248e-22
4.9782e-22
5.17205e-22
5.33108e-22
5.46132e-22
5.56783e-22
5.65486e-22
5.07982e-20
4.71948e-16
3.64616e-12
3.55348e-22
3.28666e-22
3.08657e-22
2.94821e-22
2.84581e-22
2.76031e-22
3.25419e-22
3.75274e-22
4.16859e-22
4.51405e-22
4.8e-22
5.03586e-22
5.2298e-22
5.38891e-22
5.51921e-22
5.62577e-22
5.71284e-22
6.75417e-21
5.36406e-17
3.85466e-13
3.55348e-22
3.28666e-22
3.08668e-22
2.95013e-22
2.85484e-22
2.78254e-22
3.28197e-22
3.79657e-22
4.22502e-22
4.57848e-22
4.8689e-22
5.10709e-22
5.30221e-22
5.46191e-22
5.59251e-22
5.69923e-22
5.78637e-22
1.10237e-21
4.1533e-18
2.73296e-14
3.55348e-22
3.28666e-22
3.08671e-22
2.95077e-22
2.85815e-22
2.79163e-22
3.29475e-22
3.82013e-22
4.26058e-22
4.62544e-22
4.92557e-22
5.17147e-22
5.37249e-22
5.5366e-22
5.67046e-22
5.77959e-22
5.86854e-22
6.19401e-22
2.77006e-19
1.80478e-15
3.55348e-22
3.28666e-22
3.08673e-22
2.951e-22
2.85933e-22
2.79506e-22
3.2999e-22
3.83031e-22
4.27721e-22
4.6492e-22
4.9565e-22
5.20911e-22
5.41612e-22
5.58541e-22
5.72365e-22
5.83644e-22
5.9284e-22
6.00335e-22
2.32811e-20
1.65552e-16
3.55348e-22
3.28666e-22
3.08673e-22
2.95108e-22
2.85977e-22
2.79634e-22
3.30189e-22
3.83436e-22
4.28405e-22
4.65932e-22
4.97013e-22
5.22625e-22
5.43658e-22
5.60891e-22
5.74986e-22
5.86501e-22
5.95899e-22
6.03566e-22
2.47155e-21
1.41178e-17
3.55348e-22
3.28666e-22
3.08673e-22
2.95111e-22
2.85993e-22
2.79682e-22
3.30267e-22
3.83596e-22
4.28677e-22
4.6634e-22
4.97569e-22
5.23333e-22
5.44513e-22
5.61884e-22
5.76103e-22
5.87729e-22
5.97224e-22
6.04973e-22
7.08424e-22
7.67127e-19
3.55348e-22
3.28666e-22
3.08674e-22
2.95113e-22
2.86e-22
2.79701e-22
3.30299e-22
3.83661e-22
4.28787e-22
4.66505e-22
4.97795e-22
5.23621e-22
5.44862e-22
5.6229e-22
5.76562e-22
5.88234e-22
5.9777e-22
6.05554e-22
6.11905e-22
2.95231e-20
3.55348e-22
3.28666e-22
3.08674e-22
2.95113e-22
2.86002e-22
2.79709e-22
3.30312e-22
3.83688e-22
4.28833e-22
4.66574e-22
4.97888e-22
5.2374e-22
5.45007e-22
5.62458e-22
5.76752e-22
5.88444e-22
5.97996e-22
6.05795e-22
6.12159e-22
1.69175e-21
3.55348e-22
3.28666e-22
3.08674e-22
2.95113e-22
2.86004e-22
2.79713e-22
3.30317e-22
3.83699e-22
4.28853e-22
4.66603e-22
4.97928e-22
5.23791e-22
5.45069e-22
5.6253e-22
5.76833e-22
5.88533e-22
5.98093e-22
6.05898e-22
6.12267e-22
6.47144e-22
3.55348e-22
3.28666e-22
3.08674e-22
2.95113e-22
2.86004e-22
2.79714e-22
3.3032e-22
3.83704e-22
4.28861e-22
4.66616e-22
4.97946e-22
5.23813e-22
5.45096e-22
5.62561e-22
5.76868e-22
5.88572e-22
5.98135e-22
6.05943e-22
6.12314e-22
6.1751e-22
3.55348e-22
3.28666e-22
3.08674e-22
2.95114e-22
2.86004e-22
2.79715e-22
3.30321e-22
3.83707e-22
4.28865e-22
4.66622e-22
4.97954e-22
5.23823e-22
5.45108e-22
5.62575e-22
5.76884e-22
5.88589e-22
5.98154e-22
6.05963e-22
6.12335e-22
6.17532e-22
3.55348e-22
3.28666e-22
3.08674e-22
2.95114e-22
2.86004e-22
2.79715e-22
3.30322e-22
3.83708e-22
4.28867e-22
4.66624e-22
4.97957e-22
5.23828e-22
5.45113e-22
5.62582e-22
5.76892e-22
5.88597e-22
5.98162e-22
6.05972e-22
6.12345e-22
6.17542e-22
3.55348e-22
3.28666e-22
3.08674e-22
2.95114e-22
2.86004e-22
2.79715e-22
3.30322e-22
3.83708e-22
4.28868e-22
4.66626e-22
4.97959e-22
5.2383e-22
5.45116e-22
5.62585e-22
5.76895e-22
5.88601e-22
5.98166e-22
6.05976e-22
6.12349e-22
6.17546e-22
3.55348e-22
3.28666e-22
3.08674e-22
2.95114e-22
2.86005e-22
2.79715e-22
3.30322e-22
3.83708e-22
4.28868e-22
4.66626e-22
4.9796e-22
5.23831e-22
5.45117e-22
5.62586e-22
5.76896e-22
5.88603e-22
5.98168e-22
6.05978e-22
6.12351e-22
6.17549e-22
3.55348e-22
3.28666e-22
3.08674e-22
2.95114e-22
2.86005e-22
2.79715e-22
3.30322e-22
3.83708e-22
4.28868e-22
4.66626e-22
4.9796e-22
5.23831e-22
5.45118e-22
5.62587e-22
5.76897e-22
5.88603e-22
5.98169e-22
6.05979e-22
6.12352e-22
6.1755e-22
3.55348e-22
3.28666e-22
3.08674e-22
2.95114e-22
2.86005e-22
2.79715e-22
3.30322e-22
3.83708e-22
4.28868e-22
4.66627e-22
4.9796e-22
5.23832e-22
5.45118e-22
5.62587e-22
5.76898e-22
5.88604e-22
5.9817e-22
6.0598e-22
6.12353e-22
6.1755e-22
3.55348e-22
3.28666e-22
3.08674e-22
2.95114e-22
2.86005e-22
2.79715e-22
3.30322e-22
3.83709e-22
4.28868e-22
4.66627e-22
4.9796e-22
5.23832e-22
5.45118e-22
5.62587e-22
5.76898e-22
5.88604e-22
5.9817e-22
6.0598e-22
6.12353e-22
6.1755e-22
3.55348e-22
3.28666e-22
3.08674e-22
2.95114e-22
2.86005e-22
2.79715e-22
3.30322e-22
3.83709e-22
4.28868e-22
4.66627e-22
4.9796e-22
5.23832e-22
5.45118e-22
5.62588e-22
5.76898e-22
5.88604e-22
5.9817e-22
6.0598e-22
6.12353e-22
6.17551e-22
3.55348e-22
3.28666e-22
3.08674e-22
2.95114e-22
2.86005e-22
2.79715e-22
3.30322e-22
3.83709e-22
4.28868e-22
4.66627e-22
4.9796e-22
5.23832e-22
5.45118e-22
5.62588e-22
5.76898e-22
5.88604e-22
5.9817e-22
6.0598e-22
6.12353e-22
6.17551e-22
3.55348e-22
3.28666e-22
3.08674e-22
2.95114e-22
2.86005e-22
2.79715e-22
3.30322e-22
3.83709e-22
4.28868e-22
4.66627e-22
4.9796e-22
5.23832e-22
5.45118e-22
5.62588e-22
5.76898e-22
5.88604e-22
5.9817e-22
6.0598e-22
6.12353e-22
6.17551e-22
3.55348e-22
3.28666e-22
3.08674e-22
2.95114e-22
2.86005e-22
2.79715e-22
3.30322e-22
3.83709e-22
4.28868e-22
4.66627e-22
4.9796e-22
5.23832e-22
5.45118e-22
5.62588e-22
5.76898e-22
5.88604e-22
5.9817e-22
6.0598e-22
6.12353e-22
6.17551e-22
3.55348e-22
3.28666e-22
3.08674e-22
2.95114e-22
2.86005e-22
2.79715e-22
3.30322e-22
3.83709e-22
4.28868e-22
4.66627e-22
4.9796e-22
5.23832e-22
5.45118e-22
5.62588e-22
5.76898e-22
5.88604e-22
5.9817e-22
6.0598e-22
6.12353e-22
6.17551e-22
3.55348e-22
3.28666e-22
3.08674e-22
2.95114e-22
2.86005e-22
2.79715e-22
3.30322e-22
3.83709e-22
4.28869e-22
4.66627e-22
4.9796e-22
5.23832e-22
5.45118e-22
5.62588e-22
5.76898e-22
5.88604e-22
5.9817e-22
6.0598e-22
6.12353e-22
6.17551e-22
3.55348e-22
3.28666e-22
3.08674e-22
2.95114e-22
2.86005e-22
2.79715e-22
3.30322e-22
3.83709e-22
4.28869e-22
4.66627e-22
4.9796e-22
5.23832e-22
5.45118e-22
5.62588e-22
5.76898e-22
5.88604e-22
5.9817e-22
6.0598e-22
6.12353e-22
6.17551e-22
3.55348e-22
3.28666e-22
3.08674e-22
2.95114e-22
2.86005e-22
2.79715e-22
3.30322e-22
3.83709e-22
4.28869e-22
4.66627e-22
4.9796e-22
5.23832e-22
5.45118e-22
5.62588e-22
5.76898e-22
5.88604e-22
5.9817e-22
6.0598e-22
6.12353e-22
6.17551e-22
3.55348e-22
3.28666e-22
3.08674e-22
2.95114e-22
2.86005e-22
2.79715e-22
3.30322e-22
3.83709e-22
4.28869e-22
4.66627e-22
4.9796e-22
5.23832e-22
5.45118e-22
5.62588e-22
5.76898e-22
5.88604e-22
5.9817e-22
6.0598e-22
6.12353e-22
6.17551e-22
3.55348e-22
3.28666e-22
3.08674e-22
2.95114e-22
2.86005e-22
2.79715e-22
3.30322e-22
3.83709e-22
4.28869e-22
4.66627e-22
4.9796e-22
5.23832e-22
5.45118e-22
5.62588e-22
5.76898e-22
5.88604e-22
5.9817e-22
6.0598e-22
6.12353e-22
6.17551e-22
3.55348e-22
3.28666e-22
3.08674e-22
2.95114e-22
2.86005e-22
2.79715e-22
3.30322e-22
3.83709e-22
4.28869e-22
4.66627e-22
4.9796e-22
5.23832e-22
5.45118e-22
5.62588e-22
5.76898e-22
5.88604e-22
5.9817e-22
6.0598e-22
6.12353e-22
6.17551e-22
3.55348e-22
3.28666e-22
3.08674e-22
2.95114e-22
2.86005e-22
2.79715e-22
3.30322e-22
3.83709e-22
4.28869e-22
4.66627e-22
4.9796e-22
5.23832e-22
5.45118e-22
5.62588e-22
5.76898e-22
5.88604e-22
5.9817e-22
6.0598e-22
6.12353e-22
6.17551e-22
3.55348e-22
3.28666e-22
3.08674e-22
2.95114e-22
2.86005e-22
2.79715e-22
3.30322e-22
3.83709e-22
4.28869e-22
4.66627e-22
4.9796e-22
5.23832e-22
5.45118e-22
5.62588e-22
5.76898e-22
5.88604e-22
5.9817e-22
6.0598e-22
6.12353e-22
6.17551e-22
3.55348e-22
3.28666e-22
3.08674e-22
2.95114e-22
2.86005e-22
2.79715e-22
3.30322e-22
3.83709e-22
4.28869e-22
4.66627e-22
4.9796e-22
5.23832e-22
5.45118e-22
5.62588e-22
5.76898e-22
5.88604e-22
5.9817e-22
6.0598e-22
6.12353e-22
6.17551e-22
3.55348e-22
3.28666e-22
3.08674e-22
2.95114e-22
2.86005e-22
2.79715e-22
3.30322e-22
3.83709e-22
4.28869e-22
4.66627e-22
4.9796e-22
5.23832e-22
5.45118e-22
5.62588e-22
5.76898e-22
5.88604e-22
5.9817e-22
6.0598e-22
6.12353e-22
6.17551e-22
3.55348e-22
3.28666e-22
3.08674e-22
2.95114e-22
2.86005e-22
2.79715e-22
3.30322e-22
3.83709e-22
4.28869e-22
4.66627e-22
4.9796e-22
5.23832e-22
5.45118e-22
5.62588e-22
5.76898e-22
5.88604e-22
5.9817e-22
6.0598e-22
6.12353e-22
6.17551e-22
3.55348e-22
3.28666e-22
3.08674e-22
2.95114e-22
2.86005e-22
2.79715e-22
3.30322e-22
3.83709e-22
4.28869e-22
4.66627e-22
4.9796e-22
5.23832e-22
5.45118e-22
5.62588e-22
5.76898e-22
5.88604e-22
5.9817e-22
6.0598e-22
6.12353e-22
6.17551e-22
3.55348e-22
3.28666e-22
3.08674e-22
2.95114e-22
2.86005e-22
2.79715e-22
3.30322e-22
3.83709e-22
4.28869e-22
4.66627e-22
4.9796e-22
5.23832e-22
5.45118e-22
5.62588e-22
5.76898e-22
5.88604e-22
5.9817e-22
6.0598e-22
6.12353e-22
6.17551e-22
3.55348e-22
3.28666e-22
3.08674e-22
2.95114e-22
2.86005e-22
2.79715e-22
3.30322e-22
3.83709e-22
4.28869e-22
4.66627e-22
4.9796e-22
5.23832e-22
5.45118e-22
5.62588e-22
5.76898e-22
5.88604e-22
5.9817e-22
6.0598e-22
6.12353e-22
6.17551e-22
3.55348e-22
3.28666e-22
3.08674e-22
2.95114e-22
2.86005e-22
2.79715e-22
3.30322e-22
3.83709e-22
4.28869e-22
4.66627e-22
4.9796e-22
5.23832e-22
5.45118e-22
5.62588e-22
5.76898e-22
5.88604e-22
5.9817e-22
6.0598e-22
6.12353e-22
6.17551e-22
3.55348e-22
3.28666e-22
3.08674e-22
2.95114e-22
2.86005e-22
2.79715e-22
3.30322e-22
3.83709e-22
4.28869e-22
4.66627e-22
4.9796e-22
5.23832e-22
5.45118e-22
5.62588e-22
5.76898e-22
5.88604e-22
5.9817e-22
6.0598e-22
6.12353e-22
6.17551e-22
3.55348e-22
3.28666e-22
3.08674e-22
2.95114e-22
2.86005e-22
2.79715e-22
3.30322e-22
3.83709e-22
4.28869e-22
4.66627e-22
4.9796e-22
5.23832e-22
5.45118e-22
5.62588e-22
5.76898e-22
5.88604e-22
5.9817e-22
6.0598e-22
6.12353e-22
6.17551e-22
3.55348e-22
3.28666e-22
3.08674e-22
2.95114e-22
2.86005e-22
2.79715e-22
3.30322e-22
3.83709e-22
4.28869e-22
4.66627e-22
4.9796e-22
5.23832e-22
5.45118e-22
5.62588e-22
5.76898e-22
5.88604e-22
5.9817e-22
6.0598e-22
6.12353e-22
6.17551e-22
3.55348e-22
3.28666e-22
3.08674e-22
2.95114e-22
2.86005e-22
2.79715e-22
3.30322e-22
3.83709e-22
4.28869e-22
4.66627e-22
4.9796e-22
5.23832e-22
5.45118e-22
5.62588e-22
5.76898e-22
5.88604e-22
5.9817e-22
6.0598e-22
6.12353e-22
6.17551e-22
3.55348e-22
3.28666e-22
3.08674e-22
2.95114e-22
2.86005e-22
2.79715e-22
3.30322e-22
3.83709e-22
4.28869e-22
4.66627e-22
4.9796e-22
5.23832e-22
5.45118e-22
5.62588e-22
5.76898e-22
5.88604e-22
5.9817e-22
6.0598e-22
6.12353e-22
6.17551e-22
3.55348e-22
3.28666e-22
3.08674e-22
2.95114e-22
2.86005e-22
2.79715e-22
3.30322e-22
3.83709e-22
4.28869e-22
4.66627e-22
4.9796e-22
5.23832e-22
5.45118e-22
5.62588e-22
5.76898e-22
5.88604e-22
5.9817e-22
6.0598e-22
6.12353e-22
6.17551e-22
3.55348e-22
3.28666e-22
3.08674e-22
2.95114e-22
2.86005e-22
2.79715e-22
3.30322e-22
3.83709e-22
4.28869e-22
4.66627e-22
4.9796e-22
5.23832e-22
5.45118e-22
5.62588e-22
5.76898e-22
5.88604e-22
5.9817e-22
6.0598e-22
6.12353e-22
6.17551e-22
3.55348e-22
3.28666e-22
3.08674e-22
2.95114e-22
2.86005e-22
2.79715e-22
3.30322e-22
3.83709e-22
4.28869e-22
4.66627e-22
4.9796e-22
5.23832e-22
5.45118e-22
5.62588e-22
5.76898e-22
5.88604e-22
5.9817e-22
6.0598e-22
6.12353e-22
6.17551e-22
3.55348e-22
3.28666e-22
3.08674e-22
2.95114e-22
2.86005e-22
2.79715e-22
3.30322e-22
3.83709e-22
4.28869e-22
4.66627e-22
4.9796e-22
5.23832e-22
5.45118e-22
5.62588e-22
5.76898e-22
5.88604e-22
5.9817e-22
6.0598e-22
6.12353e-22
6.17551e-22
3.55348e-22
3.28666e-22
3.08674e-22
2.95114e-22
2.86005e-22
2.79715e-22
3.30322e-22
3.83709e-22
4.28869e-22
4.66627e-22
4.9796e-22
5.23832e-22
5.45118e-22
5.62588e-22
5.76898e-22
5.88604e-22
5.9817e-22
6.0598e-22
6.12353e-22
6.17551e-22
3.55348e-22
3.28666e-22
3.08674e-22
2.95114e-22
2.86005e-22
2.79715e-22
3.30322e-22
3.83709e-22
4.28869e-22
4.66627e-22
4.9796e-22
5.23832e-22
5.45118e-22
5.62588e-22
5.76898e-22
5.88604e-22
5.9817e-22
6.0598e-22
6.12353e-22
6.17551e-22
3.55348e-22
3.28666e-22
3.08674e-22
2.95114e-22
2.86005e-22
2.79715e-22
3.30322e-22
3.83709e-22
4.28869e-22
4.66627e-22
4.9796e-22
5.23832e-22
5.45118e-22
5.62588e-22
5.76898e-22
5.88604e-22
5.9817e-22
6.0598e-22
6.12353e-22
6.17551e-22
3.55348e-22
3.28666e-22
3.08674e-22
2.95114e-22
2.86005e-22
2.79715e-22
3.30322e-22
3.83709e-22
4.28869e-22
4.66627e-22
4.9796e-22
5.23832e-22
5.45118e-22
5.62588e-22
5.76898e-22
5.88604e-22
5.9817e-22
6.0598e-22
6.12353e-22
6.17551e-22
3.55348e-22
3.28666e-22
3.08674e-22
2.95114e-22
2.86005e-22
2.79715e-22
3.30322e-22
3.83709e-22
4.28869e-22
4.66627e-22
4.9796e-22
5.23832e-22
5.45118e-22
5.62588e-22
5.76898e-22
5.88604e-22
5.9817e-22
6.0598e-22
6.12353e-22
6.17551e-22
3.55348e-22
3.28666e-22
3.08674e-22
2.95114e-22
2.86005e-22
2.79715e-22
3.30322e-22
3.83709e-22
4.28869e-22
4.66627e-22
4.9796e-22
5.23832e-22
5.45118e-22
5.62588e-22
5.76898e-22
5.88604e-22
5.9817e-22
6.0598e-22
6.12353e-22
6.17551e-22
3.55348e-22
3.28666e-22
3.08674e-22
2.95114e-22
2.86005e-22
2.79715e-22
3.30322e-22
3.83709e-22
4.28869e-22
4.66627e-22
4.9796e-22
5.23832e-22
5.45118e-22
5.62588e-22
5.76898e-22
5.88604e-22
5.9817e-22
6.0598e-22
6.12353e-22
6.17551e-22
3.55348e-22
3.28666e-22
3.08674e-22
2.95114e-22
2.86005e-22
2.79715e-22
3.30322e-22
3.83709e-22
4.28869e-22
4.66627e-22
4.9796e-22
5.23832e-22
5.45118e-22
5.62588e-22
5.76898e-22
5.88604e-22
5.9817e-22
6.0598e-22
6.12353e-22
6.17551e-22
3.55348e-22
3.28666e-22
3.08674e-22
2.95114e-22
2.86005e-22
2.79715e-22
3.30322e-22
3.83709e-22
4.28869e-22
4.66627e-22
4.9796e-22
5.23832e-22
5.45118e-22
5.62588e-22
5.76898e-22
5.88604e-22
5.9817e-22
6.0598e-22
6.12353e-22
6.17551e-22
3.55348e-22
3.28666e-22
3.08674e-22
2.95114e-22
2.86005e-22
2.79715e-22
3.30322e-22
3.83709e-22
4.28869e-22
4.66627e-22
4.9796e-22
5.23832e-22
5.45118e-22
5.62588e-22
5.76898e-22
5.88604e-22
5.9817e-22
6.0598e-22
6.12353e-22
6.17551e-22
3.55348e-22
3.28666e-22
3.08674e-22
2.95114e-22
2.86005e-22
2.79715e-22
3.30322e-22
3.83709e-22
4.28869e-22
4.66627e-22
4.9796e-22
5.23832e-22
5.45118e-22
5.62588e-22
5.76898e-22
5.88604e-22
5.9817e-22
6.0598e-22
6.12353e-22
6.17551e-22
3.55348e-22
3.28666e-22
3.08674e-22
2.95114e-22
2.86005e-22
2.79715e-22
3.30322e-22
3.83709e-22
4.28869e-22
4.66627e-22
4.9796e-22
5.23832e-22
5.45118e-22
5.62588e-22
5.76898e-22
5.88604e-22
5.9817e-22
6.0598e-22
6.12353e-22
6.17551e-22
3.55348e-22
3.28666e-22
3.08674e-22
2.95114e-22
2.86005e-22
2.79715e-22
3.30322e-22
3.83709e-22
4.28869e-22
4.66627e-22
4.9796e-22
5.23832e-22
5.45118e-22
5.62588e-22
5.76898e-22
5.88604e-22
5.9817e-22
6.0598e-22
6.12353e-22
6.17551e-22
3.55348e-22
3.28666e-22
3.08674e-22
2.95114e-22
2.86005e-22
2.79715e-22
3.30322e-22
3.83709e-22
4.28869e-22
4.66627e-22
4.9796e-22
5.23832e-22
5.45118e-22
5.62588e-22
5.76898e-22
5.88604e-22
5.9817e-22
6.0598e-22
6.12353e-22
6.17551e-22
3.55348e-22
3.28666e-22
3.08674e-22
2.95114e-22
2.86005e-22
2.79715e-22
3.30322e-22
3.83709e-22
4.28869e-22
4.66627e-22
4.9796e-22
5.23832e-22
5.45118e-22
5.62588e-22
5.76898e-22
5.88604e-22
5.9817e-22
6.0598e-22
6.12353e-22
6.17551e-22
3.55348e-22
3.28666e-22
3.08674e-22
2.95114e-22
2.86005e-22
2.79715e-22
3.30322e-22
3.83709e-22
4.28869e-22
4.66627e-22
4.9796e-22
5.23832e-22
5.45118e-22
5.62588e-22
5.76898e-22
5.88604e-22
5.9817e-22
6.0598e-22
6.12353e-22
6.17551e-22
3.55348e-22
3.28666e-22
3.08674e-22
2.95114e-22
2.86005e-22
2.79715e-22
3.30322e-22
3.83709e-22
4.28869e-22
4.66627e-22
4.9796e-22
5.23832e-22
5.45118e-22
5.62588e-22
5.76898e-22
5.88604e-22
5.9817e-22
6.0598e-22
6.12353e-22
6.17551e-22
3.55348e-22
3.28666e-22
3.08674e-22
2.95114e-22
2.86005e-22
2.79715e-22
3.30322e-22
3.83709e-22
4.28869e-22
4.66627e-22
4.9796e-22
5.23832e-22
5.45118e-22
5.62588e-22
5.76898e-22
5.88604e-22
5.9817e-22
6.0598e-22
6.12353e-22
6.17551e-22
3.55348e-22
3.28666e-22
3.08674e-22
2.95114e-22
2.86005e-22
2.79715e-22
3.30322e-22
3.83709e-22
4.28869e-22
4.66627e-22
4.9796e-22
5.23832e-22
5.45118e-22
5.62588e-22
5.76898e-22
5.88604e-22
5.9817e-22
6.0598e-22
6.12353e-22
6.17551e-22
3.55348e-22
3.28666e-22
3.08674e-22
2.95114e-22
2.86005e-22
2.79715e-22
3.30322e-22
3.83709e-22
4.28869e-22
4.66627e-22
4.9796e-22
5.23832e-22
5.45118e-22
5.62588e-22
5.76898e-22
5.88604e-22
5.9817e-22
6.0598e-22
6.12353e-22
6.17551e-22
3.55348e-22
3.28666e-22
3.08674e-22
2.95114e-22
2.86005e-22
2.79715e-22
3.30322e-22
3.83709e-22
4.28869e-22
4.66627e-22
4.9796e-22
5.23832e-22
5.45118e-22
5.62588e-22
5.76898e-22
5.88604e-22
5.9817e-22
6.0598e-22
6.12353e-22
6.17551e-22
3.55348e-22
3.28666e-22
3.08674e-22
2.95114e-22
2.86005e-22
2.79715e-22
3.30322e-22
3.83709e-22
4.28869e-22
4.66627e-22
4.9796e-22
5.23832e-22
5.45118e-22
5.62588e-22
5.76898e-22
5.88604e-22
5.9817e-22
6.0598e-22
6.12353e-22
6.17551e-22
3.55348e-22
3.28666e-22
3.08674e-22
2.95114e-22
2.86005e-22
2.79715e-22
3.30322e-22
3.83709e-22
4.28869e-22
4.66627e-22
4.9796e-22
5.23832e-22
5.45118e-22
5.62588e-22
5.76898e-22
5.88604e-22
5.9817e-22
6.0598e-22
6.12353e-22
6.17551e-22
3.55348e-22
3.28666e-22
3.08674e-22
2.95114e-22
2.86005e-22
2.79715e-22
3.30322e-22
3.83709e-22
4.28869e-22
4.66627e-22
4.9796e-22
5.23832e-22
5.45118e-22
5.62588e-22
5.76898e-22
5.88604e-22
5.9817e-22
6.0598e-22
6.12353e-22
6.17551e-22
3.55348e-22
3.28666e-22
3.08674e-22
2.95114e-22
2.86005e-22
2.79715e-22
3.30322e-22
3.83709e-22
4.28869e-22
4.66627e-22
4.9796e-22
5.23832e-22
5.45118e-22
5.62588e-22
5.76898e-22
5.88604e-22
5.9817e-22
6.0598e-22
6.12353e-22
6.17551e-22
3.55348e-22
3.28666e-22
3.08674e-22
2.95114e-22
2.86005e-22
2.79715e-22
3.30322e-22
3.83709e-22
4.28869e-22
4.66627e-22
4.9796e-22
5.23832e-22
5.45118e-22
5.62588e-22
5.76898e-22
5.88604e-22
5.9817e-22
6.0598e-22
6.12353e-22
6.17551e-22
3.55348e-22
3.28666e-22
3.08674e-22
2.95114e-22
2.86005e-22
2.79715e-22
3.30322e-22
3.83709e-22
4.28869e-22
4.66627e-22
4.9796e-22
5.23832e-22
5.45118e-22
5.62588e-22
5.76898e-22
5.88604e-22
5.9817e-22
6.0598e-22
6.12353e-22
6.17551e-22
3.55348e-22
3.28666e-22
3.08674e-22
2.95114e-22
2.86005e-22
2.79715e-22
3.30322e-22
3.83709e-22
4.28869e-22
4.66627e-22
4.9796e-22
5.23832e-22
5.45118e-22
5.62588e-22
5.76898e-22
5.88604e-22
5.9817e-22
6.0598e-22
6.12353e-22
6.17551e-22
3.55348e-22
3.28666e-22
3.08674e-22
2.95114e-22
2.86005e-22
2.79715e-22
3.30322e-22
3.83709e-22
4.28869e-22
4.66627e-22
4.9796e-22
5.23832e-22
5.45118e-22
5.62588e-22
5.76898e-22
5.88604e-22
5.9817e-22
6.0598e-22
6.12353e-22
6.17551e-22
3.55348e-22
3.28666e-22
3.08674e-22
2.95114e-22
2.86005e-22
2.79715e-22
3.30322e-22
3.83709e-22
4.28869e-22
4.66627e-22
4.9796e-22
5.23832e-22
5.45118e-22
5.62588e-22
5.76898e-22
5.88604e-22
5.9817e-22
6.0598e-22
6.12353e-22
6.17551e-22
3.55348e-22
3.28666e-22
3.08674e-22
2.95114e-22
2.86005e-22
2.79715e-22
3.30322e-22
3.83709e-22
4.28869e-22
4.66627e-22
4.9796e-22
5.23832e-22
5.45118e-22
5.62588e-22
5.76898e-22
5.88604e-22
5.9817e-22
6.0598e-22
6.12353e-22
6.17551e-22
3.55348e-22
3.28666e-22
3.08674e-22
2.95114e-22
2.86005e-22
2.79715e-22
3.30322e-22
3.83709e-22
4.28869e-22
4.66627e-22
4.9796e-22
5.23832e-22
5.45118e-22
5.62588e-22
5.76898e-22
5.88604e-22
5.9817e-22
6.0598e-22
6.12353e-22
6.17551e-22
3.55348e-22
3.28666e-22
3.08674e-22
2.95114e-22
2.86005e-22
2.79715e-22
3.30322e-22
3.83709e-22
4.28869e-22
4.66627e-22
4.9796e-22
5.23832e-22
5.45118e-22
5.62588e-22
5.76898e-22
5.88604e-22
5.9817e-22
6.0598e-22
6.12353e-22
6.17551e-22
3.55348e-22
3.28666e-22
3.08674e-22
2.95114e-22
2.86005e-22
2.79715e-22
3.30322e-22
3.83709e-22
4.28869e-22
4.66627e-22
4.9796e-22
5.23832e-22
5.45118e-22
5.62588e-22
5.76898e-22
5.88604e-22
5.9817e-22
6.0598e-22
6.12353e-22
6.17551e-22
3.55348e-22
3.28666e-22
3.08674e-22
2.95114e-22
2.86005e-22
2.79715e-22
3.30322e-22
3.83709e-22
4.28869e-22
4.66627e-22
4.9796e-22
5.23832e-22
5.45118e-22
5.62588e-22
5.76898e-22
5.88604e-22
5.9817e-22
6.0598e-22
6.12353e-22
6.17551e-22
3.55348e-22
3.28666e-22
3.08674e-22
2.95114e-22
2.86005e-22
2.79715e-22
3.30322e-22
3.83709e-22
4.28869e-22
4.66627e-22
4.9796e-22
5.23832e-22
5.45118e-22
5.62588e-22
5.76898e-22
5.88604e-22
5.9817e-22
6.0598e-22
6.12353e-22
6.17551e-22
3.55348e-22
3.28666e-22
3.08674e-22
2.95114e-22
2.86005e-22
2.79715e-22
3.30322e-22
3.83709e-22
4.28869e-22
4.66627e-22
4.9796e-22
5.23832e-22
5.45118e-22
5.62588e-22
5.76898e-22
5.88604e-22
5.9817e-22
6.0598e-22
6.12353e-22
6.17551e-22
3.55348e-22
3.28666e-22
3.08674e-22
2.95114e-22
2.86005e-22
2.79715e-22
3.30322e-22
3.83709e-22
4.28869e-22
4.66627e-22
4.9796e-22
5.23832e-22
5.45118e-22
5.62588e-22
5.76898e-22
5.88604e-22
5.9817e-22
6.0598e-22
6.12353e-22
6.17551e-22
3.55348e-22
3.28666e-22
3.08674e-22
2.95114e-22
2.86005e-22
2.79715e-22
3.30322e-22
3.83709e-22
4.28869e-22
4.66627e-22
4.9796e-22
5.23832e-22
5.45118e-22
5.62588e-22
5.76898e-22
5.88604e-22
5.9817e-22
6.0598e-22
6.12353e-22
6.17551e-22
3.55348e-22
3.28666e-22
3.08674e-22
2.95114e-22
2.86005e-22
2.79715e-22
3.30322e-22
3.83709e-22
4.28869e-22
4.66627e-22
4.9796e-22
5.23832e-22
5.45118e-22
5.62588e-22
5.76898e-22
5.88604e-22
5.9817e-22
6.0598e-22
6.12353e-22
6.17551e-22
3.55348e-22
3.28666e-22
3.08674e-22
2.95114e-22
2.86005e-22
2.79715e-22
3.30322e-22
3.83708e-22
4.28868e-22
4.66627e-22
4.9796e-22
5.23832e-22
5.45118e-22
5.62587e-22
5.76898e-22
5.88604e-22
5.9817e-22
6.0598e-22
6.12353e-22
6.1755e-22
3.55348e-22
3.28686e-22
3.09133e-22
2.97403e-22
2.918e-22
2.90093e-22
2.92881e-22
3.28449e-22
3.55575e-22
3.76225e-22
3.92006e-22
4.04143e-22
4.13545e-22
4.20881e-22
4.26642e-22
4.31192e-22
4.34805e-22
4.37684e-22
4.39989e-22
4.41838e-22
2.49459e-07
1.44984e-08
3.75423e-09
1.89747e-09
1.18476e-09
8.17721e-10
6.13706e-10
4.86068e-10
4.01804e-10
3.45087e-10
3.07295e-10
2.83978e-10
2.74794e-10
2.72507e-10
2.78075e-10
2.81376e-10
2.81558e-10
2.77904e-10
2.70548e-10
2.60911e-10
2.5046e-10
2.40059e-10
2.29418e-10
2.19067e-10
2.0917e-10
1.99941e-10
1.91349e-10
1.83231e-10
1.75641e-10
1.6857e-10
1.61919e-10
1.55682e-10
1.49875e-10
1.44476e-10
1.39409e-10
1.34646e-10
1.30149e-10
1.25893e-10
1.21885e-10
1.18121e-10
1.14597e-10
1.11292e-10
1.08168e-10
1.05205e-10
1.02365e-10
9.96035e-11
9.69339e-11
9.43867e-11
9.19508e-11
8.96046e-11
8.73429e-11
8.51677e-11
8.30701e-11
8.10414e-11
7.9082e-11
7.7177e-11
7.53351e-11
7.35058e-11
7.17919e-11
6.92906e-11
3.22791e-07
2.84009e-08
4.50991e-09
1.96676e-09
1.18423e-09
8.09994e-10
6.09776e-10
4.90972e-10
4.20123e-10
3.85013e-10
3.85564e-10
4.26686e-10
4.68113e-10
5.6889e-10
6.72282e-10
7.40114e-10
7.75125e-10
7.80254e-10
7.6475e-10
7.39954e-10
7.11169e-10
6.8038e-10
6.4922e-10
6.18913e-10
5.8974e-10
5.62591e-10
5.37325e-10
5.13786e-10
4.92041e-10
4.71582e-10
4.51697e-10
4.33055e-10
4.15796e-10
3.99762e-10
3.84619e-10
3.70338e-10
3.56815e-10
3.44051e-10
3.32103e-10
3.20941e-10
3.10541e-10
3.00793e-10
2.91577e-10
2.82838e-10
2.74435e-10
2.66125e-10
2.58054e-10
2.50376e-10
2.43022e-10
2.3594e-10
2.29137e-10
2.22615e-10
2.16338e-10
2.10284e-10
2.04456e-10
1.9879e-10
1.93334e-10
1.87925e-10
1.83167e-10
1.75367e-10
4.25987e-07
8.41179e-08
1.43269e-08
4.45725e-09
2.23446e-09
1.49468e-09
1.22204e-09
1.18668e-09
1.33706e-09
1.73617e-09
2.57485e-09
4.09544e-09
5.94245e-09
8.52027e-09
1.09965e-08
1.26291e-08
1.35042e-08
1.37074e-08
1.34699e-08
1.30471e-08
1.25416e-08
1.19853e-08
1.14249e-08
1.08803e-08
1.0355e-08
9.86671e-09
9.41255e-09
8.99214e-09
8.60575e-09
8.24085e-09
7.88178e-09
7.54538e-09
7.23472e-09
6.94625e-09
6.67331e-09
6.41568e-09
6.17153e-09
5.94134e-09
5.72645e-09
5.52617e-09
5.33996e-09
5.16551e-09
5.00058e-09
4.84428e-09
4.6938e-09
4.54405e-09
4.39839e-09
4.26001e-09
4.12739e-09
3.99972e-09
3.87728e-09
3.76005e-09
3.64733e-09
3.53875e-09
3.43436e-09
3.33292e-09
3.23538e-09
3.13878e-09
3.05596e-09
2.91391e-09
5.17776e-07
1.83777e-07
5.4086e-08
2.077e-08
1.05816e-08
7.31827e-09
6.5355e-09
7.20503e-09
9.19231e-09
1.32166e-08
2.10778e-08
3.50411e-08
5.31423e-08
7.69553e-08
9.97007e-08
1.14712e-07
1.22801e-07
1.24716e-07
1.22605e-07
1.18801e-07
1.14239e-07
1.09207e-07
1.04129e-07
9.91863e-08
9.44176e-08
8.99832e-08
8.58558e-08
8.20333e-08
7.85192e-08
7.51982e-08
7.1926e-08
6.88596e-08
6.60271e-08
6.33961e-08
6.09058e-08
5.85545e-08
5.63256e-08
5.4224e-08
5.22618e-08
5.04329e-08
4.87324e-08
4.71391e-08
4.56325e-08
4.42046e-08
4.28296e-08
4.14606e-08
4.01288e-08
3.88634e-08
3.76505e-08
3.64829e-08
3.53631e-08
3.42909e-08
3.326e-08
3.22669e-08
3.13122e-08
3.03843e-08
2.94923e-08
2.86088e-08
2.78518e-08
2.65519e-08
6.0358e-07
3.01677e-07
1.29859e-07
6.72163e-08
4.03412e-08
3.04346e-08
2.89083e-08
3.34647e-08
4.42012e-08
6.5171e-08
1.05707e-07
1.77406e-07
2.73496e-07
3.95449e-07
5.1073e-07
5.87147e-07
6.29018e-07
6.39832e-07
6.30493e-07
6.12545e-07
5.90628e-07
5.66187e-07
5.41293e-07
5.16888e-07
4.93231e-07
4.71144e-07
4.50498e-07
4.31298e-07
4.13587e-07
3.96779e-07
3.80125e-07
3.64471e-07
3.49971e-07
3.36466e-07
3.23647e-07
3.11512e-07
2.99983e-07
2.89089e-07
2.78899e-07
2.69385e-07
2.60524e-07
2.52208e-07
2.44332e-07
2.36857e-07
2.29647e-07
2.22454e-07
2.15444e-07
2.08775e-07
2.02375e-07
1.96207e-07
1.90286e-07
1.8461e-07
1.79147e-07
1.7388e-07
1.68811e-07
1.63881e-07
1.59137e-07
1.54435e-07
1.50402e-07
1.4347e-07
6.37631e-07
4.16052e-07
2.34627e-07
1.46879e-07
9.08193e-08
7.8584e-08
8.3911e-08
1.03369e-07
1.40687e-07
2.12274e-07
3.4981e-07
5.90962e-07
9.18226e-07
1.31911e-06
1.69215e-06
1.94321e-06
2.08576e-06
2.13051e-06
2.11134e-06
2.06377e-06
2.00235e-06
1.93173e-06
1.85821e-06
1.78493e-06
1.71304e-06
1.64529e-06
1.58136e-06
1.52138e-06
1.4656e-06
1.41215e-06
1.35841e-06
1.30752e-06
1.26007e-06
1.21559e-06
1.17307e-06
1.13256e-06
1.09385e-06
1.05707e-06
1.02252e-06
9.90108e-07
9.59799e-07
9.31236e-07
9.04076e-07
8.78193e-07
8.53122e-07
8.27966e-07
8.03342e-07
7.79837e-07
7.57201e-07
7.35318e-07
7.14247e-07
6.93995e-07
6.74448e-07
6.55553e-07
6.37325e-07
6.19547e-07
6.02401e-07
5.85366e-07
5.70726e-07
5.45478e-07
6.19906e-07
5.01832e-07
3.44772e-07
2.52717e-07
2.03376e-07
1.6599e-07
1.65634e-07
2.09779e-07
2.97964e-07
4.67272e-07
7.91308e-07
1.34737e-06
2.11161e-06
3.0017e-06
3.84236e-06
4.45825e-06
4.84596e-06
5.00722e-06
5.00438e-06
4.93479e-06
4.83045e-06
4.70235e-06
4.56353e-06
4.42105e-06
4.27847e-06
4.14229e-06
4.01218e-06
3.88851e-06
3.77221e-06
3.65895e-06
3.542e-06
3.42992e-06
3.32441e-06
3.22456e-06
3.12802e-06
3.0351e-06
2.94545e-06
2.85959e-06
2.77831e-06
2.70157e-06
2.62934e-06
2.56081e-06
2.49522e-06
2.4323e-06
2.3709e-06
2.30862e-06
2.24715e-06
2.18813e-06
2.13097e-06
2.07542e-06
2.02166e-06
1.96974e-06
1.91939e-06
1.8705e-06
1.82312e-06
1.77671e-06
1.73175e-06
1.6869e-06
1.64822e-06
1.58111e-06
5.74255e-07
5.64142e-07
4.43065e-07
3.50094e-07
3.25606e-07
3.34223e-07
3.76431e-07
4.74602e-07
5.98202e-07
8.75296e-07
1.42444e-06
2.3532e-06
3.60323e-06
5.03871e-06
6.40563e-06
7.42071e-06
8.08916e-06
8.45259e-06
8.58905e-06
8.60134e-06
8.54713e-06
8.44805e-06
8.32278e-06
8.18369e-06
8.03744e-06
7.89487e-06
7.7571e-06
7.62445e-06
7.49868e-06
7.36383e-06
7.17843e-06
6.99846e-06
6.82731e-06
6.66373e-06