/*--------------------------------*- C++ -*----------------------------------*\
| =========                 |                                                 |
| \\      /  F ield         | OpenFOAM: The Open Source CFD Toolbox           |
|  \\    /   O peration     | Version:  v2012                                 |
|   \\  /    A nd           | Website:  www.openfoam.com                      |
|    \\/     M anipulation  |                                                 |
\*---------------------------------------------------------------------------*/
FoamFile
{
    version     2.0;
    format      ascii;
    class       volScalarField;
    location    "2000";
    object      k;
}
// * * * * * * * * * * * * * * * * * * * * * * * * * * * * * * * * * * * * * //

dimensions      [0 2 -2 0 0 0 0];


internalField   nonuniform List<scalar> 
8000
(
3.36164e-13
1.95889e-14
4.51529e-15
1.9785e-15
1.19045e-15
1e-15
1e-15
1e-15
1e-15
1e-15
1e-15
1e-15
1e-15
1e-15
1e-15
1e-15
3.7504e-13
5.56311e-09
6.68661e-05
0.646381
3.51416e-13
2.04119e-14
4.61451e-15
2.00207e-15
1.19995e-15
1e-15
1e-15
1e-15
1e-15
1e-15
1e-15
1e-15
1e-15
1e-15
1e-15
1e-15
1.96452e-13
2.4184e-09
2.30197e-05
0.164953
3.52528e-13
2.07073e-14
4.70744e-15
2.03813e-15
1.21777e-15
1e-15
1e-15
1e-15
1e-15
1e-15
1e-15
1e-15
1e-15
1e-15
1e-15
1e-15
7.66695e-14
8.26408e-10
7.15594e-06
0.0501517
3.52563e-13
2.09676e-14
4.80454e-15
2.08242e-15
1.24206e-15
1e-15
1e-15
1e-15
1e-15
1e-15
1e-15
1e-15
1e-15
1e-15
1e-15
1e-15
2.806e-14
2.91136e-10
2.62344e-06
0.0200694
3.52564e-13
2.14379e-14
4.92506e-15
2.13312e-15
1.27067e-15
1e-15
1e-15
1e-15
1e-15
1e-15
1e-15
1e-15
1e-15
1e-15
1e-15
1e-15
1.15472e-14
1.21092e-10
1.17883e-06
0.00964907
3.52564e-13
2.1609e-14
5.00933e-15
2.17953e-15
1.30013e-15
1e-15
1e-15
1e-15
1e-15
1e-15
1e-15
1e-15
1e-15
1e-15
1e-15
1e-15
5.67686e-15
5.72278e-11
5.82458e-07
0.00489992
3.52564e-13
2.16487e-14
5.07938e-15
2.2224e-15
1.32907e-15
1e-15
1e-15
1e-15
1e-15
1e-15
1e-15
1e-15
1e-15
1e-15
1e-15
1e-15
3.20337e-15
2.79154e-11
2.88782e-07
0.00245045
3.52564e-13
2.16563e-14
5.13991e-15
2.26171e-15
1.35666e-15
1e-15
1e-15
1e-15
1e-15
1e-15
1e-15
1e-15
1e-15
1e-15
1e-15
1e-15
2.01586e-15
1.31506e-11
1.36667e-07
0.00116246
3.52564e-13
2.16576e-14
5.17182e-15
2.29371e-15
1.38151e-15
1e-15
1e-15
1e-15
1e-15
1e-15
1e-15
1e-15
1e-15
1e-15
1e-15
1e-15
1.41939e-15
5.58274e-12
5.7804e-08
0.00048991
3.52564e-13
2.16579e-14
5.18426e-15
2.31757e-15
1.40277e-15
1.00649e-15
1e-15
1e-15
1e-15
1e-15
1e-15
1e-15
1e-15
1e-15
1e-15
1e-15
1.13073e-15
1.89325e-12
1.91748e-08
0.000159298
3.52564e-13
2.1658e-14
5.18832e-15
2.33086e-15
1.41908e-15
1.01887e-15
1e-15
1e-15
1e-15
1e-15
1e-15
1e-15
1e-15
1e-15
1e-15
1e-15
1.01868e-15
4.86677e-13
4.76508e-09
3.84891e-05
3.52564e-13
2.1658e-14
5.18951e-15
2.33671e-15
1.42914e-15
1.02968e-15
1e-15
1e-15
1e-15
1e-15
1e-15
1e-15
1e-15
1e-15
1e-15
1e-15
1e-15
8.87165e-14
8.15977e-10
6.27999e-06
3.52564e-13
2.1658e-14
5.18985e-15
2.33891e-15
1.43404e-15
1.03653e-15
1e-15
1e-15
1e-15
1e-15
1e-15
1e-15
1e-15
1e-15
1e-15
1e-15
1e-15
1.16775e-14
9.18208e-11
6.559e-07
3.52564e-13
2.1658e-14
5.18995e-15
2.33966e-15
1.43604e-15
1.0399e-15
1e-15
1e-15
1e-15
1e-15
1e-15
1e-15
1e-15
1e-15
1e-15
1e-15
1e-15
1.88198e-15
7.02107e-12
4.58673e-08
3.52564e-13
2.1658e-14
5.18998e-15
2.3399e-15
1.43678e-15
1.0413e-15
1e-15
1e-15
1e-15
1e-15
1e-15
1e-15
1e-15
1e-15
1e-15
1e-15
1e-15
1.04259e-15
4.61674e-13
2.98461e-09
3.52564e-13
2.1658e-14
5.18999e-15
2.33999e-15
1.43704e-15
1.04182e-15
1e-15
1e-15
1e-15
1e-15
1e-15
1e-15
1e-15
1e-15
1e-15
1e-15
1e-15
1e-15
3.83896e-14
2.70864e-10
3.52564e-13
2.1658e-14
5.19e-15
2.34001e-15
1.43713e-15
1.04201e-15
1e-15
1e-15
1e-15
1e-15
1e-15
1e-15
1e-15
1e-15
1e-15
1e-15
1e-15
1e-15
4.05294e-15
2.29624e-11
3.52564e-13
2.1658e-14
5.19e-15
2.34003e-15
1.43716e-15
1.04208e-15
1e-15
1e-15
1e-15
1e-15
1e-15
1e-15
1e-15
1e-15
1e-15
1e-15
1e-15
1e-15
1.15889e-15
1.2445e-12
3.52564e-13
2.1658e-14
5.19e-15
2.34003e-15
1.43717e-15
1.0421e-15
1e-15
1e-15
1e-15
1e-15
1e-15
1e-15
1e-15
1e-15
1e-15
1e-15
1e-15
1e-15
1e-15
4.78438e-14
3.52564e-13
2.1658e-14
5.19e-15
2.34003e-15
1.43718e-15
1.04211e-15
1e-15
1e-15
1e-15
1e-15
1e-15
1e-15
1e-15
1e-15
1e-15
1e-15
1e-15
1e-15
1e-15
2.74037e-15
3.52564e-13
2.1658e-14
5.19e-15
2.34003e-15
1.43718e-15
1.04212e-15
1e-15
1e-15
1e-15
1e-15
1e-15
1e-15
1e-15
1e-15
1e-15
1e-15
1e-15
1e-15
1e-15
1.04808e-15
3.52564e-13
2.1658e-14
5.19e-15
2.34003e-15
1.43718e-15
1.04212e-15
1e-15
1e-15
1e-15
1e-15
1e-15
1e-15
1e-15
1e-15
1e-15
1e-15
1e-15
1e-15
1e-15
1e-15
3.52564e-13
2.1658e-14
5.19e-15
2.34003e-15
1.43718e-15
1.04212e-15
1e-15
1e-15
1e-15
1e-15
1e-15
1e-15
1e-15
1e-15
1e-15
1e-15
1e-15
1e-15
1e-15
1e-15
3.52564e-13
2.1658e-14
5.19e-15
2.34003e-15
1.43718e-15
1.04212e-15
1e-15
1e-15
1e-15
1e-15
1e-15
1e-15
1e-15
1e-15
1e-15
1e-15
1e-15
1e-15
1e-15
1e-15
3.52564e-13
2.1658e-14
5.19e-15
2.34003e-15
1.43718e-15
1.04212e-15
1e-15
1e-15
1e-15
1e-15
1e-15
1e-15
1e-15
1e-15
1e-15
1e-15
1e-15
1e-15
1e-15
1e-15
3.52564e-13
2.1658e-14
5.19e-15
2.34003e-15
1.43718e-15
1.04212e-15
1e-15
1e-15
1e-15
1e-15
1e-15
1e-15
1e-15
1e-15
1e-15
1e-15
1e-15
1e-15
1e-15
1e-15
3.52564e-13
2.1658e-14
5.19e-15
2.34003e-15
1.43718e-15
1.04212e-15
1e-15
1e-15
1e-15
1e-15
1e-15
1e-15
1e-15
1e-15
1e-15
1e-15
1e-15
1e-15
1e-15
1e-15
3.52564e-13
2.1658e-14
5.19e-15
2.34003e-15
1.43718e-15
1.04212e-15
1e-15
1e-15
1e-15
1e-15
1e-15
1e-15
1e-15
1e-15
1e-15
1e-15
1e-15
1e-15
1e-15
1e-15
3.52564e-13
2.1658e-14
5.19e-15
2.34003e-15
1.43718e-15
1.04212e-15
1e-15
1e-15
1e-15
1e-15
1e-15
1e-15
1e-15
1e-15
1e-15
1e-15
1e-15
1e-15
1e-15
1e-15
3.52564e-13
2.1658e-14
5.19e-15
2.34003e-15
1.43718e-15
1.04212e-15
1e-15
1e-15
1e-15
1e-15
1e-15
1e-15
1e-15
1e-15
1e-15
1e-15
1e-15
1e-15
1e-15
1e-15
3.52564e-13
2.1658e-14
5.19e-15
2.34003e-15
1.43718e-15
1.04212e-15
1e-15
1e-15
1e-15
1e-15
1e-15
1e-15
1e-15
1e-15
1e-15
1e-15
1e-15
1e-15
1e-15
1e-15
3.52564e-13
2.1658e-14
5.19e-15
2.34003e-15
1.43718e-15
1.04212e-15
1e-15
1e-15
1e-15
1e-15
1e-15
1e-15
1e-15
1e-15
1e-15
1e-15
1e-15
1e-15
1e-15
1e-15
3.52564e-13
2.1658e-14
5.19e-15
2.34003e-15
1.43718e-15
1.04212e-15
1e-15
1e-15
1e-15
1e-15
1e-15
1e-15
1e-15
1e-15
1e-15
1e-15
1e-15
1e-15
1e-15
1e-15
3.52564e-13
2.1658e-14
5.19e-15
2.34003e-15
1.43718e-15
1.04212e-15
1e-15
1e-15
1e-15
1e-15
1e-15
1e-15
1e-15
1e-15
1e-15
1e-15
1e-15
1e-15
1e-15
1e-15
3.52564e-13
2.1658e-14
5.19e-15
2.34003e-15
1.43718e-15
1.04212e-15
1e-15
1e-15
1e-15
1e-15
1e-15
1e-15
1e-15
1e-15
1e-15
1e-15
1e-15
1e-15
1e-15
1e-15
3.52564e-13
2.1658e-14
5.19e-15
2.34003e-15
1.43718e-15
1.04212e-15
1e-15
1e-15
1e-15
1e-15
1e-15
1e-15
1e-15
1e-15
1e-15
1e-15
1e-15
1e-15
1e-15
1e-15
3.52564e-13
2.1658e-14
5.19e-15
2.34003e-15
1.43718e-15
1.04212e-15
1e-15
1e-15
1e-15
1e-15
1e-15
1e-15
1e-15
1e-15
1e-15
1e-15
1e-15
1e-15
1e-15
1e-15
3.52564e-13
2.1658e-14
5.19e-15
2.34003e-15
1.43718e-15
1.04212e-15
1e-15
1e-15
1e-15
1e-15
1e-15
1e-15
1e-15
1e-15
1e-15
1e-15
1e-15
1e-15
1e-15
1e-15
3.52564e-13
2.1658e-14
5.19e-15
2.34003e-15
1.43718e-15
1.04212e-15
1e-15
1e-15
1e-15
1e-15
1e-15
1e-15
1e-15
1e-15
1e-15
1e-15
1e-15
1e-15
1e-15
1e-15
3.52564e-13
2.1658e-14
5.19e-15
2.34003e-15
1.43718e-15
1.04212e-15
1e-15
1e-15
1e-15
1e-15
1e-15
1e-15
1e-15
1e-15
1e-15
1e-15
1e-15
1e-15
1e-15
1e-15
3.52564e-13
2.1658e-14
5.19e-15
2.34003e-15
1.43718e-15
1.04212e-15
1e-15
1e-15
1e-15
1e-15
1e-15
1e-15
1e-15
1e-15
1e-15
1e-15
1e-15
1e-15
1e-15
1e-15
3.52564e-13
2.1658e-14
5.19e-15
2.34003e-15
1.43718e-15
1.04212e-15
1e-15
1e-15
1e-15
1e-15
1e-15
1e-15
1e-15
1e-15
1e-15
1e-15
1e-15
1e-15
1e-15
1e-15
3.52564e-13
2.1658e-14
5.19e-15
2.34003e-15
1.43718e-15
1.04212e-15
1e-15
1e-15
1e-15
1e-15
1e-15
1e-15
1e-15
1e-15
1e-15
1e-15
1e-15
1e-15
1e-15
1e-15
3.52564e-13
2.1658e-14
5.19e-15
2.34003e-15
1.43718e-15
1.04212e-15
1e-15
1e-15
1e-15
1e-15
1e-15
1e-15
1e-15
1e-15
1e-15
1e-15
1e-15
1e-15
1e-15
1e-15
3.52564e-13
2.1658e-14
5.19e-15
2.34003e-15
1.43718e-15
1.04212e-15
1e-15
1e-15
1e-15
1e-15
1e-15
1e-15
1e-15
1e-15
1e-15
1e-15
1e-15
1e-15
1e-15
1e-15
3.52564e-13
2.1658e-14
5.19e-15
2.34003e-15
1.43718e-15
1.04212e-15
1e-15
1e-15
1e-15
1e-15
1e-15
1e-15
1e-15
1e-15
1e-15
1e-15
1e-15
1e-15
1e-15
1e-15
3.52564e-13
2.1658e-14
5.19e-15
2.34003e-15
1.43718e-15
1.04212e-15
1e-15
1e-15
1e-15
1e-15
1e-15
1e-15
1e-15
1e-15
1e-15
1e-15
1e-15
1e-15
1e-15
1e-15
3.52564e-13
2.1658e-14
5.19e-15
2.34003e-15
1.43718e-15
1.04212e-15
1e-15
1e-15
1e-15
1e-15
1e-15
1e-15
1e-15
1e-15
1e-15
1e-15
1e-15
1e-15
1e-15
1e-15
3.52564e-13
2.1658e-14
5.19e-15
2.34003e-15
1.43718e-15
1.04212e-15
1e-15
1e-15
1e-15
1e-15
1e-15
1e-15
1e-15
1e-15
1e-15
1e-15
1e-15
1e-15
1e-15
1e-15
3.52564e-13
2.1658e-14
5.19e-15
2.34003e-15
1.43718e-15
1.04212e-15
1e-15
1e-15
1e-15
1e-15
1e-15
1e-15
1e-15
1e-15
1e-15
1e-15
1e-15
1e-15
1e-15
1e-15
3.52564e-13
2.1658e-14
5.19e-15
2.34003e-15
1.43718e-15
1.04212e-15
1e-15
1e-15
1e-15
1e-15
1e-15
1e-15
1e-15
1e-15
1e-15
1e-15
1e-15
1e-15
1e-15
1e-15
3.52564e-13
2.1658e-14
5.19e-15
2.34003e-15
1.43718e-15
1.04212e-15
1e-15
1e-15
1e-15
1e-15
1e-15
1e-15
1e-15
1e-15
1e-15
1e-15
1e-15
1e-15
1e-15
1e-15
3.52564e-13
2.1658e-14
5.19e-15
2.34003e-15
1.43718e-15
1.04212e-15
1e-15
1e-15
1e-15
1e-15
1e-15
1e-15
1e-15
1e-15
1e-15
1e-15
1e-15
1e-15
1e-15
1e-15
3.52564e-13
2.1658e-14
5.19e-15
2.34003e-15
1.43718e-15
1.04212e-15
1e-15
1e-15
1e-15
1e-15
1e-15
1e-15
1e-15
1e-15
1e-15
1e-15
1e-15
1e-15
1e-15
1e-15
3.52564e-13
2.1658e-14
5.19e-15
2.34003e-15
1.43718e-15
1.04212e-15
1e-15
1e-15
1e-15
1e-15
1e-15
1e-15
1e-15
1e-15
1e-15
1e-15
1e-15
1e-15
1e-15
1e-15
3.52564e-13
2.1658e-14
5.19e-15
2.34003e-15
1.43718e-15
1.04212e-15
1e-15
1e-15
1e-15
1e-15
1e-15
1e-15
1e-15
1e-15
1e-15
1e-15
1e-15
1e-15
1e-15
1e-15
3.52564e-13
2.1658e-14
5.19e-15
2.34003e-15
1.43718e-15
1.04212e-15
1e-15
1e-15
1e-15
1e-15
1e-15
1e-15
1e-15
1e-15
1e-15
1e-15
1e-15
1e-15
1e-15
1e-15
3.52564e-13
2.1658e-14
5.19e-15
2.34003e-15
1.43718e-15
1.04212e-15
1e-15
1e-15
1e-15
1e-15
1e-15
1e-15
1e-15
1e-15
1e-15
1e-15
1e-15
1e-15
1e-15
1e-15
3.52564e-13
2.1658e-14
5.19e-15
2.34003e-15
1.43718e-15
1.04212e-15
1e-15
1e-15
1e-15
1e-15
1e-15
1e-15
1e-15
1e-15
1e-15
1e-15
1e-15
1e-15
1e-15
1e-15
3.52564e-13
2.1658e-14
5.19e-15
2.34003e-15
1.43718e-15
1.04212e-15
1e-15
1e-15
1e-15
1e-15
1e-15
1e-15
1e-15
1e-15
1e-15
1e-15
1e-15
1e-15
1e-15
1e-15
3.52564e-13
2.1658e-14
5.19e-15
2.34003e-15
1.43718e-15
1.04212e-15
1e-15
1e-15
1e-15
1e-15
1e-15
1e-15
1e-15
1e-15
1e-15
1e-15
1e-15
1e-15
1e-15
1e-15
3.52564e-13
2.1658e-14
5.19e-15
2.34003e-15
1.43718e-15
1.04212e-15
1e-15
1e-15
1e-15
1e-15
1e-15
1e-15
1e-15
1e-15
1e-15
1e-15
1e-15
1e-15
1e-15
1e-15
3.52564e-13
2.1658e-14
5.19e-15
2.34003e-15
1.43718e-15
1.04212e-15
1e-15
1e-15
1e-15
1e-15
1e-15
1e-15
1e-15
1e-15
1e-15
1e-15
1e-15
1e-15
1e-15
1e-15
3.52564e-13
2.1658e-14
5.19e-15
2.34003e-15
1.43718e-15
1.04212e-15
1e-15
1e-15
1e-15
1e-15
1e-15
1e-15
1e-15
1e-15
1e-15
1e-15
1e-15
1e-15
1e-15
1e-15
3.52564e-13
2.1658e-14
5.19e-15
2.34003e-15
1.43718e-15
1.04212e-15
1e-15
1e-15
1e-15
1e-15
1e-15
1e-15
1e-15
1e-15
1e-15
1e-15
1e-15
1e-15
1e-15
1e-15
3.52564e-13
2.1658e-14
5.19e-15
2.34003e-15
1.43718e-15
1.04212e-15
1e-15
1e-15
1e-15
1e-15
1e-15
1e-15
1e-15
1e-15
1e-15
1e-15
1e-15
1e-15
1e-15
1e-15
3.52564e-13
2.1658e-14
5.19e-15
2.34003e-15
1.43718e-15
1.04212e-15
1e-15
1e-15
1e-15
1e-15
1e-15
1e-15
1e-15
1e-15
1e-15
1e-15
1e-15
1e-15
1e-15
1e-15
3.52564e-13
2.1658e-14
5.19e-15
2.34003e-15
1.43718e-15
1.04212e-15
1e-15
1e-15
1e-15
1e-15
1e-15
1e-15
1e-15
1e-15
1e-15
1e-15
1e-15
1e-15
1e-15
1e-15
3.52564e-13
2.1658e-14
5.19e-15
2.34003e-15
1.43718e-15
1.04212e-15
1e-15
1e-15
1e-15
1e-15
1e-15
1e-15
1e-15
1e-15
1e-15
1e-15
1e-15
1e-15
1e-15
1e-15
3.52564e-13
2.1658e-14
5.19e-15
2.34003e-15
1.43718e-15
1.04212e-15
1e-15
1e-15
1e-15
1e-15
1e-15
1e-15
1e-15
1e-15
1e-15
1e-15
1e-15
1e-15
1e-15
1e-15
3.52564e-13
2.1658e-14
5.19e-15
2.34003e-15
1.43718e-15
1.04212e-15
1e-15
1e-15
1e-15
1e-15
1e-15
1e-15
1e-15
1e-15
1e-15
1e-15
1e-15
1e-15
1e-15
1e-15
3.52564e-13
2.1658e-14
5.19e-15
2.34003e-15
1.43718e-15
1.04212e-15
1e-15
1e-15
1e-15
1e-15
1e-15
1e-15
1e-15
1e-15
1e-15
1e-15
1e-15
1e-15
1e-15
1e-15
3.52564e-13
2.1658e-14
5.19e-15
2.34003e-15
1.43718e-15
1.04212e-15
1e-15
1e-15
1e-15
1e-15
1e-15
1e-15
1e-15
1e-15
1e-15
1e-15
1e-15
1e-15
1e-15
1e-15
3.52564e-13
2.1658e-14
5.19e-15
2.34003e-15
1.43718e-15
1.04212e-15
1e-15
1e-15
1e-15
1e-15
1e-15
1e-15
1e-15
1e-15
1e-15
1e-15
1e-15
1e-15
1e-15
1e-15
3.52564e-13
2.1658e-14
5.19e-15
2.34003e-15
1.43718e-15
1.04212e-15
1e-15
1e-15
1e-15
1e-15
1e-15
1e-15
1e-15
1e-15
1e-15
1e-15
1e-15
1e-15
1e-15
1e-15
3.52564e-13
2.1658e-14
5.19e-15
2.34003e-15
1.43718e-15
1.04212e-15
1e-15
1e-15
1e-15
1e-15
1e-15
1e-15
1e-15
1e-15
1e-15
1e-15
1e-15
1e-15
1e-15
1e-15
3.52564e-13
2.1658e-14
5.19e-15
2.34003e-15
1.43718e-15
1.04212e-15
1e-15
1e-15
1e-15
1e-15
1e-15
1e-15
1e-15
1e-15
1e-15
1e-15
1e-15
1e-15
1e-15
1e-15
3.52564e-13
2.1658e-14
5.19e-15
2.34003e-15
1.43718e-15
1.04212e-15
1e-15
1e-15
1e-15
1e-15
1e-15
1e-15
1e-15
1e-15
1e-15
1e-15
1e-15
1e-15
1e-15
1e-15
3.52564e-13
2.1658e-14
5.19e-15
2.34003e-15
1.43718e-15
1.04212e-15
1e-15
1e-15
1e-15
1e-15
1e-15
1e-15
1e-15
1e-15
1e-15
1e-15
1e-15
1e-15
1e-15
1e-15
3.52564e-13
2.1658e-14
5.19e-15
2.34003e-15
1.43718e-15
1.04212e-15
1e-15
1e-15
1e-15
1e-15
1e-15
1e-15
1e-15
1e-15
1e-15
1e-15
1e-15
1e-15
1e-15
1e-15
3.52564e-13
2.1658e-14
5.19e-15
2.34003e-15
1.43718e-15
1.04212e-15
1e-15
1e-15
1e-15
1e-15
1e-15
1e-15
1e-15
1e-15
1e-15
1e-15
1e-15
1e-15
1e-15
1e-15
3.52564e-13
2.1658e-14
5.19e-15
2.34003e-15
1.43718e-15
1.04212e-15
1e-15
1e-15
1e-15
1e-15
1e-15
1e-15
1e-15
1e-15
1e-15
1e-15
1e-15
1e-15
1e-15
1e-15
3.52564e-13
2.1658e-14
5.19e-15
2.34003e-15
1.43718e-15
1.04212e-15
1e-15
1e-15
1e-15
1e-15
1e-15
1e-15
1e-15
1e-15
1e-15
1e-15
1e-15
1e-15
1e-15
1e-15
3.52564e-13
2.1658e-14
5.19e-15
2.34003e-15
1.43718e-15
1.04212e-15
1e-15
1e-15
1e-15
1e-15
1e-15
1e-15
1e-15
1e-15
1e-15
1e-15
1e-15
1e-15
1e-15
1e-15
3.52564e-13
2.1658e-14
5.19e-15
2.34003e-15
1.43718e-15
1.04212e-15
1e-15
1e-15
1e-15
1e-15
1e-15
1e-15
1e-15
1e-15
1e-15
1e-15
1e-15
1e-15
1e-15
1e-15
3.52564e-13
2.1658e-14
5.19e-15
2.34003e-15
1.43718e-15
1.04212e-15
1e-15
1e-15
1e-15
1e-15
1e-15
1e-15
1e-15
1e-15
1e-15
1e-15
1e-15
1e-15
1e-15
1e-15
3.52564e-13
2.1658e-14
5.19e-15
2.34003e-15
1.43718e-15
1.04212e-15
1e-15
1e-15
1e-15
1e-15
1e-15
1e-15
1e-15
1e-15
1e-15
1e-15
1e-15
1e-15
1e-15
1e-15
3.52564e-13
2.1658e-14
5.19e-15
2.34003e-15
1.43718e-15
1.04212e-15
1e-15
1e-15
1e-15
1e-15
1e-15
1e-15
1e-15
1e-15
1e-15
1e-15
1e-15
1e-15
1e-15
1e-15
3.52564e-13
2.1658e-14
5.19e-15
2.34003e-15
1.43718e-15
1.04212e-15
1e-15
1e-15
1e-15
1e-15
1e-15
1e-15
1e-15
1e-15
1e-15
1e-15
1e-15
1e-15
1e-15
1e-15
3.52564e-13
2.1658e-14
5.19e-15
2.34003e-15
1.43718e-15
1.04212e-15
1e-15
1e-15
1e-15
1e-15
1e-15
1e-15
1e-15
1e-15
1e-15
1e-15
1e-15
1e-15
1e-15
1e-15
3.52564e-13
2.1658e-14
5.19e-15
2.34003e-15
1.43718e-15
1.04212e-15
1e-15
1e-15
1e-15
1e-15
1e-15
1e-15
1e-15
1e-15
1e-15
1e-15
1e-15
1e-15
1e-15
1e-15
3.52564e-13
2.1658e-14
5.19e-15
2.34003e-15
1.43718e-15
1.04212e-15
1e-15
1e-15
1e-15
1e-15
1e-15
1e-15
1e-15
1e-15
1e-15
1e-15
1e-15
1e-15
1e-15
1e-15
3.52564e-13
2.1658e-14
5.19e-15
2.34003e-15
1.43718e-15
1.04212e-15
1e-15
1e-15
1e-15
1e-15
1e-15
1e-15
1e-15
1e-15
1e-15
1e-15
1e-15
1e-15
1e-15
1e-15
3.52564e-13
2.1658e-14
5.19e-15
2.34003e-15
1.43718e-15
1.04212e-15
1e-15
1e-15
1e-15
1e-15
1e-15
1e-15
1e-15
1e-15
1e-15
1e-15
1e-15
1e-15
1e-15
1e-15
3.52564e-13
2.1658e-14
5.19e-15
2.34003e-15
1.43718e-15
1.04212e-15
1e-15
1e-15
1e-15
1e-15
1e-15
1e-15
1e-15
1e-15
1e-15
1e-15
1e-15
1e-15
1e-15
1e-15
3.52564e-13
2.1658e-14
5.19e-15
2.34003e-15
1.43718e-15
1.04212e-15
1e-15
1e-15
1e-15
1e-15
1e-15
1e-15
1e-15
1e-15
1e-15
1e-15
1e-15
1e-15
1e-15
1e-15
3.52564e-13
2.1658e-14
5.19e-15
2.34003e-15
1.43718e-15
1.04212e-15
1e-15
1e-15
1e-15
1e-15
1e-15
1e-15
1e-15
1e-15
1e-15
1e-15
1e-15
1e-15
1e-15
1e-15
3.52564e-13
2.1658e-14
5.19e-15
2.34003e-15
1.43718e-15
1.04212e-15
1e-15
1e-15
1e-15
1e-15
1e-15
1e-15
1e-15
1e-15
1e-15
1e-15
1e-15
1e-15
1e-15
1e-15
3.52564e-13
2.1658e-14
5.19e-15
2.34003e-15
1.43718e-15
1.04212e-15
1e-15
1e-15
1e-15
1e-15
1e-15
1e-15
1e-15
1e-15
1e-15
1e-15
1e-15
1e-15
1e-15
1e-15
3.52565e-13
2.16673e-14
5.22472e-15
2.40872e-15
1.5398e-15
1.17505e-15
1e-15
1e-15
1e-15
1e-15
1e-15
1e-15
1e-15
1e-15
1e-15
1e-15
1e-15
1e-15
1e-15
1e-15
2880.98
336.789
114.829
64.1079
43.9089
32.0551
24.9915
20.3863
17.2521
15.1667
13.8454
13.1443
12.983
13.1108
13.5328
13.8047
13.9189
13.8477
13.5931
13.2203
12.8007
12.3838
11.9437
11.5025
11.0741
10.67
10.2937
9.93462
9.59347
9.27249
8.96732
8.67843
8.40668
8.15232
7.91162
7.6832
7.46665
7.261
7.06614
6.88185
6.70781
6.5435
6.38748
6.23851
6.09494
5.95445
5.81755
5.6856
5.55845
5.43551
5.31629
5.2008
5.08883
4.97997
4.87414
4.77089
4.67064
4.57078
4.4731
4.33826
586.39
94.9299
20.8885
10.2392
6.81619
4.95218
3.88302
3.22585
2.82924
2.65613
2.72827
3.10807
3.6218
4.48241
5.35711
5.94507
6.27367
6.36589
6.29205
6.14083
5.95419
5.75075
5.53891
5.32659
5.11865
4.92284
4.74032
4.56908
4.40868
4.2559
4.10475
3.96161
3.82784
3.70264
3.58323
3.46942
3.36108
3.25842
3.16175
3.07087
2.9855
2.90493
2.82834
2.75525
2.68448
2.61386
2.54466
2.47821
2.41405
2.352
2.29205
2.23419
2.17819
2.12391
2.07133
2.02002
1.9704
1.92105
1.87622
1.80517
221.255
83.5466
20.6533
7.35542
4.0903
2.91138
2.48203
2.48886
2.87569
3.8261
5.81979
9.52024
14.4509
21.099
27.5306
31.8673
34.3321
35.1297
34.8174
34.0236
33.0017
31.8451
30.6482
29.4495
28.2721
27.1642
26.1315
25.1697
24.2741
23.4168
22.5557
21.7406
20.9808
20.2697
19.5898
18.941
18.3224
17.7367
17.1868
16.6709
16.1875
15.7313
15.2976
14.8838
14.4825
14.0791
13.683
13.3033
12.9364
12.5816
12.2393
11.9094
11.5904
11.2816
10.9829
10.6913
10.4099
10.1302
9.88361
9.47135
107.393
72.6152
34.3543
15.9396
8.99149
6.56345
6.06652
6.86615
8.94232
13.1246
21.4012
36.4874
57.2916
84.4358
110.538
128.128
138.12
141.334
140.071
136.871
132.751
128.087
123.262
118.427
113.68
109.215
105.052
101.175
97.5671
94.1126
90.6406
87.3547
84.292
81.4261
78.6857
76.0706
73.5774
71.217
69.0009
66.9226
64.9752
63.1377
61.3907
59.7242
58.1079
56.4826
54.8871
53.3573
51.8793
50.4501
49.0716
47.7431
46.4585
45.2151
44.0124
42.8388
41.7059
40.5801
39.5889
37.928
56.7942
54.6193
40.8683
29.3539
20.4349
16.3348
15.9009
18.667
24.885
37.0778
60.9746
104.231
164.651
241.738
314.861
363.907
391.71
400.594
397.182
388.428
377.099
364.24
350.889
337.46
324.245
311.788
300.153
289.297
279.174
269.463
259.679
250.408
241.756
233.649
225.887
218.472
211.395
204.689
198.388
192.474
186.928
181.692
176.71
171.955
167.34
162.695
158.133
153.757
149.526
145.433
141.484
137.676
133.992
130.426
126.974
123.605
120.352
117.118
114.271
109.494
30.3808
38.4821
36.1657
36.3272
32.8412
31.0949
33.0841
40.6929
55.4571
83.6581
138.254
235.488
370.066
536.249
688.932
790.086
847.317
865.919
860.261
843.889
822.126
797.049
770.707
743.881
717.25
691.964
668.194
645.873
624.927
604.694
584.128
564.547
546.183
528.9
512.271
496.316
481.029
466.495
452.794
439.896
427.766
416.28
405.324
394.84
384.639
374.34
364.199
354.448
345.002
335.846
326.995
318.445
310.16
302.125
294.337
286.723
279.361
272.032
265.573
254.702
15.7654
26.4011
27.527
32.1825
39.7153
45.3869
53.4753
70.6725
99.9538
154.004
256.402
432.751
668.967
945.841
1187.6
1345.16
1433.96
1464.9
1460.92
1441.01
1412.58
1378.59
1342.03
1303.91
1265.42
1228.38
1193.16
1159.71
1127.93
1096.82
1064.61
1033.65
1004.34
976.511
949.47
923.29
898.009
873.804
850.837
829.086
808.504
788.9
770.095
752.003
734.299
716.301
698.475
681.253
664.486
648.164
632.32
616.953
602.004
587.45
573.294
559.403
545.926
532.466
520.581
500.424
7.71311
17.5391
19.8622
23.2737
33.1762
49.9407
73.1715
107.571
156.3
243.914
405.223
668.851
1003.37
1371.01
1673.25
1865.48
1972.32
2015.64
2021.1
2007.39
1982.8
1950.62
1914.36
1874.94
1834.06
1793.94
1755.19
1717.75
1681.58
1645.46
1607.11
1569.77
1533.97
1499.58
1465.7
1432.49
1400.07
1368.74
1338.76
1310.13
1282.81
1256.58
1231.22
1206.63
1182.37
1157.44
1132.54
1108.31
1084.54
1061.26
1038.52
1016.33
994.621
973.362
952.569
932.052
912.047
891.959
874.171
843.633
3.3471
11.1172
14.0267
16.0796
21.972
36.8356
67.3947
121.436
206.412
345.887
579.651
925.835
1329.91
1740.82
2057.89
2255.91
2368.34
2422.28
2440.16
2438.15
2424.07
2400.97
2372.52
2339.38
2303.67
2267.72
2232.24
2197.19
2162.59
2127.63
2091.12
2054.94
2019.72
1985.36
1950.9
1916.56
1882.58
1849.38
1817.3
1786.38
1756.62
1727.76
1699.6
1672.06
1644.61
1616.08
1587.33
1559.13
1531.24
1503.73
1476.69
1450.12
1423.95
1398.17
1372.8
1347.61
1322.91
1297.96
1275.81
1237.18
1.13504
6.62547
9.65173
11.2351
13.9186
21.5146
41.4325
89.7401
187.941
362.981
645.687
1039.72
1489.51
1915.42
2226.56
2422.7
2547.91
2622.88
2663.92
2683.58
2689.21
2683.79
2671.32
2652.18
2629.17
2604.62
2579.32
2553.18
2526.32
2498.22
2468.14
2437.56
2407.11
2376.81
2345.67
2313.98
2282.1
2250.55
2219.74
2189.75
2160.59
2132.02
2103.88
2076.1
2048.11
2019.29
1990.25
1961.52
1932.87
1904.39
1876.21
1848.34
1820.71
1793.32
1766.19
1739.1
1712.39
1685.25
1661.12
1618.25
0.275737
3.65624
6.38806
7.87791
9.20918
12.3683
21.0871
45.5
109.516
255.458
523.69
908.209
1354.48
1779.49
2094.42
2318.74
2479.3
2592.3
2670.45
2723.59
2759.22
2780.53
2792.1
2795.97
2794.14
2788.35
2779.71
2768.25
2754.44
2738.13
2718.96
2698.18
2676.51
2654.04
2629.86
2604.33
2577.97
2551.37
2524.99
2498.95
2473.29
2447.81
2422.38
2396.97
2371
2344.07
2316.71
2289.4
2261.9
2234.36
2206.92
2179.58
2152.31
2125.11
2098.01
2070.78
2043.8
2016.23
1991.75
1947.21
0.0438392
1.85873
4.00311
5.40566
6.30417
7.66069
11.0301
20.3275
46.9606
119.657
288.632
584.312
981.126
1398.25
1746.13
2007.9
2212.13
2371.41
2495.35
2590.3
2663.63
2718.6
2760.53
2792.1
2815.42
2832.29
2844.1
2850.98
2853.71
2852.53
2847.38
2839.39
2829.32
2817.4
2803.15
2786.56
2768.33
2749.16
2729.54
2709.7
2689.68
2669.34
2648.61
2627.48
2605.42
2582.18
2558.25
2534.05
2509.4
2484.47
2459.42
2434.26
2408.96
2383.56
2358.08
2332.29
2306.61
2280.2
2256.8
2213.02
0.00431849
0.839361
2.35106
3.56373
4.32283
5.05281
6.41183
9.76753
19.0709
45.184
114.058
264.121
527.804
879.658
1239.92
1552.17
1798.21
2003.15
2174.92
2315.63
2431.55
2524.96
2601.73
2664.85
2716.76
2759.36
2794.39
2822.42
2844.47
2861.07
2872.42
2879.52
2883.18
2883.78
2880.99
2874.83
2866.18
2855.82
2844.32
2831.96
2818.85
2804.89
2790.06
2774.41
2757.41
2739
2719.6
2699.63
2678.98
2657.78
2636.21
2614.32
2592.09
2569.57
2546.78
2523.51
2500.2
2476.03
2454.72
2413.38
0.000280251
0.301361
1.27165
2.22155
2.88449
3.38989
4.04899
5.33589
8.55988
17.1817
39.8211
93.0631
207.082
410.587
694.813
1011.09
1299.9
1545.94
1755.2
1936.98
2094.81
2228.32
2342.71
2440.17
2523.26
2593.95
2654.24
2705.28
2748.42
2784.43
2813.75
2837.34
2856.05
2870.38
2880.27
2885.87
2888.05
2887.65
2885.29
2881.35
2876.01
2869.25
2861.09
2851.64
2840.43
2827.53
2813.32
2798.2
2782.1
2765.19
2747.68
2729.63
2711.04
2691.96
2672.45
2652.3
2631.95
2610.65
2591.95
2554.06
1.86755e-05
0.077826
0.627207
1.2913
1.84312
2.23828
2.6328
3.21402
4.40375
7.28726
14.5105
31.1892
68.6628
147.18
291.788
515.551
782.994
1050.12
1293.7
1505.4
1692.69
1860.16
2009.51
2140.85
2255.93
2356.19
2443.47
2519.38
2585.23
2642.01
2690.47
2731.59
2766.28
2795.21
2818.63
2836.81
2850.59
2860.82
2868.22
2873.25
2876.2
2877.12
2876.08
2873.26
2868.35
2861.4
2852.79
2842.9
2831.71
2819.41
2806.26
2792.35
2777.69
2762.36
2746.43
2729.7
2712.61
2694.48
2678.65
2644.73
1.89518e-06
0.0127073
0.280623
0.69688
1.1132
1.42929
1.70085
2.01963
2.51998
3.54222
5.88626
11.0471
22.4806
47.5105
100.319
203.949
370.54
589.033
828.774
1059.33
1271.18
1459.98
1632.58
1791.04
1934.98
2063.85
2178.35
2279.95
2369.55
2448.22
2516.93
2576.63
2628.32
2672.79
2710.58
2742.09
2768.09
2789.5
2807.1
2821.5
2833.08
2841.99
2848.38
2852.47
2854.11
2853.34
2850.51
2846.03
2839.91
2832.38
2823.73
2814.08
2803.47
2792
2779.75
2766.58
2752.88
2738.05
2725.16
2695.43
1.62463e-07
0.00114688
0.107934
0.346818
0.629452
0.869526
1.06623
1.26794
1.52176
1.92985
2.72611
4.35153
7.77102
15.2158
31.9816
69.7645
143.263
265.135
437.011
641.121
854.472
1057.75
1246.94
1420.68
1583.12
1734.06
1872.93
1999.19
2112.52
2213.71
2303.56
2382.82
2452.51
2513.49
2566.52
2612.09
2650.99
2684.16
2712.48
2736.67
2757.27
2774.5
2788.6
2799.85
2808.22
2813.77
2816.85
2817.87
2816.92
2814.23
2810.13
2804.79
2798.26
2790.68
2782.14
2772.54
2762.24
2750.73
2740.75
2715.21
8.29597e-09
5.52665e-05
0.0309868
0.156189
0.328943
0.49994
0.640782
0.774693
0.924316
1.11902
1.42373
1.9621
2.98908
5.12819
9.99282
22.0832
49.3629
102.138
191.037
321.67
489.918
678.384
870.377
1054.58
1227.76
1389.83
1544.1
1689.12
1823.74
1946.61
2057.7
2157.1
2245.65
2324.11
2393.33
2453.84
2506.43
2552.1
2591.75
2626.27
2656.32
2682.25
2704.39
2723.07
2738.39
2750.44
2759.58
2766.23
2770.54
2772.78
2773.29
2772.29
2769.88
2766.19
2761.35
2755.3
2748.37
2740.14
2733
2711.56
2.95323e-10
1.87642e-06
0.00545761
0.0623972
0.157399
0.268476
0.366555
0.45483
0.548091
0.656277
0.79558
0.997734
1.3267
1.94212
3.27958
6.71823
15.523
35.431
73.7104
138.19
236.476
370.35
532.292
707.52
883.362
1053.13
1214.07
1367.84
1515.73
1655.39
1785.79
1904.67
2012.36
2108.99
2195.29
2271.67
2338.9
2397.95
2449.73
2495.27
2535.35
2570.47
2601.05
2627.53
2650.08
2668.87
2684.27
2696.73
2706.45
2713.73
2718.95
2722.35
2724.09
2724.32
2723.2
2720.69
2717.1
2712.13
2707.77
2690.29
1.1473e-11
7.87106e-08
0.00049402
0.0207143
0.0685025
0.133592
0.197607
0.254345
0.311895
0.375977
0.45012
0.54098
0.662946
0.854232
1.22252
2.13407
4.62819
11.094
25.5515
53.2156
100.353
173.621
278.184
412.829
568.289
732.537
895.854
1054.9
1206.84
1354.36
1496.68
1631.26
1756.85
1871.33
1975.15
2068.16
2151
2224.43
2289.3
2346.71
2397.58
2442.5
2482.07
2516.79
2546.97
2572.83
2594.78
2613.29
2628.63
2641.13
2651.2
2659.12
2665.09
2669.3
2671.93
2672.98
2672.75
2671.02
2669.41
2655.79
4.20305e-13
2.94088e-09
2.06931e-05
0.00486737
0.0265496
0.0606549
0.0997697
0.135476
0.169841
0.207402
0.249389
0.29647
0.350911
0.421002
0.531775
0.773443
1.42476
3.26564
7.93868
18.2824
38.2972
72.7696
127.309
207.769
316.896
451.037
600.588
756.196
910.094
1060.31
1205.6
1348.04
1485.12
1614.85
1735.39
1845.1
1944.18
2032.91
2111.88
2182.2
2244.77
2300.31
2349.55
2393.12
2431.42
2464.77
2493.65
2518.54
2539.78
2557.75
2572.86
2585.47
2595.81
2604.12
2610.58
2615.25
2618.41
2619.95
2621.11
2611.26
1.12103e-14
6.71583e-11
4.40236e-07
0.000643127
0.00879177
0.0249325
0.0466273
0.0679611
0.0879177
0.109169
0.132853
0.158743
0.186569
0.217622
0.257437
0.327745
0.496175
0.976401
2.30463
5.62113
12.9787
27.3201
52.4331
92.9919
154.253
241.016
353.806
487.213
631.776
779.768
926.711
1069.92
1210.07
1347.81
1480.07
1604.76
1719.72
1824.18
1918.08
2002.33
2077.66
2144.79
2204.57
2257.73
2304.79
2346.19
2382.46
2414.14
2441.64
2465.38
2485.82
2503.35
2518.26
2530.81
2541.24
2549.64
2556.28
2561.16
2565.11
2559.02
1.17829e-15
1.22632e-12
7.95217e-09
3.86927e-05
0.00220865
0.00911552
0.0198403
0.0320016
0.0433853
0.0549035
0.0677197
0.0818237
0.0967374
0.112292
0.129542
0.153982
0.201555
0.323927
0.66994
1.60929
3.94019
9.0805
19.228
37.4209
67.3767
113.798
181.802
274.676
390.437
522.459
663.01
804.783
945.306
1083.22
1219.59
1352.79
1480.12
1599.44
1708.28
1807.19
1896.26
1976.03
2047.37
2111.05
2167.66
2217.79
2262.05
2301.04
2335.24
2365.15
2391.25
2414
2433.72
2450.74
2465.32
2477.6
2487.85
2496.17
2503.01
2500.7
1e-15
2.20765e-14
1.42467e-10
9.49835e-07
0.000333706
0.00286928
0.00757942
0.0139158
0.0202051
0.0262811
0.0329022
0.0402977
0.0482048
0.0563036
0.06466
0.0747918
0.0907726
0.124046
0.211354
0.45606
1.11189
2.71029
6.23817
13.323
26.3081
48.3294
83.3477
136.114
210.952
309.259
427.523
558.143
694.22
831.215
966.593
1100.6
1233.2
1361.86
1483.81
1597.09
1700.37
1793.65
1877.63
1952.89
2020.01
2079.71
2132.69
2179.61
2221.06
2257.61
2289.8
2318.12
2342.98
2364.74
2383.7
2400.06
2414.1
2426.01
2435.87
2437.4
1e-15
1.25987e-15
1.77668e-12
1.13756e-08
2.31599e-05
0.00069794
0.00256489
0.00548855
0.00881441
0.0119948
0.0152807
0.0189639
0.0229855
0.0271381
0.0313075
0.0359294
0.0422691
0.0527909
0.0758354
0.137295
0.307255
0.751687
1.82422
4.20136
9.05024
18.2122
34.256
60.4748
100.962
160.413
242.276
345.615
465.205
594.367
726.525
859.162
990.496
1121.21
1249.97
1373.81
1490.42
1597.34
1694.75
1782.59
1861.3
1931.58
1994.18
2049.81
2099.18
2142.95
2181.72
2216.06
2246.43
2273.26
2296.9
2317.59
2335.64
2351.33
2364.37
2369.78
1e-15
1e-15
1.90289e-14
1.14677e-10
6.04671e-07
0.000103672
0.00074196
0.00192841
0.00354529
0.0051654
0.00675817
0.008508
0.0104558
0.012507
0.0145639
0.0167254
0.0194596
0.0233548
0.0302423
0.0461272
0.0883484
0.20242
0.496159
1.19921
2.7656
6.03903
12.4096
23.92
43.3036
74.1345
120.856
187.613
276.09
383.692
504.08
631.115
760.188
888.783
1017.13
1144.65
1269.21
1387.85
1498.49
1599.47
1690.66
1772.61
1845.89
1911.17
1969.28
2020.98
2066.94
2107.82
2144.16
2176.46
2205.11
2230.45
2252.76
2272.47
2288.93
2298.23
1e-15
1e-15
1.13883e-15
9.8455e-13
6.1288e-09
6.90363e-06
0.000163424
0.000594202
0.0012799
0.00207896
0.00285305
0.00365503
0.00454918
0.00551288
0.00649395
0.00749431
0.00868666
0.0102565
0.0126348
0.0171692
0.0277811
0.0557246
0.13014
0.318696
0.768696
1.78758
3.962
8.30279
16.4004
30.5491
53.8284
90.0755
143.678
218.007
312.727
423.512
544.309
668.85
794.737
920.118
1045.74
1170.01
1290.14
1403.47
1507.4
1601.87
1686.88
1762.88
1830.72
1891.21
1945.12
1993.16
2036.02
2074.26
2108.35
2138.68
2165.58
2189.58
2209.71
2222.97
1e-15
1e-15
1e-15
7.52434e-15
3.95608e-11
1.59736e-07
2.1114e-05
0.000153672
0.000407617
0.000766327
0.00113352
0.00149556
0.00188878
0.00232006
0.0027701
0.00322361
0.00373211
0.00437504
0.00527362
0.00674334
0.00961797
0.0164484
0.0343619
0.0812456
0.199184
0.48365
1.13621
2.54933
5.44446
11.0393
21.2107
38.526
66.3485
108.854
170.102
251.945
352.257
465.239
585.129
707.575
830.179
953.434
1076.35