/*--------------------------------*- C++ -*----------------------------------*\
| =========                 |                                                 |
| \\      /  F ield         | OpenFOAM: The Open Source CFD Toolbox           |
|  \\    /   O peration     | Version:  v2012                                 |
|   \\  /    A nd           | Website:  www.openfoam.com                      |
|    \\/     M anipulation  |                                                 |
\*---------------------------------------------------------------------------*/
FoamFile
{
    version     2.0;
    format      ascii;
    class       volScalarField;
    location    "2000";
    object      nut;
}
// * * * * * * * * * * * * * * * * * * * * * * * * * * * * * * * * * * * * * //

dimensions      [0 2 -1 0 0 0 0];


internalField   nonuniform List<scalar> 
8000
(
8.35692e-21
7.1806e-21
6.42989e-21
5.94641e-21
5.63054e-21
6.36892e-21
7.82975e-21
9.0887e-21
1.01533e-20
1.10431e-20
1.17815e-20
1.2391e-20
1.28924e-20
1.3304e-20
1.3641e-20
1.39168e-20
5.30384e-18
7.96973e-14
9.68533e-10
8.65208e-07
9.15067e-21
7.61967e-21
6.60951e-21
6.03051e-21
5.68204e-21
6.37381e-21
7.8343e-21
9.09304e-21
1.01575e-20
1.10472e-20
1.17855e-20
1.23949e-20
1.28963e-20
1.33078e-20
1.36449e-20
1.39206e-20
2.77898e-18
3.46552e-14
3.33561e-10
4.55815e-07
9.20145e-21
7.76485e-21
6.7733e-21
6.1588e-21
5.77905e-21
6.38396e-21
7.84409e-21
9.1025e-21
1.01667e-20
1.10562e-20
1.17943e-20
1.24037e-20
1.2905e-20
1.33164e-20
1.36534e-20
1.3929e-20
1.0852e-18
1.18492e-14
1.03761e-10
2.55454e-07
9.20278e-21
7.94628e-21
6.96178e-21
6.32231e-21
5.91372e-21
6.3997e-21
7.85958e-21
9.11769e-21
1.01816e-20
1.10709e-20
1.18088e-20
1.2418e-20
1.29192e-20
1.33305e-20
1.36674e-20
1.3943e-20
3.97561e-19
4.17841e-15
3.80639e-11
1.75024e-07
9.20282e-21
8.35823e-21
7.22549e-21
6.51962e-21
6.07686e-21
6.4212e-21
7.8811e-21
9.13908e-21
1.02028e-20
1.10919e-20
1.18297e-20
1.24388e-20
1.29399e-20
1.33511e-20
1.36879e-20
1.39635e-20
1.63838e-19
1.74038e-15
1.71223e-11
1.30177e-07
9.20282e-21
8.48116e-21
7.4066e-21
6.70533e-21
6.25002e-21
6.44813e-21
7.90889e-21
9.16719e-21
1.0231e-20
1.11201e-20
1.18578e-20
1.24668e-20
1.29678e-20
1.3379e-20
1.37158e-20
1.39913e-20
8.07045e-20
8.24091e-16
8.47692e-12
6.87299e-08
9.20282e-21
8.50622e-21
7.62184e-21
6.90015e-21
6.43165e-21
6.48221e-21
7.94412e-21
9.20304e-21
1.02671e-20
1.11564e-20
1.18942e-20
1.25032e-20
1.30043e-20
1.34154e-20
1.37522e-20
1.40277e-20
4.5657e-20
4.03003e-16
4.21352e-12
3.47898e-08
9.20282e-21
8.51076e-21
7.84065e-21
7.10027e-21
6.61903e-21
6.52476e-21
7.98828e-21
9.24813e-21
1.03128e-20
1.12024e-20
1.19404e-20
1.25496e-20
1.30507e-20
1.34619e-20
1.37987e-20
1.40742e-20
2.88254e-20
1.90462e-16
1.99989e-12
1.66997e-08
9.20282e-21
8.51159e-21
7.94277e-21
7.299e-21
6.8085e-21
6.57784e-21
8.04351e-21
9.30466e-21
1.03701e-20
1.12603e-20
1.19986e-20
1.2608e-20
1.31093e-20
1.35206e-20
1.38575e-20
1.41331e-20
2.03799e-20
8.11847e-17
8.49243e-13
7.12584e-09
9.20282e-21
8.51176e-21
7.97851e-21
7.48143e-21
7.0004e-21
6.68782e-21
8.11307e-21
9.37586e-21
1.04424e-20
1.13332e-20
1.2072e-20
1.26817e-20
1.31832e-20
1.35947e-20
1.39317e-20
1.42073e-20
1.63193e-20
2.76726e-17
2.83141e-13
2.34318e-09
9.20282e-21
8.5118e-21
7.98948e-21
7.58009e-21
7.1871e-21
6.8571e-21
8.20153e-21
9.46615e-21
1.05338e-20
1.14254e-20
1.21647e-20
1.27748e-20
1.32765e-20
1.36882e-20
1.40253e-20
1.43011e-20
1.47978e-20
7.15917e-18
7.08103e-14
5.72317e-10
9.20282e-21
8.51182e-21
7.99268e-21
7.6207e-21
7.31125e-21
7.03052e-21
8.31335e-21
9.58077e-21
1.06498e-20
1.15422e-20
1.22821e-20
1.28926e-20
1.33946e-20
1.38065e-20
1.41438e-20
1.44196e-20
1.4645e-20
1.31558e-18
1.22225e-14
9.44262e-11
9.20282e-21
8.51182e-21
7.99361e-21
7.63531e-21
7.3701e-21
7.14866e-21
8.42774e-21
9.71888e-21
1.07958e-20
1.16905e-20
1.24311e-20
1.30419e-20
1.35442e-20
1.39562e-20
1.42937e-20
1.45697e-20
1.47951e-20
1.7492e-19
1.38919e-15
9.98268e-12
9.20282e-21
8.51182e-21
7.9939e-21
7.64027e-21
7.39349e-21
7.20625e-21
8.49967e-21
9.83239e-21
1.0942e-20
1.18574e-20
1.26095e-20
1.32264e-20
1.37317e-20
1.41453e-20
1.44835e-20
1.47599e-20
1.49856e-20
2.85492e-20
1.07562e-16
7.07779e-13
9.20282e-21
8.51182e-21
7.994e-21
7.64194e-21
7.40206e-21
7.22979e-21
8.53278e-21
9.89339e-21
1.10341e-20
1.1979e-20
1.27563e-20
1.33931e-20
1.39137e-20
1.43387e-20
1.46854e-20
1.4968e-20
1.51984e-20
1.60413e-20
7.17394e-18
4.67402e-14
9.20282e-21
8.51182e-21
7.99403e-21
7.64252e-21
7.40512e-21
7.23868e-21
8.5461e-21
9.91976e-21
1.10771e-20
1.20405e-20
1.28364e-20
1.34906e-20
1.40267e-20
1.44651e-20
1.48232e-20
1.51153e-20
1.53534e-20
1.55475e-20
6.02934e-19
4.28746e-15
9.20282e-21
8.51182e-21
7.99404e-21
7.64273e-21
7.40625e-21
7.24198e-21
8.55126e-21
9.93026e-21
1.10949e-20
1.20668e-20
1.28717e-20
1.3535e-20
1.40797e-20
1.4526e-20
1.4891e-20
1.51892e-20
1.54327e-20
1.56312e-20
6.40083e-20
3.65625e-16
9.20282e-21
8.51182e-21
7.99405e-21
7.64282e-21
7.40667e-21
7.24323e-21
8.55328e-21
9.9344e-21
1.11019e-20
1.20773e-20
1.28861e-20
1.35533e-20
1.41019e-20
1.45517e-20
1.492e-20
1.5221e-20
1.54669e-20
1.56676e-20
1.83468e-20
1.98671e-17
9.20282e-21
8.51182e-21
7.99405e-21
7.64285e-21
7.40684e-21
7.24373e-21
8.5541e-21
9.93608e-21
1.11048e-20
1.20816e-20
1.28919e-20
1.35608e-20
1.41109e-20
1.45622e-20
1.49318e-20
1.52341e-20
1.54811e-20
1.56827e-20
1.58472e-20
7.64592e-19
9.20282e-21
8.51182e-21
7.99405e-21
7.64286e-21
7.40691e-21
7.24393e-21
8.55444e-21
9.93677e-21
1.1106e-20
1.20834e-20
1.28943e-20
1.35639e-20
1.41146e-20
1.45666e-20
1.49368e-20
1.52396e-20
1.5487e-20
1.56889e-20
1.58537e-20
4.38132e-20
9.20282e-21
8.51182e-21
7.99405e-21
7.64287e-21
7.40694e-21
7.24402e-21
8.55459e-21
9.93707e-21
1.11065e-20
1.20841e-20
1.28954e-20
1.35652e-20
1.41162e-20
1.45684e-20
1.49389e-20
1.52419e-20
1.54895e-20
1.56916e-20
1.58565e-20
1.67598e-20
9.20282e-21
8.51182e-21
7.99405e-21
7.64287e-21
7.40696e-21
7.24406e-21
8.55465e-21
9.9372e-21
1.11067e-20
1.20845e-20
1.28958e-20
1.35658e-20
1.41169e-20
1.45693e-20
1.49398e-20
1.52429e-20
1.54905e-20
1.56928e-20
1.58578e-20
1.59923e-20
9.20282e-21
8.51182e-21
7.99405e-21
7.64287e-21
7.40696e-21
7.24407e-21
8.55468e-21
9.93726e-21
1.11068e-20
1.20846e-20
1.2896e-20
1.3566e-20
1.41172e-20
1.45696e-20
1.49402e-20
1.52433e-20
1.5491e-20
1.56933e-20
1.58583e-20
1.59929e-20
9.20282e-21
8.51182e-21
7.99405e-21
7.64287e-21
7.40696e-21
7.24408e-21
8.55469e-21
9.93729e-21
1.11068e-20
1.20847e-20
1.28961e-20
1.35661e-20
1.41174e-20
1.45698e-20
1.49404e-20
1.52435e-20
1.54913e-20
1.56935e-20
1.58585e-20
1.59931e-20
9.20282e-21
8.51182e-21
7.99405e-21
7.64287e-21
7.40697e-21
7.24408e-21
8.5547e-21
9.9373e-21
1.11068e-20
1.20847e-20
1.28962e-20
1.35662e-20
1.41175e-20
1.45699e-20
1.49405e-20
1.52436e-20
1.54914e-20
1.56936e-20
1.58587e-20
1.59933e-20
9.20282e-21
8.51182e-21
7.99405e-21
7.64287e-21
7.40697e-21
7.24409e-21
8.5547e-21
9.93731e-21
1.11069e-20
1.20847e-20
1.28962e-20
1.35662e-20
1.41175e-20
1.45699e-20
1.49405e-20
1.52437e-20
1.54914e-20
1.56937e-20
1.58587e-20
1.59933e-20
9.20282e-21
8.51182e-21
7.99405e-21
7.64287e-21
7.40697e-21
7.24409e-21
8.5547e-21
9.93731e-21
1.11069e-20
1.20847e-20
1.28962e-20
1.35662e-20
1.41175e-20
1.45699e-20
1.49405e-20
1.52437e-20
1.54914e-20
1.56937e-20
1.58587e-20
1.59933e-20
9.20282e-21
8.51182e-21
7.99405e-21
7.64287e-21
7.40697e-21
7.24409e-21
8.5547e-21
9.93731e-21
1.11069e-20
1.20847e-20
1.28962e-20
1.35662e-20
1.41175e-20
1.45699e-20
1.49405e-20
1.52437e-20
1.54914e-20
1.56937e-20
1.58588e-20
1.59934e-20
9.20282e-21
8.51182e-21
7.99405e-21
7.64287e-21
7.40697e-21
7.24409e-21
8.5547e-21
9.93731e-21
1.11069e-20
1.20847e-20
1.28962e-20
1.35662e-20
1.41175e-20
1.45699e-20
1.49405e-20
1.52437e-20
1.54914e-20
1.56937e-20
1.58588e-20
1.59934e-20
9.20282e-21
8.51182e-21
7.99405e-21
7.64287e-21
7.40697e-21
7.24409e-21
8.5547e-21
9.93731e-21
1.11069e-20
1.20847e-20
1.28962e-20
1.35662e-20
1.41175e-20
1.45699e-20
1.49405e-20
1.52437e-20
1.54914e-20
1.56937e-20
1.58588e-20
1.59934e-20
9.20282e-21
8.51182e-21
7.99405e-21
7.64287e-21
7.40697e-21
7.24409e-21
8.5547e-21
9.93731e-21
1.11069e-20
1.20847e-20
1.28962e-20
1.35662e-20
1.41175e-20
1.45699e-20
1.49405e-20
1.52437e-20
1.54914e-20
1.56937e-20
1.58588e-20
1.59934e-20
9.20282e-21
8.51182e-21
7.99405e-21
7.64287e-21
7.40697e-21
7.24409e-21
8.5547e-21
9.93731e-21
1.11069e-20
1.20847e-20
1.28962e-20
1.35662e-20
1.41175e-20
1.45699e-20
1.49405e-20
1.52437e-20
1.54915e-20
1.56937e-20
1.58588e-20
1.59934e-20
9.20282e-21
8.51182e-21
7.99405e-21
7.64287e-21
7.40697e-21
7.24409e-21
8.5547e-21
9.93731e-21
1.11069e-20
1.20847e-20
1.28962e-20
1.35662e-20
1.41175e-20
1.45699e-20
1.49405e-20
1.52437e-20
1.54915e-20
1.56937e-20
1.58588e-20
1.59934e-20
9.20282e-21
8.51182e-21
7.99405e-21
7.64287e-21
7.40697e-21
7.24409e-21
8.5547e-21
9.93731e-21
1.11069e-20
1.20847e-20
1.28962e-20
1.35662e-20
1.41175e-20
1.45699e-20
1.49405e-20
1.52437e-20
1.54915e-20
1.56937e-20
1.58588e-20
1.59934e-20
9.20282e-21
8.51182e-21
7.99405e-21
7.64287e-21
7.40697e-21
7.24409e-21
8.5547e-21
9.93731e-21
1.11069e-20
1.20847e-20
1.28962e-20
1.35662e-20
1.41175e-20
1.45699e-20
1.49405e-20
1.52437e-20
1.54915e-20
1.56937e-20
1.58588e-20
1.59934e-20
9.20282e-21
8.51182e-21
7.99405e-21
7.64287e-21
7.40697e-21
7.24409e-21
8.5547e-21
9.93731e-21
1.11069e-20
1.20847e-20
1.28962e-20
1.35662e-20
1.41175e-20
1.45699e-20
1.49405e-20
1.52437e-20
1.54915e-20
1.56937e-20
1.58588e-20
1.59934e-20
9.20282e-21
8.51182e-21
7.99405e-21
7.64287e-21
7.40697e-21
7.24409e-21
8.5547e-21
9.93731e-21
1.11069e-20
1.20847e-20
1.28962e-20
1.35662e-20
1.41175e-20
1.45699e-20
1.49405e-20
1.52437e-20
1.54915e-20
1.56937e-20
1.58588e-20
1.59934e-20
9.20282e-21
8.51182e-21
7.99405e-21
7.64287e-21
7.40697e-21
7.24409e-21
8.5547e-21
9.93731e-21
1.11069e-20
1.20847e-20
1.28962e-20
1.35662e-20
1.41175e-20
1.45699e-20
1.49405e-20
1.52437e-20
1.54915e-20
1.56937e-20
1.58588e-20
1.59934e-20
9.20282e-21
8.51182e-21
7.99405e-21
7.64287e-21
7.40697e-21
7.24409e-21
8.5547e-21
9.93731e-21
1.11069e-20
1.20847e-20
1.28962e-20
1.35662e-20
1.41175e-20
1.45699e-20
1.49405e-20
1.52437e-20
1.54915e-20
1.56937e-20
1.58588e-20
1.59934e-20
9.20282e-21
8.51182e-21
7.99405e-21
7.64287e-21
7.40697e-21
7.24409e-21
8.5547e-21
9.93731e-21
1.11069e-20
1.20847e-20
1.28962e-20
1.35662e-20
1.41175e-20
1.45699e-20
1.49405e-20
1.52437e-20
1.54915e-20
1.56937e-20
1.58588e-20
1.59934e-20
9.20282e-21
8.51182e-21
7.99405e-21
7.64287e-21
7.40697e-21
7.24409e-21
8.5547e-21
9.93731e-21
1.11069e-20
1.20847e-20
1.28962e-20
1.35662e-20
1.41175e-20
1.45699e-20
1.49405e-20
1.52437e-20
1.54915e-20
1.56937e-20
1.58588e-20
1.59934e-20
9.20282e-21
8.51182e-21
7.99405e-21
7.64287e-21
7.40697e-21
7.24409e-21
8.5547e-21
9.93731e-21
1.11069e-20
1.20847e-20
1.28962e-20
1.35662e-20
1.41175e-20
1.45699e-20
1.49405e-20
1.52437e-20
1.54915e-20
1.56937e-20
1.58588e-20
1.59934e-20
9.20282e-21
8.51182e-21
7.99405e-21
7.64287e-21
7.40697e-21
7.24409e-21
8.5547e-21
9.93731e-21
1.11069e-20
1.20847e-20
1.28962e-20
1.35662e-20
1.41175e-20
1.45699e-20
1.49405e-20
1.52437e-20
1.54915e-20
1.56937e-20
1.58588e-20
1.59934e-20
9.20282e-21
8.51182e-21
7.99405e-21
7.64287e-21
7.40697e-21
7.24409e-21
8.5547e-21
9.93731e-21
1.11069e-20
1.20847e-20
1.28962e-20
1.35662e-20
1.41175e-20
1.45699e-20
1.49405e-20
1.52437e-20
1.54915e-20
1.56937e-20
1.58588e-20
1.59934e-20
9.20282e-21
8.51182e-21
7.99405e-21
7.64287e-21
7.40697e-21
7.24409e-21
8.5547e-21
9.93731e-21
1.11069e-20
1.20847e-20
1.28962e-20
1.35662e-20
1.41175e-20
1.45699e-20
1.49405e-20
1.52437e-20
1.54915e-20
1.56937e-20
1.58588e-20
1.59934e-20
9.20282e-21
8.51182e-21
7.99405e-21
7.64287e-21
7.40697e-21
7.24409e-21
8.5547e-21
9.93731e-21
1.11069e-20
1.20847e-20
1.28962e-20
1.35662e-20
1.41175e-20
1.45699e-20
1.49405e-20
1.52437e-20
1.54915e-20
1.56937e-20
1.58588e-20
1.59934e-20
9.20282e-21
8.51182e-21
7.99405e-21
7.64287e-21
7.40697e-21
7.24409e-21
8.5547e-21
9.93731e-21
1.11069e-20
1.20847e-20
1.28962e-20
1.35662e-20
1.41175e-20
1.45699e-20
1.49405e-20
1.52437e-20
1.54915e-20
1.56937e-20
1.58588e-20
1.59934e-20
9.20282e-21
8.51182e-21
7.99405e-21
7.64287e-21
7.40697e-21
7.24409e-21
8.5547e-21
9.93731e-21
1.11069e-20
1.20847e-20
1.28962e-20
1.35662e-20
1.41175e-20
1.45699e-20
1.49405e-20
1.52437e-20
1.54915e-20
1.56937e-20
1.58588e-20
1.59934e-20
9.20282e-21
8.51182e-21
7.99405e-21
7.64287e-21
7.40697e-21
7.24409e-21
8.5547e-21
9.93731e-21
1.11069e-20
1.20847e-20
1.28962e-20
1.35662e-20
1.41175e-20
1.45699e-20
1.49405e-20
1.52437e-20
1.54915e-20
1.56937e-20
1.58588e-20
1.59934e-20
9.20282e-21
8.51182e-21
7.99405e-21
7.64287e-21
7.40697e-21
7.24409e-21
8.5547e-21
9.93731e-21
1.11069e-20
1.20847e-20
1.28962e-20
1.35662e-20
1.41175e-20
1.45699e-20
1.49405e-20
1.52437e-20
1.54915e-20
1.56937e-20
1.58588e-20
1.59934e-20
9.20282e-21
8.51182e-21
7.99405e-21
7.64287e-21
7.40697e-21
7.24409e-21
8.5547e-21
9.93731e-21
1.11069e-20
1.20847e-20
1.28962e-20
1.35662e-20
1.41175e-20
1.45699e-20
1.49405e-20
1.52437e-20
1.54915e-20
1.56937e-20
1.58588e-20
1.59934e-20
9.20282e-21
8.51182e-21
7.99405e-21
7.64287e-21
7.40697e-21
7.24409e-21
8.5547e-21
9.93731e-21
1.11069e-20
1.20847e-20
1.28962e-20
1.35662e-20
1.41175e-20
1.45699e-20
1.49405e-20
1.52437e-20
1.54915e-20
1.56937e-20
1.58588e-20
1.59934e-20
9.20282e-21
8.51182e-21
7.99405e-21
7.64287e-21
7.40697e-21
7.24409e-21
8.5547e-21
9.93731e-21
1.11069e-20
1.20847e-20
1.28962e-20
1.35662e-20
1.41175e-20
1.45699e-20
1.49405e-20
1.52437e-20
1.54915e-20
1.56937e-20
1.58588e-20
1.59934e-20
9.20282e-21
8.51182e-21
7.99405e-21
7.64287e-21
7.40697e-21
7.24409e-21
8.5547e-21
9.93731e-21
1.11069e-20
1.20847e-20
1.28962e-20
1.35662e-20
1.41175e-20
1.45699e-20
1.49405e-20
1.52437e-20
1.54915e-20
1.56937e-20
1.58588e-20
1.59934e-20
9.20282e-21
8.51182e-21
7.99405e-21
7.64287e-21
7.40697e-21
7.24409e-21
8.5547e-21
9.93731e-21
1.11069e-20
1.20847e-20
1.28962e-20
1.35662e-20
1.41175e-20
1.45699e-20
1.49405e-20
1.52437e-20
1.54915e-20
1.56937e-20
1.58588e-20
1.59934e-20
9.20282e-21
8.51182e-21
7.99405e-21
7.64287e-21
7.40697e-21
7.24409e-21
8.5547e-21
9.93731e-21
1.11069e-20
1.20847e-20
1.28962e-20
1.35662e-20
1.41175e-20
1.45699e-20
1.49405e-20
1.52437e-20
1.54915e-20
1.56937e-20
1.58588e-20
1.59934e-20
9.20282e-21
8.51182e-21
7.99405e-21
7.64287e-21
7.40697e-21
7.24409e-21
8.5547e-21
9.93731e-21
1.11069e-20
1.20847e-20
1.28962e-20
1.35662e-20
1.41175e-20
1.45699e-20
1.49405e-20
1.52437e-20
1.54915e-20
1.56937e-20
1.58588e-20
1.59934e-20
9.20282e-21
8.51182e-21
7.99405e-21
7.64287e-21
7.40697e-21
7.24409e-21
8.5547e-21
9.93731e-21
1.11069e-20
1.20847e-20
1.28962e-20
1.35662e-20
1.41175e-20
1.45699e-20
1.49405e-20
1.52437e-20
1.54915e-20
1.56937e-20
1.58588e-20
1.59934e-20
9.20282e-21
8.51182e-21
7.99405e-21
7.64287e-21
7.40697e-21
7.24409e-21
8.5547e-21
9.93731e-21
1.11069e-20
1.20847e-20
1.28962e-20
1.35662e-20
1.41175e-20
1.45699e-20
1.49405e-20
1.52437e-20
1.54915e-20
1.56937e-20
1.58588e-20
1.59934e-20
9.20282e-21
8.51182e-21
7.99405e-21
7.64287e-21
7.40697e-21
7.24409e-21
8.5547e-21
9.93731e-21
1.11069e-20
1.20847e-20
1.28962e-20
1.35662e-20
1.41175e-20
1.45699e-20
1.49405e-20
1.52437e-20
1.54915e-20
1.56937e-20
1.58588e-20
1.59934e-20
9.20282e-21
8.51182e-21
7.99405e-21
7.64287e-21
7.40697e-21
7.24409e-21
8.5547e-21
9.93731e-21
1.11069e-20
1.20847e-20
1.28962e-20
1.35662e-20
1.41175e-20
1.45699e-20
1.49405e-20
1.52437e-20
1.54915e-20
1.56937e-20
1.58588e-20
1.59934e-20
9.20282e-21
8.51182e-21
7.99405e-21
7.64287e-21
7.40697e-21
7.24409e-21
8.5547e-21
9.93731e-21
1.11069e-20
1.20847e-20
1.28962e-20
1.35662e-20
1.41175e-20
1.45699e-20
1.49405e-20
1.52437e-20
1.54915e-20
1.56937e-20
1.58588e-20
1.59934e-20
9.20282e-21
8.51182e-21
7.99405e-21
7.64287e-21
7.40697e-21
7.24409e-21
8.5547e-21
9.93731e-21
1.11069e-20
1.20847e-20
1.28962e-20
1.35662e-20
1.41175e-20
1.45699e-20
1.49405e-20
1.52437e-20
1.54915e-20
1.56937e-20
1.58588e-20
1.59934e-20
9.20282e-21
8.51182e-21
7.99405e-21
7.64287e-21
7.40697e-21
7.24408e-21
8.5547e-21
9.93731e-21
1.11069e-20
1.20847e-20
1.28962e-20
1.35662e-20
1.41175e-20
1.45699e-20
1.49405e-20
1.52437e-20
1.54915e-20
1.56937e-20
1.58588e-20
1.59934e-20
9.20282e-21
8.51182e-21
7.99405e-21
7.64287e-21
7.40697e-21
7.24408e-21
8.5547e-21
9.93731e-21
1.11069e-20
1.20847e-20
1.28962e-20
1.35662e-20
1.41175e-20
1.45699e-20
1.49405e-20
1.52437e-20
1.54915e-20
1.56937e-20
1.58588e-20
1.59934e-20
9.20282e-21
8.51182e-21
7.99405e-21
7.64287e-21
7.40697e-21
7.24408e-21
8.5547e-21
9.93731e-21
1.11069e-20
1.20847e-20
1.28962e-20
1.35662e-20
1.41175e-20
1.45699e-20
1.49405e-20
1.52437e-20
1.54915e-20
1.56937e-20
1.58588e-20
1.59934e-20
9.20282e-21
8.51182e-21
7.99405e-21
7.64287e-21
7.40697e-21
7.24408e-21
8.5547e-21
9.93731e-21
1.11069e-20
1.20847e-20
1.28962e-20
1.35662e-20
1.41175e-20
1.45699e-20
1.49405e-20
1.52437e-20
1.54915e-20
1.56937e-20
1.58588e-20
1.59934e-20
9.20282e-21
8.51182e-21
7.99405e-21
7.64287e-21
7.40697e-21
7.24408e-21
8.5547e-21
9.93731e-21
1.11069e-20
1.20847e-20
1.28962e-20
1.35662e-20
1.41175e-20
1.45699e-20
1.49405e-20
1.52437e-20
1.54915e-20
1.56937e-20
1.58588e-20
1.59934e-20
9.20282e-21
8.51182e-21
7.99405e-21
7.64287e-21
7.40697e-21
7.24408e-21
8.5547e-21
9.93731e-21
1.11069e-20
1.20847e-20
1.28962e-20
1.35662e-20
1.41175e-20
1.45699e-20
1.49405e-20
1.52437e-20
1.54915e-20
1.56937e-20
1.58588e-20
1.59934e-20
9.20282e-21
8.51182e-21
7.99405e-21
7.64287e-21
7.40697e-21
7.24408e-21
8.5547e-21
9.93731e-21
1.11069e-20
1.20847e-20
1.28962e-20
1.35662e-20
1.41175e-20
1.45699e-20
1.49405e-20
1.52437e-20
1.54915e-20
1.56937e-20
1.58588e-20
1.59934e-20
9.20282e-21
8.51182e-21
7.99405e-21
7.64287e-21
7.40697e-21
7.24408e-21
8.5547e-21
9.93731e-21
1.11069e-20
1.20847e-20
1.28962e-20
1.35662e-20
1.41175e-20
1.45699e-20
1.49405e-20
1.52437e-20
1.54915e-20
1.56937e-20
1.58588e-20
1.59934e-20
9.20282e-21
8.51182e-21
7.99405e-21
7.64287e-21
7.40697e-21
7.24408e-21
8.5547e-21
9.93731e-21
1.11069e-20
1.20847e-20
1.28962e-20
1.35662e-20
1.41175e-20
1.45699e-20
1.49405e-20
1.52437e-20
1.54915e-20
1.56937e-20
1.58588e-20
1.59934e-20
9.20282e-21
8.51182e-21
7.99405e-21
7.64287e-21
7.40697e-21
7.24408e-21
8.5547e-21
9.93731e-21
1.11069e-20
1.20847e-20
1.28962e-20
1.35662e-20
1.41175e-20
1.45699e-20
1.49405e-20
1.52437e-20
1.54915e-20
1.56937e-20
1.58588e-20
1.59934e-20
9.20282e-21
8.51182e-21
7.99405e-21
7.64287e-21
7.40697e-21
7.24408e-21
8.5547e-21
9.93731e-21
1.11069e-20
1.20847e-20
1.28962e-20
1.35662e-20
1.41175e-20
1.45699e-20
1.49405e-20
1.52437e-20
1.54915e-20
1.56937e-20
1.58588e-20
1.59934e-20
9.20282e-21
8.51182e-21
7.99405e-21
7.64287e-21
7.40697e-21
7.24408e-21
8.5547e-21
9.93731e-21
1.11069e-20
1.20847e-20
1.28962e-20
1.35662e-20
1.41175e-20
1.45699e-20
1.49405e-20
1.52437e-20
1.54915e-20
1.56937e-20
1.58588e-20
1.59934e-20
9.20282e-21
8.51182e-21
7.99405e-21
7.64287e-21
7.40697e-21
7.24408e-21
8.5547e-21
9.93731e-21
1.11069e-20
1.20847e-20
1.28962e-20
1.35662e-20
1.41175e-20
1.45699e-20
1.49405e-20
1.52437e-20
1.54915e-20
1.56937e-20
1.58588e-20
1.59934e-20
9.20282e-21
8.51182e-21
7.99405e-21
7.64287e-21
7.40697e-21
7.24408e-21
8.5547e-21
9.93731e-21
1.11069e-20
1.20847e-20
1.28962e-20
1.35662e-20
1.41175e-20
1.45699e-20
1.49405e-20
1.52437e-20
1.54915e-20
1.56937e-20
1.58588e-20
1.59934e-20
9.20282e-21
8.51182e-21
7.99405e-21
7.64287e-21
7.40697e-21
7.24408e-21
8.5547e-21
9.93731e-21
1.11069e-20
1.20847e-20
1.28962e-20
1.35662e-20
1.41175e-20
1.45699e-20
1.49405e-20
1.52437e-20
1.54915e-20
1.56937e-20
1.58588e-20
1.59934e-20
9.20282e-21
8.51182e-21
7.99405e-21
7.64287e-21
7.40697e-21
7.24408e-21
8.5547e-21
9.93731e-21
1.11069e-20
1.20847e-20
1.28962e-20
1.35662e-20
1.41175e-20
1.45699e-20
1.49405e-20
1.52437e-20
1.54915e-20
1.56937e-20
1.58588e-20
1.59934e-20
9.20282e-21
8.51182e-21
7.99405e-21
7.64287e-21
7.40697e-21
7.24408e-21
8.5547e-21
9.93731e-21
1.11069e-20
1.20847e-20
1.28962e-20
1.35662e-20
1.41175e-20
1.45699e-20
1.49405e-20
1.52437e-20
1.54915e-20
1.56937e-20
1.58588e-20
1.59934e-20
9.20282e-21
8.51182e-21
7.99405e-21
7.64287e-21
7.40697e-21
7.24408e-21
8.5547e-21
9.93731e-21
1.11069e-20
1.20847e-20
1.28962e-20
1.35662e-20
1.41175e-20
1.45699e-20
1.49405e-20
1.52437e-20
1.54915e-20
1.56937e-20
1.58588e-20
1.59934e-20
9.20282e-21
8.51182e-21
7.99405e-21
7.64287e-21
7.40697e-21
7.24408e-21
8.5547e-21
9.93731e-21
1.11069e-20
1.20847e-20
1.28962e-20
1.35662e-20
1.41175e-20
1.45699e-20
1.49405e-20
1.52437e-20
1.54915e-20
1.56937e-20
1.58588e-20
1.59934e-20
9.20282e-21
8.51182e-21
7.99405e-21
7.64287e-21
7.40697e-21
7.24408e-21
8.5547e-21
9.93731e-21
1.11069e-20
1.20847e-20
1.28962e-20
1.35662e-20
1.41175e-20
1.45699e-20
1.49405e-20
1.52437e-20
1.54915e-20
1.56937e-20
1.58588e-20
1.59934e-20
9.20282e-21
8.51182e-21
7.99405e-21
7.64287e-21
7.40697e-21
7.24408e-21
8.5547e-21
9.93731e-21
1.11069e-20
1.20847e-20
1.28962e-20
1.35662e-20
1.41175e-20
1.45699e-20
1.49405e-20
1.52437e-20
1.54915e-20
1.56937e-20
1.58588e-20
1.59934e-20
9.20282e-21
8.51182e-21
7.99405e-21
7.64287e-21
7.40697e-21
7.24408e-21
8.5547e-21
9.93731e-21
1.11069e-20
1.20847e-20
1.28962e-20
1.35662e-20
1.41175e-20
1.45699e-20
1.49405e-20
1.52437e-20
1.54915e-20
1.56937e-20
1.58588e-20
1.59934e-20
9.20282e-21
8.51182e-21
7.99405e-21
7.64287e-21
7.40697e-21
7.24408e-21
8.5547e-21
9.93731e-21
1.11069e-20
1.20847e-20
1.28962e-20
1.35662e-20
1.41175e-20
1.45699e-20
1.49405e-20
1.52437e-20
1.54915e-20
1.56937e-20
1.58588e-20
1.59934e-20
9.20282e-21
8.51182e-21
7.99405e-21
7.64287e-21
7.40697e-21
7.24408e-21
8.5547e-21
9.93731e-21
1.11069e-20
1.20847e-20
1.28962e-20
1.35662e-20
1.41175e-20
1.45699e-20
1.49405e-20
1.52437e-20
1.54915e-20
1.56937e-20
1.58588e-20
1.59934e-20
9.20282e-21
8.51182e-21
7.99405e-21
7.64287e-21
7.40697e-21
7.24408e-21
8.5547e-21
9.93731e-21
1.11069e-20
1.20847e-20
1.28962e-20
1.35662e-20
1.41175e-20
1.45699e-20
1.49405e-20
1.52437e-20
1.54915e-20
1.56937e-20
1.58588e-20
1.59934e-20
9.20282e-21
8.51182e-21
7.99405e-21
7.64287e-21
7.40697e-21
7.24408e-21
8.5547e-21
9.93731e-21
1.11069e-20
1.20847e-20
1.28962e-20
1.35662e-20
1.41175e-20
1.45699e-20
1.49405e-20
1.52437e-20
1.54915e-20
1.56937e-20
1.58588e-20
1.59934e-20
9.20282e-21
8.51182e-21
7.99405e-21
7.64287e-21
7.40697e-21
7.24408e-21
8.5547e-21
9.93731e-21
1.11069e-20
1.20847e-20
1.28962e-20
1.35662e-20
1.41175e-20
1.45699e-20
1.49405e-20
1.52437e-20
1.54915e-20
1.56937e-20
1.58588e-20
1.59934e-20
9.20282e-21
8.51182e-21
7.99405e-21
7.64287e-21
7.40697e-21
7.24408e-21
8.5547e-21
9.93731e-21
1.11069e-20
1.20847e-20
1.28962e-20
1.35662e-20
1.41175e-20
1.45699e-20
1.49405e-20
1.52437e-20
1.54915e-20
1.56937e-20
1.58588e-20
1.59934e-20
9.20282e-21
8.51182e-21
7.99405e-21
7.64287e-21
7.40697e-21
7.24408e-21
8.5547e-21
9.93731e-21
1.11069e-20
1.20847e-20
1.28962e-20
1.35662e-20
1.41175e-20
1.45699e-20
1.49405e-20
1.52437e-20
1.54915e-20
1.56937e-20
1.58588e-20
1.59934e-20
9.20282e-21
8.51182e-21
7.99405e-21
7.64287e-21
7.40697e-21
7.24408e-21
8.5547e-21
9.93731e-21
1.11069e-20
1.20847e-20
1.28962e-20
1.35662e-20
1.41175e-20
1.45699e-20
1.49405e-20
1.52437e-20
1.54915e-20
1.56937e-20
1.58588e-20
1.59934e-20
9.20282e-21
8.51182e-21
7.99405e-21
7.64287e-21
7.40697e-21
7.24408e-21
8.5547e-21
9.93731e-21
1.11069e-20
1.20847e-20
1.28962e-20
1.35662e-20
1.41175e-20
1.45699e-20
1.49405e-20
1.52437e-20
1.54915e-20
1.56937e-20
1.58588e-20
1.59934e-20
9.20282e-21
8.51182e-21
7.99405e-21
7.64287e-21
7.40697e-21
7.24408e-21
8.5547e-21
9.93731e-21
1.11069e-20
1.20847e-20
1.28962e-20
1.35662e-20
1.41175e-20
1.45699e-20
1.49405e-20
1.52437e-20
1.54915e-20
1.56937e-20
1.58588e-20
1.59934e-20
9.20282e-21
8.51182e-21
7.99405e-21
7.64287e-21
7.40697e-21
7.24408e-21
8.5547e-21
9.93731e-21
1.11069e-20
1.20847e-20
1.28962e-20
1.35662e-20
1.41175e-20
1.45699e-20
1.49405e-20
1.52437e-20
1.54915e-20
1.56937e-20
1.58588e-20
1.59934e-20
9.20282e-21
8.51182e-21
7.99405e-21
7.64287e-21
7.40697e-21
7.24408e-21
8.5547e-21
9.93731e-21
1.11069e-20
1.20847e-20
1.28962e-20
1.35662e-20
1.41175e-20
1.45699e-20
1.49405e-20
1.52437e-20
1.54915e-20
1.56937e-20
1.58588e-20
1.59934e-20
9.20282e-21
8.51182e-21
7.99405e-21
7.64287e-21
7.40697e-21
7.24408e-21
8.5547e-21
9.93731e-21
1.11069e-20
1.20847e-20
1.28962e-20
1.35662e-20
1.41175e-20
1.45699e-20
1.49405e-20
1.52437e-20
1.54915e-20
1.56937e-20
1.58588e-20
1.59934e-20
9.20282e-21
8.51182e-21
7.99405e-21
7.64287e-21
7.40697e-21
7.24408e-21
8.5547e-21
9.93731e-21
1.11069e-20
1.20847e-20
1.28962e-20
1.35662e-20
1.41175e-20
1.45699e-20
1.49405e-20
1.52437e-20
1.54914e-20
1.56937e-20
1.58588e-20
1.59934e-20
9.20282e-21
8.51233e-21
8.00595e-21
7.70217e-21
7.55707e-21
7.51285e-21
7.58505e-21
8.50619e-21
9.20872e-21
9.74351e-21
1.01522e-20
1.04665e-20
1.071e-20
1.09e-20
1.10492e-20
1.11671e-20
1.12606e-20
1.13352e-20
1.13949e-20
1.14428e-20
1.39487e-05
1.07892e-06
3.2046e-07
1.70149e-07
1.11307e-07
7.90195e-08
6.04512e-08
4.85957e-08
4.06493e-08
3.53236e-08
3.18532e-08
2.98292e-08
2.91465e-08
2.91366e-08
2.98564e-08
3.0277e-08
3.03576e-08
3.00331e-08
2.93157e-08
2.83539e-08
2.73033e-08
2.62632e-08
2.51892e-08
2.41333e-08
2.31184e-08
2.2168e-08
2.12839e-08
2.04457e-08
1.96569e-08
1.89189e-08
1.82221e-08
1.75662e-08
1.6953e-08
1.63813e-08
1.5843e-08
1.5335e-08
1.48548e-08
1.43999e-08
1.39704e-08
1.35659e-08
1.31858e-08
1.28283e-08
1.24898e-08
1.21678e-08
1.18587e-08
1.15575e-08
1.12654e-08
1.09856e-08
1.07172e-08
1.04584e-08
1.02083e-08
9.96705e-09
9.73394e-09
9.50805e-09
9.28929e-09
9.07637e-09
8.87021e-09
8.66524e-09
8.46949e-09
8.19093e-09
1.35019e-05
1.91254e-06
3.7053e-07
1.72634e-07
1.0965e-07
7.74421e-08
5.95657e-08
4.87534e-08
4.22589e-08
3.92122e-08
3.97831e-08
4.46253e-08
4.94393e-08
6.0566e-08
7.18647e-08
7.92836e-08
8.32007e-08
8.39488e-08
8.25071e-08
8.00754e-08
7.72123e-08
7.41449e-08
7.10139e-08
6.79355e-08
6.49547e-08
6.21679e-08
5.95747e-08
5.71531e-08
5.49025e-08
5.27742e-08
5.06919e-08
4.87321e-08
4.69103e-08
4.52126e-08
4.3603e-08
4.20786e-08
4.06324e-08
3.92655e-08
3.79831e-08
3.67817e-08
3.56583e-08
3.46023e-08
3.36017e-08
3.26505e-08
3.17335e-08
3.08238e-08
2.99374e-08
2.90909e-08
2.82773e-08
2.74928e-08
2.67375e-08
2.60113e-08
2.53109e-08
2.46341e-08
2.39809e-08
2.33451e-08
2.27318e-08
2.21231e-08
2.15797e-08
2.07034e-08
1.34768e-05
4.65338e-06
1.07789e-06
3.7266e-07
2.00236e-07
1.39516e-07
1.17159e-07
1.1605e-07
1.32765e-07
1.74834e-07
2.62959e-07
4.2417e-07
6.21583e-07
8.98325e-07
1.16379e-06
1.3392e-06
1.43484e-06
1.46001e-06
1.43899e-06
1.39851e-06
1.34917e-06
1.29456e-06
1.23907e-06
1.18453e-06
1.13157e-06
1.08207e-06
1.03602e-06
9.93284e-07
9.53767e-07
9.16226e-07
8.78984e-07
8.43941e-07
8.11437e-07
7.81151e-07
7.52369e-07
7.25075e-07
6.99145e-07
6.74659e-07
6.51742e-07
6.30321e-07
6.10332e-07
5.91545e-07
5.7374e-07
5.5682e-07
5.40482e-07
5.24163e-07
5.08233e-07
4.93038e-07
4.78426e-07
4.64335e-07
4.50789e-07
4.37783e-07
4.25248e-07
4.13149e-07
4.01486e-07
3.90135e-07
3.79203e-07
3.68362e-07
3.58945e-07
3.43e-07
1.34902e-05
7.76195e-06
3.48413e-06
1.59169e-06
8.95422e-07
6.55172e-07
6.06571e-07
6.86271e-07
8.92712e-07
1.30539e-06
2.11512e-06
3.56931e-06
5.46768e-06
7.9792e-06
1.03711e-05
1.19524e-05
1.28204e-05
1.30548e-05
1.28775e-05
1.25267e-05
1.20962e-05
1.16171e-05
1.11287e-05
1.06474e-05
1.01792e-05
9.74114e-06
9.33274e-06
8.95329e-06
8.60208e-06
8.26783e-06
7.93536e-06
7.62219e-06
7.33146e-06
7.0603e-06
6.80232e-06
6.55744e-06
6.32462e-06
6.1046e-06
5.89857e-06
5.7059e-06
5.52603e-06
5.35688e-06
5.19649e-06
5.04399e-06
4.89666e-06
4.74935e-06
4.60546e-06
4.46816e-06
4.33607e-06
4.20865e-06
4.08612e-06
3.96845e-06
3.855e-06
3.74547e-06
3.63988e-06
3.53707e-06
3.43804e-06
3.33982e-06
3.25457e-06
3.10988e-06
1.34393e-05
9.82168e-06
6.68925e-06
4.48114e-06
3.11478e-06
2.55071e-06
2.55002e-06
3.05921e-06
4.14737e-06
6.24732e-06
1.0325e-05
1.76139e-05
2.74336e-05
3.99573e-05
5.17263e-05
5.9538e-05
6.39115e-05
6.52053e-05
6.45165e-05
6.29791e-05
6.1037e-05
5.88364e-05
5.65649e-05
5.43036e-05
5.20875e-05
5.00014e-05
4.80448e-05
4.62168e-05
4.45164e-05
4.28881e-05
4.12549e-05
3.97096e-05
3.82693e-05
3.69206e-05
3.5632e-05
3.44044e-05
3.32333e-05
3.21232e-05
3.10809e-05
3.01039e-05
2.91895e-05
2.83277e-05
2.75085e-05
2.67281e-05
2.59722e-05
2.52142e-05
2.44721e-05
2.37627e-05
2.30789e-05
2.24182e-05
2.17819e-05
2.11699e-05
2.0579e-05
2.00078e-05
1.94564e-05
1.89187e-05
1.84003e-05
1.78854e-05
1.74381e-05
1.66775e-05
1.32655e-05
1.08519e-05
9.24654e-06
8.00096e-06
6.10027e-06
5.95948e-06
6.85844e-06
8.88983e-06
1.25465e-05
1.94753e-05
3.28474e-05
5.65256e-05
8.87734e-05
0.000128387
0.000164894
0.000189504
0.000203868
0.000208995
0.000208183
0.000204721
0.000199912
0.000194188
0.000188092
0.000181877
0.000175679
0.000169766
0.000164151
0.000158842
0.000153849
0.000149001
0.000144038
0.000139293
0.000134831
0.000130617
0.000126552
0.000122646
0.00011889
0.000115306
0.00011192
0.000108727
0.000105724
0.000102877
0.000100157
9.75524e-05
9.50158e-05
9.24526e-05
8.99284e-05
8.75048e-05
8.51585e-05
8.28823e-05
8.06822e-05
7.85583e-05
7.65006e-05
7.45047e-05
7.25716e-05
7.06808e-05
6.8852e-05
6.70304e-05
6.54446e-05
6.27338e-05
1.29876e-05
1.13153e-05
1.05211e-05
1.07133e-05
1.11889e-05
1.0861e-05
1.21036e-05
1.65072e-05
2.46941e-05
4.02617e-05
7.02592e-05
0.00012226
0.000193953
0.000277448
0.000355328
0.000412661
0.000449899
0.000467155
0.00047002
0.000467069
0.000460958
0.000452597
0.000443032
0.000432783
0.000422214
0.000411909
0.000401936
0.000392331
0.000383142
0.000373992
0.000364228
0.000354731
0.000345676
0.000337007
0.000328509
0.000320222
0.00031215
0.000304361
0.000296933
0.000289866
0.000283159
0.000276747
0.000270565
0.000264593
0.000258721
0.0002527
0.000246708
0.000240911
0.000235256
0.000229733
0.000224361
0.000219144
0.000214059
0.000209098
0.000204267
0.000199514
0.000194894
0.000190268
0.000186223
0.000179254
1.25064e-05
1.1536e-05
1.09944e-05
1.15488e-05
1.39253e-05
1.77602e-05
2.34004e-05
3.28642e-05
4.46508e-05
6.90042e-05
0.000116919
0.000198457
0.00030869
0.000434576
0.000553251
0.000642643
0.000704065
0.000741025
0.000759786
0.00076852
0.000771723
0.000771032
0.000767793