/*--------------------------------*- C++ -*----------------------------------*\
| =========                 |                                                 |
| \\      /  F ield         | OpenFOAM: The Open Source CFD Toolbox           |
|  \\    /   O peration     | Version:  v2012                                 |
|   \\  /    A nd           | Website:  www.openfoam.com                      |
|    \\/     M anipulation  |                                                 |
\*---------------------------------------------------------------------------*/
FoamFile
{
    version     2.0;
    format      ascii;
    class       volScalarField;
    location    "2000";
    object      omega;
}
// * * * * * * * * * * * * * * * * * * * * * * * * * * * * * * * * * * * * * //

dimensions      [0 0 -1 0 0 0 0];


internalField   nonuniform List<scalar> 
8000
(
4.02258e+07
2.72803e+06
702235
332722
211427
157012
127718
110027
98490.5
90554
84879.2
80703.8
77564.8
75165.6
73308.2
71855.8
70711
69803.1
69038.5
553910
3.84034e+07
2.67884e+06
698162
331991
211183
156892
127644
109974
98449.8
90520.5
84850.3
80678.1
77541.3
75143.8
73287.6
71836.1
70692.1
69784.7
69012
179474
3.83123e+07
2.6668e+06
694999
330929
210722
156643
127485
109860
98360.7
90446.8
84786.7
80621.3
77489.4
75095.4
73241.9
71792.4
70650
69743.8
68965.6
96304.9
3.83105e+07
2.63867e+06
690131
329376
210031
156257
127233
109677
98216.7
90326.9
84682.6
80528.2
77404.1
75015.8
73166.6
71720.4
70580.4
69676.2
68922.1
77076.7
3.83105e+07
2.56488e+06
681623
327185
209101
155734
126886
109420
98012.4
90155.5
84533.1
80393.8
77280.6
74900.3
73057.1
71615.5
70479.1
69577.6
68847.6
72588.2
3.83105e+07
2.54788e+06
676334
325045
208020
155084
126440
109085
97742.4
89927.1
84332.6
80213
77113.8
74744
72908.7
71473.1
70341.3
69443.5
68711.1
71292.4
3.83105e+07
2.54505e+06
666424
322080
206645
154268
125879
108660
97398
89634.3
84074.5
79979.2
76897.8
74541
72715.6
71287.6
70161.7
69268.5
68537.1
70435.8
3.83105e+07
2.54458e+06
655547
318538
204963
153262
125183
108130
96966.9
89266.3
83749.2
79683.9
76624.2
74283.6
72470.5
71051.9
69933.3
69045.8
68337
69609.4
3.83105e+07
2.54449e+06
651135
314249
202909
152025
124324
107473
96430.6
88807.5
83342.8
79314.5
76281.6
73961
72162.9
70755.9
69646.3
68765.9
68065.3
68751.2
3.83105e+07
2.54447e+06
649778
309776
200384
150496
123258
106657
95763.6
88236.3
82836.4
78853.8
75854.1
73558.2
71778.8
70386.1
69287.7
68416
67721.9
67983.7
3.83105e+07
2.54446e+06
649393
307498
197448
148586
121929
105640
94932.3
87524.2
82205.1
78279.3
75320.9
73055.7
71299.6
69924.8
68840.3
67979.5
67293.6
67251.4
3.83105e+07
2.54446e+06
649283
306627
195471
146459
120288
104376
93898.7
86638.2
81419.2
77564
74656.9
72429.8
70702.6
69350
68282.7
67435.5
66760
66506.9
3.83105e+07
2.54446e+06
649250
306328
194575
144996
118656
102893
92628.2
85539.5
80443.5
76675.9
73832.4
71652.5
69960.9
68635.7
67589.7
66759.2
66096.7
65703.9
3.83105e+07
2.54446e+06
649239
306227
194231
144305
117652
101705
91391
84335.6
79305.1
75606.5
72824.1
70694.8
69043.9
67751.1
66730.8
65920.7
65274.4
64804.5
3.83105e+07
2.54446e+06
649235
306193
194106
144029
117195
101078
90628.2
83479.4
78392.8
74665.2
71871.5
69741.2
68094.9
66809.1
65796.5
64993.9
64354.4
63855.5
3.83105e+07
2.54446e+06
649234
306180
194060
143924
117012
100809
90276
83052.8
77903.6
74125.7
71292.5
69131.8
67462
66158.3
65132
64318.9
63671.3
63175.7
3.83105e+07
2.54446e+06
649233
306175
194043
143885
116942
100702
90131.8
82872.3
77690
73882.7
71024.2
68842.1
67154.5
65836.1
64797.7
63974.6
63318.9
62803.3
3.83105e+07
2.54446e+06
649233
306173
194036
143869
116914
100660
90074.5
82799.8
77603.1
73782.7
70912.7
68720.5
67024.3
65698.5
64654
63825.8
63165.9
62641.1
3.83105e+07
2.54446e+06
649233
306172
194033
143863
116903
100643
90051.4
82770.6
77567.9
73742.1
70867.3
68670.8
66971
65642.1
64594.9
63764.6
63102.8
62574.3
3.83105e+07
2.54446e+06
649233
306172
194032
143860
116898
100636
90041.8
82758.4
77553.3
73725.3
70848.5
68650.3
66948.9
65618.7
64570.5
63739.2
63076.6
62546.7
3.83105e+07
2.54446e+06
649233
306172
194031
143859
116896
100633
90037.7
82753.2
77547.1
73718.2
70840.4
68641.5
66939.5
65608.8
64560.1
63728.4
63065.5
62535.1
3.83105e+07
2.54446e+06
649233
306172
194031
143858
116895
100632
90035.9
82750.9
77544.4
73715
70836.9
68637.7
66935.4
65604.4
64555.5
63723.7
63060.6
62530.1
3.83105e+07
2.54446e+06
649233
306172
194031
143858
116895
100631
90035.1
82749.9
77543.2
73713.6
70835.4
68636
66933.5
65602.5
64553.5
63721.6
63058.5
62527.8
3.83105e+07
2.54446e+06
649233
306172
194031
143858
116895
100631
90034.7
82749.4
77542.6
73713
70834.7
68635.2
66932.7
65601.6
64552.6
63720.6
63057.5
62526.8
3.83105e+07
2.54446e+06
649233
306172
194031
143858
116895
100631
90034.5
82749.2
77542.4
73712.7
70834.3
68634.8
66932.3
65601.2
64552.1
63720.2
63057
62526.3
3.83105e+07
2.54446e+06
649233
306172
194031
143858
116895
100631
90034.4
82749.1
77542.2
73712.5
70834.2
68634.6
66932.1
65601
64551.9
63719.9
63056.8
62526.1
3.83105e+07
2.54446e+06
649233
306172
194031
143858
116895
100631
90034.4
82749.1
77542.2
73712.5
70834.1
68634.6
66932
65600.9
64551.8
63719.8
63056.7
62526
3.83105e+07
2.54446e+06
649233
306172
194031
143858
116895
100631
90034.4
82749
77542.1
73712.4
70834
68634.5
66932
65600.8
64551.8
63719.8
63056.6
62525.9
3.83105e+07
2.54446e+06
649233
306172
194031
143858
116895
100631
90034.4
82749
77542.1
73712.4
70834
68634.5
66932
65600.8
64551.8
63719.8
63056.6
62525.9
3.83105e+07
2.54446e+06
649233
306172
194031
143858
116895
100631
90034.4
82749
77542.1
73712.4
70834
68634.5
66932
65600.8
64551.7
63719.8
63056.6
62525.9
3.83105e+07
2.54446e+06
649233
306172
194031
143858
116895
100631
90034.4
82749
77542.1
73712.4
70834
68634.5
66932
65600.8
64551.7
63719.8
63056.6
62525.9
3.83105e+07
2.54446e+06
649233
306172
194031
143858
116895
100631
90034.4
82749
77542.1
73712.4
70834
68634.5
66932
65600.8
64551.7
63719.7
63056.6
62525.9
3.83105e+07
2.54446e+06
649233
306172
194031
143858
116895
100631
90034.4
82749
77542.1
73712.4
70834
68634.5
66931.9
65600.8
64551.7
63719.7
63056.6
62525.9
3.83105e+07
2.54446e+06
649233
306172
194031
143858
116895
100631
90034.4
82749
77542.1
73712.4
70834
68634.5
66931.9
65600.8
64551.7
63719.7
63056.6
62525.9
3.83105e+07
2.54446e+06
649233
306172
194031
143858
116895
100631
90034.4
82749
77542.1
73712.4
70834
68634.5
66931.9
65600.8
64551.7
63719.7
63056.6
62525.9
3.83105e+07
2.54446e+06
649233
306172
194031
143858
116895
100631
90034.4
82749
77542.1
73712.4
70834
68634.5
66931.9
65600.8
64551.7
63719.7
63056.6
62525.9
3.83105e+07
2.54446e+06
649233
306172
194031
143858
116895
100631
90034.4
82749
77542.1
73712.4
70834
68634.5
66931.9
65600.8
64551.7
63719.7
63056.6
62525.9
3.83105e+07
2.54446e+06
649233
306172
194031
143858
116895
100631
90034.4
82749
77542.1
73712.4
70834
68634.5
66931.9
65600.8
64551.7
63719.7
63056.6
62525.9
3.83105e+07
2.54446e+06
649233
306172
194031
143858
116895
100631
90034.4
82749
77542.1
73712.4
70834
68634.5
66931.9
65600.8
64551.7
63719.7
63056.6
62525.9
3.83105e+07
2.54446e+06
649233
306172
194031
143858
116895
100631
90034.4
82749
77542.1
73712.4
70834
68634.5
66931.9
65600.8
64551.7
63719.7
63056.6
62525.9
3.83105e+07
2.54446e+06
649233
306172
194031
143858
116895
100631
90034.4
82749
77542.1
73712.4
70834
68634.5
66931.9
65600.8
64551.7
63719.7
63056.6
62525.9
3.83105e+07
2.54446e+06
649233
306172
194031
143858
116895
100631
90034.4
82749
77542.1
73712.4
70834
68634.5
66931.9
65600.8
64551.7
63719.7
63056.6
62525.9
3.83105e+07
2.54446e+06
649233
306172
194031
143858
116895
100631
90034.4
82749
77542.1
73712.4
70834
68634.5
66931.9
65600.8
64551.7
63719.7
63056.6
62525.9
3.83105e+07
2.54446e+06
649233
306172
194031
143858
116895
100631
90034.4
82749
77542.1
73712.4
70834
68634.5
66931.9
65600.8
64551.7
63719.7
63056.6
62525.9
3.83105e+07
2.54446e+06
649233
306172
194031
143858
116895
100631
90034.4
82749
77542.1
73712.4
70834
68634.5
66931.9
65600.8
64551.7
63719.7
63056.6
62525.9
3.83105e+07
2.54446e+06
649233
306172
194031
143858
116895
100631
90034.4
82749
77542.1
73712.4
70834
68634.5
66931.9
65600.8
64551.7
63719.7
63056.6
62525.9
3.83105e+07
2.54446e+06
649233
306172
194031
143858
116895
100631
90034.4
82749
77542.1
73712.4
70834
68634.5
66931.9
65600.8
64551.7
63719.7
63056.6
62525.9
3.83105e+07
2.54446e+06
649233
306172
194031
143858
116895
100631
90034.4
82749
77542.1
73712.4
70834
68634.5
66931.9
65600.8
64551.7
63719.7
63056.6
62525.9
3.83105e+07
2.54446e+06
649233
306172
194031
143858
116895
100631
90034.4
82749
77542.1
73712.4
70834
68634.5
66931.9
65600.8
64551.7
63719.7
63056.6
62525.9
3.83105e+07
2.54446e+06
649233
306172
194031
143858
116895
100631
90034.4
82749
77542.1
73712.4
70834
68634.5
66931.9
65600.8
64551.7
63719.7
63056.6
62525.9
3.83105e+07
2.54446e+06
649233
306172
194031
143858
116895
100631
90034.4
82749
77542.1
73712.4
70834
68634.5
66931.9
65600.8
64551.7
63719.7
63056.6
62525.9
3.83105e+07
2.54446e+06
649233
306172
194031
143858
116895
100631
90034.4
82749
77542.1
73712.4
70834
68634.5
66931.9
65600.8
64551.7
63719.7
63056.6
62525.9
3.83105e+07
2.54446e+06
649233
306172
194031
143858
116895
100631
90034.4
82749
77542.1
73712.4
70834
68634.5
66931.9
65600.8
64551.7
63719.7
63056.6
62525.9
3.83105e+07
2.54446e+06
649233
306172
194031
143858
116895
100631
90034.4
82749
77542.1
73712.4
70834
68634.5
66931.9
65600.8
64551.7
63719.7
63056.6
62525.9
3.83105e+07
2.54446e+06
649233
306172
194031
143858
116895
100631
90034.4
82749
77542.1
73712.4
70834
68634.5
66931.9
65600.8
64551.7
63719.7
63056.6
62525.9
3.83105e+07
2.54446e+06
649233
306172
194031
143858
116895
100631
90034.4
82749
77542.1
73712.4
70834
68634.5
66931.9
65600.8
64551.7
63719.7
63056.6
62525.9
3.83105e+07
2.54446e+06
649233
306172
194031
143858
116895
100631
90034.4
82749
77542.1
73712.4
70834
68634.5
66931.9
65600.8
64551.7
63719.7
63056.6
62525.9
3.83105e+07
2.54446e+06
649233
306172
194031
143858
116895
100631
90034.4
82749
77542.1
73712.4
70834
68634.5
66931.9
65600.8
64551.7
63719.7
63056.6
62525.9
3.83105e+07
2.54446e+06
649233
306172
194031
143858
116895
100631
90034.4
82749
77542.1
73712.4
70834
68634.5
66931.9
65600.8
64551.7
63719.7
63056.6
62525.9
3.83105e+07
2.54446e+06
649233
306172
194031
143858
116895
100631
90034.4
82749
77542.1
73712.4
70834
68634.5
66931.9
65600.8
64551.7
63719.7
63056.6
62525.9
3.83105e+07
2.54446e+06
649233
306172
194031
143858
116895
100631
90034.4
82749
77542.1
73712.4
70834
68634.5
66931.9
65600.8
64551.7
63719.7
63056.6
62525.9
3.83105e+07
2.54446e+06
649233
306172
194031
143858
116895
100631
90034.4
82749
77542.1
73712.4
70834
68634.5
66931.9
65600.8
64551.7
63719.7
63056.6
62525.9
3.83105e+07
2.54446e+06
649233
306172
194031
143858
116895
100631
90034.4
82749
77542.1
73712.4
70834
68634.5
66931.9
65600.8
64551.7
63719.7
63056.6
62525.9
3.83105e+07
2.54446e+06
649233
306172
194031
143858
116895
100631
90034.4
82749
77542.1
73712.4
70834
68634.5
66931.9
65600.8
64551.7
63719.7
63056.6
62525.9
3.83105e+07
2.54446e+06
649233
306172
194031
143858
116895
100631
90034.4
82749
77542.1
73712.4
70834
68634.5
66931.9
65600.8
64551.7
63719.7
63056.6
62525.9
3.83105e+07
2.54446e+06
649233
306172
194031
143858
116895
100631
90034.4
82749
77542.1
73712.4
70834
68634.5
66931.9
65600.8
64551.7
63719.7
63056.6
62525.9
3.83105e+07
2.54446e+06
649233
306172
194031
143858
116895
100631
90034.4
82749
77542.1
73712.4
70834
68634.5
66931.9
65600.8
64551.7
63719.7
63056.6
62525.9
3.83105e+07
2.54446e+06
649233
306172
194031
143858
116895
100631
90034.4
82749
77542.1
73712.4
70834
68634.5
66931.9
65600.8
64551.7
63719.7
63056.6
62525.9
3.83105e+07
2.54446e+06
649233
306172
194031
143858
116895
100631
90034.4
82749
77542.1
73712.4
70834
68634.5
66931.9
65600.8
64551.7
63719.7
63056.6
62525.9
3.83105e+07
2.54446e+06
649233
306172
194031
143858
116895
100631
90034.4
82749
77542.1
73712.4
70834
68634.5
66931.9
65600.8
64551.7
63719.7
63056.6
62525.9
3.83105e+07
2.54446e+06
649233
306172
194031
143858
116895
100631
90034.4
82749
77542.1
73712.4
70834
68634.5
66931.9
65600.8
64551.7
63719.7
63056.6
62525.9
3.83105e+07
2.54446e+06
649233
306172
194031
143858
116895
100631
90034.4
82749
77542.1
73712.4
70834
68634.5
66931.9
65600.8
64551.7
63719.7
63056.6
62525.9
3.83105e+07
2.54446e+06
649233
306172
194031
143858
116895
100631
90034.4
82749
77542.1
73712.4
70834
68634.5
66931.9
65600.8
64551.7
63719.7
63056.6
62525.9
3.83105e+07
2.54446e+06
649233
306172
194031
143858
116895
100631
90034.4
82749
77542.1
73712.4
70834
68634.5
66931.9
65600.8
64551.7
63719.7
63056.6
62525.9
3.83105e+07
2.54446e+06
649233
306172
194031
143858
116895
100631
90034.4
82749
77542.1
73712.4
70834
68634.5
66931.9
65600.8
64551.7
63719.7
63056.6
62525.9
3.83105e+07
2.54446e+06
649233
306172
194031
143858
116895
100631
90034.4
82749
77542.1
73712.4
70834
68634.5
66931.9
65600.8
64551.7
63719.7
63056.6
62525.9
3.83105e+07
2.54446e+06
649233
306172
194031
143858
116895
100631
90034.4
82749
77542.1
73712.4
70834
68634.5
66931.9
65600.8
64551.7
63719.7
63056.6
62525.9
3.83105e+07
2.54446e+06
649233
306172
194031
143858
116895
100631
90034.4
82749
77542.1
73712.4
70834
68634.5
66931.9
65600.8
64551.7
63719.7
63056.6
62525.9
3.83105e+07
2.54446e+06
649233
306172
194031
143858
116895
100631
90034.4
82749
77542.1
73712.4
70834
68634.5
66931.9
65600.8
64551.7
63719.7
63056.6
62525.9
3.83105e+07
2.54446e+06
649233
306172
194031
143858
116895
100631
90034.4
82749
77542.1
73712.4
70834
68634.5
66931.9
65600.8
64551.7
63719.7
63056.6
62525.9
3.83105e+07
2.54446e+06
649233
306172
194031
143858
116895
100631
90034.4
82749
77542.1
73712.4
70834
68634.5
66931.9
65600.8
64551.7
63719.7
63056.6
62525.9
3.83105e+07
2.54446e+06
649233
306172
194031
143858
116895
100631
90034.4
82749
77542.1
73712.4
70834
68634.5
66931.9
65600.8
64551.7
63719.7
63056.6
62525.9
3.83105e+07
2.54446e+06
649233
306172
194031
143858
116895
100631
90034.4
82749
77542.1
73712.4
70834
68634.5
66931.9
65600.8
64551.7
63719.7
63056.6
62525.9
3.83105e+07
2.54446e+06
649233
306172
194031
143858
116895
100631
90034.4
82749
77542.1
73712.4
70834
68634.5
66931.9
65600.8
64551.7
63719.7
63056.6
62525.9
3.83105e+07
2.54446e+06
649233
306172
194031
143858
116895
100631
90034.4
82749
77542.1
73712.4
70834
68634.5
66931.9
65600.8
64551.7
63719.7
63056.6
62525.9
3.83105e+07
2.54446e+06
649233
306172
194031
143858
116895
100631
90034.4
82749
77542.1
73712.4
70834
68634.5
66931.9
65600.8
64551.7
63719.7
63056.6
62525.9
3.83105e+07
2.54446e+06
649233
306172
194031
143858
116895
100631
90034.4
82749
77542.1
73712.4
70834
68634.5
66931.9
65600.8
64551.7
63719.7
63056.6
62525.9
3.83105e+07
2.54446e+06
649233
306172
194031
143858
116895
100631
90034.4
82749
77542.1
73712.4
70834
68634.5
66931.9
65600.8
64551.7
63719.7
63056.6
62525.9
3.83105e+07
2.54446e+06
649233
306172
194031
143858
116895
100631
90034.4
82749
77542.1
73712.4
70834
68634.5
66931.9
65600.8
64551.7
63719.7
63056.6
62525.9
3.83105e+07
2.54446e+06
649233
306172
194031
143858
116895
100631
90034.4
82749
77542.1
73712.4
70834
68634.5
66931.9
65600.8
64551.7
63719.7
63056.6
62525.9
3.83105e+07
2.54446e+06
649233
306172
194031
143858
116895
100631
90034.4
82749
77542.1
73712.4
70834
68634.5
66931.9
65600.8
64551.7
63719.7
63056.6
62525.9
3.83105e+07
2.54446e+06
649233
306172
194031
143858
116895
100631
90034.4
82749
77542.1
73712.4
70834
68634.5
66931.9
65600.8
64551.7
63719.7
63056.6
62525.9
3.83105e+07
2.54446e+06
649233
306172
194031
143858
116895
100631
90034.4
82749
77542.1
73712.4
70834
68634.5
66931.9
65600.8
64551.7
63719.7
63056.6
62525.9
3.83105e+07
2.54446e+06
649233
306172
194031
143858
116895
100631
90034.4
82749
77542.1
73712.4
70834
68634.5
66931.9
65600.8
64551.7
63719.7
63056.6
62525.9
3.83105e+07
2.54446e+06
649233
306172
194031
143858
116895
100631
90034.4
82749
77542.1
73712.4
70834
68634.5
66931.9
65600.8
64551.7
63719.7
63056.6
62525.9
3.83105e+07
2.54446e+06
649233
306172
194031
143858
116895
100631
90034.4
82749
77542.1
73712.4
70834
68634.5
66931.9
65600.8
64551.7
63719.7
63056.6
62525.9
3.83105e+07
2.54446e+06
649233
306172
194031
143858
116895
100631
90034.4
82749
77542.1
73712.4
70834
68634.5
66931.9
65600.8
64551.7
63719.7
63056.6
62525.9
3.83105e+07
2.54446e+06
649233
306172
194031
143858
116895
100631
90034.4
82749
77542.1
73712.4
70834
68634.5
66931.9
65600.8
64551.7
63719.7
63056.6
62525.9
3.83105e+07
2.54446e+06
649233
306172
194031
143858
116895
100631
90034.4
82749
77542.1
73712.4
70834
68634.5
66932
65600.8
64551.8
63719.8
63056.6
62525.9
3.83105e+07
2.5454e+06
652605
312732
203757
156405
131838
117562
108593
102632
98500.9
95542.7
93370.4
91743
90504.2
89549.2
88805.2
88220.9
87758.9
87391.6
2.0654e+08
3.12152e+08
3.58324e+08
3.76776e+08
3.94486e+08
4.0566e+08
4.13416e+08
4.19509e+08
4.24414e+08
4.29365e+08
4.34663e+08
4.40654e+08
4.45438e+08
4.49976e+08
4.53262e+08
4.55948e+08
4.58496e+08
4.6108e+08
4.63678e+08
4.6626e+08
4.68832e+08
4.71526e+08
4.74159e+08
4.76625e+08
4.79019e+08
4.81327e+08
4.83638e+08
4.85902e+08
4.88047e+08
4.90117e+08
4.92114e+08
4.94041e+08
4.95882e+08
4.9766e+08
4.99377e+08
5.01023e+08
5.02642e+08
5.0424e+08
5.05792e+08
5.07289e+08
5.08715e+08
5.10084e+08
5.11415e+08
5.12705e+08
5.13964e+08
5.15204e+08
5.16407e+08
5.17549e+08
5.18647e+08
5.19728e+08
5.20782e+08
5.218e+08
5.22792e+08
5.23764e+08
5.24705e+08
5.25638e+08
5.26553e+08
5.27484e+08
5.28143e+08
5.29642e+08
4.34301e+07
4.96354e+07
5.63745e+07
5.93113e+07
6.21631e+07
6.39469e+07
6.51889e+07
6.61666e+07
6.69503e+07
6.77374e+07
6.85786e+07
6.96482e+07
7.32576e+07
7.40087e+07
7.45443e+07
7.49848e+07
7.5404e+07
7.58307e+07
7.62607e+07
7.66881e+07
7.71145e+07
7.7561e+07
7.79977e+07
7.84065e+07
7.88034e+07
7.91862e+07
7.95693e+07
7.99445e+07
8.03003e+07
8.06436e+07
8.09745e+07
8.12937e+07
8.15991e+07
8.18939e+07
8.21784e+07
8.2451e+07
8.27192e+07
8.29841e+07
8.32412e+07
8.34891e+07
8.37253e+07
8.3952e+07
8.41726e+07
8.43861e+07
8.45947e+07
8.48e+07
8.49993e+07
8.51885e+07
8.53704e+07
8.55496e+07
8.57242e+07
8.58928e+07
8.60572e+07
8.62181e+07
8.63741e+07
8.65287e+07
8.66804e+07
8.68346e+07
8.6944e+07
8.71921e+07
1.64175e+07
1.7954e+07
1.9161e+07
1.97376e+07
2.04274e+07
2.08677e+07
2.11851e+07
2.14465e+07
2.16601e+07
2.18842e+07
2.21319e+07
2.24444e+07
2.32485e+07
2.3487e+07
2.3656e+07
2.37958e+07
2.39275e+07
2.40613e+07
2.41958e+07
2.43285e+07
2.44607e+07
2.45992e+07
2.47349e+07
2.48618e+07
2.49849e+07
2.51038e+07
2.5223e+07
2.53399e+07
2.54507e+07
2.55579e+07
2.56611e+07
2.57608e+07
2.58563e+07
2.59485e+07
2.60375e+07
2.61228e+07
2.62069e+07
2.62899e+07
2.63705e+07
2.64483e+07
2.65224e+07
2.65936e+07
2.66629e+07
2.673e+07
2.67955e+07
2.68601e+07
2.69228e+07
2.69823e+07
2.70395e+07
2.70959e+07
2.71508e+07
2.72039e+07
2.72557e+07
2.73064e+07
2.73555e+07
2.74042e+07
2.7452e+07
2.75006e+07
2.75352e+07
2.76133e+07
7.96086e+06
9.35528e+06
9.86022e+06
1.00143e+07
1.00416e+07
1.00179e+07
1.00013e+07
1.0005e+07
1.0017e+07
1.00542e+07
1.01182e+07
1.02225e+07
1.04782e+07
1.0582e+07
1.06583e+07
1.07198e+07
1.07735e+07
1.08262e+07
1.08773e+07
1.09263e+07
1.09745e+07
1.10257e+07
1.1076e+07
1.11226e+07
1.11679e+07
1.12117e+07
1.12563e+07
1.13004e+07
1.13423e+07
1.1383e+07
1.14224e+07
1.14606e+07
1.14973e+07
1.1533e+07
1.15675e+07
1.16007e+07
1.16335e+07
1.16661e+07
1.16979e+07
1.17287e+07
1.1758e+07
1.17863e+07
1.18139e+07
1.18406e+07
1.18669e+07
1.18927e+07
1.19178e+07
1.19417e+07
1.19646e+07
1.19872e+07
1.20093e+07
1.20307e+07
1.20515e+07
1.20719e+07
1.20917e+07
1.21114e+07
1.21307e+07
1.21504e+07
1.21641e+07
1.2196e+07
4.22599e+06
5.56109e+06
6.10955e+06
6.54068e+06
6.56064e+06
6.40404e+06
6.23561e+06
6.10189e+06
6.0002e+06
5.935e+06
5.90555e+06
5.91752e+06
6.00182e+06
6.0499e+06
6.08705e+06
6.11219e+06
6.12894e+06
6.14358e+06
6.1563e+06
6.16757e+06
6.1782e+06
6.19072e+06
6.20331e+06
6.21433e+06
6.22501e+06
6.23559e+06
6.24736e+06
6.25956e+06
6.27126e+06
6.28293e+06
6.29449e+06
6.30598e+06
6.31723e+06
6.32843e+06
6.33945e+06
6.35011e+06
6.36095e+06
6.37201e+06
6.38295e+06
6.39367e+06
6.40396e+06
6.41395e+06
6.42382e+06
6.43349e+06
6.44302e+06
6.45251e+06
6.46176e+06
6.4705e+06
6.4789e+06
6.48727e+06
6.49546e+06
6.50337e+06
6.51111e+06
6.51873e+06
6.52611e+06
6.53349e+06
6.54077e+06
6.54827e+06
6.55291e+06
6.5654e+06
2.29021e+06
3.54612e+06
3.91127e+06
4.54035e+06
4.89639e+06
4.90281e+06
4.75264e+06
4.57747e+06
4.42014e+06
4.29561e+06
4.20898e+06
4.16603e+06
4.16866e+06
4.17681e+06
4.17803e+06
4.16924e+06
4.1562e+06
4.14324e+06
4.13223e+06
4.12215e+06
4.11244e+06
4.10453e+06
4.09751e+06
4.09002e+06
4.08272e+06
4.07598e+06
4.07061e+06
4.06614e+06
4.06194e+06
4.05832e+06
4.05537e+06
4.05294e+06
4.05086e+06
4.04924e+06
4.04791e+06
4.04674e+06
4.04601e+06
4.04573e+06
4.04571e+06
4.04587e+06
4.04607e+06
4.04638e+06
4.04687e+06
4.04746e+06
4.04816e+06
4.049e+06
4.04988e+06
4.05061e+06
4.05129e+06
4.05208e+06
4.05287e+06
4.05361e+06
4.05435e+06
4.05511e+06
4.05582e+06
4.0566e+06
4.05741e+06
4.05833e+06
4.05798e+06
4.06004e+06
1.21388e+06
2.33323e+06
2.61636e+06
3.00397e+06
3.54953e+06
3.89689e+06
3.95035e+06
3.85794e+06
3.72061e+06
3.58392e+06
3.47025e+06
3.3914e+06
3.33735e+06
3.3026e+06
3.25935e+06
3.21327e+06
3.17149e+06
3.13579e+06
3.10821e+06
3.08521e+06
3.06444e+06
3.04595e+06
3.02921e+06
3.01285e+06
2.99711e+06
2.98216e+06
2.96854e+06
2.95594e+06
2.9439e+06
2.93273e+06
2.92293e+06
2.91391e+06
2.90545e+06
2.8976e+06
2.89024e+06
2.88328e+06
2.87685e+06
2.87094e+06
2.86542e+06
2.86024e+06
2.8553e+06
2.85062e+06
2.84625e+06
2.84211e+06
2.83819e+06
2.83459e+06
2.83119e+06
2.82782e+06
2.82452e+06
2.82137e+06
2.81831e+06
2.81529e+06
2.81233e+06
2.80945e+06
2.80659e+06
2.80383e+06
2.80115e+06
2.79851e+06
2.79547e+06
2.7917e+06
616731
1.52037e+06
1.80657e+06
2.01525e+06
2.38245e+06
2.81195e+06
3.12693e+06
3.26372e+06
3.25458e+06
3.17031e+06
3.06712e+06
2.97013e+06
2.87708e+06
2.79767e+06
2.71186e+06
2.63617e+06
2.57302e+06
2.5232e+06
2.48579e+06
2.45589e+06
2.43007e+06
2.40719e+06
2.38677e+06
2.36767e+06
2.34961e+06
2.33238e+06
2.31621e+06
2.30099e+06
2.28637e+06
2.2726e+06
2.26031e+06
2.24885e+06
2.23798e+06
2.22771e+06
2.21803e+06
2.20885e+06
2.20022e+06
2.19209e+06
2.18438e+06
2.17702e+06
2.16995e+06
2.16318e+06
2.15674e+06
2.15059e+06
2.14469e+06
2.13934e+06
2.13432e+06
2.12941e+06
2.1246e+06
2.11995e+06
2.11539e+06
2.1109e+06
2.10649e+06
2.10215e+06
2.09786e+06
2.09365e+06
2.08954e+06
2.08541e+06
2.08138e+06
2.07495e+06
297203
961794
1.26262e+06
1.40504e+06
1.59775e+06
1.89404e+06
2.23665e+06
2.50756e+06
2.65467e+06
2.69721e+06
2.66878e+06
2.59223e+06
2.49047e+06
2.38198e+06
2.27734e+06
2.1942e+06
2.12792e+06
2.07659e+06
2.03744e+06
2.00625e+06
1.98001e+06
1.95704e+06
1.93688e+06
1.91899e+06
1.9025e+06
1.8866e+06
1.87133e+06
1.8568e+06
1.84275e+06
1.8293e+06
1.81686e+06
1.80517e+06
1.794e+06
1.78337e+06
1.7734e+06
1.764e+06
1.75513e+06
1.74671e+06
1.73867e+06
1.73096e+06
1.72352e+06
1.71636e+06
1.70952e+06
1.70297e+06
1.6967e+06
1.69101e+06
1.68569e+06
1.68051e+06
1.67546e+06
1.67056e+06
1.66577e+06
1.66103e+06
1.65637e+06
1.65179e+06
1.64726e+06
1.64279e+06
1.63843e+06
1.634e+06
1.62997e+06
1.6228e+06
146442
588146
874585
1.00587e+06
1.1062e+06
1.26152e+06
1.49239e+06
1.76341e+06
2.00002e+06
2.13934e+06
2.17896e+06
2.14212e+06
2.06434e+06
1.96607e+06
1.87807e+06
1.81061e+06
1.75681e+06
1.7138e+06
1.67965e+06
1.65182e+06
1.62871e+06
1.60863e+06
1.59117e+06
1.57605e+06
1.56228e+06
1.54887e+06
1.53575e+06
1.52327e+06
1.51116e+06
1.49943e+06
1.48822e+06
1.47756e+06
1.46731e+06
1.45747e+06
1.44837e+06
1.43987e+06
1.43182e+06
1.42415e+06
1.41679e+06
1.40969e+06
1.40281e+06
1.39618e+06
1.38981e+06
1.38371e+06
1.37791e+06
1.37256e+06
1.36754e+06
1.36266e+06
1.35795e+06
1.35338e+06
1.34892e+06
1.34452e+06
1.3402e+06
1.33595e+06
1.33176e+06
1.32763e+06
1.3236e+06
1.3195e+06
1.31596e+06
1.30911e+06
89431.8
349335
592024
723428
793717
869832
985808
1.15687e+06
1.37006e+06
1.57022e+06
1.69787e+06
1.73219e+06
1.69914e+06
1.62789e+06
1.55559e+06
1.49936e+06
1.45388e+06
1.41717e+06
1.38761e+06
1.36312e+06
1.34351e+06
1.32707e+06
1.31316e+06
1.30111e+06
1.29015e+06
1.27941e+06
1.26874e+06
1.25882e+06
1.2492e+06
1.23973e+06
1.23042e+06
1.22138e+06
1.21256e+06
1.204e+06
1.19608e+06
1.18877e+06
1.18185e+06
1.17522e+06
1.16884e+06
1.16265e+06
1.15663e+06
1.15081e+06
1.1452e+06
1.13983e+06
1.13479e+06
1.13007e+06
1.12563e+06
1.12134e+06
1.11723e+06
1.11327e+06
1.10941e+06
1.10562e+06
1.10191e+06
1.09826e+06
1.09468e+06
1.09117e+06
1.08775e+06
1.08426e+06
1.08139e+06
1.07542e+06
72511.6
207667
388879
512779
577505
624755
680528
760845
882320
1.04289e+06
1.20942e+06
1.32592e+06
1.37169e+06
1.3566e+06
1.31207e+06
1.26777e+06
1.22965e+06
1.19667e+06
1.16841e+06
1.14351e+06
1.12324e+06
1.10638e+06
1.0925e+06
1.0808e+06
1.07052e+06
1.06089e+06
1.0516e+06
1.04401e+06
1.0369e+06
1.02986e+06
1.02271e+06
1.01554e+06
1.00835e+06
1.0012e+06
994466
988369
982574
976988
971561
966269
961094
956059
951207
946556
942252
938211
934386
930705
927200
923838
920583
917405
914304
911276
908312
905436
902649
899803
897581
892617
67751.3
130280
252181
356615
418485
457755
491730
529989
584345
666014
781356
911827
1.02385e+06
1.08412e+06
1.09191e+06
1.07352e+06
1.04787e+06
1.023e+06
1.00095e+06
980053
961356
944217
929146
915835
903980
893181
883286
875432
868499
861983
855600
849302
843055
836874
831130
826226
821525
816922
812383
807903
803478
799138
794932
790890
787238
783787
780503
777346
774330
771452
768688
766010
763414
760897
758451
756110
753858
751560
749864
745820
65641.5
91968
166361
244988
299847
335150
362431
386480
413144
448641
501654
578577
679922
781997
852625
882989
883535
872121
857256
842200
828230
814121
801066
788945
777773
767397
757798
748975
740930
733488
726463
719806
713471
707426
701871
697080
692572
688242
684041
679949
675948
672048
668281
664675
661557
658587
655736
652989
650354
647846
645453
643151
640937
638807
636755
634828
632988
631115
629805
626523
64113.9
74774.6
116360
169184
213979
244246
267358
286756
304352
322552
345408
377841
429489
504924
592245
668184
712952
729648
729334
722343
712901
703095
693590
683935
674434
665183
656293
647907
640079
632761
625841
619284
613054
607124
601471
596129
591159
586506
582122
577971
574015
570234
566634
563221
560211
557370
554671
552102
549659
547357
545185
543122
541159
539290
537512
535889
534347
532785
531736
529051
63074.7
67377.5
89709.5
121690
154489
178909
197533
213526
227451
240003
252329
266141
286743
321652
377097
450227
521610
573927
602192
612072
611384
606721
600405
593798
587020
579849
572364
564936
557672
550682
543968
537542
531401
525535
519940
514624
509635
504953
500546
496389
492451
488710
485164
481813
478662
475729
472988
470426
468028
465798
463724
461783
459961
458247
456634
455155
453770
452387
451478
449217
62483.4
64194.1
76638.2
94508.7
115818
133861
147860
160171
171261
181101
189693
197459
206168
219626
244201
287020
345412
407866
460789
495860
513680
519567
518892
515561
511126
506217
500922
495204
489070
482833
476610
470492
464541
458792
453274
447995
442995
438279
433831
429640
425684
421944
418413
415088
411970
409065
406355
403831
401481
399305
397293
395427
393690
392070
390554
389130
387815
386526
385678
383713
62201.3
62777.8
70058
80054.4
92334.6
104580
114316
122892
131016
138525
145095
150561
155339
160952
170349
189337
222337
268327
320612
369483
407162
430545
441958
445520
444843
442129
438681
434734
430390
425515
420248
414764
409231
403748
398406
393232
388275
383563
379096
374879
370902
367151
363618
360300
357194
354297
351597
349088
346760
344609
342629
340801
339111
337546
336092
334734
333487
332278
331464
329735
62076.4
62084
65987.1
72818.6
79219.3
86561.6
92908.9
98284.8
103561
108735
113480
117477
120677
123601
127407
134738
149448
174926
210914
253397
296412
333370
359990
375753
383145
385111
384252
381913
379029
375618
371876
367482
362736
357773
352787
347844
343028
338393
333958
329746
325765
322009
318472
315153
312049
309151
306450
303942
301619
299476
297506
295694
294026
292488
291066
289747
288537
287377
286569
285012
62021.7
61721.1
63385.6
69154.2
72538.5
76256.9
79924.5
82916.7
85844.8
88923.7
91927.6
94576.6
96698
98425.1
100205
103081
108806
120109
139459
167245
201425
238047
272371
300018
318841
329466
334126
335055
333968
331891
329286
326165
322717
318618
314271
309756
305230
300781
296456
292306
288357
284615
281085
277767
274660
271757
269050
266535
264206
262058
260085
258274
256610
255081
253673
252371
251180
250047
249226
247797
61999.5
61542.3
62004.3
66491.5
69172
70717.5
72469.5
73919.4
75166.1
76592.3
78110.1
79521.4
80668.9
81547.5
82330.5
83473.4
85601.9
89951.1
98266.6
112551
133770
160918
191486
222140
249159
269685
282927
290047
292816
293063
291719
289752
287218
284312
281009
277203
273184
269082
264980
260975
257118
253429
249927
246622
243519
240612
237895
235369
233028
230869
228883
227062
225391
223859
222451
221153
219967
218847
218002
216670
61990.8
61462.9
61342.6
63859
67275.9
67974.1
68394.5
68803.6
68996.5
69291.7
69727.3
70169.1
70501.8
70687.4
70793.6
71049.3
71688.2
73143
76142.4
81958.2
92236.5
108042
129219
154319
180922
206185
227229
242355
251564
256198
257639
257333
255812
253876
251417
248641
245436
241909
238190
234453
230774
227199
223766
220502
217417
214513
211791
209253
206897
204722
202719
200881
199196
197651
196235
194932
193741
192623
191749
190493
61987.4
61432.3
61029.6
61912.1
65674.9
66517.9
66250.8
66000.1
65631.7
65218.3
64932.6
64696.8
64426.8
64083.1
63692.2
63380.5
63261
63466.2
64233
66069.2
69908.8
76958
88341.8
104491
124650
147241
170082
190670
206833
217793
224075
226890
227431
226660
225091
223083
220704
218061
214938
211644
208268
204895
201598
198419
195383
192501
189785
187240
184871
182678
180656
178796
177092
175530
174098
172783
171581
170460
169553
168360
61986.1
61422
60894
60913.4
63551
65514.6
65199.6
64497.2
63791
62983.4
62256.4
61602
60944.7
60247.2
59523.4
58844.7
58279.4
57861.7
57660.8
57841.4
58761.1
61034.3
65574.9
73430
85301.9
101113
119878
139968
159303
175779
187989
195742
199832