/*--------------------------------*- C++ -*----------------------------------*\
| =========                 |                                                 |
| \\      /  F ield         | OpenFOAM: The Open Source CFD Toolbox           |
|  \\    /   O peration     | Version:  v2012                                 |
|   \\  /    A nd           | Website:  www.openfoam.com                      |
|    \\/     M anipulation  |                                                 |
\*---------------------------------------------------------------------------*/
FoamFile
{
    version     2.0;
    format      ascii;
    class       volScalarField;
    location    "2000";
    object      p;
}
// * * * * * * * * * * * * * * * * * * * * * * * * * * * * * * * * * * * * * //

dimensions      [1 -1 -2 0 0 0 0];


internalField   nonuniform List<scalar> 
8000
(
671.719
671.719
671.719
671.719
671.719
671.719
671.719
671.719
671.719
671.719
671.719
671.719
671.719
671.719
671.719
671.719
671.719
671.719
671.72
669.949
671.719
671.719
671.719
671.719
671.719
671.719
671.719
671.719
671.719
671.719
671.719
671.719
671.719
671.719
671.719
671.719
671.719
671.719
671.72
672.746
671.719
671.719
671.719
671.719
671.719
671.719
671.719
671.719
671.719
671.719
671.719
671.719
671.719
671.719
671.719
671.719
671.719
671.719
671.719
672.266
671.719
671.719
671.719
671.719
671.719
671.719
671.719
671.719
671.719
671.719
671.719
671.719
671.719
671.719
671.719
671.719
671.719
671.719
671.719
672.379
671.719
671.719
671.719
671.719
671.719
671.719
671.719
671.719
671.719
671.719
671.719
671.719
671.719
671.719
671.719
671.719
671.719
671.719
671.719
672.135
671.719
671.719
671.719
671.719
671.719
671.719
671.719
671.719
671.719
671.719
671.719
671.719
671.719
671.719
671.719
671.719
671.719
671.719
671.719
672.067
671.719
671.719
671.719
671.719
671.719
671.719
671.719
671.719
671.719
671.719
671.719
671.719
671.719
671.719
671.719
671.719
671.719
671.719
671.719
671.951
671.719
671.719
671.719
671.719
671.719
671.719
671.719
671.719
671.719
671.719
671.719
671.719
671.719
671.719
671.719
671.719
671.719
671.719
671.719
671.879
671.719
671.719
671.719
671.719
671.719
671.719
671.719
671.719
671.719
671.719
671.719
671.719
671.719
671.719
671.719
671.719
671.719
671.719
671.719
671.82
671.719
671.719
671.719
671.719
671.719
671.719
671.719
671.719
671.719
671.719
671.719
671.719
671.719
671.719
671.719
671.719
671.719
671.719
671.719
671.783
671.719
671.719
671.719
671.719
671.719
671.719
671.719
671.719
671.719
671.719
671.719
671.719
671.719
671.719
671.719
671.719
671.719
671.719
671.719
671.756
671.719
671.719
671.719
671.719
671.719
671.719
671.719
671.719
671.719
671.719
671.719
671.719
671.719
671.719
671.719
671.719
671.719
671.719
671.719
671.74
671.719
671.719
671.719
671.719
671.719
671.719
671.719
671.719
671.719
671.719
671.719
671.719
671.719
671.719
671.719
671.719
671.719
671.719
671.719
671.73
671.719
671.719
671.719
671.719
671.719
671.719
671.719
671.719
671.719
671.719
671.719
671.719
671.719
671.719
671.719
671.719
671.719
671.719
671.719
671.725
671.719
671.719
671.719
671.719
671.719
671.719
671.719
671.719
671.719
671.719
671.719
671.719
671.719
671.719
671.719
671.719
671.719
671.719
671.719
671.722
671.719
671.719
671.719
671.719
671.719
671.719
671.719
671.719
671.719
671.719
671.719
671.719
671.719
671.719
671.719
671.719
671.719
671.719
671.719
671.72
671.719
671.719
671.719
671.719
671.719
671.719
671.719
671.719
671.719
671.719
671.719
671.719
671.719
671.719
671.719
671.719
671.719
671.719
671.719
671.72
671.719
671.719
671.719
671.719
671.719
671.719
671.719
671.719
671.719
671.719
671.719
671.719
671.719
671.719
671.719
671.719
671.719
671.719
671.719
671.719
671.719
671.719
671.719
671.719
671.719
671.719
671.719
671.719
671.719
671.719
671.719
671.719
671.719
671.719
671.719
671.719
671.719
671.719
671.719
671.719
671.719
671.719
671.719
671.719
671.719
671.719
671.719
671.719
671.719
671.719
671.719
671.719
671.719
671.719
671.719
671.719
671.719
671.719
671.719
671.719
671.719
671.719
671.719
671.719
671.719
671.719
671.719
671.719
671.719
671.719
671.719
671.719
671.719
671.719
671.719
671.719
671.719
671.719
671.719
671.719
671.719
671.719
671.719
671.719
671.719
671.719
671.719
671.719
671.719
671.719
671.719
671.719
671.719
671.719
671.719
671.719
671.719
671.719
671.719
671.719
671.719
671.719
671.719
671.719
671.719
671.719
671.719
671.719
671.719
671.719
671.719
671.719
671.719
671.719
671.719
671.719
671.719
671.719
671.719
671.719
671.719
671.719
671.719
671.719
671.719
671.719
671.719
671.719
671.719
671.719
671.719
671.719
671.719
671.719
671.719
671.719
671.719
671.719
671.719
671.719
671.719
671.719
671.719
671.719
671.719
671.719
671.719
671.719
671.719
671.719
671.719
671.719
671.719
671.719
671.719
671.719
671.719
671.719
671.719
671.719
671.719
671.719
671.719
671.719
671.719
671.719
671.719
671.719
671.719
671.719
671.719
671.719
671.719
671.719
671.719
671.719
671.719
671.719
671.719
671.719
671.719
671.719
671.719
671.719
671.719
671.719
671.719
671.719
671.719
671.719
671.719
671.719
671.719
671.719
671.719
671.719
671.719
671.719
671.719
671.719
671.719
671.719
671.719
671.719
671.719
671.719
671.719
671.719
671.719
671.719
671.719
671.719
671.719
671.719
671.719
671.719
671.719
671.719
671.719
671.719
671.719
671.719
671.719
671.719
671.719
671.719
671.719
671.719
671.719
671.719
671.719
671.719
671.719
671.719
671.719
671.719
671.719
671.719
671.719
671.719
671.719
671.719
671.719
671.719
671.719
671.719
671.719
671.719
671.719
671.719
671.719
671.719
671.719
671.719
671.719
671.719
671.719
671.719
671.719
671.719
671.719
671.719
671.719
671.719
671.719
671.719
671.719
671.719
671.719
671.719
671.719
671.719
671.719
671.719
671.719
671.719
671.719
671.719
671.719
671.719
671.719
671.719
671.719
671.719
671.719
671.719
671.719
671.719
671.719
671.719
671.719
671.719
671.719
671.719
671.719
671.719
671.719
671.719
671.719
671.719
671.719
671.719
671.719
671.719
671.719
671.719
671.719
671.719
671.719
671.719
671.719
671.719
671.719
671.719
671.719
671.719
671.719
671.719
671.719
671.719
671.719
671.719
671.719
671.719
671.719
671.719
671.719
671.719
671.719
671.719
671.719
671.719
671.719
671.719
671.719
671.719
671.719
671.719
671.719
671.719
671.719
671.719
671.719
671.719
671.719
671.719
671.719
671.719
671.719
671.719
671.719
671.719
671.719
671.719
671.719
671.719
671.719
671.719
671.719
671.719
671.719
671.719
671.719
671.719
671.719
671.719
671.719
671.719
671.719
671.719
671.719
671.719
671.719
671.719
671.719
671.719
671.719
671.719
671.719
671.719
671.719
671.719
671.719
671.719
671.719
671.719
671.719
671.719
671.719
671.719
671.719
671.719
671.719
671.719
671.719
671.719
671.719
671.719
671.719
671.719
671.719
671.719
671.719
671.719
671.719
671.719
671.719
671.719
671.719
671.719
671.719
671.719
671.719
671.719
671.719
671.719
671.719
671.719
671.719
671.719
671.719
671.719
671.719
671.719
671.719
671.719
671.719
671.719
671.719
671.719
671.719
671.719
671.719
671.719
671.719
671.719
671.719
671.719
671.719
671.719
671.719
671.719
671.719
671.719
671.719
671.719
671.719
671.719
671.719
671.719
671.719
671.719
671.719
671.719
671.719
671.719
671.719
671.719
671.719
671.719
671.719
671.719
671.719
671.719
671.719
671.719
671.719
671.719
671.719
671.719
671.719
671.719
671.719
671.719
671.719
671.719
671.719
671.719
671.719
671.719
671.719
671.719
671.719
671.719
671.719
671.719
671.719
671.719
671.719
671.719
671.719
671.719
671.719
671.719
671.719
671.719
671.719
671.719
671.719
671.719
671.719
671.719
671.719
671.719
671.719
671.719
671.719
671.719
671.719
671.719
671.719
671.719
671.719
671.719
671.719
671.719
671.719
671.719
671.719
671.719
671.719
671.719
671.719
671.719
671.719
671.719
671.719
671.719
671.719
671.719
671.719
671.719
671.719
671.719
671.719
671.719
671.719
671.719
671.719
671.719
671.719
671.719
671.719
671.719
671.719
671.719
671.719
671.719
671.719
671.719
671.719
671.719
671.719
671.719
671.719
671.719
671.719
671.719
671.719
671.719
671.719
671.719
671.719
671.719
671.719
671.719
671.719
671.719
671.719
671.719
671.719
671.719
671.719
671.719
671.719
671.719
671.719
671.719
671.719
671.719
671.719
671.719
671.719
671.719
671.719
671.719
671.719
671.719
671.719
671.719
671.719
671.719
671.719
671.719
671.719
671.719
671.719
671.719
671.719
671.719
671.719
671.719
671.719
671.719
671.719
671.719
671.719
671.719
671.719
671.719
671.719
671.719
671.719
671.719
671.719
671.719
671.719
671.719
671.719
671.719
671.719
671.719
671.719
671.719
671.719
671.719
671.719
671.719
671.719
671.719
671.719
671.719
671.719
671.719
671.719
671.719
671.719
671.719
671.719
671.719
671.719
671.719
671.719
671.719
671.719
671.719
671.719
671.719
671.719
671.719
671.719
671.719
671.719
671.719
671.719
671.719
671.719
671.719
671.719
671.719
671.719
671.719
671.719
671.719
671.719
671.719
671.719
671.719
671.719
671.719
671.719
671.719
671.719
671.719
671.719
671.719
671.719
671.719
671.719
671.719
671.719
671.719
671.719
671.719
671.719
671.719
671.719
671.719
671.719
671.719
671.719
671.719
671.719
671.719
671.719
671.719
671.719
671.719
671.719
671.719
671.719
671.719
671.719
671.719
671.719
671.719
671.719
671.719
671.719
671.719
671.719
671.719
671.719
671.719
671.719
671.719
671.719
671.719
671.719
671.719
671.719
671.719
671.719
671.719
671.719
671.719
671.719
671.719
671.719
671.719
671.719
671.719
671.719
671.719
671.719
671.719
671.719
671.719
671.719
671.719
671.719
671.719
671.719
671.719
671.719
671.719
671.719
671.719
671.719
671.719
671.719
671.719
671.719
671.719
671.719
671.719
671.719
671.719
671.719
671.719
671.719
671.719
671.719
671.719
671.719
671.719
671.719
671.719
671.719
671.719
671.719
671.719
671.719
671.719
671.719
671.719
671.719
671.719
671.719
671.719
671.719
671.719
671.719
671.719
671.719
671.719
671.719
671.719
671.719
671.719
671.719
671.719
671.719
671.719
671.719
671.719
671.719
671.719
671.719
671.719
671.719
671.719
671.719
671.719
671.719
671.719
671.719
671.719
671.719
671.719
671.719
671.719
671.719
671.719
671.719
671.719
671.719
671.719
671.719
671.719
671.719
671.719
671.719
671.719
671.719
671.719
671.719
671.719
671.719
671.719
671.719
671.719
671.719
671.719
671.719
671.719
671.719
671.719
671.719
671.719
671.719
671.719
671.719
671.719
671.719
671.719
671.719
671.719
671.719
671.719
671.719
671.719
671.719
671.719
671.719
671.719
671.719
671.719
671.719
671.719
671.719
671.719
671.719
671.719
671.719
671.719
671.719
671.719
671.719
671.719
671.719
671.719
671.719
671.719
671.719
671.719
671.719
671.719
671.719
671.719
671.719
671.719
671.719
671.719
671.719
671.719
671.719
671.719
671.719
671.719
671.719
671.719
671.719
671.719
671.719
671.719
671.719
671.719
671.719
671.719
671.719
671.719
671.719
671.719
671.719
671.719
671.719
671.719
671.719
671.719
671.719
671.719
671.719
671.719
671.719
671.719
671.719
671.719
671.719
671.719
671.719
671.719
671.719
671.719
671.719
671.719
671.719
671.719
671.719
671.719
671.719
671.719
671.719
671.719
671.719
671.719
671.719
671.719
671.719
671.719
671.719
671.719
671.719
671.719
671.719
671.719
671.719
671.719
671.719
671.719
671.719
671.719
671.719
671.719
671.719
671.719
671.719
671.719
671.719
671.719
671.719
671.719
671.719
671.719
671.719
671.719
671.719
671.719
671.719
671.719
671.719
671.719
671.719
671.719
671.719
671.719
671.719
671.719
671.719
671.719
671.719
671.719
671.719
671.719
671.719
671.719
671.719
671.719
671.719
671.719
671.719
671.719
671.719
671.719
671.719
671.719
671.719
671.719
671.719
671.719
671.719
671.719
671.719
671.719
671.719
671.719
671.719
671.719
671.719
671.719
671.719
671.719
671.719
671.719
671.719
671.719
671.719
671.719
671.719
671.719
671.719
671.719
671.719
671.719
671.719
671.719
671.719
671.719
671.719
671.719
671.719
671.719
671.719
671.719
671.719
671.719
671.719
671.719
671.719
671.719
671.719
671.719
671.719
671.719
671.719
671.719
671.719
671.719
671.719
671.719
671.719
671.719
671.719
671.719
671.719
671.719
671.719
671.719
671.719
671.719
671.719
671.719
671.719
671.719
671.719
671.719
671.719
671.719
671.719
671.719
671.719
671.719
671.719
671.719
671.719
671.719
671.719
671.719
671.719
671.719
671.719
671.719
671.719
671.719
671.719
671.719
671.719
671.719
671.719
671.719
671.719
671.719
671.719
671.719
671.719
671.719
671.719
671.719
671.719
671.719
671.719
671.719
671.719
671.719
671.719
671.719
671.719
671.719
671.719
671.719
671.719
671.719
671.719
671.719
671.719
671.719
671.719
671.719
671.719
671.719
671.719
671.719
671.719
671.719
671.719
671.719
671.719
671.719
671.719
671.719
671.719
671.719
671.719
671.719
671.719
671.719
671.719
671.719
671.719
671.719
671.719
671.719
671.719
671.719
671.719
671.719
671.719
671.719
671.719
671.719
671.719
671.719
671.719
671.719
671.719
671.719
671.719
671.719
671.719
671.719
671.719
671.719
671.719
671.719
671.719
671.719
671.719
671.719
671.719
671.719
671.719
671.719
671.719
671.719
671.719
671.719
671.719
671.719
671.719
671.719
671.719
671.719
671.719
671.719
671.719
671.719
671.719
671.719
671.719
671.719
671.719
671.719
671.719
671.719
671.719
671.719
671.719
671.719
671.719
671.719
671.719
671.719
671.719
671.719
671.719
671.719
671.719
671.719
671.719
671.719
671.719
671.719
671.719
671.719
671.719
671.719
671.719
671.719
671.719
671.719
671.719
671.719
671.719
671.719
671.719
671.719
671.719
671.719
671.719
671.719
671.719
671.719
671.719
671.719
671.719
671.719
671.719
671.719
671.719
671.719
671.719
671.719
671.719
671.719
671.719
671.719
671.719
671.719
671.719
671.719
671.719
671.719
671.719
671.719
671.719
671.719
671.719
671.719
671.719
671.719
671.719
671.719
671.719
671.719
671.719
671.719
671.719
671.719
671.719
671.719
671.719
671.719
671.719
671.719
671.719
671.719
671.719
671.719
671.719
671.719
671.719
671.719
671.719
671.719
671.719
671.719
671.719
671.719
671.719
671.719
671.719
671.719
671.719
671.719
671.719
671.719
671.719
671.719
671.719
671.719
671.719
671.719
671.719
671.719
671.719
671.719
671.719
671.719
671.719
671.719
671.719
671.719
671.719
671.719
671.719
671.719
671.719
671.719
671.719
671.719
671.719
671.719
671.719
671.719
671.719
671.719
671.719
671.719
671.719
671.719
671.719
671.719
671.719
671.719
671.719
671.719
671.719
671.719
671.719
671.719
671.719
671.719
671.719
671.719
671.719
671.719
671.719
671.719
671.719
671.719
671.719
671.719
671.719
671.719
671.719
671.719
671.719
671.719
671.719
671.719
671.719
671.719
671.719
671.719
671.719
671.719
671.719
671.719
671.719
671.719
671.719
671.719
671.719
671.719
671.719
671.719
671.719
671.719
671.719
671.719
671.719
671.719
671.719
671.719
671.719
671.719
671.719
671.719
671.719
671.719
671.719
671.719
671.719
671.719
671.719
671.719
671.719
671.719
671.719
671.719
671.719
671.719
671.719
671.719
671.719
671.719
671.719
671.719
671.719
671.719
671.719
671.719
671.719
671.719
671.719
671.719
671.719
671.719
671.719
671.719
671.719
671.719
671.719
671.719
671.719
671.719
671.719
671.719
671.719
671.719
671.719
671.719
671.719
671.719
671.719
671.719
671.719
671.719
671.719
671.719
671.719
671.719
671.719
671.719
671.719
671.719
671.719
671.719
671.719
671.719
671.719
671.719
671.719
671.719
671.719
671.719
671.719
671.719
671.719
671.719
671.719
671.719
671.719
671.719
671.719
671.719
671.719
671.719
671.719
671.719
671.719
671.719
671.719
671.719
671.719
671.719
671.719
671.719
671.719
671.719
671.719
671.719
671.719
671.719
671.719
671.719
671.719
671.719
671.719
671.719
671.719
671.719
671.719
671.719
671.719
671.719
671.719
671.719
671.719
671.719
671.719
671.719
671.719
671.719
671.719
671.719
671.719
671.719
671.719
671.719
671.719
671.719
671.719
671.719
671.719
671.719
671.719
671.719
671.719
671.719
671.719
671.719
671.719
671.719
671.719
671.719
671.719
671.719
671.719
671.719
671.719
671.719
671.719
671.719
671.719
671.719
671.719
671.719
671.719
671.719
671.719
671.719
671.719
671.719
671.719
671.719
671.719
671.719
671.719
671.719
671.719
671.719
671.719
671.719
671.719
671.719
671.719
671.719
671.719
671.719
671.719
671.719
671.719
671.719
671.719
671.719
671.719
671.719
671.719
671.719
671.719
671.719
671.719
671.719
671.719
671.719
671.719
671.719
671.719
671.719
671.719
671.719
671.719
671.719
671.719
671.719
671.719
671.719
671.719
671.719
671.719
671.719
671.719
671.719
671.719
671.719
671.719
671.719
671.719
671.719
671.719
671.719
671.719
671.719
671.719
671.719
671.719
671.719
671.719
671.719
671.719
671.719
671.719
671.719
671.719
671.719
671.719
671.719
671.719
671.719
671.719
671.719
671.719
671.719
671.719
671.719
671.719
671.719
671.719
671.719
671.719
671.719
671.719
671.719
671.719
671.719
671.719
671.719
671.719
671.719
671.719
671.719
671.719
671.719
671.719
671.719
671.719
671.719
671.719
671.719
671.719
671.719
671.719
671.719
671.719
671.719
671.719
671.719
671.719
671.719
1192.71
1020.52
889.419
847.489
808.209
785.477
770.365
758.766
749.642
740.757
731.219
721.969
715.945
712.122
711.926
713.714
715.488
716.825
717.618
717.929
717.853
717.244
716.479
715.766
715.008
714.269
713.398
712.488
711.692
710.951
710.229
709.528
708.89
708.285
707.71
707.177
706.622
706.039
705.475
704.944
704.473
704.041
703.62
703.217
702.818
702.393
701.969
701.591
701.24
700.875
700.519
700.186
699.861
699.54
699.237
698.922
698.603
698.267
698.201
697.523
1119.19
1030.95
890.39
847.907
808.449
785.629
770.466
758.836
749.692
740.794
731.244
721.98
715.951
712.12
711.926
713.718
715.49
716.828
717.623
717.935
717.858
717.248
716.483
715.771
715.013
714.273
713.401
712.491
711.695
710.953
710.231
709.53
708.891
708.286
707.711
707.178
706.623
706.04
705.476
704.945
704.474
704.042
703.62
703.218
702.818
702.393
701.969
701.592
701.24
700.875
700.519
700.186
699.861
699.54
699.237
698.922
698.603
698.267
698.201
697.523
1074.68
1040.99
891.398
848.197
808.577
785.716
770.523
758.877
749.721
740.815
731.257
721.986
715.954
712.118
711.922
713.717
715.491
716.831
717.626
717.938
717.861
717.252
716.487
715.774
715.015
714.275
713.402
712.493
711.696
710.955
710.232
709.531
708.892
708.287
707.712
707.179
706.623
706.041
705.476
704.945
704.474
704.042
703.621
703.218
702.819
702.393
701.969
701.592
701.24
700.876
700.519
700.186
699.861
699.54
699.237
698.922
698.603
698.267
698.201
697.523
1005.04
1054.63
894.327
848.829
808.773
785.842
770.605
758.934
749.763
740.845
731.278
721.992
715.958
712.114
711.919
713.717
715.492
716.834
717.63
717.943
717.865
717.256
716.491
715.777
715.018
714.278
713.405
712.495
711.698
710.956
710.234
709.533
708.894
708.289
707.713
707.18
706.624
706.041
705.477
704.946
704.475
704.043
703.621
703.218
702.819
702.394
701.97
701.592
701.24
700.876
700.519
700.186
699.862
699.541
699.237
698.922
698.603
698.267
698.201
697.523
979.62
1046.86
901.53
849.409
809.162
786.024
770.708
759.004
749.815
740.883
731.304
722.001
715.964
712.11
711.913
713.714
715.493
716.838
717.636
717.949
717.871
717.261
716.496
715.782
715.022
714.282
713.409
712.498
711.701
710.959
710.236
709.535
708.895
708.29
707.715
707.181
706.625
706.042
705.478
704.947
704.475
704.043
703.622
703.219
702.82
702.394
701.97
701.593
701.241
700.876
700.52
700.186
699.862
699.541
699.237
698.923
698.603
698.268
698.201
697.523
944.3
1037.81
917.293
850.47
809.706
786.342
770.871
759.102
749.887
740.936
731.344
722.031
715.978
712.106
711.903
713.711
715.491
716.847
717.645
717.957
717.88
717.269
716.503
715.789
715.029
714.287
713.413
712.502
711.705
710.962
710.239
709.537
708.898
708.292
707.716
707.183
706.627
706.044
705.479
704.948
704.476
704.044
703.622
703.22
702.82
702.395
701.97
701.593
701.241
700.876
700.52
700.187
699.862
699.541
699.237
698.923
698.603
698.268
698.201
697.523
895.85
1011.7
937.613
852.109
810.583
786.916
771.143
759.263
749.999
741.019
731.415
722.101
716.012
712.112
711.904
713.734
715.524
716.854
717.655
717.969
717.891
717.279
716.513
715.798
715.037
714.294
713.42
712.508
711.71
710.967
710.243
709.541
708.901
708.295
707.719
707.185
706.629
706.045
705.48
704.949
704.478
704.045
703.623
703.221
702.821
702.395
701.971
701.594
701.242
700.877
700.52
700.187
699.862
699.541
699.238
698.923
698.604
698.268
698.202
697.523
847.839
1004.05
960.327
856.756
811.42
787.894
771.673
759.544
750.184
741.16
731.544
722.216
716.074
712.216
711.975
713.754
715.546
716.877
717.674
717.988
717.909
717.296
716.528
715.812
715.049
714.306
713.429
712.517
711.718
710.973
710.249
709.546
708.905
708.299
707.722
707.188
706.631
706.048
705.482
704.951
704.479
704.047
703.625
703.222
702.822
702.396
701.972
701.594
701.242
700.878
700.521
700.188
699.863
699.542
699.238
698.923
698.604
698.268
698.202
697.523
799.8
994.731
975.296
865.568
813.168
789.051
772.545
760.068
750.506
741.421
731.787
722.426
716.243
712.357
712.088
713.804
715.586
716.908
717.705
718.017
717.937
717.321
716.551
715.834
715.069
714.322
713.444
712.529
711.729
710.983
710.257
709.553
708.911
708.305
707.727
707.192
706.635
706.051
705.486
704.954
704.482
704.049
703.627
703.223
702.824
702.398
701.973
701.595
701.243
700.878
700.522
700.188
699.864
699.542
699.239
698.924
698.604
698.269
698.202
697.524
761.246
969.876
981.027
882.325
817.944
789.781
773.747
761.174
751.214
741.872
732.236
722.836
716.528
712.526
712.191
713.809
715.633
716.951
717.748
718.058
717.976
717.356
716.581
715.86
715.092
714.343
713.463
712.546
711.744
710.997
710.269
709.564
708.921
708.313
707.734
707.199
706.641
706.056
705.49
704.958
704.485
704.052
703.629
703.226
702.826
702.4
701.975
701.597
701.245
700.88
700.523
700.189
699.865
699.543
699.239
698.925
698.605
698.269
698.203
697.524
729.522
944.415
976.309
902.214
827.629
791.779
774.423
761.853
752.385
742.968
733.034
723.454
716.982
712.831
712.304
713.836
715.696
717.01
717.809
718.114
718.029
717.402
716.622
715.896
715.124
714.372
713.488
712.569
711.764
711.015
710.285
709.578
708.933
708.323
707.744
707.207
706.648
706.063
705.496
704.963
704.49
704.056
703.633
703.229
702.828
702.402
701.977
701.599
701.246
700.881
700.524
700.191
699.866
699.544
699.24
698.926
698.606
698.27
698.203
697.525
706.557
896.96
975.125
921.29
839.338
796.8
775.82
763.096
752.935
743.924
734.361
724.626
717.621
713.206
712.476
713.859
715.795
717.094
717.887
718.196
718.101
717.465
716.677
715.947
715.169
714.412
713.523
712.6
711.792
711.039
710.306
709.596
708.949
708.338
707.756
707.218
706.658
706.071
705.503
704.97
704.496
704.061
703.638
703.233
702.832
702.405
701.98
701.602
701.249
700.883
700.526
700.193
699.867
699.546
699.242
698.927
698.607
698.271
698.204
697.527
691.177
848.476
966.272
935.202
856.721
802.3
779.122
764.468
753.846
744.878
735.326
725.898
718.683
713.961
712.787
713.97
715.87
717.193
718
718.303
718.195
717.55
716.751
716.013
715.227
714.464
713.568
712.64
711.827
711.07
710.334
709.62
708.971
708.356
707.772
707.232
706.67
706.082
705.513
704.978
704.503
704.068
703.644
703.239
702.837
702.41
701.984
701.605
701.252
700.886
700.529
700.195
699.869
699.548
699.243
698.928
698.608
698.272
698.205
697.528
681.827
797.539
952.409
944.212
875.593
812.696
781.995
767.084
755.539
745.932
736.28
726.91
719.561
714.765
713.388
714.292
716.011
717.273
718.101
718.442
718.318
717.654
716.844
716.1
715.303
714.53
713.626
712.691
711.872
711.109
710.369
709.652
708.998
708.38
707.793
707.25
706.686
706.096
705.526
704.99
704.514
704.077
703.652
703.246
702.843
702.415
701.989
701.61
701.256
700.89
700.532
700.198
699.872
699.55
699.246
698.93
698.61
698.274
698.207
697.531
676.591
752.548
924.884
943.788
895.396
825.707
787.881
769.264
757.292
747.811
737.891
727.911
720.029
715.212
713.811
714.673
716.509
717.493
718.252
718.553
718.438
717.792
716.96
716.204
715.396
714.612
713.697
712.754
711.928
711.158
710.413
709.69
709.032
708.41
707.82
707.274
706.707
706.115
705.542
705.004
704.526
704.088
703.662
703.255
702.851
702.422
701.995
701.615
701.261
700.894
700.536
700.201
699.875
699.553
699.248
698.933
698.612
698.276
698.209
697.533
673.896
718.094
883.026
941.292
909.348
842.181
794.47
772.68
759.756
749.558
739.449
729.849
721.062
715.338
713.626
714.675
716.819
717.881
718.573
718.751
718.589
717.901
717.085
716.335
715.505
714.709
713.783
712.831
711.995
711.219
710.467
709.738
709.074
708.447
707.853
707.302
706.732
706.137
705.562
705.022
704.542
704.102
703.674
703.266
702.861
702.431
702.003
701.622
701.267
700.9
700.541
700.206
699.879
699.557
699.252
698.936
698.615
698.278
698.211
697.536
672.617
695.48
830.28
933.535
922.76
862.218
804.818
776.603
762.124
751.705
741.788
731.538
722.28
716.208
713.347
713.964
716.369
718.097
718.982
719.106
718.867
718.065
717.214
716.449
715.63
714.826
713.881
712.921
712.077
711.29
710.531
709.795
709.124
708.492
707.892
707.337
706.763
706.164
705.586
705.043
704.561
704.119
703.689
703.279
702.873
702.442
702.012
701.631
701.275
700.907
700.547
700.211
699.884
699.561
699.256
698.939
698.618
698.281
698.214
697.54
672.059
682.606
775.988
913.985
922.535
881.826
819.563
782.601
765.132
753.903
743.788
733.771
724.179
716.933
713.601
713.748
716.027
717.551
718.923
719.476
719.18
718.354
717.456
716.602
715.744
714.934
713.997
713.026
712.169
711.374
710.607
709.862
709.184
708.545
707.94
707.379
706.8
706.197
705.615
705.069
704.584
704.14
703.707
703.295
702.887
702.455
702.024
701.641
701.284
700.915
700.554
700.218
699.89
699.566
699.26
698.944
698.622
698.285
698.217
697.544
671.837
676.188
730.768
876.331
920.866
896.096
836.856
790.843
768.747
756.34
746.145
735.971
725.979
718.282
713.83
713.568
715.057
717.271
718.806
719.391
719.362
718.69
717.681
716.864
715.939
715.064
714.094
713.131
712.28
711.469
710.693
709.941
709.254
708.607
707.995
707.429
706.843
706.236
705.65
705.101
704.612
704.164
703.729
703.315
702.905
702.47
702.038
701.653
701.295
700.925
700.563
700.226
699.897
699.573
699.266
698.949
698.627
698.289
698.221
697.548
671.756
673.361
700.365
823.369
913.047
906.661
858.755
803.96
773.973
759.172
748.592
738.45
728.209
719.641
714.416
713.658
714.82
716.505
718.126
719.252
719.278
718.771
718.027
717.136
716.138
715.288
714.238
713.245
712.372
711.57
710.793
710.028
709.334
708.679
708.06
707.487
706.895
706.282
705.692
705.137
704.645
704.193
703.755
703.338
702.925
702.488
702.054
701.668
701.308
700.936
700.574
700.235
699.906
699.58
699.273
698.955
698.632
698.294
698.225
697.553
671.729
672.257
683.656
766.609
890.624
905.94
874.844
819.847
781.278
762.61
751.244
741.049
730.603
721.447
715.149
713.671
714.407
716.267
718.207
718.895
719.043
718.637
718.002
717.352
716.461
715.479
714.427
713.432
712.492
711.663
710.881
710.129
709.423
708.758
708.134
707.553
706.954
706.335
705.74
705.18
704.683
704.227
703.786
703.365
702.949
702.51
702.074
701.685
701.323
700.95
700.586
700.246
699.916
699.589
699.281
698.962
698.639
698.3
698.231
697.558
671.722
671.875
676.008
720.795
846.966
902.786
891.995
842.211
793.024
767.458
754.25
743.831
733.298
723.551
716.25
713.831
714.093
715.8
717.878
718.885
718.983
718.657
717.939
717.255
716.542
715.726
714.662
713.599
712.678
711.807
710.99
710.21
709.512
708.848
708.215
707.627
707.021
706.396
705.795
705.23
704.727
704.267
703.821
703.397
702.978
702.535
702.096
701.705
701.341
700.966
700.601
700.259
699.927
699.6
699.29
698.971
698.647
698.307
698.237
697.565
671.72
671.758
673.048
692.588
789.213
889.106
891.903
860.525
808.746
774.431
757.788
746.748
736.19
726.068
717.759
714.018
713.855
715.384
717.752
718.722
718.892
718.715
718.024
717.262
716.483
715.707
714.821
713.85
712.861
711.967
711.154
710.32
709.599
708.924
708.304
707.71
707.094
706.465
705.857
705.286
704.778
704.312
703.861
703.433
703.01
702.565
702.123
701.729
701.362
700.985
700.617
700.274
699.941
699.612
699.301
698.981
698.656
698.314
698.244
697.571
671.719
671.728
672.072
679.051
734.911
853.368
889.916
877.254
830.694
786.132
762.798
750.017
739.299
728.946
719.737
714.465
713.706
715.003
717.367
718.552
718.878
718.773
718.152
717.387
716.532
715.639
714.747
713.911
713.073
712.169
711.303
710.478
709.732
709.019
708.376
707.788
707.175
706.539
705.926
705.35
704.835
704.364
703.908
703.475
703.048
702.598
702.153
701.756
701.386
701.007
700.637
700.292
699.957
699.626
699.314
698.992
698.666
698.324
698.252
697.579
671.719
671.721
671.799
673.854
698.581
797.259
880.393
879.9
849.407
801.684
769.87
753.807
742.575
732.168
722.254
715.166
713.691
714.714
716.981
718.243
718.802
718.835
718.308
717.549
716.659
715.715
714.753
713.878
713.071
712.296
711.506
710.639
709.874
709.159
708.476
707.868
707.241
706.619
706.003
705.419
704.9
704.422
703.96
703.522
703.09
702.637
702.188
701.787
701.414
701.032
700.659
700.312
699.975
699.642
699.329
699.005
698.678
698.334
698.262
697.587
671.719
671.719
671.734
672.232
680.759
739.388
847.525
877.507
867.428
824.731
782.235
759.232
746.211
735.649
725.231
716.55
713.755
714.616
716.442
717.823
718.762
718.865
718.44
717.733
716.829
715.818
714.873
713.94
713.057
712.254
711.552
710.817
710.046
709.292
708.615
707.983
707.324
706.682
706.074
705.495
704.969
704.486
704.02
703.575
703.138
702.681
702.227
701.823
701.446
701.06
700.685
700.335
699.995
699.661
699.345
699.02
698.691
698.346
698.272
697.597
671.719
671.719
671.721
671.82
674.136
699.437
791.869
869.078
868.839
842.572
798.491
767.114
750.579
739.43
728.65
718.572
714.142
714.66
715.887
717.289
718.654
718.855
718.599
717.924
716.989
715.975
715.002
714.073
713.156
712.268
711.517
710.814
710.151
709.464
708.753
708.113
707.447
706.768
706.146
705.557
705.044
704.556
704.082
703.635
703.192
702.729
702.272
701.863
701.482
701.093
700.714
700.361
700.019
699.682
699.364
699.037
698.707
698.36
698.285
697.607
671.719
671.719
671.719
671.735
672.23
680.342
733.688
833.796
865.675
859.307
822.331
780.662
756.725
743.547
732.307
721.443
715.07
714.809
715.258
716.638
718.496
718.866
718.693
718.103
717.168
716.114
715.169
714.249
713.269
712.387
711.57
710.804
710.113
709.5
708.9
708.258
707.558
706.893
706.247
705.634
705.101
704.621
704.151
703.698
703.251