/*--------------------------------*- C++ -*----------------------------------*\
| =========                 |                                                 |
| \\      /  F ield         | OpenFOAM: The Open Source CFD Toolbox           |
|  \\    /   O peration     | Version:  v2012                                 |
|   \\  /    A nd           | Website:  www.openfoam.com                      |
|    \\/     M anipulation  |                                                 |
\*---------------------------------------------------------------------------*/
FoamFile
{
    version     2.0;
    format      ascii;
    class       volScalarField;
    location    "2000";
    object      rho;
}
// * * * * * * * * * * * * * * * * * * * * * * * * * * * * * * * * * * * * * //

dimensions      [1 -3 0 0 0 0 0];


internalField   nonuniform List<scalar> 
8000
(
0.0386129
0.0386129
0.0386129
0.0386129
0.0386129
0.0386129
0.0386129
0.0386129
0.0386129
0.0386129
0.0386129
0.0386129
0.0386129
0.0386129
0.0386129
0.0386129
0.0386129
0.0386129
0.0386129
0.0384996
0.0386129
0.0386129
0.0386129
0.0386129
0.0386129
0.0386129
0.0386129
0.0386129
0.0386129
0.0386129
0.0386129
0.0386129
0.0386129
0.0386129
0.0386129
0.0386129
0.0386129
0.0386129
0.0386129
0.0386456
0.0386129
0.0386129
0.0386129
0.0386129
0.0386129
0.0386129
0.0386129
0.0386129
0.0386129
0.0386129
0.0386129
0.0386129
0.0386129
0.0386129
0.0386129
0.0386129
0.0386129
0.0386129
0.038613
0.0386291
0.0386129
0.0386129
0.0386129
0.0386129
0.0386129
0.0386129
0.0386129
0.0386129
0.0386129
0.0386129
0.0386129
0.0386129
0.0386129
0.0386129
0.0386129
0.0386129
0.0386129
0.0386129
0.038613
0.0386377
0.0386129
0.0386129
0.0386129
0.0386129
0.0386129
0.0386129
0.0386129
0.0386129
0.0386129
0.0386129
0.0386129
0.0386129
0.0386129
0.0386129
0.0386129
0.0386129
0.0386129
0.0386129
0.0386129
0.0386288
0.0386129
0.0386129
0.0386129
0.0386129
0.0386129
0.0386129
0.0386129
0.0386129
0.0386129
0.0386129
0.0386129
0.0386129
0.0386129
0.0386129
0.0386129
0.0386129
0.0386129
0.0386129
0.0386129
0.0386269
0.0386129
0.0386129
0.0386129
0.0386129
0.0386129
0.0386129
0.0386129
0.0386129
0.0386129
0.0386129
0.0386129
0.0386129
0.0386129
0.0386129
0.0386129
0.0386129
0.0386129
0.0386129
0.0386129
0.0386223
0.0386129
0.0386129
0.0386129
0.0386129
0.0386129
0.0386129
0.0386129
0.0386129
0.0386129
0.0386129
0.0386129
0.0386129
0.0386129
0.0386129
0.0386129
0.0386129
0.0386129
0.0386129
0.0386129
0.0386195
0.0386129
0.0386129
0.0386129
0.0386129
0.0386129
0.0386129
0.0386129
0.0386129
0.0386129
0.0386129
0.0386129
0.0386129
0.0386129
0.0386129
0.0386129
0.0386129
0.0386129
0.0386129
0.0386129
0.0386171
0.0386129
0.0386129
0.0386129
0.0386129
0.0386129
0.0386129
0.0386129
0.0386129
0.0386129
0.0386129
0.0386129
0.0386129
0.0386129
0.0386129
0.0386129
0.0386129
0.0386129
0.0386129
0.0386129
0.0386154
0.0386129
0.0386129
0.0386129
0.0386129
0.0386129
0.0386129
0.0386129
0.0386129
0.0386129
0.0386129
0.0386129
0.0386129
0.0386129
0.0386129
0.0386129
0.0386129
0.0386129
0.0386129
0.0386129
0.0386146
0.0386129
0.0386129
0.0386129
0.0386129
0.0386129
0.0386129
0.0386129
0.0386129
0.0386129
0.0386129
0.0386129
0.0386129
0.0386129
0.0386129
0.0386129
0.0386129
0.0386129
0.0386129
0.0386129
0.0386139
0.0386129
0.0386129
0.0386129
0.0386129
0.0386129
0.0386129
0.0386129
0.0386129
0.0386129
0.0386129
0.0386129
0.0386129
0.0386129
0.0386129
0.0386129
0.0386129
0.0386129
0.0386129
0.0386129
0.0386134
0.0386129
0.0386129
0.0386129
0.0386129
0.0386129
0.0386129
0.0386129
0.0386129
0.0386129
0.0386129
0.0386129
0.0386129
0.0386129
0.0386129
0.0386129
0.0386129
0.0386129
0.0386129
0.0386129
0.0386132
0.0386129
0.0386129
0.0386129
0.0386129
0.0386129
0.0386129
0.0386129
0.0386129
0.0386129
0.0386129
0.0386129
0.0386129
0.0386129
0.0386129
0.0386129
0.0386129
0.0386129
0.0386129
0.0386129
0.038613
0.0386129
0.0386129
0.0386129
0.0386129
0.0386129
0.0386129
0.0386129
0.0386129
0.0386129
0.0386129
0.0386129
0.0386129
0.0386129
0.0386129
0.0386129
0.0386129
0.0386129
0.0386129
0.0386129
0.038613
0.0386129
0.0386129
0.0386129
0.0386129
0.0386129
0.0386129
0.0386129
0.0386129
0.0386129
0.0386129
0.0386129
0.0386129
0.0386129
0.0386129
0.0386129
0.0386129
0.0386129
0.0386129
0.0386129
0.0386129
0.0386129
0.0386129
0.0386129
0.0386129
0.0386129
0.0386129
0.0386129
0.0386129
0.0386129
0.0386129
0.0386129
0.0386129
0.0386129
0.0386129
0.0386129
0.0386129
0.0386129
0.0386129
0.0386129
0.0386129
0.0386129
0.0386129
0.0386129
0.0386129
0.0386129
0.0386129
0.0386129
0.0386129
0.0386129
0.0386129
0.0386129
0.0386129
0.0386129
0.0386129
0.0386129
0.0386129
0.0386129
0.0386129
0.0386129
0.0386129
0.0386129
0.0386129
0.0386129
0.0386129
0.0386129
0.0386129
0.0386129
0.0386129
0.0386129
0.0386129
0.0386129
0.0386129
0.0386129
0.0386129
0.0386129
0.0386129
0.0386129
0.0386129
0.0386129
0.0386129
0.0386129
0.0386129
0.0386129
0.0386129
0.0386129
0.0386129
0.0386129
0.0386129
0.0386129
0.0386129
0.0386129
0.0386129
0.0386129
0.0386129
0.0386129
0.0386129
0.0386129
0.0386129
0.0386129
0.0386129
0.0386129
0.0386129
0.0386129
0.0386129
0.0386129
0.0386129
0.0386129
0.0386129
0.0386129
0.0386129
0.0386129
0.0386129
0.0386129
0.0386129
0.0386129
0.0386129
0.0386129
0.0386129
0.0386129
0.0386129
0.0386129
0.0386129
0.0386129
0.0386129
0.0386129
0.0386129
0.0386129
0.0386129
0.0386129
0.0386129
0.0386129
0.0386129
0.0386129
0.0386129
0.0386129
0.0386129
0.0386129
0.0386129
0.0386129
0.0386129
0.0386129
0.0386129
0.0386129
0.0386129
0.0386129
0.0386129
0.0386129
0.0386129
0.0386129
0.0386129
0.0386129
0.0386129
0.0386129
0.0386129
0.0386129
0.0386129
0.0386129
0.0386129
0.0386129
0.0386129
0.0386129
0.0386129
0.0386129
0.0386129
0.0386129
0.0386129
0.0386129
0.0386129
0.0386129
0.0386129
0.0386129
0.0386129
0.0386129
0.0386129
0.0386129
0.0386129
0.0386129
0.0386129
0.0386129
0.0386129
0.0386129
0.0386129
0.0386129
0.0386129
0.0386129
0.0386129
0.0386129
0.0386129
0.0386129
0.0386129
0.0386129
0.0386129
0.0386129
0.0386129
0.0386129
0.0386129
0.0386129
0.0386129
0.0386129
0.0386129
0.0386129
0.0386129
0.0386129
0.0386129
0.0386129
0.0386129
0.0386129
0.0386129
0.0386129
0.0386129
0.0386129
0.0386129
0.0386129
0.0386129
0.0386129
0.0386129
0.0386129
0.0386129
0.0386129
0.0386129
0.0386129
0.0386129
0.0386129
0.0386129
0.0386129
0.0386129
0.0386129
0.0386129
0.0386129
0.0386129
0.0386129
0.0386129
0.0386129
0.0386129
0.0386129
0.0386129
0.0386129
0.0386129
0.0386129
0.0386129
0.0386129
0.0386129
0.0386129
0.0386129
0.0386129
0.0386129
0.0386129
0.0386129
0.0386129
0.0386129
0.0386129
0.0386129
0.0386129
0.0386129
0.0386129
0.0386129
0.0386129
0.0386129
0.0386129
0.0386129
0.0386129
0.0386129
0.0386129
0.0386129
0.0386129
0.0386129
0.0386129
0.0386129
0.0386129
0.0386129
0.0386129
0.0386129
0.0386129
0.0386129
0.0386129
0.0386129
0.0386129
0.0386129
0.0386129
0.0386129
0.0386129
0.0386129
0.0386129
0.0386129
0.0386129
0.0386129
0.0386129
0.0386129
0.0386129
0.0386129
0.0386129
0.0386129
0.0386129
0.0386129
0.0386129
0.0386129
0.0386129
0.0386129
0.0386129
0.0386129
0.0386129
0.0386129
0.0386129
0.0386129
0.0386129
0.0386129
0.0386129
0.0386129
0.0386129
0.0386129
0.0386129
0.0386129
0.0386129
0.0386129
0.0386129
0.0386129
0.0386129
0.0386129
0.0386129
0.0386129
0.0386129
0.0386129
0.0386129
0.0386129
0.0386129
0.0386129
0.0386129
0.0386129
0.0386129
0.0386129
0.0386129
0.0386129
0.0386129
0.0386129
0.0386129
0.0386129
0.0386129
0.0386129
0.0386129
0.0386129
0.0386129
0.0386129
0.0386129
0.0386129
0.0386129
0.0386129
0.0386129
0.0386129
0.0386129
0.0386129
0.0386129
0.0386129
0.0386129
0.0386129
0.0386129
0.0386129
0.0386129
0.0386129
0.0386129
0.0386129
0.0386129
0.0386129
0.0386129
0.0386129
0.0386129
0.0386129
0.0386129
0.0386129
0.0386129
0.0386129
0.0386129
0.0386129
0.0386129
0.0386129
0.0386129
0.0386129
0.0386129
0.0386129
0.0386129
0.0386129
0.0386129
0.0386129
0.0386129
0.0386129
0.0386129
0.0386129
0.0386129
0.0386129
0.0386129
0.0386129
0.0386129
0.0386129
0.0386129
0.0386129
0.0386129
0.0386129
0.0386129
0.0386129
0.0386129
0.0386129
0.0386129
0.0386129
0.0386129
0.0386129
0.0386129
0.0386129
0.0386129
0.0386129
0.0386129
0.0386129
0.0386129
0.0386129
0.0386129
0.0386129
0.0386129
0.0386129
0.0386129
0.0386129
0.0386129
0.0386129
0.0386129
0.0386129
0.0386129
0.0386129
0.0386129
0.0386129
0.0386129
0.0386129
0.0386129
0.0386129
0.0386129
0.0386129
0.0386129
0.0386129
0.0386129
0.0386129
0.0386129
0.0386129
0.0386129
0.0386129
0.0386129
0.0386129
0.0386129
0.0386129
0.0386129
0.0386129
0.0386129
0.0386129
0.0386129
0.0386129
0.0386129
0.0386129
0.0386129
0.0386129
0.0386129
0.0386129
0.0386129
0.0386129
0.0386129
0.0386129
0.0386129
0.0386129
0.0386129
0.0386129
0.0386129
0.0386129
0.0386129
0.0386129
0.0386129
0.0386129
0.0386129
0.0386129
0.0386129
0.0386129
0.0386129
0.0386129
0.0386129
0.0386129
0.0386129
0.0386129
0.0386129
0.0386129
0.0386129
0.0386129
0.0386129
0.0386129
0.0386129
0.0386129
0.0386129
0.0386129
0.0386129
0.0386129
0.0386129
0.0386129
0.0386129
0.0386129
0.0386129
0.0386129
0.0386129
0.0386129
0.0386129
0.0386129
0.0386129
0.0386129
0.0386129
0.0386129
0.0386129
0.0386129
0.0386129
0.0386129
0.0386129
0.0386129
0.0386129
0.0386129
0.0386129
0.0386129
0.0386129
0.0386129
0.0386129
0.0386129
0.0386129
0.0386129
0.0386129
0.0386129
0.0386129
0.0386129
0.0386129
0.0386129
0.0386129
0.0386129
0.0386129
0.0386129
0.0386129
0.0386129
0.0386129
0.0386129
0.0386129
0.0386129
0.0386129
0.0386129
0.0386129
0.0386129
0.0386129
0.0386129
0.0386129
0.0386129
0.0386129
0.0386129
0.0386129
0.0386129
0.0386129
0.0386129
0.0386129
0.0386129
0.0386129
0.0386129
0.0386129
0.0386129
0.0386129
0.0386129
0.0386129
0.0386129
0.0386129
0.0386129
0.0386129
0.0386129
0.0386129
0.0386129
0.0386129
0.0386129
0.0386129
0.0386129
0.0386129
0.0386129
0.0386129
0.0386129
0.0386129
0.0386129
0.0386129
0.0386129
0.0386129
0.0386129
0.0386129
0.0386129
0.0386129
0.0386129
0.0386129
0.0386129
0.0386129
0.0386129
0.0386129
0.0386129
0.0386129
0.0386129
0.0386129
0.0386129
0.0386129
0.0386129
0.0386129
0.0386129
0.0386129
0.0386129
0.0386129
0.0386129
0.0386129
0.0386129
0.0386129
0.0386129
0.0386129
0.0386129
0.0386129
0.0386129
0.0386129
0.0386129
0.0386129
0.0386129
0.0386129
0.0386129
0.0386129
0.0386129
0.0386129
0.0386129
0.0386129
0.0386129
0.0386129
0.0386129
0.0386129
0.0386129
0.0386129
0.0386129
0.0386129
0.0386129
0.0386129
0.0386129
0.0386129
0.0386129
0.0386129
0.0386129
0.0386129
0.0386129
0.0386129
0.0386129
0.0386129
0.0386129
0.0386129
0.0386129
0.0386129
0.0386129
0.0386129
0.0386129
0.0386129
0.0386129
0.0386129
0.0386129
0.0386129
0.0386129
0.0386129
0.0386129
0.0386129
0.0386129
0.0386129
0.0386129
0.0386129
0.0386129
0.0386129
0.0386129
0.0386129
0.0386129
0.0386129
0.0386129
0.0386129
0.0386129
0.0386129
0.0386129
0.0386129
0.0386129
0.0386129
0.0386129
0.0386129
0.0386129
0.0386129
0.0386129
0.0386129
0.0386129
0.0386129
0.0386129
0.0386129
0.0386129
0.0386129
0.0386129
0.0386129
0.0386129
0.0386129
0.0386129
0.0386129
0.0386129
0.0386129
0.0386129
0.0386129
0.0386129
0.0386129
0.0386129
0.0386129
0.0386129
0.0386129
0.0386129
0.0386129
0.0386129
0.0386129
0.0386129
0.0386129
0.0386129
0.0386129
0.0386129
0.0386129
0.0386129
0.0386129
0.0386129
0.0386129
0.0386129
0.0386129
0.0386129
0.0386129
0.0386129
0.0386129
0.0386129
0.0386129
0.0386129
0.0386129
0.0386129
0.0386129
0.0386129
0.0386129
0.0386129
0.0386129
0.0386129
0.0386129
0.0386129
0.0386129
0.0386129
0.0386129
0.0386129
0.0386129
0.0386129
0.0386129
0.0386129
0.0386129
0.0386129
0.0386129
0.0386129
0.0386129
0.0386129
0.0386129
0.0386129
0.0386129
0.0386129
0.0386129
0.0386129
0.0386129
0.0386129
0.0386129
0.0386129
0.0386129
0.0386129
0.0386129
0.0386129
0.0386129
0.0386129
0.0386129
0.0386129
0.0386129
0.0386129
0.0386129
0.0386129
0.0386129
0.0386129
0.0386129
0.0386129
0.0386129
0.0386129
0.0386129
0.0386129
0.0386129
0.0386129
0.0386129
0.0386129
0.0386129
0.0386129
0.0386129
0.0386129
0.0386129
0.0386129
0.0386129
0.0386129
0.0386129
0.0386129
0.0386129
0.0386129
0.0386129
0.0386129
0.0386129
0.0386129
0.0386129
0.0386129
0.0386129
0.0386129
0.0386129
0.0386129
0.0386129
0.0386129
0.0386129
0.0386129
0.0386129
0.0386129
0.0386129
0.0386129
0.0386129
0.0386129
0.0386129
0.0386129
0.0386129
0.0386129
0.0386129
0.0386129
0.0386129
0.0386129
0.0386129
0.0386129
0.0386129
0.0386129
0.0386129
0.0386129
0.0386129
0.0386129
0.0386129
0.0386129
0.0386129
0.0386129
0.0386129
0.0386129
0.0386129
0.0386129
0.0386129
0.0386129
0.0386129
0.0386129
0.0386129
0.0386129
0.0386129
0.0386129
0.0386129
0.0386129
0.0386129
0.0386129
0.0386129
0.0386129
0.0386129
0.0386129
0.0386129
0.0386129
0.0386129
0.0386129
0.0386129
0.0386129
0.0386129
0.0386129
0.0386129
0.0386129
0.0386129
0.0386129
0.0386129
0.0386129
0.0386129
0.0386129
0.0386129
0.0386129
0.0386129
0.0386129
0.0386129
0.0386129
0.0386129
0.0386129
0.0386129
0.0386129
0.0386129
0.0386129
0.0386129
0.0386129
0.0386129
0.0386129
0.0386129
0.0386129
0.0386129
0.0386129
0.0386129
0.0386129
0.0386129
0.0386129
0.0386129
0.0386129
0.0386129
0.0386129
0.0386129
0.0386129
0.0386129
0.0386129
0.0386129
0.0386129
0.0386129
0.0386129
0.0386129
0.0386129
0.0386129
0.0386129
0.0386129
0.0386129
0.0386129
0.0386129
0.0386129
0.0386129
0.0386129
0.0386129
0.0386129
0.0386129
0.0386129
0.0386129
0.0386129
0.0386129
0.0386129
0.0386129
0.0386129
0.0386129
0.0386129
0.0386129
0.0386129
0.0386129
0.0386129
0.0386129
0.0386129
0.0386129
0.0386129
0.0386129
0.0386129
0.0386129
0.0386129
0.0386129
0.0386129
0.0386129
0.0386129
0.0386129
0.0386129
0.0386129
0.0386129
0.0386129
0.0386129
0.0386129
0.0386129
0.0386129
0.0386129
0.0386129
0.0386129
0.0386129
0.0386129
0.0386129
0.0386129
0.0386129
0.0386129
0.0386129
0.0386129
0.0386129
0.0386129
0.0386129
0.0386129
0.0386129
0.0386129
0.0386129
0.0386129
0.0386129
0.0386129
0.0386129
0.0386129
0.0386129
0.0386129
0.0386129
0.0386129
0.0386129
0.0386129
0.0386129
0.0386129
0.0386129
0.0386129
0.0386129
0.0386129
0.0386129
0.0386129
0.0386129
0.0386129
0.0386129
0.0386129
0.0386129
0.0386129
0.0386129
0.0386129
0.0386129
0.0386129
0.0386129
0.0386129
0.0386129
0.0386129
0.0386129
0.0386129
0.0386129
0.0386129
0.0386129
0.0386129
0.0386129
0.0386129
0.0386129
0.0386129
0.0386129
0.0386129
0.0386129
0.0386129
0.0386129
0.0386129
0.0386129
0.0386129
0.0386129
0.0386129
0.0386129
0.0386129
0.0386129
0.0386129
0.0386129
0.0386129
0.0386129
0.0386129
0.0386129
0.0386129
0.0386129
0.0386129
0.0386129
0.0386129
0.0386129
0.0386129
0.0386129
0.0386129
0.0386129
0.0386129
0.0386129
0.0386129
0.0386129
0.0386129
0.0386129
0.0386129
0.0386129
0.0386129
0.0386129
0.0386129
0.0386129
0.0386129
0.0386129
0.0386129
0.0386129
0.0386129
0.0386129
0.0386129
0.0386129
0.0386129
0.0386129
0.0386129
0.0386129
0.0386129
0.0386129
0.0386129
0.0386129
0.0386129
0.0386129
0.0386129
0.0386129
0.0386129
0.0386129
0.0386129
0.0386129
0.0386129
0.0386129
0.0386129
0.0386129
0.0386129
0.0386129
0.0386129
0.0386129
0.0386129
0.0386129
0.0386129
0.0386129
0.0386129
0.0386129
0.0386129
0.0386129
0.0386129
0.0386129
0.0386129
0.0386129
0.0386129
0.0386129
0.0386129
0.0386129
0.0386129
0.0386129
0.0386129
0.0386129
0.0386129
0.0386129
0.0386129
0.0386129
0.0386129
0.0386129
0.0386129
0.0386129
0.0386129
0.0386129
0.0386129
0.0386129
0.0386129
0.0386129
0.0386129
0.0386129
0.0386129
0.0386129
0.0386129
0.0386129
0.0386129
0.0386129
0.0386129
0.0386129
0.0386129
0.0386129
0.0386129
0.0386129
0.0386129
0.0386129
0.0386129
0.0386129
0.0386129
0.0386129
0.0386129
0.0386129
0.0386129
0.0386129
0.0386129
0.0386129
0.0386129
0.0386129
0.0386129
0.0386129
0.0386129
0.0386129
0.0386129
0.0386129
0.0386129
0.0386129
0.0386129
0.0386129
0.0386129
0.0386129
0.0386129
0.0386129
0.0386129
0.0386129
0.0386129
0.0386129
0.0386129
0.0386129
0.0386129
0.0386129
0.0386129
0.0386129
0.0386129
0.0386129
0.0386129
0.0386129
0.0386129
0.0386129
0.0386129
0.0386129
0.0386129
0.0386129
0.0386129
0.0386129
0.0386129
0.0386129
0.0386129
0.0386129
0.0386129
0.0386129
0.0386129
0.0386129
0.0386129
0.0386129
0.0386129
0.0386129
0.0386129
0.0386129
0.0386129
0.0386129
0.0386129
0.0386129
0.0386129
0.0386129
0.0386129
0.0386129
0.0386129
0.0386129
0.0386129
0.0386129
0.0386129
0.0386129
0.0386129
0.0386129
0.0386129
0.0386129
0.0386129
0.0386129
0.0386129
0.0386129
0.0386129
0.0386129
0.0386129
0.0386129
0.0386129
0.0386129
0.0386129
0.0386129
0.0386129
0.0386129
0.0386129
0.0386129
0.0386129
0.0386129
0.0386129
0.0386129
0.0386129
0.0386129
0.0386129
0.0386129
0.0386129
0.0386129
0.0386129
0.0386129
0.0386129
0.0386129
0.0386129
0.0386129
0.0386129
0.0386129
0.0386129
0.0386129
0.0386129
0.0386129
0.0386129
0.0386129
0.0386129
0.0386129
0.0386129
0.0386129
0.0386129
0.0386129
0.0386129
0.0386129
0.0386129
0.0386129
0.0386129
0.0386129
0.0386129
0.0386129
0.0386129
0.0386129
0.0386129
0.0386129
0.0386129
0.0386129
0.0386129
0.0386129
0.0386129
0.0386129
0.0386129
0.0386129
0.0386129
0.0386129
0.0386129
0.0386129
0.0386129
0.0386129
0.0386129
0.0386129
0.0386129
0.0386129
0.0386129
0.0386129
0.0386129
0.0386129
0.0386129
0.0386129
0.0386129
0.0386129
0.0386129
0.0386129
0.0386129
0.0386129
0.0386129
0.0386129
0.0386129
0.0386129
0.0386129
0.0386129
0.0386129
0.0386129
0.0386129
0.0386129
0.0386129
0.0386129
0.0386129
0.0386129
0.0386129
0.0386129
0.0386129
0.0386129
0.0386129
0.0386129
0.0386129
0.0386129
0.0386129
0.0386129
0.0386129
0.0386129
0.0386129
0.0386129
0.0386129
0.0386129
0.0386129
0.0386129
0.0386129
0.0386129
0.0386129
0.0386129
0.0386129
0.0386129
0.0386129
0.0386129
0.0386129
0.0386129
0.0386129
0.0386129
0.0386129
0.0386129
0.0386129
0.0386129
0.0386129
0.0386129
0.0386129
0.0386129
0.0386129
0.0386129
0.0386129
0.0386129
0.0386129
0.0386129
0.0386129
0.0386129
0.0386129
0.0386129
0.0386129
0.0386129
0.0386129
0.0386129
0.0386129
0.0386129
0.0386129
0.0386129
0.0386129
0.0386129
0.0386129
0.0386129
0.0386129
0.0386129
0.0386129
0.0386129
0.0386129
0.0386129
0.0386129
0.0386129
0.0386129
0.0386129
0.0386129
0.0386129
0.0386129
0.0386129
0.0386129
0.0386129
0.0386129
0.0386129
0.0386129
0.0386129
0.0386129
0.0386129
0.0386129
0.0386129
0.0386129
0.0386129
0.0386129
0.0386129
0.0386129
0.0386129
0.0386129
0.0386129
0.0386129
0.0386129
0.0386129
0.0386129
0.0386129
0.0386129
0.0386129
0.0386129
0.0386129
0.0386129
0.0386129
0.0386129
0.0386129
0.0386129
0.0386129
0.0386129
0.0386129
0.0386129
0.0386129
0.0386129
0.0386129
0.0386129
0.0386129
0.0386129
0.0386129
0.0386129
0.0386129
0.0386129
0.0386129
0.0386129
0.0386129
0.0386129
0.0386129
0.0386129
0.0386129
0.0386129
0.0386129
0.0386129
0.0386129
0.0386129
0.0386129
0.0386129
0.0386129
0.0386129
0.0386129
0.0386129
0.0386129
0.0386129
0.0386129
0.0386129
0.0386129
0.0386129
0.0386129
0.0386129
0.0386129
0.0386129
0.0386129
0.0386129
0.0386129
0.0386129
0.0386129
0.0386129
0.0386129
0.0386129
0.0386129
0.0386129
0.0386129
0.0386129
0.0386129
0.0386129
0.0386129
0.0386129
0.0386129
0.0386129
0.0386129
0.0386129
0.0386129
0.0386129
0.0386129
0.0386129
0.0386129
0.0386129
0.0386129
0.0386129
0.0386129
0.0386129
0.0386129
0.0386129
0.0386129
0.0386129
0.0386129
0.0386129
0.0386129
0.0386129
0.0386129
0.0386129
0.0386129
0.0386129
0.0386129
0.0386129
0.0386129
0.0386129
0.0386129
0.0386129
0.0386129
0.0386129
0.0386129
0.0386129
0.0386129
0.0386129
0.0386129
0.0386129
0.0386129
0.0386129
0.0386129
0.0386129
0.0386129
0.0386129
0.0386129
0.0386129
0.0386129
0.0386129
0.0386129
0.0386129
0.0386129
0.0386129
0.0386129
0.0386129
0.0386129
0.0386129
0.0386129
0.0386129
0.0386129
0.0386129
0.0386129
0.0386129
0.0386129
0.0386129
0.0386129
0.0386129
0.0386129
0.0386129
0.0386129
0.0386129
0.0386129
0.0386129
0.0386129
0.0386129
0.0386129
0.0386129
0.0386129
0.0386129
0.0386129
0.0386129
0.0386129
0.0386129
0.0386129
0.0386129
0.0386129
0.0386129
0.0386129
0.0386129
0.0386129
0.0386129
0.0386129
0.0386129
0.0386129
0.0386129
0.0386129
0.0386129
0.0386129
0.0386129
0.0386129
0.0386129
0.0386129
0.0386129
0.0386129
0.0386129
0.0386129
0.0386129
0.0386129
0.0386129
0.0386129
0.0386129
0.0386129
0.0386129
0.0386129
0.0386129
0.0386129
0.0386129
0.0386129
0.0386129
0.0386129
0.0386129
0.0386129
0.0386129
0.0386129
0.0386129
0.0386129
0.0386129
0.0386129
0.0386129
0.0386129
0.0386129
0.0386129
0.0386129
0.0386129
0.0386129
0.0386129
0.0386129
0.0386129
0.0386129
0.0386129
0.0386129
0.0386129
0.0386129
0.0386129
0.0386129
0.0386129
0.0386129
0.0386129
0.0386129
0.0386129
0.0386129
0.0386129
0.0386129
0.0386129
0.0386129
0.0386129
0.0386129
0.0386129
0.0386129
0.0386129
0.0386129
0.0386129
0.0386129
0.0386129
0.0386129
0.0386129
0.0386129
0.0386129
0.0386129
0.0386129
0.0386129
0.0386129
0.0386129
0.0386129
0.0386129
0.0386129
0.0386129
0.0386129
0.0386129
0.0386129
0.0386129
0.0386129
0.0386129
0.0386129
0.0386129
0.0386129
0.0386129
0.0386129
0.0386129
0.0386129
0.0386129
0.017884
0.0134379
0.0117151
0.0111519
0.0106441
0.0103483
0.0101521
0.0100023
0.00988465
0.0097693
0.00964725
0.00952015
0.00942802
0.00935271
0.00931373
0.00929339
0.00927469
0.00925326
0.00922876
0.00920194
0.00917325
0.00914049
0.00910778
0.0090774
0.00904776
0.00901934
0.00899036
0.00896183
0.00893535
0.00891011
0.00888586
0.00886257
0.00884061
0.00881958
0.00879942
0.00878029
0.00876139
0.00874263
0.00872451
0.00870717
0.00869092
0.00867549
0.00866052
0.00864611
0.00863206
0.0086181
0.00860454
0.00859184
0.00857973
0.00856774
0.00855609
0.00854492
0.00853407
0.00852346
0.00851324
0.00850307
0.00849305
0.00848284
0.00847653
0.00845943
0.023907
0.0148498
0.0121715
0.0113926
0.0108
0.0104594
0.010237
0.0100705
0.00994165
0.0098187
0.00969164
0.00956153
0.00946844
0.0093929
0.00935483
0.00933501
0.00931632
0.0092944
0.0092689
0.00924072
0.00921056
0.00917636
0.00914215
0.00911029
0.00907926
0.00904955
0.00901934
0.00898965
0.00896209
0.00893584
0.00891063
0.00888644
0.00886363
0.00884182
0.00882092
0.0088011
0.00878154
0.00876215
0.00874344
0.00872556
0.00870878
0.00869286
0.00867743
0.00866258
0.00864811
0.00863373
0.00861977
0.00860669
0.00859422
0.00858187
0.00856987
0.00855838
0.00854721
0.00853628
0.00852576
0.0085153
0.008505
0.0084945
0.00848792
0.00847044
0.031609
0.0180767
0.0132916
0.0119606
0.0111591
0.0107133
0.0104306
0.0102256
0.0100709
0.00993039
0.00979182
0.00965519
0.00956018
0.00948462
0.00944884
0.00943033
0.0094117
0.00938861
0.00936068
0.00932932
0.00929577
0.0092582
0.00922056
0.0091853
0.00915105
0.00911833
0.0090853
0.00905294
0.0090229
0.00899433
0.00896692
0.00894066
0.00891593
0.00889233
0.00886973
0.00884831
0.00882724
0.00880644
0.00878638
0.00876723
0.00874927
0.00873224
0.00871575
0.0086999
0.00868446
0.00866915
0.00865427
0.00864032
0.00862702
0.00861387
0.00860109
0.00858885
0.00857695
0.00856532
0.00855412
0.00854299
0.00853205
0.00852091
0.00851373
0.00849537
0.0383817
0.0236767
0.0155236
0.013049
0.0118175
0.01117
0.0107745
0.0104988
0.0102971
0.0101246
0.0099653
0.00981733
0.00971936
0.00964449
0.00961336
0.00959737
0.00957863
0.00955328
0.00952088
0.00948382
0.00944416
0.00940054
0.00935677
0.0093155
0.00927551
0.00923744
0.00919942
0.00916236
0.00912794
0.00909528
0.009064
0.00903409
0.00900598
0.00897924
0.00895368
0.00892946
0.00890577
0.00888248
0.00886008
0.00883873
0.00881871
0.00879973
0.00878141
0.00876381
0.0087467
0.00872976
0.00871331
0.00869785
0.0086831
0.00866856
0.00865444
0.0086409
0.00862775
0.00861491
0.00860254
0.00859027
0.00857822
0.00856599
0.00855777
0.0085379
0.0449117
0.0307154
0.0194131
0.0149998
0.0129515
0.0119318
0.0113365
0.010939
0.0106577
0.0104318
0.010238
0.0100719
0.00996941
0.00989681
0.0098737
0.00986172
0.009842
0.00981258
0.0097726
0.00972617
0.00967655
0.00962306
0.00956942
0.00951849
0.00946927
0.00942262
0.00937661
0.00933206
0.00929066
0.00925149
0.00921406
0.00917841
0.00914496
0.00911325
0.00908303
0.00905441
0.00902658
0.00899938
0.00897332
0.00894852
0.00892526
0.00890325
0.00888206
0.00886174
0.00884201
0.00882254
0.00880364
0.00878584
0.00876884
0.00875214
0.00873593
0.00872038
0.0087053
0.00869058
0.0086764
0.00866236
0.00864861
0.00863468
0.00862487
0.00860266
0.0480668
0.0383392
0.0253746
0.0183577
0.0148877
0.0131864
0.0122347
0.0116278
0.0112133
0.0108997
0.0106496
0.0104548
0.0103435
0.0102745
0.010262
0.0102542
0.0102309
0.010194
0.0101417
0.0100809
0.0100162
0.00994772
0.00987927
0.00981392
0.00975093
0.00969147
0.00963359
0.00957794
0.00952622
0.00947742
0.00943093
0.00938682
0.00934552
0.00930652
0.00926945
0.0092344
0.0092005
0.0091676
0.00913617
0.00910634
0.00907836
0.00905192
0.00902655
0.00900227
0.00897874
0.00895558
0.00893312
0.00891193
0.00889167
0.00887183
0.0088526
0.00883415
0.00881625
0.00879882
0.00878201
0.00876543
0.00874921
0.00873284
0.00872074
0.00869512
0.0477305
0.0443499
0.0327696
0.023589
0.0181765
0.0152832
0.0136847
0.0127084
0.0120662
0.0116059
0.0112627
0.0110205
0.0108872
0.010819
0.0108135
0.0108036
0.0107712
0.0107185
0.0106472
0.0105654
0.0104792
0.0103897
0.0103007
0.0102154
0.0101334
0.0100563
0.00998216
0.0099113
0.00984545
0.00978351
0.00972468
0.00966909
0.00961713
0.00956824
0.00952189
0.00947812
0.00943602
0.00939538
0.0093567
0.00932006
0.00928571
0.00925328
0.00922225
0.0091926
0.00916394
0.00913579
0.00910854
0.00908275
0.0090581
0.00903402
0.00901072
0.00898833
0.00896665
0.00894555
0.0089252
0.00890516
0.00888561
0.00886594
0.00885078
0.00882049
0.0459167
0.0489025
0.0402991
0.0303142
0.0233824
0.0188187
0.0160865
0.0144413
0.0133973
0.0126847
0.0121832
0.0118575
0.0116727
0.0115945
0.0115782
0.0115472
0.0114892
0.0114066
0.0113046
0.0111921
0.0110754
0.0109568
0.0108399
0.0107278
0.0106206
0.0105202
0.0104245
0.0103338
0.0102495
0.0101705
0.0100961
0.010026
0.00996067
0.00989937
0.00984138
0.0097867
0.00973434
0.00968406
0.00963632
0.00959118
0.00954887
0.00950895
0.00947085
0.0094345
0.00939943
0.00936508
0.00933186
0.00930037
0.00927025
0.00924091
0.00921253
0.00918525
0.00915884
0.00913317
0.00910839
0.00908405
0.00906034
0.00903653
0.00901758
0.00898137
0.0437315
0.0510595
0.045891
0.0370623
0.0301205
0.0243683
0.0201155
0.0173051
0.0155298
0.0143633
0.0135774
0.0130888
0.0128057
0.0126765
0.0126124
0.0125273
0.0124162
0.0122828
0.012133
0.0119756
0.0118162
0.0116576
0.0115031
0.0113557
0.0112155
0.011085
0.0109617
0.0108454
0.0107376
0.010637
0.0105431
0.0104551
0.0103732
0.0102966
0.0102243
0.0101563
0.0100914
0.0100294
0.00997069
0.00991528
0.00986335
0.00981441
0.00976781
0.00972341
0.00968065
0.00963903
0.00959889
0.00956079
0.00952433
0.00948889
0.00945463
0.00942168
0.00938979
0.00935882
0.0093289
0.00929957
0.00927102
0.00924241
0.00921909
0.00917593
0.0421081
0.0509046
0.0488833
0.0424717
0.036585
0.0313417
0.0262576
0.0220731
0.0190441
0.0170327
0.0157097
0.0148893
0.0143964
0.0141225
0.0139486
0.013768
0.0135737
0.0133636
0.0131443
0.0129237
0.0127063
0.0124946
0.0122915
0.0121
0.0119195
0.0117521
0.0115949
0.0114473
0.0113107
0.0111837
0.0110656
0.0109554
0.0108531
0.0107577
0.010668
0.0105838
0.0105039
0.0104279
0.0103561
0.0102884
0.0102251
0.0101655
0.0101088
0.0100549
0.0100032
0.00995308
0.00990495
0.00985925
0.0098155
0.00977307
0.00973208
0.00969266
0.00965452
0.00961751
0.00958176
0.00954675
0.00951273
0.00947867
0.00945045
0.00939932
0.0408933
0.0499452
0.0497562
0.0460001
0.0412178
0.0373414
0.0332244
0.0288715
0.0247049
0.0214002
0.0190613
0.0175751
0.0166425
0.0160583
0.0156847
0.01535
0.0150245
0.0146968
0.0143734
0.0140616
0.0137635
0.0134802
0.013213
0.0129652
0.0127343
0.0125211
0.0123222
0.0121366
0.0119651
0.0118062
0.0116591
0.0115223
0.0113958
0.011278
0.0111681
0.0110652
0.0109679
0.0108757
0.0107888
0.0107071
0.0106306
0.0105587
0.0104905
0.0104258
0.0103638
0.010304
0.0102467
0.0101923
0.0101402
0.0100898
0.0100412
0.00999445
0.00994926
0.00990544
0.00986312
0.00982174
0.00978159
0.00974144
0.00970779
0.00964771
0.0400169
0.0476931
0.0502023
0.0478914
0.0441558
0.041202
0.0385829
0.0354802
0.0317708
0.0278729
0.0243745
0.0217284
0.0199487
0.0187725
0.0180226
0.0174272
0.0168884
0.0163757
0.0158935
0.015446
0.0150312
0.0146474
0.014293
0.0139693
0.0136717
0.0133995
0.0131478
0.0129148
0.0127008
0.0125034
0.0123214
0.0121531
0.0119978
0.0118539
0.0117202
0.0115956
0.0114783
0.0113676
0.0112635
0.0111657
0.0110743
0.0109885
0.0109073
0.0108304
0.0107569
0.0106863
0.0106188
0.0105547
0.0104935
0.0104343
0.0103773
0.0103226
0.0102697
0.0102184
0.0101689
0.0101206
0.0100738
0.0100271
0.0099876
0.00991775
0.0394048
0.0455513
0.049952
0.0486921
0.0454792
0.0431421
0.0414723
0.0397615
0.0375642
0.0346591
0.0312464
0.0278245
0.0249502
0.0227601
0.021272
0.0201801
0.0193006
0.0185105
0.0177947
0.017148
0.0165652
0.0160392
0.0155642
0.0151375
0.014751
0.0144018
0.0140826
0.01379
0.0135233
0.0132788
0.0130546
0.0128485
0.012659
0.0124841
0.0123224
0.0121725
0.0120319
0.0118998
0.011776
0.01166
0.0115518
0.0114503
0.0113545
0.011264
0.0111777
0.0110951
0.0110163
0.0109415
0.0108703
0.0108016
0.0107355
0.0106721
0.0106108
0.0105516
0.0104944
0.0104387
0.0103848
0.0103309
0.0102853
0.010205
0.0390256
0.0435392
0.0493949
0.0491077
0.0464595
0.0438774
0.0426461
0.0416526
0.0405771
0.0391395
0.0370819
0.0344077
0.0314047
0.0284621
0.0259471
0.0239632
0.0224624
0.0212305
0.0201849
0.0192584
0.0184419
0.0177171
0.0170754
0.0165083
0.0160025
0.0155514
0.0151443
0.0147756
0.0144426
0.0141398
0.0138639
0.0136118
0.0133813
0.0131696
0.0129747
0.0127949
0.0126273
0.0124705
0.0123242
0.0121875
0.0120601
0.0119409
0.0118288
0.011723
0.0116226
0.0115267
0.0114354
0.011349
0.0112668
0.0111877
0.0111117
0.0110388
0.0109686
0.0109008
0.0108354
0.0107717
0.0107103
0.010649
0.010597
0.0105055
0.0388121
0.0418406
0.0482758
0.0490568
0.047265
0.0445485
0.0430374
0.0422343
0.041654
0.0409775
0.0400501
0.0387333
0.036937
0.0346274
0.0319202
0.0292083
0.0267651
0.0247827
0.0231983
0.0218759
0.0207515
0.0197598
0.0188939
0.0181374
0.0174715
0.0168849
0.0163623
0.0158947
0.0154767
0.0151002
0.01476
0.0144513
0.0141709
0.0139148
0.0136802
0.013465
0.0132657
0.0130802
0.0129077
0.0127473
0.0125981
0.0124589
0.0123282
0.0122053