/*--------------------------------*- C++ -*----------------------------------*\
| =========                 |                                                 |
| \\      /  F ield         | OpenFOAM: The Open Source CFD Toolbox           |
|  \\    /   O peration     | Version:  v2012                                 |
|   \\  /    A nd           | Website:  www.openfoam.com                      |
|    \\/     M anipulation  |                                                 |
\*---------------------------------------------------------------------------*/
FoamFile
{
    version     2.0;
    format      ascii;
    class       volScalarField;
    location    "2000";
    object      T;
}
// * * * * * * * * * * * * * * * * * * * * * * * * * * * * * * * * * * * * * //

dimensions      [0 0 0 1 0 0 0];


internalField   nonuniform List<scalar> 
8000
(
60.467
60.467
60.467
60.467
60.467
60.467
60.467
60.467
60.467
60.467
60.467
60.467
60.467
60.467
60.467
60.467
60.467
60.467
60.467
60.4851
60.467
60.467
60.467
60.467
60.467
60.467
60.467
60.467
60.467
60.467
60.467
60.467
60.467
60.467
60.467
60.467
60.467
60.467
60.467
60.5083
60.467
60.467
60.467
60.467
60.467
60.467
60.467
60.467
60.467
60.467
60.467
60.467
60.467
60.467
60.467
60.467
60.467
60.467
60.467
60.4908
60.467
60.467
60.467
60.467
60.467
60.467
60.467
60.467
60.467
60.467
60.467
60.467
60.467
60.467
60.467
60.467
60.467
60.467
60.4669
60.4876
60.467
60.467
60.467
60.467
60.467
60.467
60.467
60.467
60.467
60.467
60.467
60.467
60.467
60.467
60.467
60.467
60.467
60.467
60.467
60.4796
60.467
60.467
60.467
60.467
60.467
60.467
60.467
60.467
60.467
60.467
60.467
60.467
60.467
60.467
60.467
60.467
60.467
60.467
60.467
60.4764
60.467
60.467
60.467
60.467
60.467
60.467
60.467
60.467
60.467
60.467
60.467
60.467
60.467
60.467
60.467
60.467
60.467
60.467
60.467
60.4731
60.467
60.467
60.467
60.467
60.467
60.467
60.467
60.467
60.467
60.467
60.467
60.467
60.467
60.467
60.467
60.467
60.467
60.467
60.467
60.4711
60.467
60.467
60.467
60.467
60.467
60.467
60.467
60.467
60.467
60.467
60.467
60.467
60.467
60.467
60.467
60.467
60.467
60.467
60.467
60.4695
60.467
60.467
60.467
60.467
60.467
60.467
60.467
60.467
60.467
60.467
60.467
60.467
60.467
60.467
60.467
60.467
60.467
60.467
60.467
60.4688
60.467
60.467
60.467
60.467
60.467
60.467
60.467
60.467
60.467
60.467
60.467
60.467
60.467
60.467
60.467
60.467
60.467
60.467
60.467
60.4677
60.467
60.467
60.467
60.467
60.467
60.467
60.467
60.467
60.467
60.467
60.467
60.467
60.467
60.467
60.467
60.467
60.467
60.467
60.467
60.4673
60.467
60.467
60.467
60.467
60.467
60.467
60.467
60.467
60.467
60.467
60.467
60.467
60.467
60.467
60.467
60.467
60.467
60.467
60.467
60.4672
60.467
60.467
60.467
60.467
60.467
60.467
60.467
60.467
60.467
60.467
60.467
60.467
60.467
60.467
60.467
60.467
60.467
60.467
60.467
60.4671
60.467
60.467
60.467
60.467
60.467
60.467
60.467
60.467
60.467
60.467
60.467
60.467
60.467
60.467
60.467
60.467
60.467
60.467
60.467
60.4671
60.467
60.467
60.467
60.467
60.467
60.467
60.467
60.467
60.467
60.467
60.467
60.467
60.467
60.467
60.467
60.467
60.467
60.467
60.467
60.467
60.467
60.467
60.467
60.467
60.467
60.467
60.467
60.467
60.467
60.467
60.467
60.467
60.467
60.467
60.467
60.467
60.467
60.467
60.467
60.467
60.467
60.467
60.467
60.467
60.467
60.467
60.467
60.467
60.467
60.467
60.467
60.467
60.467
60.467
60.467
60.467
60.467
60.467
60.467
60.467
60.467
60.467
60.467
60.467
60.467
60.467
60.467
60.467
60.467
60.467
60.467
60.467
60.467
60.467
60.467
60.467
60.467
60.467
60.467
60.467
60.467
60.467
60.467
60.467
60.467
60.467
60.467
60.467
60.467
60.467
60.467
60.467
60.467
60.467
60.467
60.467
60.467
60.467
60.467
60.467
60.467
60.467
60.467
60.467
60.467
60.467
60.467
60.467
60.467
60.467
60.467
60.467
60.467
60.467
60.467
60.467
60.467
60.467
60.467
60.467
60.467
60.467
60.467
60.467
60.467
60.467
60.467
60.467
60.467
60.467
60.467
60.467
60.467
60.467
60.467
60.467
60.467
60.467
60.467
60.467
60.467
60.467
60.467
60.467
60.467
60.467
60.467
60.467
60.467
60.467
60.467
60.467
60.467
60.467
60.467
60.467
60.467
60.467
60.467
60.467
60.467
60.467
60.467
60.467
60.467
60.467
60.467
60.467
60.467
60.467
60.467
60.467
60.467
60.467
60.467
60.467
60.467
60.467
60.467
60.467
60.467
60.467
60.467
60.467
60.467
60.467
60.467
60.467
60.467
60.467
60.467
60.467
60.467
60.467
60.467
60.467
60.467
60.467
60.467
60.467
60.467
60.467
60.467
60.467
60.467
60.467
60.467
60.467
60.467
60.467
60.467
60.467
60.467
60.467
60.467
60.467
60.467
60.467
60.467
60.467
60.467
60.467
60.467
60.467
60.467
60.467
60.467
60.467
60.467
60.467
60.467
60.467
60.467
60.467
60.467
60.467
60.467
60.467
60.467
60.467
60.467
60.467
60.467
60.467
60.467
60.467
60.467
60.467
60.467
60.467
60.467
60.467
60.467
60.467
60.467
60.467
60.467
60.467
60.467
60.467
60.467
60.467
60.467
60.467
60.467
60.467
60.467
60.467
60.467
60.467
60.467
60.467
60.467
60.467
60.467
60.467
60.467
60.467
60.467
60.467
60.467
60.467
60.467
60.467
60.467
60.467
60.467
60.467
60.467
60.467
60.467
60.467
60.467
60.467
60.467
60.467
60.467
60.467
60.467
60.467
60.467
60.467
60.467
60.467
60.467
60.467
60.467
60.467
60.467
60.467
60.467
60.467
60.467
60.467
60.467
60.467
60.467
60.467
60.467
60.467
60.467
60.467
60.467
60.467
60.467
60.467
60.467
60.467
60.467
60.467
60.467
60.467
60.467
60.467
60.467
60.467
60.467
60.467
60.467
60.467
60.467
60.467
60.467
60.467
60.467
60.467
60.467
60.467
60.467
60.467
60.467
60.467
60.467
60.467
60.467
60.467
60.467
60.467
60.467
60.467
60.467
60.467
60.467
60.467
60.467
60.467
60.467
60.467
60.467
60.467
60.467
60.467
60.467
60.467
60.467
60.467
60.467
60.467
60.467
60.467
60.467
60.467
60.467
60.467
60.467
60.467
60.467
60.467
60.467
60.467
60.467
60.467
60.467
60.467
60.467
60.467
60.467
60.467
60.467
60.467
60.467
60.467
60.467
60.467
60.467
60.467
60.467
60.467
60.467
60.467
60.467
60.467
60.467
60.467
60.467
60.467
60.467
60.467
60.467
60.467
60.467
60.467
60.467
60.467
60.467
60.467
60.467
60.467
60.467
60.467
60.467
60.467
60.467
60.467
60.467
60.467
60.467
60.467
60.467
60.467
60.467
60.467
60.467
60.467
60.467
60.467
60.467
60.467
60.467
60.467
60.467
60.467
60.467
60.467
60.467
60.467
60.467
60.467
60.467
60.467
60.467
60.467
60.467
60.467
60.467
60.467
60.467
60.467
60.467
60.467
60.467
60.467
60.467
60.467
60.467
60.467
60.467
60.467
60.467
60.467
60.467
60.467
60.467
60.467
60.467
60.467
60.467
60.467
60.467
60.467
60.467
60.467
60.467
60.467
60.467
60.467
60.467
60.467
60.467
60.467
60.467
60.467
60.467
60.467
60.467
60.467
60.467
60.467
60.467
60.467
60.467
60.467
60.467
60.467
60.467
60.467
60.467
60.467
60.467
60.467
60.467
60.467
60.467
60.467
60.467
60.467
60.467
60.467
60.467
60.467
60.467
60.467
60.467
60.467
60.467
60.467
60.467
60.467
60.467
60.467
60.467
60.467
60.467
60.467
60.467
60.467
60.467
60.467
60.467
60.467
60.467
60.467
60.467
60.467
60.467
60.467
60.467
60.467
60.467
60.467
60.467
60.467
60.467
60.467
60.467
60.467
60.467
60.467
60.467
60.467
60.467
60.467
60.467
60.467
60.467
60.467
60.467
60.467
60.467
60.467
60.467
60.467
60.467
60.467
60.467
60.467
60.467
60.467
60.467
60.467
60.467
60.467
60.467
60.467
60.467
60.467
60.467
60.467
60.467
60.467
60.467
60.467
60.467
60.467
60.467
60.467
60.467
60.467
60.467
60.467
60.467
60.467
60.467
60.467
60.467
60.467
60.467
60.467
60.467
60.467
60.467
60.467
60.467
60.467
60.467
60.467
60.467
60.467
60.467
60.467
60.467
60.467
60.467
60.467
60.467
60.467
60.467
60.467
60.467
60.467
60.467
60.467
60.467
60.467
60.467
60.467
60.467
60.467
60.467
60.467
60.467
60.467
60.467
60.467
60.467
60.467
60.467
60.467
60.467
60.467
60.467
60.467
60.467
60.467
60.467
60.467
60.467
60.467
60.467
60.467
60.467
60.467
60.467
60.467
60.467
60.467
60.467
60.467
60.467
60.467
60.467
60.467
60.467
60.467
60.467
60.467
60.467
60.467
60.467
60.467
60.467
60.467
60.467
60.467
60.467
60.467
60.467
60.467
60.467
60.467
60.467
60.467
60.467
60.467
60.467
60.467
60.467
60.467
60.467
60.467
60.467
60.467
60.467
60.467
60.467
60.467
60.467
60.467
60.467
60.467
60.467
60.467
60.467
60.467
60.467
60.467
60.467
60.467
60.467
60.467
60.467
60.467
60.467
60.467
60.467
60.467
60.467
60.467
60.467
60.467
60.467
60.467
60.467
60.467
60.467
60.467
60.467
60.467
60.467
60.467
60.467
60.467
60.467
60.467
60.467
60.467
60.467
60.467
60.467
60.467
60.467
60.467
60.467
60.467
60.467
60.467
60.467
60.467
60.467
60.467
60.467
60.467
60.467
60.467
60.467
60.467
60.467
60.467
60.467
60.467
60.467
60.467
60.467
60.467
60.467
60.467
60.467
60.467
60.467
60.467
60.467
60.467
60.467
60.467
60.467
60.467
60.467
60.467
60.467
60.467
60.467
60.467
60.467
60.467
60.467
60.467
60.467
60.467
60.467
60.467
60.467
60.467
60.467
60.467
60.467
60.467
60.467
60.467
60.467
60.467
60.467
60.467
60.467
60.467
60.467
60.467
60.467
60.467
60.467
60.467
60.467
60.467
60.467
60.467
60.467
60.467
60.467
60.467
60.467
60.467
60.467
60.467
60.467
60.467
60.467
60.467
60.467
60.467
60.467
60.467
60.467
60.467
60.467
60.467
60.467
60.467
60.467
60.467
60.467
60.467
60.467
60.467
60.467
60.467
60.467
60.467
60.467
60.467
60.467
60.467
60.467
60.467
60.467
60.467
60.467
60.467
60.467
60.467
60.467
60.467
60.467
60.467
60.467
60.467
60.467
60.467
60.467
60.467
60.467
60.467
60.467
60.467
60.467
60.467
60.467
60.467
60.467
60.467
60.467
60.467
60.467
60.467
60.467
60.467
60.467
60.467
60.467
60.467
60.467
60.467
60.467
60.467
60.467
60.467
60.467
60.467
60.467
60.467
60.467
60.467
60.467
60.467
60.467
60.467
60.467
60.467
60.467
60.467
60.467
60.467
60.467
60.467
60.467
60.467
60.467
60.467
60.467
60.467
60.467
60.467
60.467
60.467
60.467
60.467
60.467
60.467
60.467
60.467
60.467
60.467
60.467
60.467
60.467
60.467
60.467
60.467
60.467
60.467
60.467
60.467
60.467
60.467
60.467
60.467
60.467
60.467
60.467
60.467
60.467
60.467
60.467
60.467
60.467
60.467
60.467
60.467
60.467
60.467
60.467
60.467
60.467
60.467
60.467
60.467
60.467
60.467
60.467
60.467
60.467
60.467
60.467
60.467
60.467
60.467
60.467
60.467
60.467
60.467
60.467
60.467
60.467
60.467
60.467
60.467
60.467
60.467
60.467
60.467
60.467
60.467
60.467
60.467
60.467
60.467
60.467
60.467
60.467
60.467
60.467
60.467
60.467
60.467
60.467
60.467
60.467
60.467
60.467
60.467
60.467
60.467
60.467
60.467
60.467
60.467
60.467
60.467
60.467
60.467
60.467
60.467
60.467
60.467
60.467
60.467
60.467
60.467
60.467
60.467
60.467
60.467
60.467
60.467
60.467
60.467
60.467
60.467
60.467
60.467
60.467
60.467
60.467
60.467
60.467
60.467
60.467
60.467
60.467
60.467
60.467
60.467
60.467
60.467
60.467
60.467
60.467
60.467
60.467
60.467
60.467
60.467
60.467
60.467
60.467
60.467
60.467
60.467
60.467
60.467
60.467
60.467
60.467
60.467
60.467
60.467
60.467
60.467
60.467
60.467
60.467
60.467
60.467
60.467
60.467
60.467
60.467
60.467
60.467
60.467
60.467
60.467
60.467
60.467
60.467
60.467
60.467
60.467
60.467
60.467
60.467
60.467
60.467
60.467
60.467
60.467
60.467
60.467
60.467
60.467
60.467
60.467
60.467
60.467
60.467
60.467
60.467
60.467
60.467
60.467
60.467
60.467
60.467
60.467
60.467
60.467
60.467
60.467
60.467
60.467
60.467
60.467
60.467
60.467
60.467
60.467
60.467
60.467
60.467
60.467
60.467
60.467
60.467
60.467
60.467
60.467
60.467
60.467
60.467
60.467
60.467
60.467
60.467
60.467
60.467
60.467
60.467
60.467
60.467
60.467
60.467
60.467
60.467
60.467
60.467
60.467
60.467
60.467
60.467
60.467
60.467
60.467
60.467
60.467
60.467
60.467
60.467
60.467
60.467
60.467
60.467
60.467
60.467
60.467
60.467
60.467
60.467
60.467
60.467
60.467
60.467
60.467
60.467
60.467
60.467
60.467
60.467
60.467
60.467
60.467
60.467
60.467
60.467
60.467
60.467
60.467
60.467
60.467
60.467
60.467
60.467
60.467
60.467
60.467
60.467
60.467
60.467
60.467
60.467
60.467
60.467
60.467
60.467
60.467
60.467
60.467
60.467
60.467
60.467
60.467
60.467
60.467
60.467
60.467
60.467
60.467
60.467
60.467
60.467
60.467
60.467
60.467
60.467
60.467
60.467
60.467
60.467
60.467
60.467
60.467
60.467
60.467
60.467
60.467
60.467
60.467
60.467
60.467
60.467
60.467
60.467
60.467
60.467
60.467
60.467
60.467
60.467
60.467
60.467
60.467
60.467
60.467
60.467
60.467
60.467
60.467
60.467
60.467
60.467
60.467
60.467
60.467
60.467
60.467
60.467
60.467
60.467
60.467
60.467
60.467
60.467
60.467
60.467
60.467
60.467
60.467
60.467
60.467
60.467
60.467
60.467
60.467
60.467
60.467
60.467
60.467
60.467
60.467
60.467
60.467
60.467
60.467
60.467
60.467
60.467
60.467
60.467
60.467
60.467
60.467
60.467
60.467
60.467
60.467
60.467
60.467
60.467
60.467
60.467
60.467
60.467
60.467
60.467
60.467
60.467
60.467
60.467
60.467
60.467
60.467
60.467
60.467
60.467
60.467
60.467
60.467
60.467
60.467
60.467
60.467
60.467
60.467
60.467
60.467
60.467
60.467
60.467
60.467
60.467
60.467
60.467
60.467
60.467
60.467
60.467
60.467
60.467
60.467
60.467
60.467
60.467
60.467
60.467
60.467
60.467
60.467
60.467
60.467
60.467
60.467
60.467
60.467
60.467
60.467
60.467
60.467
60.467
60.467
60.467
60.467
60.467
60.467
60.467
60.467
60.467
60.467
60.467
60.467
60.467
60.467
60.467
60.467
60.467
60.467
60.467
60.467
60.467
60.467
60.467
60.467
60.467
60.467
60.467
60.467
60.467
60.467
60.467
60.467
60.467
60.467
60.467
60.467
60.467
60.467
60.467
60.467
60.467
60.467
60.467
60.467
60.467
60.467
60.467
60.467
60.467
60.467
60.467
60.467
60.467
60.467
60.467
60.467
60.467
60.467
60.467
60.467
60.467
60.467
60.467
60.467
60.467
60.467
60.467
60.467
60.467
60.467
60.467
60.467
60.467
60.467
60.467
60.467
60.467
60.467
60.467
60.467
60.467
60.467
60.467
60.467
60.467
60.467
60.467
60.467
60.467
60.467
60.467
60.467
60.467
60.467
60.467
60.467
60.467
60.467
60.467
60.467
60.467
60.467
60.467
60.467
60.467
60.467
60.467
60.467
60.467
60.467
60.467
60.467
60.467
60.467
60.467
60.467
60.467
60.467
60.467
60.467
60.467
60.467
60.467
60.467
60.467
60.467
60.467
60.467
60.467
60.467
60.467
60.467
60.467
60.467
60.467
60.467
60.467
60.467
60.467
60.467
60.467
60.467
60.467
60.467
60.467
60.467
60.467
60.467
60.467
60.467
60.467
60.467
60.467
60.467
60.467
60.467
60.467
60.467
60.467
60.467
60.467
60.467
60.467
60.467
60.467
60.467
60.467
60.467
60.467
60.467
60.467
60.467
60.467
60.467
60.467
60.467
60.467
60.467
60.467
60.467
60.467
60.467
60.467
60.467
60.467
60.467
60.467
60.467
60.467
60.467
60.467
60.467
60.467
60.467
60.467
60.467
60.467
60.467
60.467
60.467
60.467
60.467
60.467
60.467
60.467
60.467
60.467
60.467
60.467
60.467
60.467
60.467
60.467
60.467
60.467
60.467
60.467
60.467
60.467
60.467
60.467
60.467
60.467
60.467
60.467
60.467
60.467
60.467
60.467
60.467
60.467
60.467
60.467
60.467
60.467
60.467
60.467
60.467
60.467
60.467
60.467
60.467
60.467
60.467
60.467
60.467
60.467
60.467
60.467
60.467
60.467
60.467
60.467
60.467
60.467
60.467
60.467
60.467
60.467
60.467
60.467
60.467
60.467
60.467
60.467
60.467
60.467
60.467
60.467
60.467
60.467
60.467
60.467
60.467
60.467
60.467
60.467
60.467
60.467
60.467
60.467
60.467
60.467
60.467
60.467
60.467
60.467
60.467
60.467
60.467
60.467
60.467
60.467
60.467
60.467
60.467
231.81
263.969
263.89
264.149
263.923
263.831
263.757
263.677
263.606
263.558
263.455
263.596
263.951
264.655
265.69
266.94
268.143
269.266
270.279
271.185
272.004
272.747
273.435
274.077
274.684
275.265
275.815
276.34
276.849
277.345
277.819
278.274
278.715
279.141
279.553
279.951
280.335
280.705
281.063
281.411
281.749
282.077
282.395
282.704
283.003
283.29
283.566
283.832
284.09
284.34
284.582
284.819
285.049
285.273
285.491
285.704
285.91
286.117
286.303
286.603
162.72
241.314
254.272
258.695
260.19
261.081
261.603
261.915
262.112
262.245
262.258
262.459
262.826
263.522
264.522
265.751
266.945
268.075
269.111
270.049
270.904
271.683
272.409
273.089
273.733
274.347
274.93
275.486
276.025
276.547
277.048
277.528
277.991
278.439
278.872
279.29
279.692
280.08
280.455
280.818
281.171
281.513
281.845
282.167
282.478
282.777
283.065
283.342
283.611
283.872
284.124
284.371
284.611
284.844
285.072
285.294
285.509
285.724
285.918
286.23
118.177
200.165
233.108
246.493
251.857
254.92
256.767
257.955
258.758
259.302
259.579
259.915
260.305
260.973
261.889
263.065
264.24
265.386
266.474
267.486
268.422
269.283
270.094
270.86
271.586
272.279
272.935
273.561
274.165
274.749
275.309
275.845
276.361
276.858
277.338
277.8
278.244
278.672
279.084
279.484
279.87
280.244
280.606
280.957
281.296
281.622
281.936
282.239
282.533
282.817
283.093
283.362
283.624
283.878
284.127
284.369
284.603
284.839
285.052
285.39
91.0167
154.825
200.248
226.103
237.884
244.537
248.598
251.262
253.089
254.338
255.068
255.625
256.043
256.645
257.406
258.486
259.636
260.813
261.991
263.13
264.206
265.207
266.163
267.076
267.943
268.769
269.55
270.295
271.011
271.7
272.361
272.993
273.598
274.179
274.738
275.276
275.791
276.286
276.763
277.223
277.667
278.095
278.508
278.908
279.295
279.667
280.026
280.373
280.708
281.033
281.348
281.655
281.954
282.244
282.528
282.804
283.072
283.34
283.585
283.969
75.8161
118.467
161.416
196.831
217.159
228.977
236.306
241.174
244.543
246.861
248.283
249.167
249.623
250.101
250.617
251.556
252.688
253.922
255.245
256.575
257.863
259.076
260.25
261.382
262.462
263.488
264.457
265.381
266.265
267.114
267.926
268.701
269.441
270.148
270.826
271.477
272.101
272.698
273.271
273.822
274.352
274.862
275.352
275.826
276.284
276.726
277.153
277.565
277.964
278.349
278.724
279.088
279.442
279.787
280.123
280.45
280.768
281.086
281.379
281.831
68.2855
94.089
125.653
161.029
189.043
207.276
219.003
226.917
232.448
236.282
238.701
240.052
240.601
240.907
241.13
241.927
243.082
244.424
245.958
247.55
249.123
250.623
252.09
253.516
254.883
256.181
257.405
258.569
259.682
260.747
261.766
262.736
263.659
264.538
265.38
266.187
266.957
267.694
268.4
269.077
269.726
270.347
270.945
271.52
272.077
272.616
273.136
273.638
274.124
274.594
275.051
275.494
275.925
276.345
276.754
277.153
277.54
277.926
278.285
278.834
65.2382
79.2909
99.4525
125.559
155.006
178.969
195.868
207.666
216.049
221.929
225.727
227.75
228.595
228.784
228.832
229.63
230.9
232.465
234.285
236.201
238.12
239.965
241.78
243.556
245.265
246.888
248.419
249.875
251.264
252.591
253.86
255.068
256.214
257.303
258.345
259.343
260.295
261.205
262.075
262.907
263.703
264.465
265.196
265.899
266.579
267.238
267.876
268.492
269.088
269.665
270.224
270.769
271.298
271.813
272.314
272.804
273.279
273.754
274.197
274.871
64.1809
71.3655
82.8298
98.2367
120.62
145.527
166.738
182.814
194.631
203.093
208.71
211.708
213.231
213.511
213.741
214.851
216.476
218.449
220.666
222.982
225.307
227.55
229.759
231.927
234.02
236.007
237.88
239.663
241.363
242.983
244.524
245.989
247.379
248.698
249.96
251.167
252.319
253.419
254.471
255.476
256.436
257.355
258.235
259.082
259.901
260.696
261.466
262.21
262.93
263.627
264.305
264.964
265.605
266.229
266.837
267.432
268.009
268.586
269.125
269.947
63.5698
67.7162
73.8707
81.1768
93.8386
112.549
133.492
152.665
167.978
179.422
187.341
191.848
194.411
195.326
196.246
198.054
200.326
202.876
205.608
208.402
211.19
213.879
216.519
219.11
221.612
223.987
226.228
228.36
230.393
232.328
234.158
235.895
237.543
239.106
240.6
242.029
243.393
244.695
245.938
247.126
248.261
249.346
250.385
251.384
252.351
253.287
254.192
255.068
255.916
256.738
257.538
258.315
259.072
259.81
260.53
261.234
261.919
262.604
263.243
264.224
62.8381
66.2251
69.7564
72.2092
77.7112
87.5885
102.425
119.863
137.109
151.394
162.012
168.744
172.998
175.369
177.472
180.208
183.254
186.478
189.801
193.124
196.406
199.56
202.64
205.64
208.529
211.279
213.88
216.358
218.724
220.976
223.106
225.126
227.043
228.86
230.596
232.254
233.836
235.346
236.787
238.164
239.479
240.736
241.94
243.097
244.216
245.296
246.338
247.347
248.325
249.273
250.196
251.094
251.969
252.822
253.655
254.471
255.264
256.058
256.799
257.944
62.0083
65.7252
68.2029
68.1732
69.7934
73.7015
81.0184
91.7202
105.857
120.674
133.67
143.079
149.745
154.295
157.853
161.642
165.573
169.577
173.585
177.509
181.333
184.982
188.517
191.926
195.195
198.31
201.261
204.077
206.767
209.329
211.755
214.054
216.235
218.304
220.273
222.152
223.946
225.657
227.292
228.854
230.346
231.772
233.138
234.451
235.719
236.943
238.124
239.266
240.374
241.448
242.494
243.512
244.505
245.474
246.42
247.346
248.248
249.152
249.991
251.304
61.3716
65.3704
67.5149
66.8655
66.0712
67.2194
69.8924
74.7579
82.3744
92.7704
104.722
115.918
125.039
132.056
137.409
142.38
147.32
152.209
157
161.618
166.057
170.257
174.286
178.143
181.824
185.321
188.633
191.788
194.798
197.664
200.378
202.95
205.389
207.704
209.9
211.993
213.99
215.896
217.716
219.456
221.118
222.708
224.23
225.692
227.105
228.466
229.78
231.051
232.282
233.477
234.64
235.773
236.877
237.956
239.01
240.042
241.047
242.055
242.988
244.462
60.9682
64.7443
67.2373
66.7591
65.4771
64.6397
65.2996
66.8283
69.7544
74.7018
81.798
90.68
100.121
109.034
116.47
122.976
128.922
134.673
140.248
145.599
150.699
155.501
160.068
164.41
168.533
172.436
176.124
179.626
182.96
186.13
189.13
191.972
194.667
197.223
199.646
201.951
204.148
206.243
208.243
210.155
211.982
213.728
215.401
217.007
218.557
220.05
221.49
222.883
224.231
225.539
226.812
228.052
229.262
230.443
231.598
232.729
233.83
234.935
235.954
237.581
60.7277
63.67
67.0201
66.8317
65.5076
64.38
63.7364
64.0124
64.7201
66.2442
69.0152
73.4325
79.641
87.289
95.5654
103.608
110.797
117.433
123.658
129.669
135.386
140.794
145.921
150.777
155.37
159.704
163.789
167.656
171.325
174.806
178.099
181.215
184.166
186.964
189.615
192.132
194.527
196.808
198.984
201.063
203.05
204.949
206.767
208.513
210.194
211.813
213.374
214.882
216.342
217.757
219.134
220.476
221.784
223.062
224.311
225.533
226.724
227.919
229.016
230.786
60.5931
62.5171
66.5919
66.8711
65.8473
64.4253
63.6323
63.3101
63.1932
63.4322
64.04
65.3216
67.7567
71.7923
77.7285
85.0481
93.0499
100.631
107.618
114.171
120.338
126.264
131.897
137.254
142.325
147.108
151.612
155.865
159.889
163.699
167.297
170.697
173.913
176.959
179.843
182.576
185.171
187.639
189.992
192.238
194.382
196.432
198.393
200.275
202.084
203.825
205.502
207.123
208.689
210.207
211.683
213.121
214.523
215.891
217.227
218.535
219.809
221.087
222.255
224.158
60.5234
61.6408
65.7493
66.873
66.194
64.7464
63.6871
63.2347
62.961
62.8126
62.6434
62.8019
63.2688
64.4322
66.8656
71.124
77.3322
84.5761
92.131
99.2478
105.896
112.171
118.149
123.91
129.405
134.619
139.546
144.202
148.601
152.761
156.684
160.386
163.882
167.188
170.315
173.273
176.076
178.738
181.272
183.687
185.992
188.193
190.298
192.315
194.252
196.114
197.906
199.636
201.307
202.925
204.497
206.026
207.517
208.97
210.39
211.779
213.13
214.487
215.72
217.747
60.4902
61.0741
64.48
66.7507
66.5158
65.2242
63.9303
63.28
62.9507
62.7287
62.5135
62.3279
62.1376
62.2963
62.8131
64.1646
67.0474
71.7706
78.055
85.0174
92.047
98.6718
104.953
110.947
116.722
122.27
127.574
132.617
137.397
141.923
146.193
150.218
154.014
157.599
160.985
164.183
167.208
170.074
172.797
175.389
177.859
180.216
182.468
184.623
186.691
188.676
190.583
192.423
194.198
195.915
197.581
199.2
200.777
202.313
203.813
205.279
206.703
208.135
209.428
211.573
60.4758
60.7475
63.0982
66.3117
66.5078
65.664
64.308
63.4482
63.0238
62.7536
62.5145
62.2869
62.076
61.8715
61.9303
62.1519
62.8858
64.6456
68.016
73.0526
79.221
85.8017
92.3268
98.5465
104.512
110.224
115.781
121.123
126.247
131.131
135.754
140.119
144.237
148.123
151.789
155.246
158.511
161.598
164.524
167.304
169.949
172.469
174.874
177.173
179.376
181.487
183.513
185.465
187.346
189.162
190.923
192.632
194.294
195.912
197.489
199.031
200.527
202.03
203.38
205.637
60.4701
60.5827
61.9603
65.4581
66.4548
65.9512
64.7015
63.6727
63.1503
62.8435
62.5881
62.3325
62.0945
61.896
61.7895
61.81
61.9295
62.3023
63.3171
65.5412
69.3398
74.5306
80.488
86.7192
92.8333
98.7022
104.377
109.856
115.212
120.382
125.327
130.028
134.48
138.688
142.655
146.395
149.921
153.249
156.397
159.381
162.214
164.909
167.476
169.926
172.27
174.514
176.665
178.732
180.722
182.642
184.499
186.299
188.046
189.747
191.402
193.018
194.584
196.158
197.564
199.928
60.468
60.5095
61.1983
64.2334
66.2577
66.1296
65.1327
63.9414
63.2629
62.9172
62.6637
62.4142
62.1592
61.9477
61.8107
61.7918
61.8242
61.8887
62.0666
62.6058
63.9809
66.6749
70.7961
76.0426
81.7875
87.7007
93.4666
99.0497
104.478
109.787
114.948
119.932
124.699
129.229
133.514
137.558
141.37
144.963
148.355
151.562
154.6
157.484
160.226
162.839
165.334
167.718
170
172.19
174.295
176.321
178.278
180.172
182.008
183.792
185.526
187.217
188.855
190.499
191.959
194.429
60.4673
60.4809
60.7743
62.8574
65.7171
66.1024
65.4634
64.2866
63.4211
62.9905
62.7247
62.4822
62.2292
62.0035
61.8503
61.8061
61.8227
61.8682
61.915
61.9875
62.2495
63.036
64.8208
67.953
72.3174
77.5328
83.0852
88.7159
94.2006
99.5589
104.774
109.916
114.913
119.723
124.316
128.673
132.79
136.671
140.331
143.786
147.051
150.142
153.075
155.864
158.522
161.058
163.48
165.8
168.026
170.166
172.228
174.22
176.148
178.018
179.834
181.602
183.312
185.027
186.543
189.118
60.4671
60.4711
60.578
61.7132
64.75
66.0003
65.7776
64.7251
63.642
63.0634
62.7619
62.5209
62.2727
62.0402
61.8643
61.8061
61.8137
61.8571
61.9109
61.9305
61.9568
62.0692
62.4835
63.6008
65.8262
69.3225
73.8536
79.0056
84.3857
89.7634
95.0219
100.181
105.25
110.226
115.062
119.705
124.126
128.311
132.263
135.99
139.505
142.827
145.972
148.954
151.79
154.489
157.063
159.523
161.88
164.14
166.314
168.411
170.436
172.397
174.297
176.146
177.93
179.719
181.291
183.972
60.467
60.468
60.5014
61.0016
63.4089
65.656
65.7663
65.1095
63.9841
63.2053
62.8201
62.563
62.3145
62.0741
61.8748
61.7883
61.7896
61.8307
61.8958
61.9174
61.9273
61.9341
61.9741
62.1758
62.8211
64.3143
66.964
70.7638
75.4048
80.4694
85.6939
90.8509
95.9261
100.909
105.854
110.688
115.365
119.842
124.093
128.113
131.904
135.481
138.861
142.058
145.09
147.97
150.709
153.322
155.819
158.209
160.503
162.711
164.84
166.897
168.887
170.819
172.682
174.547
176.179
178.968
60.467
60.4672
60.4761
60.6563
62.0681
64.8735
65.7027
65.4397
64.441
63.4451
62.9084
62.611
62.3595
62.1122
61.8981
61.7553
61.7557
61.792
61.8585
61.8903
61.9082
61.9085
61.8964
61.9095
61.9986
62.3457
63.2837
65.1849
68.2312
72.2662
76.9663
81.9411
86.9917
91.9731
96.8965
101.765
106.575
111.274
115.796
120.107
124.189
128.046
131.687
135.123
138.374
141.454
144.376
147.156
149.806
152.338
154.762
157.09
159.33
161.489
163.575
165.597
167.542
169.488
171.183
174.082
60.467
60.467
60.4691
60.5223
61.1538
63.5924
65.4783
65.4687
64.8255
63.7828
63.0583
62.6833
62.4182
62.1691
61.9337
61.7538
61.7302
61.7578
61.8176
61.8545
61.8729
61.8856
61.8755
61.863
61.8527
61.8873
62.059
62.6092
63.8946
66.2111
69.6092
73.8282
78.5282
83.4192
88.3075
93.1526
97.94
102.719
107.413
111.965
116.326
120.472
124.395
128.095
131.59
134.894
138.02
140.985
143.805
146.491
149.058
151.516
153.876
156.147
158.335
160.452
162.486
164.517
166.278
169.289
60.467
60.467
60.4674
60.4803
60.7001
62.1787
64.7492
65.4228
65.2101
64.2813
63.3228
62.7888
62.4827
62.2316
61.9828
61.767
61.7073
61.7308
61.7784
61.8191
61.84
61.8564
61.8502
61.8383
61.8227
61.7993
61.8099
61.8866
62.185
62.997
64.6713
67.3982
71.0849
75.4361
80.1115
84.8976
89.6533
94.3846
99.0925
103.758
108.329
112.736
116.941
120.923
124.687
128.241
131.595
134.768
137.776
140.634
143.357
145.959
148.45
150.841
153.14
155.361
157.489
159.611
161.445
164.567
60.467
60.467
60.4671
60.4696
60.5296
61.1758
63.4624
65.2176
65.2126
64.6532
63.6859
62.967
62.5778
62.312
62.0525
61.8049
61.7002
61.7145
61.7462
61.7853
61.8157
61.8312
61.8282
61.8162
61.7992
61.7785
61.7608
61.7481
61.778
61.9255
62.4042
63.5395
65.6258
68.7348
72.6566
77.081
81.7208
86.3925
91.0516
95.674
100.311
104.881
109.319
113.573
117.618
121.444
125.053
128.459
131.679
134.73
137.627
140.387
143.022
145.545
147.965
150.297
152.528
154.748
156.66
159.899
60.467
60.467
60.467
60.4674
60.4802
60.6894
62.0364
64.4348
65.1547
65.0157
64.205
63.2616
62.7052
62.3947
62.1247
61.8647
61.7002
61.7031
61.7168
61.7538
61.7974
61.8133
61.8112
61.7998
61.7806
61.7596
61.7405
61.7234
61.6986
61.7068
61.7715
62.0299
62.7491
64.2616
66.7696
70.2122
74.3144
78.7664
83.3435
87.9152
92.4839
97.0583
101.6
106.058
110.36
114.463
118.346
122.011
125.47
128.736
131.83
134.766
137.562
140.231
142.784
145.238
147.581
149.907
151.904
155.269
60.467
60.467
60.467
60.4671
60.4692
60.5198
61.0645
63.0977
64.8469
64.9999
64.5818
63.6829
62.9386
62.516
62.2135
61.9416
61.7424
61.6951
61.694
61.7231
61.7821
61.7944
61.7993
61.7884
61.7677
61.7448
61.7252
61.707
61.6856
61.6675
61.6535
61.6779
61.8041
62.2273
63.2566
65.1865
68.1012
71.8195
76.0415
80.4895
84.9799
89.4829
93.9683
98.4906
102.956
107.291
111.442
115.38
119.101
122.611
125.926
129.062
132.038
134.87
137.571
140.159
142.624
145.066
147.156
150.662
60.467
60.467
60.467
60.467
60.4673
60.4764
60.6325
61.7145
63.9189
64.9012
64.8218
64.1466
63.2717
62.6758
62.3129
62.0352
61.8054
61.6986
61.6736
61.7021
61.7649
61.7828
61.7895
61.7809
61.7604
61.736
61.7153
61.695
61.6729
61.6528
61.6366
61.6133
61.619
61.6727
61.9001
62.5537
63.9591
66.3275
69.6094
73.5387
77.8171
82.2224
86.6441
91.0823
95.5514
99.9955
104.351
108.543
112.534
116.31
119.872
123.234
126.414
129.429
132.296
135.035
137.634
140.203
142.395
146.059
60.467
60.467
60.467
60.467
60.467
60.4683
60.5002
60.8807
62.5145
64.395
64.7761
64.5651
63.7772
62.9504
62.4491
62.145
61.886
61.7137
61.6604
61.6861
61.7433
61.769
61.7811
61.7747
61.756
61.7321
61.7109
61.689
61.6656
61.6447
61.6268
61.6073
61.5914
61.5761
61.5961
61.706
62.0894
63.0514
64.8881
67.6851
71.2667
75.3351
79.6375
83.9828
88.3611
92.7526
97.1717
101.533
105.759
109.799
113.625
117.239
120.65
123.874
126.928
129.836
132.586
135.296
137.601
141.44
60.467
60.467
60.467
60.467
60.467
60.4671
60.4718
60.5627
61.2949
63.2285
64.6026
64.5983
64.1745
63.3432
62.671
62.2783
61.9747
61.7442
61.645
61.6686
61.713
61.7433
61.7679
61.7641
61.7497
61.7273
61.7059
61.6831
61.6591
61.6385
61.6194
61.6002
61.5826
61.5677
61.5462
61.5498
61.5944
61.7994
62.414
63.7626
66.0553
69.2369
73.0508
77.2022
81.4724
85.7799
90.1088
94.4845
98.8327
103.08
107.16
111.038
114.704
118.164
121.432
124.531
127.452
130.32
132.751
136.781
60.467
60.467
60.467