/*--------------------------------*- C++ -*----------------------------------*\
| =========                 |                                                 |
| \\      /  F ield         | OpenFOAM: The Open Source CFD Toolbox           |
|  \\    /   O peration     | Version:  v2012                                 |
|   \\  /    A nd           | Website:  www.openfoam.com                      |
|    \\/     M anipulation  |                                                 |
\*---------------------------------------------------------------------------*/
FoamFile
{
    version     2.0;
    format      ascii;
    class       volVectorField;
    location    "2000";
    object      U;
}
// * * * * * * * * * * * * * * * * * * * * * * * * * * * * * * * * * * * * * //

dimensions      [0 1 -1 0 0 0 0];


internalField   nonuniform List<vector> 
8000
(
(703.36 1.40325e-13 0)
(703.36 -4.17103e-13 0)
(703.36 -2.9772e-12 0)
(703.36 -9.97905e-12 0)
(703.36 -2.44893e-11 0)
(703.36 -4.78152e-11 0)
(703.36 -8.01028e-11 0)
(703.36 -1.18983e-10 0)
(703.36 -1.61709e-10 0)
(703.36 -2.06297e-10 0)
(703.36 -2.49446e-10 0)
(703.36 -2.89895e-10 0)
(703.36 -3.26646e-10 0)
(703.36 -3.59031e-10 0)
(703.36 -3.88671e-10 0)
(703.36 -3.36682e-10 0)
(703.36 -1.72668e-10 0)
(703.36 4.39119e-08 0)
(703.357 5.87282e-05 0)
(703.243 0.279131 0)
(703.36 1.22986e-13 0)
(703.36 -3.95104e-13 0)
(703.36 -2.62286e-12 0)
(703.36 -9.13566e-12 0)
(703.36 -2.22984e-11 0)
(703.36 -4.35873e-11 0)
(703.36 -7.33625e-11 0)
(703.36 -1.09467e-10 0)
(703.36 -1.49421e-10 0)
(703.36 -1.91103e-10 0)
(703.36 -2.31637e-10 0)
(703.36 -2.69812e-10 0)
(703.36 -3.04671e-10 0)
(703.36 -3.3477e-10 0)
(703.36 -3.65031e-10 0)
(703.36 -2.61246e-10 0)
(703.36 -1.28762e-10 0)
(703.36 4.83989e-08 0)
(703.359 0.000121366 0)
(703.278 0.0918215 0)
(703.36 6.12412e-14 0)
(703.36 -3.0444e-13 0)
(703.36 -2.01238e-12 0)
(703.36 -6.94356e-12 0)
(703.36 -1.75203e-11 0)
(703.36 -3.46311e-11 0)
(703.36 -5.8565e-11 0)
(703.36 -8.79449e-11 0)
(703.36 -1.20841e-10 0)
(703.36 -1.55369e-10 0)
(703.36 -1.8932e-10 0)
(703.36 -2.21409e-10 0)
(703.36 -2.50954e-10 0)
(703.36 -2.75242e-10 0)
(703.36 -3.05303e-10 0)
(703.36 -1.18835e-10 0)
(703.36 -8.2404e-11 0)
(703.36 6.09532e-08 0)
(703.359 0.000141092 0)
(703.323 0.116343 0)
(703.36 -5.41449e-14 0)
(703.36 -2.2097e-13 0)
(703.36 -1.53551e-12 0)
(703.36 -5.45913e-12 0)
(703.36 -1.36684e-11 0)
(703.36 -2.71173e-11 0)
(703.36 -4.61691e-11 0)
(703.36 -6.9583e-11 0)
(703.36 -9.59528e-11 0)
(703.36 -1.23929e-10 0)
(703.36 -1.5168e-10 0)
(703.36 -1.77938e-10 0)
(703.36 -2.02405e-10 0)
(703.36 -2.20993e-10 0)
(703.36 -2.5122e-10 0)
(703.36 -4.50537e-12 0)
(703.36 -7.55034e-11 0)
(703.36 5.73756e-08 0)
(703.36 8.16011e-05 0)
(703.33 0.0920159 0)
(703.36 -2.38952e-14 0)
(703.36 -9.07887e-14 0)
(703.36 -1.07031e-12 0)
(703.36 -4.02796e-12 0)
(703.36 -1.02169e-11 0)
(703.36 -1.99327e-11 0)
(703.36 -3.41593e-11 0)
(703.36 -5.1722e-11 0)
(703.36 -7.1533e-11 0)
(703.36 -9.27704e-11 0)
(703.36 -1.1378e-10 0)
(703.36 -1.33849e-10 0)
(703.36 -1.52977e-10 0)
(703.36 -1.65533e-10 0)
(703.36 -1.96131e-10 0)
(703.36 1.03095e-10 0)
(703.36 -6.78548e-11 0)
(703.36 5.01364e-08 0)
(703.36 3.29756e-05 0)
(703.341 0.0807292 0)
(703.36 -5.67235e-14 0)
(703.36 -8.14292e-14 0)
(703.36 -8.64733e-13 0)
(703.36 -3.02259e-12 0)
(703.36 -7.55763e-12 0)
(703.36 -1.47192e-11 0)
(703.36 -2.50722e-11 0)
(703.36 -3.77677e-11 0)
(703.36 -5.22268e-11 0)
(703.36 -6.76957e-11 0)
(703.36 -8.32211e-11 0)
(703.36 -9.78474e-11 0)
(703.36 -1.1218e-10 0)
(703.36 -1.19766e-10 0)
(703.36 -1.53742e-10 0)
(703.36 1.81643e-10 0)
(703.36 -5.22531e-11 0)
(703.36 4.47045e-08 0)
(703.36 2.78134e-05 0)
(703.345 0.0561684 0)
(703.36 2.87966e-14 0)
(703.36 -4.12114e-14 0)
(703.36 -6.24283e-13 0)
(703.36 -2.26611e-12 0)
(703.36 -5.44827e-12 0)
(703.36 -1.07154e-11 0)
(703.36 -1.81759e-11 0)
(703.36 -2.71312e-11 0)
(703.36 -3.73213e-11 0)
(703.36 -4.80871e-11 0)
(703.36 -5.90508e-11 0)
(703.36 -6.93104e-11 0)
(703.36 -7.97947e-11 0)
(703.36 -8.3378e-11 0)
(703.36 -1.21876e-10 0)
(703.36 2.37064e-10 0)
(703.36 -2.52106e-11 0)
(703.36 3.77389e-08 0)
(703.36 2.23935e-05 0)
(703.35 0.0404739 0)
(703.36 5.4742e-14 0)
(703.36 -5.81868e-14 0)
(703.36 -5.18878e-13 0)
(703.36 -1.71456e-12 0)
(703.36 -4.4146e-12 0)
(703.36 -8.05231e-12 0)
(703.36 -1.35773e-11 0)
(703.36 -1.99061e-11 0)
(703.36 -2.69704e-11 0)
(703.36 -3.46127e-11 0)
(703.36 -4.22549e-11 0)
(703.36 -4.9181e-11 0)
(703.36 -5.684e-11 0)
(703.36 -5.70765e-11 0)
(703.36 -1.0122e-10 0)
(703.36 2.5815e-10 0)
(703.36 1.78099e-11 0)
(703.36 3.13056e-08 0)
(703.36 1.79376e-05 0)
(703.353 0.0268366 0)
(703.36 4.21326e-14 0)
(703.36 6.11744e-14 0)
(703.36 -4.27467e-13 0)
(703.36 -1.47956e-12 0)
(703.36 -3.60177e-12 0)
(703.36 -6.49435e-12 0)
(703.36 -1.07217e-11 0)
(703.36 -1.54861e-11 0)
(703.36 -2.04301e-11 0)
(703.36 -2.61042e-11 0)
(703.36 -3.14503e-11 0)
(703.36 -3.62904e-11 0)
(703.36 -4.17461e-11 0)
(703.36 -3.92796e-11 0)
(703.36 -9.12521e-11 0)
(703.36 2.52143e-10 0)
(703.36 6.70397e-11 0)
(703.36 2.51687e-08 0)
(703.36 1.39915e-05 0)
(703.355 0.0174041 0)
(703.36 2.96851e-14 0)
(703.36 -1.64487e-14 0)
(703.36 -3.6349e-13 0)
(703.36 -1.31641e-12 0)
(703.36 -3.15125e-12 0)
(703.36 -5.73307e-12 0)
(703.36 -9.04009e-12 0)
(703.36 -1.29173e-11 0)
(703.36 -1.70189e-11 0)
(703.36 -2.1101e-11 0)
(703.36 -2.52177e-11 0)
(703.36 -2.8704e-11 0)
(703.36 -3.30286e-11 0)
(703.36 -2.90058e-11 0)
(703.36 -8.30663e-11 0)
(703.36 2.29093e-10 0)
(703.36 1.05233e-10 0)
(703.36 1.9833e-08 0)
(703.36 1.07967e-05 0)
(703.357 0.0110466 0)
(703.36 -5.04688e-15 0)
(703.36 -8.42725e-14 0)
(703.36 -3.42433e-13 0)
(703.36 -1.23704e-12 0)
(703.36 -3.06556e-12 0)
(703.36 -5.27698e-12 0)
(703.36 -8.17732e-12 0)
(703.36 -1.15748e-11 0)
(703.36 -1.51729e-11 0)
(703.36 -1.85753e-11 0)
(703.36 -2.19505e-11 0)
(703.36 -2.47346e-11 0)
(703.36 -2.86184e-11 0)
(703.36 -2.3728e-11 0)
(703.36 -7.57189e-11 0)
(703.36 2.00207e-10 0)
(703.36 1.3268e-10 0)
(703.36 1.52269e-08 0)
(703.36 8.08744e-06 0)
(703.358 0.00679353 0)
(703.36 6.68449e-14 0)
(703.36 -6.53408e-14 0)
(703.36 -3.14148e-13 0)
(703.36 -1.19274e-12 0)
(703.36 -2.92418e-12 0)
(703.36 -4.98371e-12 0)
(703.36 -7.99997e-12 0)
(703.36 -1.11254e-11 0)
(703.36 -1.41366e-11 0)
(703.36 -1.74849e-11 0)
(703.36 -2.03893e-11 0)
(703.36 -2.30415e-11 0)
(703.36 -2.6628e-11 0)
(703.36 -2.17538e-11 0)
(703.36 -6.91236e-11 0)
(703.36 1.66287e-10 0)
(703.36 1.47348e-10 0)
(703.36 1.13334e-08 0)
(703.36 5.80049e-06 0)
(703.359 0.00385086 0)
(703.36 -3.09942e-14 0)
(703.36 -3.43207e-14 0)
(703.36 -3.65992e-13 0)
(703.36 -1.20405e-12 0)
(703.36 -2.84204e-12 0)
(703.36 -4.9444e-12 0)
(703.36 -7.86342e-12 0)
(703.36 -1.09265e-11 0)
(703.36 -1.39991e-11 0)
(703.36 -1.70335e-11 0)
(703.36 -1.97925e-11 0)
(703.36 -2.21762e-11 0)
(703.36 -2.58713e-11 0)
(703.36 -2.14833e-11 0)
(703.36 -6.34265e-11 0)
(703.36 1.33147e-10 0)
(703.36 1.51846e-10 0)
(703.36 8.16412e-09 0)
(703.36 3.95889e-06 0)
(703.359 0.00207583 0)
(703.36 -1.01751e-14 0)
(703.36 -9.42316e-14 0)
(703.36 -2.86297e-13 0)
(703.36 -1.08475e-12 0)
(703.36 -2.78022e-12 0)
(703.36 -5.00017e-12 0)
(703.36 -7.77849e-12 0)
(703.36 -1.08067e-11 0)
(703.36 -1.38164e-11 0)
(703.36 -1.69856e-11 0)
(703.36 -1.95792e-11 0)
(703.36 -2.1772e-11 0)
(703.36 -2.56401e-11 0)
(703.36 -2.17991e-11 0)
(703.36 -5.84477e-11 0)
(703.36 1.00467e-10 0)
(703.36 1.49496e-10 0)
(703.36 5.67562e-09 0)
(703.36 2.56309e-06 0)
(703.36 0.00101138 0)
(703.36 6.0947e-14 0)
(703.36 -3.43334e-15 0)
(703.36 -2.91256e-13 0)
(703.36 -1.1597e-12 0)
(703.36 -2.67916e-12 0)
(703.36 -4.88352e-12 0)
(703.36 -7.68376e-12 0)
(703.36 -1.06464e-11 0)
(703.36 -1.36659e-11 0)
(703.36 -1.67227e-11 0)
(703.36 -1.95339e-11 0)
(703.36 -2.16741e-11 0)
(703.36 -2.53624e-11 0)
(703.36 -2.21383e-11 0)
(703.36 -5.37288e-11 0)
(703.36 6.9635e-11 0)
(703.36 1.36226e-10 0)
(703.36 3.81009e-09 0)
(703.36 1.57285e-06 0)
(703.36 0.000484073 0)
(703.36 1.73677e-14 0)
(703.36 -4.94417e-14 0)
(703.36 -2.45234e-13 0)
(703.36 -1.14656e-12 0)
(703.36 -2.67106e-12 0)
(703.36 -4.82479e-12 0)
(703.36 -7.45193e-12 0)
(703.36 -1.05397e-11 0)
(703.36 -1.35355e-11 0)
(703.36 -1.65609e-11 0)
(703.36 -1.92845e-11 0)
(703.36 -2.16211e-11 0)
(703.36 -2.53211e-11 0)
(703.36 -2.24342e-11 0)
(703.36 -4.94062e-11 0)
(703.36 4.24432e-11 0)
(703.36 1.19552e-10 0)
(703.36 2.47193e-09 0)
(703.36 9.13034e-07 0)
(703.36 0.000236964 0)
(703.36 9.72752e-15 0)
(703.36 -1.36272e-13 0)
(703.36 -3.05953e-13 0)
(703.36 -1.06016e-12 0)
(703.36 -2.62168e-12 0)
(703.36 -4.83831e-12 0)
(703.36 -7.47381e-12 0)
(703.36 -1.05903e-11 0)
(703.36 -1.34077e-11 0)
(703.36 -1.65262e-11 0)
(703.36 -1.91126e-11 0)
(703.36 -2.13562e-11 0)
(703.36 -2.51065e-11 0)
(703.36 -2.2891e-11 0)
(703.36 -4.57099e-11 0)
(703.36 1.98363e-11 0)
(703.36 9.57851e-11 0)
(703.36 1.54914e-09 0)
(703.36 4.98644e-07 0)
(703.36 0.000108563 0)
(703.36 9.5359e-15 0)
(703.36 9.45831e-15 0)
(703.36 -3.01918e-13 0)
(703.36 -1.10906e-12 0)
(703.36 -2.62151e-12 0)
(703.36 -4.88214e-12 0)
(703.36 -7.64617e-12 0)
(703.36 -1.03765e-11 0)
(703.36 -1.33416e-11 0)
(703.36 -1.63825e-11 0)
(703.36 -1.89521e-11 0)
(703.36 -2.12201e-11 0)
(703.36 -2.49404e-11 0)
(703.36 -2.34907e-11 0)
(703.36 -4.22216e-11 0)
(703.36 1.98418e-12 0)
(703.36 7.10002e-11 0)
(703.36 9.39087e-10 0)
(703.36 2.55419e-07 0)
(703.36 4.66506e-05 0)
(703.36 6.57102e-14 0)
(703.36 -8.49492e-14 0)
(703.36 -2.37524e-13 0)
(703.36 -1.12085e-12 0)
(703.36 -2.62113e-12 0)
(703.36 -5.00947e-12 0)
(703.36 -7.39805e-12 0)
(703.36 -1.02483e-11 0)
(703.36 -1.33351e-11 0)
(703.36 -1.62174e-11 0)
(703.36 -1.88773e-11 0)
(703.36 -2.11765e-11 0)
(703.36 -2.46378e-11 0)
(703.36 -2.36581e-11 0)
(703.36 -3.90646e-11 0)
(703.36 -1.10957e-11 0)
(703.36 4.59389e-11 0)
(703.36 5.49891e-10 0)
(703.36 1.22149e-07 0)
(703.36 1.84411e-05 0)
(703.36 2.13688e-15 0)
(703.36 -2.81427e-13 0)
(703.36 -2.98702e-13 0)
(703.36 -1.11618e-12 0)
(703.36 -2.48992e-12 0)
(703.36 -4.68642e-12 0)
(703.36 -7.17311e-12 0)
(703.36 -1.03034e-11 0)
(703.36 -1.31686e-11 0)
(703.36 -1.59802e-11 0)
(703.36 -1.8792e-11 0)
(703.36 -2.08617e-11 0)
(703.36 -2.43169e-11 0)
(703.36 -2.34713e-11 0)
(703.36 -3.6413e-11 0)
(703.36 -1.99874e-11 0)
(703.36 2.38078e-11 0)
(703.36 3.09305e-10 0)
(703.36 5.42975e-08 0)
(703.36 6.65546e-06 0)
(703.36 -1.20968e-13 0)
(703.36 -7.30196e-14 0)
(703.36 -2.43699e-13 0)
(703.36 -1.16191e-12 0)
(703.36 -2.44402e-12 0)
(703.36 -4.48822e-12 0)
(703.36 -7.15167e-12 0)
(703.36 -1.03263e-11 0)
(703.36 -1.29809e-11 0)
(703.36 -1.58049e-11 0)
(703.36 -1.85186e-11 0)
(703.36 -2.0597e-11 0)
(703.36 -2.43122e-11 0)
(703.36 -2.38167e-11 0)
(703.36 -3.41469e-11 0)
(703.36 -2.57054e-11 0)
(703.36 5.50265e-12 0)
(703.36 1.64365e-10 0)
(703.36 2.23205e-08 0)
(703.36 2.17115e-06 0)
(703.36 -1.16404e-13 0)
(703.36 3.54656e-14 0)
(703.36 -2.70607e-13 0)
(703.36 -1.06074e-12 0)
(703.36 -2.44971e-12 0)
(703.36 -4.51224e-12 0)
(703.36 -7.05263e-12 0)
(703.36 -9.94588e-12 0)
(703.36 -1.28758e-11 0)
(703.36 -1.58164e-11 0)
(703.36 -1.84553e-11 0)
(703.36 -2.04225e-11 0)
(703.36 -2.38659e-11 0)
(703.36 -2.38636e-11 0)
(703.36 -3.20113e-11 0)
(703.36 -2.83865e-11 0)
(703.36 -8.47455e-12 0)
(703.36 7.85724e-11 0)
(703.36 8.43995e-09 0)
(703.36 6.33589e-07 0)
(703.36 -2.45099e-14 0)
(703.36 -1.28948e-13 0)
(703.36 -2.25485e-13 0)
(703.36 -1.02328e-12 0)
(703.36 -2.44836e-12 0)
(703.36 -4.50931e-12 0)
(703.36 -7.00654e-12 0)
(703.36 -9.74558e-12 0)
(703.36 -1.27487e-11 0)
(703.36 -1.55008e-11 0)
(703.36 -1.80144e-11 0)
(703.36 -2.0262e-11 0)
(703.36 -2.3513e-11 0)
(703.36 -2.38649e-11 0)
(703.36 -3.04152e-11 0)
(703.36 -2.96427e-11 0)
(703.36 -1.81609e-11 0)
(703.36 2.85128e-11 0)
(703.36 2.91864e-09 0)
(703.36 1.63514e-07 0)
(703.36 -5.60682e-14 0)
(703.36 -2.17642e-13 0)
(703.36 -2.45497e-13 0)
(703.36 -1.12985e-12 0)
(703.36 -2.36689e-12 0)
(703.36 -4.31191e-12 0)
(703.36 -7.01723e-12 0)
(703.36 -9.60129e-12 0)
(703.36 -1.2485e-11 0)
(703.36 -1.52069e-11 0)
(703.36 -1.7699e-11 0)
(703.36 -1.98664e-11 0)
(703.36 -2.32128e-11 0)
(703.36 -2.38745e-11 0)
(703.36 -2.89988e-11 0)
(703.36 -2.99548e-11 0)
(703.36 -2.4188e-11 0)
(703.36 1.46171e-13 0)
(703.36 9.12727e-10 0)
(703.36 3.69072e-08 0)
(703.36 -7.81798e-14 0)
(703.36 -1.41647e-13 0)
(703.36 -2.2978e-13 0)
(703.36 -1.0147e-12 0)
(703.36 -2.25195e-12 0)
(703.36 -4.37041e-12 0)
(703.36 -6.75209e-12 0)
(703.36 -9.42434e-12 0)
(703.36 -1.2314e-11 0)
(703.36 -1.51074e-11 0)
(703.36 -1.75811e-11 0)
(703.36 -1.95462e-11 0)
(703.36 -2.2513e-11 0)
(703.36 -2.36848e-11 0)
(703.36 -2.74949e-11 0)
(703.36 -2.98583e-11 0)
(703.36 -2.72029e-11 0)
(703.36 -1.47588e-11 0)
(703.36 2.47991e-10 0)
(703.36 7.21951e-09 0)
(703.36 -9.53659e-14 0)
(703.36 -3.61339e-14 0)
(703.36 -2.68109e-13 0)
(703.36 -1.11951e-12 0)
(703.36 -2.26641e-12 0)
(703.36 -4.24929e-12 0)
(703.36 -6.60271e-12 0)
(703.36 -9.17683e-12 0)
(703.36 -1.20832e-11 0)
(703.36 -1.48018e-11 0)
(703.36 -1.73455e-11 0)
(703.36 -1.93366e-11 0)
(703.36 -2.21492e-11 0)
(703.36 -2.35127e-11 0)
(703.36 -2.62453e-11 0)
(703.36 -2.93577e-11 0)
(703.36 -2.86931e-11 0)
(703.36 -2.29965e-11 0)
(703.36 4.85066e-11 0)
(703.36 1.20984e-09 0)
(703.36 -7.0553e-14 0)
(703.36 -1.6995e-13 0)
(703.36 -2.89583e-13 0)
(703.36 -1.10559e-12 0)
(703.36 -2.24667e-12 0)
(703.36 -4.02167e-12 0)
(703.36 -6.5033e-12 0)
(703.36 -9.00433e-12 0)
(703.36 -1.1748e-11 0)
(703.36 -1.43037e-11 0)
(703.36 -1.68611e-11 0)
(703.36 -1.89333e-11 0)
(703.36 -2.17598e-11 0)
(703.36 -2.31572e-11 0)
(703.36 -2.53394e-11 0)
(703.36 -2.86201e-11 0)
(703.36 -2.92783e-11 0)
(703.36 -2.71884e-11 0)
(703.36 -8.11481e-12 0)
(703.36 1.81842e-10 0)
(703.36 -6.1638e-14 0)
(703.36 -1.07186e-13 0)
(703.36 -2.08334e-13 0)
(703.36 -9.72534e-13 0)
(703.36 -2.09699e-12 0)
(703.36 -4.12909e-12 0)
(703.36 -6.22145e-12 0)
(703.36 -8.91136e-12 0)
(703.36 -1.15085e-11 0)
(703.36 -1.40463e-11 0)
(703.36 -1.6383e-11 0)
(703.36 -1.87073e-11 0)
(703.36 -2.12898e-11 0)
(703.36 -2.293e-11 0)
(703.36 -2.46406e-11 0)
(703.36 -2.7457e-11 0)
(703.36 -2.91265e-11 0)
(703.36 -2.87513e-11 0)
(703.36 -2.31383e-11 0)
(703.36 -2.15334e-11 0)
(703.36 -1.13171e-13 0)
(703.36 -2.38149e-15 0)
(703.36 -3.09387e-13 0)
(703.36 -1.01444e-12 0)
(703.36 -2.08376e-12 0)
(703.36 -3.89854e-12 0)
(703.36 -6.07367e-12 0)
(703.36 -8.59798e-12 0)
(703.36 -1.13871e-11 0)
(703.36 -1.37032e-11 0)
(703.36 -1.60639e-11 0)
(703.36 -1.8252e-11 0)
(703.36 -2.05883e-11 0)
(703.36 -2.24566e-11 0)
(703.36 -2.39309e-11 0)
(703.36 -2.61312e-11 0)
(703.36 -2.83913e-11 0)
(703.36 -2.90785e-11 0)
(703.36 -2.70396e-11 0)
(703.36 -3.91685e-11 0)
(703.36 -9.87428e-14 0)
(703.36 -1.18509e-13 0)
(703.36 -1.44738e-13 0)
(703.36 -8.77996e-13 0)
(703.36 -1.96487e-12 0)
(703.36 -3.74052e-12 0)
(703.36 -5.86098e-12 0)
(703.36 -8.43307e-12 0)
(703.36 -1.10309e-11 0)
(703.36 -1.33437e-11 0)
(703.36 -1.59742e-11 0)
(703.36 -1.78202e-11 0)
(703.36 -2.00153e-11 0)
(703.36 -2.19097e-11 0)
(703.36 -2.33177e-11 0)
(703.36 -2.51236e-11 0)
(703.36 -2.75813e-11 0)
(703.36 -2.92719e-11 0)
(703.36 -3.07196e-11 0)
(703.36 -4.59445e-11 0)
(703.36 -9.72034e-14 0)
(703.36 -7.71057e-14 0)
(703.36 -1.46997e-13 0)
(703.36 -8.33216e-13 0)
(703.36 -1.91596e-12 0)
(703.36 -3.59152e-12 0)
(703.36 -5.59408e-12 0)
(703.36 -8.20657e-12 0)
(703.36 -1.06527e-11 0)
(703.36 -1.3014e-11 0)
(703.36 -1.53837e-11 0)
(703.36 -1.74064e-11 0)
(703.36 -1.93789e-11 0)
(703.36 -2.11848e-11 0)
(703.36 -2.2624e-11 0)
(703.36 -2.42709e-11 0)
(703.36 -2.63089e-11 0)
(703.36 -2.87218e-11 0)
(703.36 -3.30851e-11 0)
(703.36 -5.53923e-11 0)
(703.36 -5.63258e-14 0)
(703.36 -4.22429e-14 0)
(703.36 -1.47464e-13 0)
(703.36 -7.92822e-13 0)
(703.36 -1.85467e-12 0)
(703.36 -3.42955e-12 0)
(703.36 -5.36098e-12 0)
(703.36 -8.03437e-12 0)
(703.36 -1.0301e-11 0)
(703.36 -1.25917e-11 0)
(703.36 -1.48899e-11 0)
(703.36 -1.6851e-11 0)
(703.36 -1.88374e-11 0)
(703.36 -2.05579e-11 0)
(703.36 -2.20744e-11 0)
(703.36 -2.32758e-11 0)
(703.36 -2.49822e-11 0)
(703.36 -2.8004e-11 0)
(703.36 -3.43198e-11 0)
(703.36 -5.6407e-11 0)
(703.36 -3.0994e-14 0)
(703.36 -1.19103e-15 0)
(703.36 -1.4919e-13 0)
(703.36 -7.35967e-13 0)
(703.36 -1.69176e-12 0)
(703.36 -3.41306e-12 0)
(703.36 -5.12312e-12 0)
(703.36 -7.51734e-12 0)
(703.36 -1.00047e-11 0)
(703.36 -1.23133e-11 0)
(703.36 -1.44384e-11 0)
(703.36 -1.64216e-11 0)
(703.36 -1.82983e-11 0)
(703.36 -2.00298e-11 0)
(703.36 -2.14727e-11 0)
(703.36 -2.2497e-11 0)
(703.36 -2.39009e-11 0)
(703.36 -2.68037e-11 0)
(703.36 -3.35213e-11 0)
(703.36 -5.08022e-11 0)
(703.36 -2.36232e-15 0)
(703.36 -3.05199e-14 0)
(703.36 -2.02415e-13 0)
(703.36 -7.21567e-13 0)
(703.36 -1.89899e-12 0)
(703.36 -3.07599e-12 0)
(703.36 -4.97302e-12 0)
(703.36 -7.23133e-12 0)
(703.36 -9.50018e-12 0)
(703.36 -1.17877e-11 0)
(703.36 -1.39595e-11 0)
(703.36 -1.57957e-11 0)
(703.36 -1.77434e-11 0)
(703.36 -1.93413e-11 0)
(703.36 -2.0616e-11 0)
(703.36 -2.18369e-11 0)
(703.36 -2.31151e-11 0)
(703.36 -2.51672e-11 0)
(703.36 -3.09422e-11 0)
(703.36 -4.69897e-11 0)
(703.36 6.14055e-14 0)
(703.36 2.31173e-15 0)
(703.36 -1.62175e-13 0)
(703.36 -6.85266e-13 0)
(703.36 -1.60874e-12 0)
(703.36 -2.88507e-12 0)
(703.36 -4.86341e-12 0)
(703.36 -6.89735e-12 0)
(703.36 -9.0872e-12 0)
(703.36 -1.12818e-11 0)
(703.36 -1.33871e-11 0)
(703.36 -1.5277e-11 0)
(703.36 -1.71268e-11 0)
(703.36 -1.86214e-11 0)
(703.36 -1.97845e-11 0)
(703.36 -2.09669e-11 0)
(703.36 -2.20669e-11 0)
(703.36 -2.34499e-11 0)
(703.36 -2.81207e-11 0)
(703.36 -4.58885e-11 0)
(703.36 -5.80439e-14 0)
(703.36 4.78519e-14 0)
(703.36 -1.9735e-13 0)
(703.36 -6.55587e-13 0)
(703.36 -1.46116e-12 0)
(703.36 -2.87474e-12 0)
(703.36 -4.52017e-12 0)
(703.36 -6.57956e-12 0)
(703.36 -8.56833e-12 0)
(703.36 -1.06835e-11 0)
(703.36 -1.28124e-11 0)
(703.36 -1.48324e-11 0)
(703.36 -1.62558e-11 0)
(703.36 -1.77551e-11 0)
(703.36 -1.89549e-11 0)
(703.36 -2.00081e-11 0)
(703.36 -2.09154e-11 0)
(703.36 -2.19784e-11 0)
(703.36 -2.54494e-11 0)
(703.36 -4.2791e-11 0)
(703.36 -9.38967e-14 0)
(703.36 -4.71786e-15 0)
(703.36 -1.07972e-13 0)
(703.36 -5.68322e-13 0)
(703.36 -1.45375e-12 0)
(703.36 -2.65934e-12 0)
(703.36 -4.22817e-12 0)
(703.36 -6.27924e-12 0)
(703.36 -8.22166e-12 0)
(703.36 -1.02624e-11 0)
(703.36 -1.23255e-11 0)
(703.36 -1.41102e-11 0)
(703.36 -1.5553e-11 0)
(703.36 -1.68158e-11 0)
(703.36 -1.79783e-11 0)
(703.36 -1.894e-11 0)
(703.36 -1.97276e-11 0)
(703.36 -2.06719e-11 0)
(703.36 -2.27825e-11 0)
(703.36 -3.45601e-11 0)
(703.36 2.84208e-14 0)
(703.36 6.48752e-15 0)
(703.36 -1.50744e-13 0)
(703.36 -6.02128e-13 0)
(703.36 -1.36993e-12 0)
(703.36 -2.50954e-12 0)
(703.36 -4.22748e-12 0)
(703.36 -5.69097e-12 0)
(703.36 -7.62571e-12 0)
(703.36 -9.85349e-12 0)
(703.36 -1.18072e-11 0)
(703.36 -1.3322e-11 0)
(703.36 -1.4895e-11 0)
(703.36 -1.59918e-11 0)
(703.36 -1.71037e-11 0)
(703.36 -1.81718e-11 0)
(703.36 -1.89406e-11 0)
(703.36 -1.9402e-11 0)
(703.36 -2.01273e-11 0)
(703.36 -2.54442e-11 0)
(703.36 6.19024e-14 0)
(703.36 -1.28834e-14 0)
(703.36 -1.17547e-13 0)
(703.36 -5.96478e-13 0)
(703.36 -1.36623e-12 0)
(703.36 -2.35721e-12 0)
(703.36 -3.80214e-12 0)
(703.36 -5.35577e-12 0)
(703.36 -7.07859e-12 0)
(703.36 -9.25943e-12 0)
(703.36 -1.09552e-11 0)
(703.36 -1.26419e-11 0)
(703.36 -1.40471e-11 0)
(703.36 -1.51896e-11 0)
(703.36 -1.63405e-11 0)
(703.36 -1.74943e-11 0)
(703.36 -1.83038e-11 0)
(703.36 -1.85036e-11 0)
(703.36 -1.83566e-11 0)
(703.36 -1.93962e-11 0)
(703.36 -1.21371e-14 0)
(703.36 -2.67565e-14 0)
(703.36 -5.59982e-14 0)
(703.36 -4.46629e-13 0)
(703.36 -1.11041e-12 0)
(703.36 -2.10774e-12 0)
(703.36 -3.50349e-12 0)
(703.36 -5.0428e-12 0)
(703.36 -6.83232e-12 0)
(703.36 -8.66897e-12 0)
(703.36 -1.02961e-11 0)
(703.36 -1.18672e-11 0)
(703.36 -1.31953e-11 0)
(703.36 -1.44328e-11 0)
(703.36 -1.54873e-11 0)
(703.36 -1.62479e-11 0)
(703.36 -1.69519e-11 0)
(703.36 -1.737e-11 0)
(703.36 -1.68108e-11 0)
(703.36 -1.5738e-11 0)
(703.36 3.21219e-14 0)
(703.36 -3.65495e-14 0)
(703.36 -1.00893e-13 0)
(703.36 -4.69324e-13 0)
(703.36 -1.05227e-12 0)
(703.36 -1.9759e-12 0)
(703.36 -3.22988e-12 0)
(703.36 -4.6871e-12 0)
(703.36 -6.33226e-12 0)
(703.36 -8.04481e-12 0)
(703.36 -9.86485e-12 0)
(703.36 -1.10668e-11 0)
(703.36 -1.23887e-11 0)
(703.36 -1.37158e-11 0)
(703.36 -1.47335e-11 0)
(703.36 -1.53817e-11 0)
(703.36 -1.59789e-11 0)
(703.36 -1.63573e-11 0)
(703.36 -1.57625e-11 0)
(703.36 -1.38346e-11 0)
(703.36 -1.12127e-14 0)
(703.36 5.29982e-14 0)
(703.36 -1.11724e-13 0)
(703.36 -3.75939e-13 0)
(703.36 -1.03039e-12 0)
(703.36 -2.06041e-12 0)
(703.36 -2.9024e-12 0)
(703.36 -4.17119e-12 0)
(703.36 -5.75888e-12 0)
(703.36 -7.43796e-12 0)
(703.36 -8.70645e-12 0)
(703.36 -1.02075e-11 0)
(703.36 -1.1525e-11 0)
(703.36 -1.27877e-11 0)
(703.36 -1.37997e-11 0)
(703.36 -1.46061e-11 0)
(703.36 -1.52129e-11 0)
(703.36 -1.52681e-11 0)
(703.36 -1.46825e-11 0)
(703.36 -1.30775e-11 0)
(703.36 -5.24168e-15 0)
(703.36 -1.25727e-14 0)
(703.36 -1.50514e-13 0)
(703.36 -3.32556e-13 0)
(703.36 -8.53896e-13 0)
(703.36 -1.70302e-12 0)
(703.36 -2.56437e-12 0)
(703.36 -3.8256e-12 0)
(703.36 -5.30839e-12 0)
(703.36 -6.6927e-12 0)
(703.36 -7.97758e-12 0)
(703.36 -9.48212e-12 0)
(703.36 -1.06657e-11 0)
(703.36 -1.17755e-11 0)
(703.36 -1.27407e-11 0)
(703.36 -1.34177e-11 0)
(703.36 -1.38971e-11 0)
(703.36 -1.40376e-11 0)
(703.36 -1.3627e-11 0)
(703.36 -1.30035e-11 0)
(703.36 3.99102e-14 0)
(703.36 2.11079e-14 0)
(703.36 -1.00191e-13 0)
(703.36 -3.05525e-13 0)
(703.36 -8.4064e-13 0)
(703.36 -1.50617e-12 0)
(703.36 -2.34486e-12 0)
(703.36 -3.48965e-12 0)
(703.36 -4.6693e-12 0)
(703.36 -5.97429e-12 0)
(703.36 -7.50465e-12 0)
(703.36 -8.72834e-12 0)
(703.36 -9.80682e-12 0)
(703.36 -1.0765e-11 0)
(703.36 -1.16105e-11 0)
(703.36 -1.24843e-11 0)
(703.36 -1.29084e-11 0)
(703.36 -1.33167e-11 0)
(703.36 -1.31921e-11 0)
(703.36 -1.28591e-11 0)
(703.36 1.53548e-14 0)
(703.36 7.13984e-14 0)
(703.36 9.41624e-15 0)
(703.36 -2.73085e-13 0)
(703.36 -7.88741e-13 0)
(703.36 -1.39682e-12 0)
(703.36 -2.24445e-12 0)
(703.36 -3.19027e-12 0)
(703.36 -4.17661e-12 0)
(703.36 -5.38254e-12 0)
(703.36 -6.71197e-12 0)
(703.36 -7.9401e-12 0)
(703.36 -8.83319e-12 0)
(703.36 -9.65802e-12 0)
(703.36 -1.06766e-11 0)
(703.36 -1.14539e-11 0)
(703.36 -1.21102e-11 0)
(703.36 -1.23579e-11 0)
(703.36 -1.22616e-11 0)
(703.36 -1.19385e-11 0)
(703.36 1.12861e-14 0)
(703.36 -4.2999e-15 0)
(703.36 -7.34113e-14 0)
(703.36 -3.20473e-13 0)
(703.36 -6.69863e-13 0)
(703.36 -1.26827e-12 0)
(703.36 -1.90368e-12 0)
(703.36 -2.93935e-12 0)
(703.36 -3.85784e-12 0)
(703.36 -4.82876e-12 0)
(703.36 -5.97616e-12 0)
(703.36 -7.01703e-12 0)
(703.36 -7.92503e-12 0)
(703.36 -8.70108e-12 0)
(703.36 -9.60051e-12 0)
(703.36 -1.03331e-11 0)
(703.36 -1.08779e-11 0)
(703.36 -1.11355e-11 0)
(703.36 -1.11149e-11 0)
(703.36 -1.07934e-11 0)
(703.36 4.01228e-14 0)
(703.36 2.52557e-14 0)
(703.36 -1.34474e-13 0)
(703.36 -1.31418e-13 0)
(703.36 -5.35564e-13 0)
(703.36 -1.0144e-12 0)
(703.36 -1.75093e-12 0)
(703.36 -2.54434e-12 0)
(703.36 -3.3952e-12 0)
(703.36 -4.2815e-12 0)
(703.36 -5.09774e-12 0)
(703.36 -5.9964e-12 0)
(703.36 -6.96638e-12 0)
(703.36 -7.98067e-12 0)
(703.36 -8.59432e-12 0)
(703.36 -9.20103e-12 0)
(703.36 -9.6863e-12 0)
(703.36 -1.004e-11 0)
(703.36 -1.00558e-11 0)
(703.36 -9.72738e-12 0)
(703.36 5.45718e-14 0)
(703.36 8.27287e-15 0)
(703.36 -1.26839e-13 0)
(703.36 4.2468e-14 0)
(703.36 -3.75798e-13 0)
(703.36 -8.8251e-13 0)
(703.36 -1.54643e-12 0)
(703.36 -2.13309e-12 0)
(703.36 -2.99693e-12 0)
(703.36 -3.75293e-12 0)
(703.36 -4.48894e-12 0)
(703.36 -5.16646e-12 0)
(703.36 -6.05617e-12 0)
(703.36 -6.81281e-12 0)
(703.36 -7.39816e-12 0)
(703.36 -7.94465e-12 0)
(703.36 -8.46619e-12 0)
(703.36 -8.83954e-12 0)
(703.36 -8.94712e-12 0)
(703.36 -8.74586e-12 0)
(703.36 6.36074e-14 0)
(703.36 -2.14663e-15 0)
(703.36 -5.96794e-14 0)
(703.36 -1.24949e-13 0)
(703.36 -3.48333e-13 0)
(703.36 -9.39318e-13 0)
(703.36 -1.28525e-12 0)
(703.36 -1.82156e-12 0)
(703.36 -2.56072e-12 0)
(703.36 -3.31265e-12 0)
(703.36 -3.99382e-12 0)
(703.36 -4.63413e-12 0)
(703.36 -5.31084e-12 0)
(703.36 -5.90971e-12 0)
(703.36 -6.40447e-12 0)
(703.36 -6.94826e-12 0)
(703.36 -7.39591e-12 0)
(703.36 -7.75606e-12 0)
(703.36 -7.88249e-12 0)
(703.36 -7.63392e-12 0)
(703.36 2.12767e-13 0)
(703.36 1.69703e-14 0)
(703.36 6.51507e-15 0)
(703.36 -2.34412e-13 0)
(703.36 -4.17924e-13 0)
(703.36 -7.00083e-13 0)
(703.36 -1.12442e-12 0)
(703.36 -1.50277e-12 0)
(703.36 -2.10143e-12 0)
(703.36 -2.7503e-12 0)
(703.36 -3.33301e-12 0)
(703.36 -3.99783e-12 0)
(703.36 -4.49273e-12 0)
(703.36 -4.97642e-12 0)
(703.36 -5.49891e-12 0)
(703.36 -5.91639e-12 0)
(703.36 -6.3325e-12 0)
(703.36 -6.66695e-12 0)
(703.36 -6.93287e-12 0)
(703.36 -6.88265e-12 0)
(703.36 4.63695e-14 0)
(703.36 3.10874e-14 0)
(703.36 -1.62855e-13 0)
(703.36 -1.42694e-13 0)
(703.36 -3.5634e-13 0)
(703.36 -4.16657e-13 0)
(703.36 -8.00034e-13 0)
(703.36 -1.14219e-12 0)
(703.36 -1.70007e-12 0)
(703.36 -2.21917e-12 0)
(703.36 -2.90651e-12 0)
(703.36 -3.48376e-12 0)
(703.36 -3.92397e-12 0)
(703.36 -4.27408e-12 0)
(703.36 -4.63355e-12 0)
(703.36 -4.91352e-12 0)
(703.36 -5.30143e-12 0)
(703.36 -5.69017e-12 0)
(703.36 -5.94975e-12 0)
(703.36 -5.96399e-12 0)
(703.36 3.82491e-15 0)
(703.36 -5.31585e-14 0)
(703.36 -1.3671e-14 0)
(703.36 5.30512e-14 0)
(703.36 -2.44499e-13 0)
(703.36 -3.23993e-13 0)
(703.36 -4.24022e-13 0)
(703.36 -8.53982e-13 0)
(703.36 -1.44776e-12 0)
(703.36 -1.86895e-12 0)
(703.36 -2.36003e-12 0)
(703.36 -2.79889e-12 0)
(703.36 -3.27102e-12 0)
(703.36 -3.62553e-12 0)
(703.36 -3.93399e-12 0)
(703.36 -4.17629e-12 0)
(703.36 -4.40724e-12 0)
(703.36 -4.64846e-12 0)
(703.36 -4.90643e-12 0)
(703.36 -4.98744e-12 0)
(703.36 9.70725e-14 0)
(703.36 -1.81338e-13 0)
(703.36 -2.79041e-14 0)
(703.36 -8.83195e-14 0)
(703.36 -1.69808e-13 0)
(703.36 -2.76112e-13 0)
(703.36 -3.76895e-13 0)
(703.36 -6.04003e-13 0)
(703.36 -9.85369e-13 0)
(703.36 -1.41829e-12 0)
(703.36 -1.77622e-12 0)
(703.36 -2.227e-12 0)
(703.36 -2.59696e-12 0)
(703.36 -2.91906e-12 0)
(703.36 -3.13424e-12 0)
(703.36 -3.38757e-12 0)
(703.36 -3.56187e-12 0)
(703.36 -3.73661e-12 0)
(703.36 -3.94913e-12 0)
(703.36 -4.12461e-12 0)
(703.36 1.06347e-13 0)
(703.36 -5.50646e-14 0)
(703.36 -7.27327e-14 0)
(703.36 -1.11366e-13 0)
(703.36 -2.6578e-14 0)
(703.36 -1.0252e-13 0)
(703.36 -4.57871e-13 0)
(703.36 -6.20638e-13 0)
(703.36 -7.23389e-13 0)
(703.36 -1.04556e-12 0)
(703.36 -1.27879e-12 0)
(703.36 -1.60862e-12 0)
(703.36 -1.96695e-12 0)
(703.36 -2.32961e-12 0)
(703.36 -2.55664e-12 0)
(703.36 -2.71924e-12 0)
(703.36 -2.88391e-12 0)
(703.36 -3.01407e-12 0)
(703.36 -3.14447e-12 0)
(703.36 -3.2971e-12 0)
(703.36 2.50215e-14 0)
(703.36 -8.20269e-15 0)
(703.36 7.44291e-14 0)
(703.36 1.01747e-14 0)
(703.36 4.67619e-14 0)
(703.36 -6.7301e-14 0)
(703.36 -4.12784e-13 0)
(703.36 -4.8758e-13 0)
(703.36 -5.61064e-13 0)
(703.36 -7.76959e-13 0)
(703.36 -1.07755e-12 0)
(703.36 -1.29554e-12 0)
(703.36 -1.53163e-12 0)
(703.36 -1.7536e-12 0)
(703.36 -1.98758e-12 0)
(703.36 -2.19634e-12 0)
(703.36 -2.37111e-12 0)
(703.36 -2.51122e-12 0)
(703.36 -2.60222e-12 0)
(703.36 -2.64721e-12 0)
(703.36 -1.57882e-13 0)
(703.36 8.09636e-14 0)
(703.36 4.40576e-14 0)
(703.36 -1.18578e-14 0)
(703.36 -4.19628e-14 0)
(703.36 -1.32244e-13 0)
(703.36 -2.30337e-13 0)
(703.36 -2.53956e-13 0)
(703.36 -4.01933e-13 0)
(703.36 -6.67807e-13 0)
(703.36 -8.50747e-13 0)
(703.36 -1.14078e-12 0)
(703.36 -1.25135e-12 0)
(703.36 -1.32521e-12 0)
(703.36 -1.4801e-12 0)
(703.36 -1.65272e-12 0)
(703.36 -1.77807e-12 0)
(703.36 -1.9145e-12 0)
(703.36 -2.02844e-12 0)
(703.36 -2.08662e-12 0)
(703.36 -6.05829e-14 0)
(703.36 -5.91415e-15 0)
(703.36 -1.28076e-13 0)
(703.36 -3.9278e-14 0)
(703.36 -3.18287e-14 0)
(703.36 -7.86854e-14 0)
(703.36 -2.84238e-14 0)
(703.36 -9.20636e-14 0)
(703.36 -2.81271e-13 0)
(703.36 -3.83989e-13 0)
(703.36 -5.38139e-13 0)
(703.36 -6.63611e-13 0)
(703.36 -8.25899e-13 0)
(703.36 -9.56619e-13 0)
(703.36 -1.02036e-12 0)
(703.36 -1.06142e-12 0)
(703.36 -1.16137e-12 0)
(703.36 -1.27206e-12 0)
(703.36 -1.33426e-12 0)
(703.36 -1.4209e-12 0)
(703.36 1.24756e-13 0)
(703.36 -1.32745e-13 0)
(703.36 -9.17668e-14 0)
(703.36 -4.0668e-14 0)
(703.36 -6.63473e-14 0)
(703.36 -8.7265e-14 0)
(703.36 -4.08042e-14 0)
(703.36 -1.52868e-13 0)
(703.36 -1.85986e-13 0)
(703.36 -2.76295e-13 0)
(703.36 -4.47194e-13 0)
(703.36 -4.84914e-13 0)
(703.36 -4.69935e-13 0)
(703.36 -5.46586e-13 0)
(703.36 -6.29084e-13 0)
(703.36 -7.18391e-13 0)
(703.36 -7.64674e-13 0)
(703.36 -7.82431e-13 0)
(703.36 -7.98608e-13 0)
(703.36 -8.23244e-13 0)
(703.36 1.48133e-13 0)
(703.36 3.65427e-14 0)
(703.36 3.14166e-15 0)
(703.36 -6.24498e-14 0)
(703.36 -8.17924e-14 0)
(703.36 -2.12016e-14 0)
(703.36 -8.53168e-15 0)
(703.36 -1.10091e-13 0)
(703.36 -1.58625e-13 0)
(703.36 -1.77031e-13 0)
(703.36 -2.16794e-13 0)
(703.36 -2.14961e-13 0)
(703.36 -2.87735e-13 0)
(703.36 -3.5072e-13 0)
(703.36 -4.88304e-13 0)
(703.36 -5.46888e-13 0)
(703.36 -5.6045e-13 0)
(703.36 -5.86501e-13 0)
(703.36 -6.22565e-13 0)
(703.36 -6.32424e-13 0)
(703.36 -1.6122e-13 0)
(703.36 -4.16481e-14 0)
(703.36 -3.82923e-14 0)
(703.36 -2.34893e-14 0)
(703.36 8.85358e-14 0)
(703.36 9.75423e-14 0)
(703.36 5.61114e-14 0)
(703.36 -1.01295e-13 0)
(703.36 -6.598e-14 0)
(703.36 6.28318e-14 0)
(703.36 1.68061e-14 0)
(703.36 -5.54151e-14 0)
(703.36 -1.85365e-13 0)
(703.36 -2.1211e-13 0)
(703.36 -2.21993e-13 0)
(703.36 -2.90322e-13 0)
(703.36 -3.41878e-13 0)
(703.36 -3.89059e-13 0)
(703.36 -4.0813e-13 0)
(703.36 -4.24586e-13 0)
(703.36 -5.98407e-14 0)
(703.36 -4.34397e-14 0)
(703.36 5.73076e-14 0)
(703.36 1.59703e-14 0)
(703.36 1.09738e-13 0)
(703.36 -2.10706e-14 0)
(703.36 8.55078e-15 0)
(703.36 -5.46328e-14 0)
(703.36 -6.41499e-14 0)
(703.36 -1.09202e-13 0)
(703.36 -5.33077e-14 0)
(703.36 -9.9182e-14 0)
(703.36 -9.99821e-14 0)
(703.36 -8.52606e-14 0)
(703.36 -5.65764e-14 0)
(703.36 -7.14571e-14 0)
(703.36 -8.47193e-14 0)
(703.36 -7.65674e-14 0)
(703.36 -1.06536e-13 0)
(703.36 -1.23993e-13 0)
(703.36 -6.98914e-14 0)
(703.36 -2.31272e-14 0)
(703.36 1.72303e-14 0)
(703.36 4.64815e-15 0)
(703.36 6.0705e-14 0)
(703.36 -1.15462e-14 0)
(703.36 2.0516e-14 0)