/*--------------------------------*- C++ -*----------------------------------*\
| =========                 |                                                 |
| \\      /  F ield         | OpenFOAM: The Open Source CFD Toolbox           |
|  \\    /   O peration     | Version:  v2012                                 |
|   \\  /    A nd           | Website:  www.openfoam.com                      |
|    \\/     M anipulation  |                                                 |
\*---------------------------------------------------------------------------*/
FoamFile
{
    version     2.0;
    format      ascii;
    class       volScalarField;
    location    "2000";
    object      V;
}
// * * * * * * * * * * * * * * * * * * * * * * * * * * * * * * * * * * * * * //

dimensions      [0 3 0 0 0 0 0];


internalField   nonuniform List<scalar> 
8000
(
2.05732e-07
1.67449e-07
1.36289e-07
1.10928e-07
9.02865e-08
7.34858e-08
5.98114e-08
4.86816e-08
3.96228e-08
3.22497e-08
2.62486e-08
2.13642e-08
1.73887e-08
1.4153e-08
1.15194e-08
9.37581e-09
7.63114e-09
6.21112e-09
5.05534e-09
4.11463e-09
2.22149e-07
1.80811e-07
1.47165e-07
1.19781e-07
9.74915e-08
7.93501e-08
6.45844e-08
5.25664e-08
4.27847e-08
3.48233e-08
2.83433e-08
2.30691e-08
1.87763e-08
1.52824e-08
1.24386e-08
1.0124e-08
8.24011e-09
6.70677e-09
5.45876e-09
4.44298e-09
2.39877e-07
1.9524e-07
1.58909e-07
1.29339e-07
1.05271e-07
8.56823e-08
6.97383e-08
5.67613e-08
4.6199e-08
3.76022e-08
3.06051e-08
2.491e-08
2.02747e-08
1.65019e-08
1.34312e-08
1.09319e-08
8.89768e-09
7.24198e-09
5.89438e-09
4.79754e-09
2.59019e-07
2.1082e-07
1.7159e-07
1.39661e-07
1.13672e-07
9.25198e-08
7.53035e-08
6.12909e-08
4.98857e-08
4.06029e-08
3.30474e-08
2.68979e-08
2.18927e-08
1.78188e-08
1.45031e-08
1.18043e-08
9.60772e-09
7.8199e-09
6.36475e-09
5.18039e-09
2.79689e-07
2.27644e-07
1.85284e-07
1.50806e-07
1.22743e-07
9.9903e-08
8.13128e-08
6.61819e-08
5.38667e-08
4.3843e-08
3.56846e-08
2.90443e-08
2.36397e-08
1.92408e-08
1.56604e-08
1.27463e-08
1.03744e-08
8.44393e-09
6.87267e-09
5.59379e-09
3.02009e-07
2.4581e-07
2.00069e-07
1.6284e-07
1.32538e-07
1.07875e-07
8.78017e-08
7.14633e-08
5.81653e-08
4.73417e-08
3.85323e-08
3.13621e-08
2.55262e-08
2.07762e-08
1.69101e-08
1.37635e-08
1.12023e-08
9.11777e-09
7.42111e-09
6.04018e-09
3.26109e-07
2.65426e-07
2.16035e-07
1.75835e-07
1.43115e-07
1.16484e-07
9.48083e-08
7.71662e-08
6.28069e-08
5.11197e-08
4.16072e-08
3.38648e-08
2.75632e-08
2.24342e-08
1.82596e-08
1.48618e-08
1.20963e-08
9.84537e-09
8.01333e-09
6.52219e-09
3.52133e-07
2.86608e-07
2.33275e-07
1.89867e-07
1.54536e-07
1.25779e-07
1.02374e-07
8.33241e-08
6.7819e-08
5.51991e-08
4.49275e-08
3.65673e-08
2.97628e-08
2.42244e-08
1.97167e-08
1.60478e-08
1.30616e-08
1.0631e-08
8.6528e-09
7.04267e-09
3.80234e-07
3.09479e-07
2.51891e-07
2.05018e-07
1.66868e-07
1.35817e-07
1.10544e-07
8.99735e-08
7.3231e-08
5.9604e-08
4.85128e-08
3.94854e-08
3.21379e-08
2.61576e-08
2.12901e-08
1.73284e-08
1.41039e-08
1.14794e-08
9.3433e-09
7.60468e-09
4.10577e-07
3.34176e-07
2.71992e-07
2.21379e-07
1.80184e-07
1.46655e-07
1.19365e-07
9.71534e-08
7.90749e-08
6.43605e-08
5.23841e-08
4.26364e-08
3.47025e-08
2.8245e-08
2.29891e-08
1.87112e-08
1.52294e-08
1.23955e-08
1.00889e-08
8.21154e-09
4.43341e-07
3.60843e-07
2.93697e-07
2.39045e-07
1.94563e-07
1.58358e-07
1.28891e-07
1.04906e-07
8.53852e-08
6.94965e-08
5.65644e-08
4.60388e-08
3.74718e-08
3.0499e-08
2.48236e-08
2.02044e-08
1.64447e-08
1.33847e-08
1.0894e-08
8.86683e-09
4.7872e-07
3.89639e-07
3.17134e-07
2.58121e-07
2.10089e-07
1.70995e-07
1.39176e-07
1.13278e-07
9.2199e-08
7.50424e-08
6.10783e-08
4.97127e-08
4.04621e-08
3.29328e-08
2.68046e-08
2.18167e-08
1.7757e-08
1.44528e-08
1.17634e-08
9.57441e-09
5.16923e-07
4.20733e-07
3.42442e-07
2.78719e-07
2.26855e-07
1.84641e-07
1.50283e-07
1.22318e-07
9.95566e-08
8.10309e-08
6.59525e-08
5.36799e-08
4.3691e-08
3.55609e-08
2.89436e-08
2.35577e-08
1.91741e-08
1.56061e-08
1.27021e-08
1.03385e-08
5.58174e-07
4.54308e-07
3.69769e-07
3.00962e-07
2.44958e-07
1.99376e-07
1.62275e-07
1.32079e-07
1.07501e-07
8.74972e-08
7.12155e-08
5.79636e-08
4.71776e-08
3.83987e-08
3.12534e-08
2.54377e-08
2.07042e-08
1.68515e-08
1.37157e-08
1.11635e-08
6.02717e-07
4.90562e-07
3.99277e-07
3.24979e-07
2.64506e-07
2.15286e-07
1.75225e-07
1.42619e-07
1.1608e-07
9.44796e-08
7.68986e-08
6.25891e-08
5.09424e-08
4.14629e-08
3.37474e-08
2.74676e-08
2.23564e-08
1.81963e-08
1.48103e-08
1.20543e-08
6.50814e-07
5.29709e-07
4.3114e-07
3.50912e-07
2.85614e-07
2.32466e-07
1.89208e-07
1.54e-07
1.25343e-07
1.02019e-07
8.30352e-08
6.75838e-08
5.50077e-08
4.47717e-08
3.64405e-08
2.96596e-08
2.41404e-08
1.96483e-08
1.59921e-08
1.30163e-08
7.0275e-07
5.7198e-07
4.65545e-07
3.78915e-07
3.08406e-07
2.51017e-07
2.04307e-07
1.66289e-07
1.35346e-07
1.1016e-07
8.96615e-08
7.29771e-08
5.93973e-08
4.83445e-08
3.93485e-08
3.20264e-08
2.60669e-08
2.12163e-08
1.72683e-08
1.4055e-08
7.5883e-07
6.17625e-07
5.02696e-07
4.09153e-07
3.33017e-07
2.71049e-07
2.20611e-07
1.79559e-07
1.46147e-07
1.18951e-07
9.68166e-08
7.88007e-08
6.41373e-08
5.22025e-08
4.24885e-08
3.45822e-08
2.8147e-08
2.29094e-08
1.86464e-08
1.51766e-08
8.19385e-07
6.66912e-07
5.42812e-07
4.41804e-07
3.59592e-07
2.92678e-07
2.38216e-07
1.93888e-07
1.57809e-07
1.28444e-07
1.04543e-07
8.50891e-08
6.92555e-08
5.63683e-08
4.58792e-08
3.73419e-08
3.03932e-08
2.47376e-08
2.01344e-08
1.63877e-08
8.84773e-07
7.20133e-07
5.86129e-07
4.77061e-07
3.88288e-07
3.16035e-07
2.57226e-07
2.09361e-07
1.70403e-07
1.38694e-07
1.12885e-07
9.18793e-08
7.47822e-08
6.08666e-08
4.95404e-08
4.03218e-08
3.28186e-08
2.67117e-08
2.17411e-08
1.76955e-08
9.55379e-07
7.776e-07
6.32902e-07
5.1513e-07
4.19274e-07
3.41254e-07
2.77753e-07
2.26068e-07
1.84001e-07
1.49762e-07
1.21894e-07
9.92114e-08
8.07499e-08
6.57238e-08
5.34937e-08
4.35395e-08
3.54376e-08
2.88433e-08
2.34761e-08
1.91076e-08
1.03162e-06
8.39653e-07
6.83409e-07
5.56238e-07
4.52732e-07
3.68487e-07
2.99918e-07
2.44109e-07
1.98684e-07
1.61713e-07
1.31621e-07
1.07129e-07
8.71938e-08
7.09686e-08
5.77626e-08
4.7014e-08
3.82655e-08
3.1145e-08
2.53495e-08
2.06324e-08
1.11394e-06
9.06658e-07
7.37945e-07
6.00627e-07
4.88861e-07
3.97892e-07
3.23852e-07
2.63589e-07
2.1454e-07
1.74618e-07
1.42124e-07
1.15677e-07
9.4152e-08
7.6632e-08
6.23721e-08
5.07658e-08
4.13192e-08
3.36304e-08
2.73724e-08
2.22789e-08
1.20284e-06
9.79011e-07
7.96834e-07
6.48557e-07
5.27872e-07
4.29645e-07
3.49695e-07
2.84623e-07
2.3166e-07
1.88552e-07
1.53466e-07
1.24909e-07
1.01665e-07
8.27473e-08
6.73495e-08
5.48169e-08
4.46165e-08
3.63141e-08
2.95567e-08
2.40567e-08
1.29882e-06
1.05714e-06
8.60422e-07
7.00313e-07
5.69997e-07
4.63931e-07
3.77602e-07
3.07337e-07
2.50147e-07
2.03599e-07
1.65713e-07
1.34877e-07
1.09778e-07
8.93506e-08
7.2724e-08
5.91914e-08
4.81769e-08
3.9212e-08
3.19154e-08
2.59765e-08
1.40247e-06
1.1415e-06
9.29085e-07
7.56199e-07
6.15484e-07
5.00953e-07
4.07735e-07
3.31862e-07
2.70109e-07
2.19846e-07
1.78937e-07
1.4564e-07
1.18539e-07
9.64809e-08
7.85275e-08
6.39149e-08
5.20215e-08
4.23412e-08
3.44623e-08
2.80494e-08
1.51439e-06
1.23259e-06
1.00323e-06
8.16544e-07
6.646e-07
5.4093e-07
4.40272e-07
3.58345e-07
2.91664e-07
2.3739e-07
1.93216e-07
1.57262e-07
1.27998e-07
1.0418e-07
8.47941e-08
6.90154e-08
5.61729e-08
4.57201e-08
3.72124e-08
3.02878e-08
1.63524e-06
1.33095e-06
1.08329e-06
8.81705e-07
7.17635e-07
5.84096e-07
4.75406e-07
3.86942e-07
3.14939e-07
2.56334e-07
2.08635e-07
1.69812e-07
1.38213e-07
1.12494e-07
9.15607e-08
7.45229e-08
6.06555e-08
4.93686e-08
4.0182e-08
3.27048e-08
1.76573e-06
1.43716e-06
1.16973e-06
9.52066e-07
7.74904e-07
6.30708e-07
5.13344e-07
4.1782e-07
3.40071e-07
2.7679e-07
2.25284e-07
1.83363e-07
1.49242e-07
1.21471e-07
9.88673e-08
8.04699e-08
6.54959e-08
5.33083e-08
4.33885e-08
3.53147e-08
1.90664e-06
1.55185e-06
1.26308e-06
1.02804e-06
8.36742e-07
6.81039e-07
5.5431e-07
4.51162e-07
3.67209e-07
2.98878e-07
2.43262e-07
1.97995e-07
1.61152e-07
1.31164e-07
1.06757e-07
8.68915e-08
7.07225e-08
5.75623e-08
4.6851e-08
3.81328e-08
2.05879e-06
1.67569e-06
1.36387e-06
1.11008e-06
9.03514e-07
7.35386e-07
5.98544e-07
4.87166e-07
3.96513e-07
3.22729e-07
2.62675e-07
2.13796e-07
1.74012e-07
1.41631e-07
1.15276e-07
9.38255e-08
7.63662e-08
6.21558e-08
5.05897e-08
4.11759e-08
2.22309e-06
1.80941e-06
1.47271e-06
1.19867e-06
9.75616e-07
7.94071e-07
6.46309e-07
5.26042e-07
4.28155e-07
3.48483e-07
2.83636e-07
2.30857e-07
1.87898e-07
1.52934e-07
1.24476e-07
1.01313e-07
8.24603e-08
6.71159e-08
5.46269e-08
4.44618e-08
2.40049e-06
1.9538e-06
1.59024e-06
1.29432e-06
1.05347e-06
8.57439e-07
6.97885e-07
5.68021e-07
4.62322e-07
3.76292e-07
3.06271e-07
2.49279e-07
2.02893e-07
1.65138e-07
1.34409e-07
1.09398e-07
8.90408e-08
7.24719e-08
5.89861e-08
4.80099e-08
2.59205e-06
2.10972e-06
1.71714e-06
1.39761e-06
1.13754e-06
9.25863e-07
7.53577e-07
6.13349e-07
4.99216e-07
4.06321e-07
3.30712e-07
2.69172e-07
2.19084e-07
1.78316e-07
1.45135e-07
1.18128e-07
9.61463e-08
7.82552e-08
6.36933e-08
5.18411e-08
2.7989e-06
2.27808e-06
1.85417e-06
1.50914e-06
1.22832e-06
9.99748e-07
8.13713e-07
6.62295e-07
5.39054e-07
4.38746e-07
3.57103e-07
2.90652e-07
2.36567e-07
1.92546e-07
1.56717e-07
1.27555e-07
1.03819e-07
8.45e-08
6.87761e-08
5.59781e-08
3.02226e-06
2.45987e-06
2.00213e-06
1.62957e-06
1.32634e-06
1.07953e-06
8.78648e-07
7.15147e-07
5.82071e-07
4.73758e-07
3.856e-07
3.13847e-07
2.55445e-07
2.07912e-07
1.69223e-07
1.37733e-07
1.12104e-07
9.12432e-08
7.42645e-08
6.04452e-08
3.26344e-06
2.65617e-06
2.1619e-06
1.75961e-06
1.43218e-06
1.16568e-06
9.48765e-07
7.72217e-07
6.28521e-07
5.11564e-07
4.16371e-07
3.38892e-07
2.7583e-07
2.24503e-07
1.82727e-07
1.48725e-07
1.2105e-07
9.85245e-08
8.01909e-08
6.52688e-08
3.52386e-06
2.86814e-06
2.33443e-06
1.90003e-06
1.54647e-06
1.2587e-06
1.02448e-06
8.3384e-07
6.78677e-07
5.52388e-07
4.49598e-07
3.65936e-07
2.97842e-07
2.42419e-07
1.97309e-07
1.60593e-07
1.3071e-07
1.06387e-07
8.65902e-08
7.04773e-08
3.80507e-06
3.09702e-06
2.52072e-06
2.05166e-06
1.66988e-06
1.35914e-06
1.10623e-06
9.00382e-07
7.32837e-07
5.96469e-07
4.85476e-07
3.95138e-07
3.2161e-07
2.61764e-07
2.13054e-07
1.73409e-07
1.4114e-07
1.14877e-07
9.35002e-08
7.61014e-08
4.10872e-06
3.34416e-06
2.72187e-06
2.21538e-06
1.80314e-06
1.46761e-06
1.19451e-06
9.72233e-07
7.91318e-07
6.44067e-07
5.24218e-07
4.2667e-07
3.47275e-07
2.82653e-07
2.30056e-07
1.87247e-07
1.52404e-07
1.24044e-07
1.00962e-07
8.21744e-08
4.4366e-06
3.61103e-06
2.93908e-06
2.39217e-06
1.94703e-06
1.58472e-06
1.28983e-06
1.04982e-06
8.54466e-07
6.95465e-07
5.66051e-07
4.60719e-07
3.74987e-07
3.05209e-07
2.48415e-07
2.02189e-07
1.64565e-07
1.33943e-07
1.09018e-07
8.8732e-08
4.79065e-06
3.89919e-06
3.17362e-06
2.58307e-06
2.1024e-06
1.71118e-06
1.39276e-06
1.13359e-06
9.22653e-07
7.50964e-07
6.11223e-07
4.97485e-07
4.04912e-07
3.29565e-07
2.68239e-07
2.18324e-07
1.77698e-07
1.44632e-07
1.17718e-07
9.58129e-08
5.17294e-06
4.21035e-06
3.42688e-06
2.7892e-06
2.27018e-06
1.84774e-06
1.50391e-06
1.22406e-06
9.96281e-07
8.10891e-07
6.59999e-07
5.37185e-07
4.37224e-07
3.55865e-07
2.89644e-07
2.35747e-07
1.91878e-07
1.56173e-07
1.27112e-07
1.03459e-07
5.58575e-06
4.54634e-06
3.70035e-06
3.01178e-06
2.45134e-06
1.99519e-06
1.62392e-06
1.32174e-06
1.07579e-06
8.75601e-07
7.12667e-07
5.80053e-07
4.72115e-07
3.84263e-07
3.12758e-07
2.5456e-07
2.07191e-07
1.68636e-07
1.37256e-07
1.11715e-07
6.0315e-06
4.90914e-06
3.99564e-06
3.25212e-06
2.64696e-06
2.15441e-06
1.75351e-06
1.42721e-06
1.16163e-06
9.45475e-07
7.69539e-07
6.26341e-07
5.0979e-07
4.14927e-07
3.37717e-07
2.74874e-07
2.23725e-07
1.82093e-07
1.48209e-07
1.2063e-07
6.51282e-06
5.3009e-06
4.3145e-06
3.51165e-06
2.85819e-06
2.32633e-06
1.89344e-06
1.54111e-06
1.25433e-06
1.02092e-06
8.30949e-07
6.76324e-07
5.50472e-07
4.48039e-07
3.64667e-07
2.96809e-07
2.41578e-07
1.96625e-07
1.60036e-07
1.30256e-07
7.03255e-06
5.72392e-06
4.6588e-06
3.79188e-06
3.08628e-06
2.51198e-06
2.04454e-06
1.66409e-06
1.35443e-06
1.1024e-06
8.97259e-07
7.30295e-07
5.944e-07
4.83793e-07
3.93768e-07
3.20495e-07
2.60856e-07
2.12316e-07
1.72807e-07
1.40651e-07
7.59375e-06
6.18069e-06
5.03057e-06
4.09447e-06
3.33257e-06
2.71243e-06
2.2077e-06
1.79688e-06
1.46252e-06
1.19037e-06
9.68862e-07
7.88574e-07
6.41834e-07
5.224e-07
4.25191e-07
3.4607e-07
2.81673e-07
2.29259e-07
1.86598e-07
1.51875e-07
8.19974e-06
6.67392e-06
5.43202e-06
4.42122e-06
3.59851e-06
2.92889e-06
2.38387e-06
1.94028e-06
1.57923e-06
1.28536e-06
1.04618e-06
8.51503e-07
6.93053e-07
5.64088e-07
4.59122e-07
3.73687e-07
3.04151e-07
2.47554e-07
2.01488e-07
1.63995e-07
8.85409e-06
7.2065e-06
5.8655e-06
4.77403e-06
3.88567e-06
3.16262e-06
2.57411e-06
2.09511e-06
1.70525e-06
1.38793e-06
1.12966e-06
9.19454e-07
7.4836e-07
6.09103e-07
4.9576e-07
4.03508e-07
3.28422e-07
2.67309e-07
2.17567e-07
1.77082e-07
9.56066e-06
7.78159e-06
6.33357e-06
5.15501e-06
4.19575e-06
3.415e-06
2.77953e-06
2.26231e-06
1.84133e-06
1.49869e-06
1.21981e-06
9.92827e-07
8.08079e-07
6.5771e-07
5.35322e-07
4.35708e-07
3.54631e-07
2.8864e-07
2.34929e-07
1.91213e-07
1.03236e-05
8.40257e-06
6.839e-06
5.56638e-06
4.53058e-06
3.68752e-06
3.00134e-06
2.44284e-06
1.98827e-06
1.61829e-06
1.31715e-06
1.07206e-06
8.72565e-07
7.10196e-07
5.78041e-07
4.70478e-07
3.8293e-07
3.11674e-07
2.53677e-07
2.06472e-07
1.11474e-05
9.0731e-06
7.38476e-06
6.01059e-06
4.89212e-06
3.98179e-06
3.24085e-06
2.63778e-06
2.14694e-06
1.74743e-06
1.42226e-06
1.15761e-06
9.42197e-07
7.66871e-07
6.2417e-07
5.08023e-07
4.13489e-07
3.36546e-07
2.73921e-07
2.22949e-07
1.2037e-05
9.79714e-06
7.97407e-06
6.49024e-06
5.28252e-06
4.29954e-06
3.49947e-06
2.84828e-06
2.31827e-06
1.88688e-06
1.53576e-06
1.24998e-06
1.01738e-06
8.28068e-07
6.73979e-07
5.48563e-07
4.46486e-07
3.63402e-07
2.9578e-07
2.4074e-07
1.29976e-05
1.0579e-05
8.61041e-06
7.00816e-06
5.70407e-06
4.64264e-06
3.77873e-06
3.07558e-06
2.50327e-06
2.03745e-06
1.65832e-06
1.34973e-06
1.09857e-06
8.94148e-07
7.27763e-07
5.92339e-07
4.82116e-07
3.92402e-07
3.19383e-07
2.59952e-07
1.40348e-05
1.14232e-05
9.29753e-06
7.56742e-06
6.15926e-06
5.01313e-06
4.08028e-06
3.32101e-06
2.70303e-06
2.20004e-06
1.79065e-06
1.45745e-06
1.18624e-06
9.65502e-07
7.85839e-07
6.39609e-07
5.20589e-07
4.23716e-07
3.4487e-07
2.80696e-07
1.51548e-05
1.23348e-05
1.00395e-05
8.17131e-06
6.65078e-06
5.41318e-06
4.40589e-06
3.58603e-06
2.91873e-06
2.37561e-06
1.93355e-06
1.57375e-06
1.2809e-06
1.04255e-06
8.4855e-07
6.9065e-07
5.62132e-07
4.5753e-07
3.72391e-07
3.03096e-07
1.63642e-05
1.33191e-05
1.08406e-05
8.82339e-06
7.18151e-06
5.84516e-06
4.75748e-06
3.8722e-06
3.15165e-06
2.56518e-06
2.08785e-06
1.69934e-06
1.38312e-06
1.12575e-06
9.16265e-07
7.45765e-07
6.06991e-07
4.94041e-07
4.02109e-07
3.27283e-07
1.767e-05
1.4382e-05
1.17057e-05
9.52751e-06
7.75461e-06
6.31161e-06
5.13713e-06
4.1812e-06
3.40316e-06
2.76989e-06
2.25446e-06
1.83495e-06
1.4935e-06
1.21558e-06
9.89384e-07
8.05277e-07
6.5543e-07
5.33466e-07
4.34197e-07
3.53401e-07
1.90801e-05
1.55297e-05
1.26399e-05
1.02878e-05
8.37343e-06
6.81528e-06
5.54708e-06
4.51487e-06
3.67473e-06
2.99093e-06
2.43437e-06
1.98138e-06
1.61268e-06
1.31259e-06
1.06834e-06
8.69539e-07
7.07734e-07
5.76037e-07
4.68847e-07
3.81603e-07
2.06027e-05
1.67689e-05
1.36485e-05
1.11088e-05
9.04164e-06
7.35915e-06
5.98974e-06
4.87516e-06
3.96798e-06
3.22961e-06
2.62864e-06
2.13949e-06
1.74137e-06
1.41733e-06
1.15359e-06
9.3893e-07
7.64211e-07
6.22005e-07
5.06261e-07
4.12055e-07
2.22469e-05
1.81071e-05
1.47377e-05
1.19953e-05
9.76317e-06
7.94642e-06
6.46773e-06
5.2642e-06
4.28463e-06
3.48733e-06
2.8384e-06
2.31023e-06
1.88033e-06
1.53044e-06
1.24565e-06
1.01386e-06
8.25196e-07
6.71642e-07
5.46661e-07
4.44937e-07
2.40222e-05
1.95521e-05
1.59138e-05
1.29525e-05
1.05423e-05
8.58055e-06
6.98386e-06
5.68429e-06
4.62655e-06
3.76563e-06
3.06491e-06
2.49459e-06
2.03039e-06
1.65257e-06
1.34505e-06
1.09476e-06
8.91048e-07
7.2524e-07
5.90285e-07
4.80444e-07
2.59392e-05
2.11124e-05
1.71837e-05
1.39861e-05
1.13836e-05
9.26529e-06
7.54118e-06
6.1379e-06
4.99575e-06
4.06613e-06
3.30949e-06
2.69366e-06
2.19241e-06
1.78445e-06
1.45239e-06
1.18213e-06
9.62154e-07
7.83115e-07
6.37391e-07
5.18784e-07
2.80092e-05
2.27972e-05
1.8555e-05
1.51022e-05
1.2292e-05
1.00047e-05
8.14298e-06
6.62771e-06
5.39441e-06
4.39061e-06
3.57359e-06
2.90861e-06
2.36737e-06
1.92685e-06
1.56829e-06
1.27646e-06
1.03894e-06
8.45608e-07
6.88255e-07
5.60183e-07
3.02443e-05
2.46164e-05
2.00357e-05
1.63074e-05
1.32729e-05
1.08031e-05
8.7928e-06
7.15661e-06
5.82489e-06
4.74098e-06
3.85877e-06
3.14072e-06
2.55629e-06
2.08061e-06
1.69345e-06
1.37833e-06
1.12184e-06
9.13088e-07
7.43179e-07
6.04886e-07
3.26578e-05
2.65808e-05
2.16346e-05
1.76088e-05
1.43321e-05
1.16651e-05
9.49447e-06
7.72772e-06
6.28973e-06
5.11932e-06
4.16671e-06
3.39136e-06
2.76028e-06
2.24664e-06
1.82858e-06
1.48832e-06
1.21137e-06
9.85954e-07
8.02485e-07
6.53157e-07
3.5264e-05
2.8702e-05
2.3361e-05
1.9014e-05
1.54758e-05
1.2596e-05
1.02521e-05
8.3444e-06
6.79165e-06
5.52785e-06
4.49921e-06
3.66199e-06
2.98056e-06
2.42593e-06
1.97451e-06
1.60709e-06
1.30804e-06
1.06463e-06
8.66524e-07
7.0528e-07
3.80781e-05
3.09924e-05
2.52253e-05
2.05313e-05
1.67108e-05
1.36012e-05
1.10703e-05
9.01029e-06
7.33363e-06
5.96897e-06
4.85825e-06
3.95422e-06
3.21841e-06
2.61952e-06
2.13207e-06
1.73533e-06
1.41242e-06
1.14959e-06
9.35674e-07
7.61562e-07
4.11167e-05
3.34657e-05
2.72383e-05
2.21697e-05
1.80443e-05
1.46866e-05
1.19537e-05
9.72932e-06
7.91887e-06
6.44531e-06
5.24595e-06
4.26977e-06
3.47524e-06
2.82856e-06
2.30222e-06
1.87381e-06
1.52513e-06
1.24133e-06
1.01034e-06
8.22335e-07
4.43979e-05
3.61362e-05
2.94119e-05
2.39389e-05
1.94843e-05
1.58586e-05
1.29076e-05
1.05057e-05
8.5508e-06
6.95965e-06
5.66458e-06
4.6105e-06
3.75257e-06
3.05428e-06
2.48594e-06
2.02335e-06
1.64684e-06
1.34039e-06
1.09097e-06
8.87958e-07
4.79409e-05
3.902e-05
3.1759e-05
2.58492e-05
2.10392e-05
1.71241e-05
1.39376e-05
1.13441e-05
9.23316e-06
7.51503e-06
6.11662e-06
4.97843e-06
4.05203e-06
3.29802e-06
2.68432e-06
2.18481e-06
1.77826e-06
1.44736e-06
1.17803e-06
9.58818e-07
5.17666e-05
4.21338e-05
3.42934e-05
2.7912e-05
2.27181e-05
1.84907e-05
1.50499e-05
1.22494e-05
9.96998e-06
8.11474e-06
6.60473e-06
5.37571e-06
4.37539e-06
3.5612e-06
2.89853e-06
2.35916e-06
1.92016e-06
1.56286e-06
1.27204e-06
1.03533e-06
5.58977e-05
4.54961e-05
3.70301e-05
3.01394e-05
2.4531e-05
1.99662e-05
1.62509e-05
1.32269e-05
1.07656e-05
8.76231e-06
7.1318e-06
5.8047e-06
4.72455e-06
3.84539e-06
3.12983e-06
2.54743e-06
2.0734e-06
1.68757e-06
1.37355e-06
1.11795e-06
6.03584e-05
4.91267e-05
3.99851e-05
3.25446e-05
2.64886e-05
2.15596e-05
1.75477e-05
1.42824e-05
1.16247e-05
9.46155e-06
7.70092e-06
6.26792e-06
5.10157e-06
4.15226e-06
3.3796e-06
2.75071e-06
2.23885e-06
1.82224e-06
1.48316e-06
1.20717e-06
6.5175e-05
5.30471e-05
4.3176e-05
3.51417e-05
2.86025e-05
2.328e-05
1.8948e-05
1.54221e-05
1.25524e-05
1.02166e-05
8.31546e-06
6.7681e-06
5.50868e-06
4.48361e-06
3.64929e-06
2.97022e-06
2.41752e-06
1.96766e-06
1.60151e-06
1.3035e-06
7.03761e-05
5.72803e-05
4.66215e-05
3.7946e-05
3.0885e-05
2.51378e-05
2.04601e-05
1.66529e-05
1.35541e-05
1.10319e-05
8.97905e-06
7.3082e-06
5.94828e-06
4.84141e-06
3.94051e-06
3.20725e-06
2.61044e-06
2.12468e-06
1.72932e-06
1.40752e-06
7.59921e-05
6.18513e-05
5.03419e-05
4.09742e-05
3.33496e-05
2.71438e-05
2.20929e-05
1.79818e-05
1.46357e-05
1.19122e-05
9.69558e-06
7.89141e-06
6.42296e-06
5.22776e-06
4.25497e-06
3.46319e-06
2.81875e-06
2.29423e-06
1.86732e-06
1.51984e-06
8.20564e-05
6.67872e-05
5.43592e-05
4.4244e-05
3.60109e-05
2.93099e-05
2.38559e-05
1.94167e-05
1.58036e-05
1.28628e-05
1.04693e-05
8.52115e-06
6.93551e-06
5.64494e-06
4.59452e-06
3.73956e-06
3.04369e-06
2.47732e-06
2.01633e-06
1.64113e-06
8.86046e-05
7.21168e-05
5.86972e-05
4.77747e-05
3.88847e-05
3.16489e-05
2.57596e-05
2.09662e-05
1.70648e-05
1.38893e-05
1.13048e-05
9.20115e-06
7.48898e-06
6.09541e-06
4.96116e-06
4.03798e-06
3.28658e-06
2.67501e-06
2.17724e-06
1.77209e-06
9.56753e-05
7.78718e-05
6.33813e-05
5.15871e-05
4.19877e-05
3.41745e-05
2.78153e-05
2.26393e-05
1.84266e-05
1.49977e-05
1.22069e-05
9.93541e-06
8.0866e-06
6.58183e-06
5.35707e-06
4.36021e-06
3.54886e-06
2.88848e-06
2.35098e-06
1.91351e-06
0.00010331
8.40861e-05
6.84392e-05
5.57038e-05
4.53383e-05
3.69017e-05
3.00349e-05
2.4446e-05
1.9897e-05
1.61945e-05
1.3181e-05
1.07283e-05
8.73192e-06
7.10707e-06
5.78457e-06
4.70816e-06
3.83206e-06
3.11898e-06
2.53859e-06
2.06621e-06
0.000111555
9.07962e-05
7.39007e-05
6.01491e-05
4.89564e-05
3.98465e-05
3.24318e-05
2.63968e-05
2.14848e-05
1.74869e-05
1.42329e-05
1.15844e-05
9.42874e-06
7.67422e-06
6.24618e-06
5.08388e-06
4.13786e-06
3.36788e-06
2.74118e-06
2.23109e-06
0.000120457
9.80419e-05
7.9798e-05
6.4949e-05
5.28632e-05
4.30263e-05
3.50198e-05
2.85033e-05
2.31993e-05
1.88823e-05
1.53687e-05
1.25088e-05
1.01812e-05
8.28663e-06
6.74463e-06
5.48958e-06
4.46807e-06
3.63664e-06
2.95992e-06
2.40913e-06
0.000130069
0.000105866
8.6166e-05
7.0132e-05
5.70817e-05
4.64598e-05
3.78145e-05
3.07779e-05
2.50507e-05
2.03892e-05
1.65951e-05
1.35071e-05
1.09936e-05
8.94791e-06
7.28286e-06
5.92765e-06
4.82462e-06
3.92684e-06
3.19613e-06
2.60139e-06
0.000140449
0.000114314
9.30421e-05
7.57286e-05
6.16369e-05
5.01674e-05
4.08321e-05
3.3234e-05
2.70497e-05
2.20162e-05
1.79194e-05
1.45849e-05
1.18709e-05
9.66196e-06
7.86404e-06
6.40068e-06
5.20963e-06
4.24021e-06
3.45118e-06
2.80898e-06
0.000151657
0.000123436
0.000100467
8.17719e-05
6.65556e-05
5.41708e-05
4.40905e-05
3.58861e-05
2.92083e-05
2.37732e-05
1.93494e-05
1.57488e-05
1.28182e-05
1.0433e-05
8.4916e-06
6.91147e-06
5.62536e-06
4.57858e-06
3.72659e-06
3.03314e-06
0.000163759
0.000133287
0.000108484
8.82973e-05
7.18668e-05
5.84936e-05
4.7609e-05
3.87498e-05
3.15392e-05
2.56703e-05
2.08935e-05
1.70056e-05
1.38412e-05
1.12656e-05
9.16924e-06
7.46301e-06
6.07427e-06
4.94396e-06
4.02398e-06
3.27519e-06
0.000176827
0.000143923
0.000117142
9.53436e-05
7.76018e-05
6.31615e-05
5.14083e-05
4.18421e-05
3.4056e-05
2.77188e-05
2.25608e-05
1.83627e-05
1.49457e-05
1.21646e-05
9.90096e-06
8.05856e-06
6.55901e-06
5.33849e-06
4.34509e-06
3.53655e-06
0.000190938
0.000155408
0.00012649
0.000102952
8.37945e-05
6.82018e-05
5.55107e-05
4.51811e-05
3.67737e-05
2.99308e-05
2.43612e-05
1.9828e-05
1.61384e-05
1.31353e-05
1.06911e-05
8.70165e-06
7.08242e-06
5.76451e-06
4.69184e-06
3.81877e-06
0.000206176
0.00016781
0.000136584
0.000111168
9.04814e-05
7.36444e-05
5.99405e-05
4.87866e-05
3.97083e-05
3.23193e-05
2.63053e-05
2.14103e-05
1.74262e-05
1.41835e-05
1.15442e-05
9.39605e-06
7.64761e-06
6.22452e-06
5.06625e-06
4.12351e-06
0.000222629
0.000181201
0.000147483
0.000120039
9.77019e-05
7.95213e-05
6.47238e-05
5.26799e-05
4.28771e-05
3.48984e-05
2.84044e-05
2.31189e-05
1.88169e-05
1.53154e-05
1.24655e-05
1.01459e-05
8.2579e-06
6.72125e-06
5.47054e-06
4.45257e-06
0.000240395
0.000195661
0.000159252
0.000129618
0.000105499
8.58672e-05
6.98888e-05
5.68838e-05
4.62987e-05
3.76833e-05
3.06711e-05
2.49638e-05
2.03185e-05
1.65376e-05
1.34602e-05
1.09555e-05
8.91688e-06
7.25761e-06
5.9071e-06
4.80789e-06
0.000259578
0.000211275
0.000171961
0.000139962
0.000113918
9.27195e-05
7.5466e-05
6.14232e-05
4.99934e-05
4.06905e-05
3.31187e-05
2.69559e-05
2.19399e-05
1.78573e-05
1.45344e-05
1.18298e-05
9.62846e-06
7.83678e-06
6.37849e-06
5.19157e-06
0.000280293
0.000228135
0.000185683
0.000151131
0.000123008
0.000100119
8.14883e-05
6.63248e-05
5.39829e-05
4.39377e-05
3.57616e-05
2.9107e-05
2.36907e-05
1.92823e-05
1.56942e-05
1.27738e-05
1.03968e-05
8.46216e-06
6.8875e-06
5.60586e-06
0.000302661
0.000246341
0.000200501
0.000163191
0.000132824
0.000108108
8.79912e-05
7.16176e-05
5.82908e-05
4.74439e-05
3.86155e-05
3.14298e-05
2.55813e-05
2.08211e-05
1.69466e-05
1.37932e-05
1.12265e-05
9.13745e-06
7.43713e-06
6.05321e-06
0.000326813
0.000265999
0.000216501
0.000176214
0.000143424
0.000116735
9.5013e-05
7.73327e-05
6.29425e-05
5.123e-05
4.1697e-05
3.39379e-05
2.76227e-05
2.24826e-05
1.8299e-05
1.48939e-05
1.21224e-05
9.86662e-06
8.03062e-06
6.53627e-06
0.000352893
0.000287226
0.000233778
0.000190276
0.000154869
0.000126051
0.000102595
8.3504e-05
6.79654e-05
5.53182e-05
4.50245e-05
3.66462e-05
2.9827e-05
2.42767e-05
1.97593e-05
1.60824e-05
1.30898e-05
1.0654e-05
8.67147e-06
7.05787e-06
0.000381055
0.000310147
0.000252434
0.000205461
0.000167228
0.00013611
0.000110782
9.01677e-05
7.33891e-05
5.97327e-05
4.86175e-05
3.95706e-05
3.22072e-05
2.6214e-05
2.13361e-05
1.73658e-05
1.41343e-05
1.15042e-05
9.36347e-06
7.62109e-06
0.000411463
0.000334897
0.000272579
0.000221857
0.000180573
0.000146972
0.000119623
9.73631e-05
7.92456e-05
6.44994e-05
5.24972e-05
4.27284e-05
3.47774e-05
2.83059e-05
2.30387e-05
1.87516e-05
1.52623e-05
1.24222e-05
1.01107e-05
8.22926e-06
4.26635e-09
4.55882e-09
4.87134e-09
5.20528e-09
5.56212e-09
5.94342e-09
6.35086e-09
6.78623e-09
7.25145e-09
7.74856e-09
8.27975e-09
8.84735e-09
9.45386e-09
1.0102e-08
1.07945e-08
1.15345e-08
1.23252e-08
1.31701e-08
1.4073e-08
1.50377e-08
1.60686e-08
1.71702e-08
1.83472e-08
1.9605e-08
2.0949e-08
2.23851e-08
2.39196e-08
2.55594e-08
2.73116e-08
2.91839e-08
3.11845e-08
3.33223e-08
3.56067e-08
3.80476e-08
4.06559e-08
4.3443e-08
4.64211e-08
4.96034e-08
5.30039e-08
5.66375e-08
6.05202e-08
6.4669e-08
6.91023e-08
7.38394e-08
7.89014e-08
8.43103e-08
9.009e-08
9.6266e-08
1.02865e-07
1.09917e-07
1.17452e-07
1.25504e-07
1.34108e-07
1.43301e-07
1.53125e-07
1.63622e-07
1.74839e-07
1.86824e-07
1.99632e-07
2.13317e-07
4.6068e-09
4.92261e-09
5.26008e-09
5.62067e-09
6.00598e-09
6.41771e-09
6.85767e-09
7.32778e-09
7.83012e-09
8.3669e-09
8.94048e-09
9.55338e-09
1.02083e-08
1.09081e-08
1.16559e-08
1.24549e-08
1.33088e-08
1.42211e-08
1.5196e-08
1.62377e-08
1.73509e-08
1.85403e-08
1.98113e-08
2.11695e-08
2.26207e-08
2.41714e-08
2.58285e-08
2.75991e-08
2.94911e-08
3.15128e-08
3.36731e-08
3.59815e-08
3.84481e-08
4.10838e-08
4.39003e-08
4.69098e-08
5.01256e-08
5.35618e-08
5.72337e-08
6.11572e-08
6.53497e-08
6.98297e-08
7.46167e-08
7.97319e-08
8.51978e-08
9.10383e-08
9.72793e-08
1.03948e-07
1.11074e-07
1.18689e-07
1.26825e-07
1.35519e-07
1.44809e-07
1.54737e-07
1.65344e-07
1.76679e-07
1.88791e-07
2.01733e-07
2.15563e-07
2.3034e-07
4.97443e-09
5.31544e-09
5.67983e-09
6.0692e-09
6.48527e-09
6.92985e-09
7.40492e-09
7.91255e-09
8.45497e-09
9.03459e-09
9.65394e-09
1.03157e-08
1.10229e-08
1.17786e-08
1.2586e-08
1.34488e-08
1.43708e-08
1.5356e-08
1.64087e-08
1.75335e-08
1.87355e-08
2.00199e-08
2.13923e-08
2.28588e-08
2.44259e-08
2.61003e-08
2.78896e-08
2.98015e-08
3.18445e-08
3.40275e-08
3.63602e-08
3.88528e-08
4.15163e-08
4.43624e-08
4.74036e-08
5.06532e-08
5.41257e-08
5.78361e-08
6.1801e-08
6.60376e-08
7.05647e-08
7.54021e-08
8.05712e-08
8.60946e-08
9.19966e-08
9.83033e-08
1.05042e-07
1.12243e-07
1.19938e-07
1.2816e-07
1.36946e-07
1.46334e-07
1.56365e-07
1.67085e-07
1.78539e-07
1.90778e-07
2.03857e-07
2.17832e-07
2.32765e-07
2.48722e-07
5.3714e-09
5.73962e-09
6.13309e-09
6.55353e-09
7.0028e-09
7.48286e-09
7.99584e-09
8.54397e-09
9.12969e-09
9.75556e-09
1.04243e-08
1.1139e-08
1.19026e-08
1.27185e-08
1.35904e-08
1.45221e-08
1.55176e-08
1.65814e-08
1.77181e-08
1.89327e-08
2.02306e-08
2.16175e-08
2.30994e-08
2.4683e-08
2.63751e-08
2.81832e-08
3.01152e-08
3.21797e-08
3.43857e-08
3.6743e-08
3.92618e-08
4.19533e-08
4.48294e-08
4.79025e-08
5.11864e-08
5.46954e-08
5.84449e-08
6.24515e-08
6.67328e-08
7.13075e-08
7.61958e-08
8.14193e-08
8.70008e-08
9.2965e-08
9.93381e-08
1.06148e-07
1.13425e-07
1.212e-07
1.29509e-07
1.38387e-07
1.47874e-07
1.58011e-07
1.68844e-07
1.80418e-07
1.92787e-07
2.06003e-07
2.20125e-07
2.35215e-07
2.5134e-07
2.6857e-07
5.80004e-09
6.19765e-09
6.62252e-09
7.07651e-09
7.56163e-09
8.08e-09
8.63391e-09
9.22579e-09
9.85825e-09
1.05341e-08
1.12562e-08
1.20279e-08
1.28524e-08
1.37335e-08
1.46749e-08
1.5681e-08
1.67559e-08
1.79046e-08
1.9132e-08
2.04436e-08
2.1845e-08
2.33426e-08
2.49428e-08
2.66527e-08
2.84798e-08
3.04322e-08
3.25184e-08
3.47477e-08
3.71297e-08
3.96751e-08
4.23949e-08
4.53012e-08
4.84068e-08
5.17252e-08
5.52711e-08
5.90601e-08
6.31089e-08
6.74352e-08
7.20581e-08
7.69979e-08
8.22764e-08
8.79166e-08
9.39436e-08
1.00384e-07
1.07265e-07
1.14619e-07
1.22476e-07
1.30872e-07
1.39844e-07
1.49431e-07
1.59675e-07
1.70621e-07
1.82317e-07
1.94816e-07
2.08171e-07
2.22442e-07
2.37691e-07
2.53985e-07
2.71397e-07
2.90002e-07
6.26289e-09
6.69223e-09
7.151e-09
7.64123e-09
8.16505e-09
8.72479e-09
9.32291e-09
9.96202e-09
1.06449e-08
1.13747e-08
1.21545e-08
1.29877e-08
1.3878e-08
1.48294e-08
1.5846e-08
1.69323e-08
1.80931e-08
1.93334e-08
2.06588e-08
2.2075e-08
2.35883e-08
2.52054e-08
2.69333e-08
2.87796e-08
3.07526e-08
3.28607e-08
3.51134e-08
3.75206e-08
4.00927e-08
4.28412e-08
4.57781e-08
4.89163e-08
5.22697e-08
5.58529e-08
5.96818e-08
6.37732e-08
6.81451e-08
7.28166e-08
7.78084e-08
8.31424e-08
8.88421e-08
9.49325e-08
1.0144e-07
1.08394e-07
1.15825e-07
1.23765e-07
1.3225e-07
1.41316e-07
1.51004e-07
1.61355e-07
1.72417e-07
1.84237e-07
1.96867e-07
2.10362e-07
2.24783e-07
2.40193e-07
2.56659e-07
2.74254e-07
2.93055e-07
3.13144e-07
6.76267e-09
7.22628e-09
7.72166e-09
8.251e-09
8.81663e-09
9.42104e-09
1.00669e-08
1.0757e-08
1.14944e-08
1.22824e-08
1.31244e-08
1.40241e-08
1.49855e-08
1.60128e-08
1.71105e-08
1.82835e-08
1.95369e-08
2.08762e-08
2.23074e-08
2.38366e-08
2.54707e-08
2.72168e-08
2.90826e-08
3.10763e-08
3.32066e-08
3.54831e-08
3.79155e-08
4.05148e-08
4.32922e-08
4.626e-08
4.94312e-08
5.28199e-08
5.64409e-08
6.03101e-08
6.44445e-08
6.88624e-08
7.35831e-08
7.86275e-08
8.40176e-08
8.97773e-08
9.59318e-08
1.02508e-07
1.09535e-07
1.17044e-07
1.25068e-07
1.33642e-07
1.42804e-07
1.52593e-07
1.63054e-07
1.74232e-07
1.86176e-07
1.98939e-07
2.12577e-07
2.2715e-07
2.42721e-07
2.59361e-07
2.77141e-07
2.96139e-07
3.16441e-07
3.38134e-07
7.30234e-09
7.80294e-09
8.33786e-09
8.90944e-09
9.52021e-09
1.01729e-08
1.08702e-08
1.16154e-08
1.24117e-08
1.32626e-08
1.41717e-08
1.51433e-08
1.61814e-08
1.72907e-08
1.8476e-08
1.97426e-08
2.1096e-08
2.25422e-08
2.40875e-08
2.57388e-08
2.75033e-08
2.93887e-08
3.14034e-08
3.35562e-08
3.58566e-08
3.83146e-08
4.09412e-08
4.37479e-08