# Wall heat-flux
# Time        	patch         	min           	max           	integral      
5000          	base	-1.338521e+04	3.295372e+04	3.933994e+02
