# p  FACE_DATA 398
# x  y  z  p
-0.7975 -7.61524e-06 0 225.796
-0.79239 -7.61524e-06 0 155.26
-0.787056 -7.61524e-06 0 118.092
-0.781492 -7.61524e-06 0 108.187
-0.775691 -7.61524e-06 0 101.297
-0.769649 -7.61524e-06 0 95.8629
-0.763361 -7.61524e-06 0 91.3994
-0.756822 -7.61524e-06 0 87.6434
-0.750025 -7.61524e-06 0 84.3364
-0.742968 -7.61524e-06 0 81.4646
-0.735648 -7.61524e-06 0 79.2221
-0.72806 -7.61524e-06 0 77.3752
-0.720203 -7.61524e-06 0 75.7236
-0.712075 -7.61524e-06 0 74.289
-0.703676 -7.61524e-06 0 73.0518
-0.695006 -7.61524e-06 0 71.9277
-0.686065 -7.61524e-06 0 70.8865
-0.676855 -7.61524e-06 0 69.941
-0.667379 -7.61524e-06 0 69.0884
-0.657641 -7.61524e-06 0 68.307
-0.647644 -7.61524e-06 0 67.5978
-0.637398 -7.61524e-06 0 66.9631
-0.626906 -7.61524e-06 0 66.3783
-0.616179 -7.61524e-06 0 65.8263
-0.605225 -7.61524e-06 0 65.305
-0.594054 -7.61524e-06 0 64.8137
-0.582677 -7.61524e-06 0 64.3546
-0.57111 -7.61524e-06 0 63.9354
-0.559364 -7.61524e-06 0 63.5548
-0.547454 -7.61524e-06 0 63.2043
-0.535396 -7.61524e-06 0 62.8754
-0.523205 -7.61524e-06 0 62.5643
-0.510901 -7.61524e-06 0 62.2683
-0.498499 -7.61524e-06 0 61.9855
-0.486021 -7.61524e-06 0 61.7142
-0.473482 -7.61524e-06 0 61.4597
-0.460905 -7.61524e-06 0 61.2297
-0.448307 -7.61524e-06 0 61.0253
-0.435709 -7.61524e-06 0 60.838
-0.42313 -7.61524e-06 0 60.6554
-0.41059 -7.61524e-06 0 60.469
-0.39811 -7.61524e-06 0 60.2842
-0.385706 -7.61524e-06 0 60.1153
-0.373398 -7.61524e-06 0 59.9745
-0.361205 -7.61524e-06 0 59.8622
-0.349142 -7.61524e-06 0 59.7639
-0.337226 -7.61524e-06 0 59.6568
-0.325475 -7.61524e-06 0 59.5264
-0.313901 -7.61524e-06 0 59.3822
-0.30252 -7.61524e-06 0 59.2393
-0.291343 -7.61524e-06 0 59.1147
-0.280381 -7.61524e-06 0 59.0264
-0.269647 -7.61524e-06 0 58.9792
-0.259148 -7.61524e-06 0 58.9686
-0.248893 -7.61524e-06 0 58.9773
-0.23889 -7.61524e-06 0 58.9686
-0.229143 -7.61524e-06 0 58.9308
-0.219659 -7.61524e-06 0 58.8673
-0.210441 -7.61524e-06 0 58.8044
-0.201491 -7.61524e-06 0 58.8133
-0.192812 -7.61524e-06 0 59.3052
-0.184405 -7.61524e-06 0 60.9016
-0.176269 -7.61524e-06 0 64.6129
-0.168404 -7.61524e-06 0 70.5256
-0.160809 -7.61524e-06 0 77.2686
-0.15348 -7.61524e-06 0 83.2917
-0.146415 -7.61524e-06 0 88.4106
-0.13961 -7.61524e-06 0 92.3435
-0.133063 -7.61524e-06 0 95.4938
-0.126767 -7.61524e-06 0 98.2003
-0.120717 -7.61524e-06 0 100.469
-0.11491 -7.61524e-06 0 102.478
-0.109339 -7.61524e-06 0 104.268
-0.103997 -7.61524e-06 0 105.935
-0.0988804 -7.61524e-06 0 107.557
-0.0939809 -7.61524e-06 0 109.068
-0.0892928 -7.61524e-06 0 110.544
-0.0848096 -7.61524e-06 0 112.059
-0.0805248 -7.61524e-06 0 113.638
-0.0764317 -7.61524e-06 0 115.329
-0.0725237 -7.61524e-06 0 117.079
-0.0687943 -7.61524e-06 0 118.847
-0.065237 -7.61524e-06 0 120.61
-0.0618454 -7.61524e-06 0 122.348
-0.058613 -7.61524e-06 0 124.066
-0.0555337 -7.61524e-06 0 125.773
-0.0526013 -7.61524e-06 0 127.449
-0.0498099 -7.61524e-06 0 129.088
-0.0471536 -7.61524e-06 0 130.674
-0.0446266 -7.61524e-06 0 132.189
-0.0422235 -7.61524e-06 0 133.624
-0.0399389 -7.61524e-06 0 134.973
-0.0377676 -7.61524e-06 0 136.236
-0.0357044 -7.61524e-06 0 137.414
-0.0337445 -7.61524e-06 0 138.504
-0.0318832 -7.61524e-06 0 139.503
-0.0301159 -7.61524e-06 0 140.409
-0.0284383 -7.61524e-06 0 141.223
-0.0268462 -7.61524e-06 0 141.95
-0.0253353 -7.61524e-06 0 142.599
-0.023902 -7.61524e-06 0 143.18
-0.0225425 -7.61524e-06 0 143.704
-0.0212532 -7.61524e-06 0 144.185
-0.0200306 -7.61524e-06 0 144.636
-0.0188715 -7.61524e-06 0 145.07
-0.0177727 -7.61524e-06 0 145.498
-0.0167313 -7.61524e-06 0 145.932
-0.0157444 -7.61524e-06 0 146.381
-0.0148093 -7.61524e-06 0 146.855
-0.0139232 -7.61524e-06 0 147.362
-0.0130838 -7.61524e-06 0 147.907
-0.0122887 -7.61524e-06 0 148.498
-0.0115355 -7.61524e-06 0 149.137
-0.0108223 -7.61524e-06 0 149.827
-0.0101469 -7.61524e-06 0 150.569
-0.00950727 -7.61524e-06 0 151.362
-0.00890169 -7.61524e-06 0 152.204
-0.00832834 -7.61524e-06 0 153.091
-0.00778557 -7.61524e-06 0 154.017
-0.00727176 -7.61524e-06 0 154.976
-0.00678541 -7.61524e-06 0 155.962
-0.00632507 -7.61524e-06 0 156.965
-0.00588937 -7.61524e-06 0 157.954
-0.00547703 -7.61524e-06 0 158.937
-0.00508681 -7.61524e-06 0 159.907
-0.00471753 -7.61524e-06 0 160.854
-0.0043681 -7.61524e-06 0 161.767
-0.00403746 -7.61524e-06 0 162.642
-0.00372461 -7.61524e-06 0 163.469
-0.0034286 -7.61524e-06 0 164.244
-0.00314855 -7.61524e-06 0 164.959
-0.00288361 -7.61524e-06 0 165.613
-0.00263295 -7.61524e-06 0 166.203
-0.00239582 -7.61524e-06 0 166.727
-0.00217149 -7.61524e-06 0 167.186
-0.00195929 -7.61524e-06 0 167.582
-0.00175856 -7.61524e-06 0 167.917
-0.00156869 -7.61524e-06 0 168.194
-0.00138908 -7.61524e-06 0 168.418
-0.00121921 -7.61524e-06 0 168.593
-0.00105853 -7.61524e-06 0 168.724
-0.000906546 -7.61524e-06 0 168.815
-0.000762803 -7.61524e-06 0 168.871
-0.000626849 -7.61524e-06 0 168.896
-0.000498266 -7.61524e-06 0 168.894
-0.000376656 -7.61524e-06 0 168.862
-0.000261642 -7.61524e-06 0 168.798
-0.00015287 -7.61524e-06 0 168.695
-5e-05 -7.61524e-06 0 168.606
4.14596e-05 2.03453e-05 0 167.97
0.000125379 7.69412e-05 0 167.792
0.000211356 0.000134924 0 167.591
0.000299438 0.000194328 0 167.401
0.000389678 0.000255186 0 167.217
0.000482128 0.000317535 0 167.034
0.000576841 0.000381409 0 166.849
0.000673871 0.000446848 0 166.662
0.000773276 0.000513887 0 166.472
0.000875112 0.000582565 0 166.279
0.000979439 0.000652924 0 166.083
0.00108632 0.000725003 0 165.885
0.00119581 0.000798843 0 165.684
0.00130797 0.000874487 0 165.484
0.00142287 0.000951979 0 165.277
0.00154058 0.00103136 0 165.073
0.00166117 0.00111268 0 164.871
0.00178469 0.00119599 0 164.669
0.00191123 0.00128133 0 164.472
0.00204085 0.00136875 0 164.279
0.00217364 0.0014583 0 164.094
0.00230966 0.00155003 0 163.917
0.00244899 0.001644 0 163.751
0.00259171 0.00174025 0 163.599
0.00273791 0.00183885 0 163.461
0.00288767 0.00193985 0 163.341
0.00304108 0.0020433 0 163.24
0.0031982 0.00214927 0 163.16
0.00335915 0.00225781 0 163.103
0.003524 0.002369 0 163.07
0.00369286 0.00248287 0 163.062
0.00386582 0.00259951 0 163.08
0.00404297 0.00271899 0 163.123
0.00422442 0.00284136 0 163.194
0.00441026 0.00296669 0 163.291
0.0046006 0.00309506 0 163.414
0.00479556 0.00322653 0 163.565
0.00499523 0.00336119 0 163.743
0.00519972 0.00349911 0 163.95
0.00540916 0.00364036 0 164.187
0.00562366 0.00378501 0 164.456
0.00584334 0.00393316 0 164.759
0.00606831 0.00408489 0 165.101
0.00629871 0.00424027 0 165.483
0.00653466 0.0043994 0 165.909
0.00677629 0.00456236 0 166.383
0.00702374 0.00472923 0 166.907
0.00727714 0.00490013 0 167.483
0.00753663 0.00507513 0 168.116
0.00780234 0.00525433 0 168.805
0.00807444 0.00543783 0 169.554
0.00835306 0.00562573 0 170.363
0.00863835 0.00581814 0 171.234
0.00893047 0.00601514 0 172.167
0.00922958 0.00621687 0 173.165
0.00953584 0.00642341 0 174.229
0.00984939 0.00663489 0 175.359
0.0101705 0.00685141 0 176.563
0.0104992 0.00707309 0 177.835
0.0108357 0.00730005 0 179.182
0.0111802 0.00753241 0 180.613
0.011533 0.0077703 0 182.12
0.0118941 0.00801384 0 183.713
0.0122638 0.00826316 0 185.397
0.0126422 0.00851837 0 187.168
0.0130296 0.00877964 0 189.042
0.0134262 0.00904708 0 191.015
0.0138321 0.00932084 0 193.1
0.0142476 0.00960107 0 195.291
0.0146729 0.00988792 0 197.615
0.0151082 0.0101815 0 200.058
0.0155538 0.0104819 0 202.644
0.0160098 0.0107895 0 205.375
0.0164766 0.0111042 0 208.269
0.0169542 0.0114263 0 211.327
0.0174429 0.011756 0 214.573
0.0179431 0.0120934 0 218.019
0.018455 0.0124386 0 221.679
0.0189789 0.0127918 0 225.574
0.0195149 0.0131533 0 229.725
0.0200633 0.0135232 0 234.154
0.0206245 0.0139016 0 238.901
0.0211986 0.0142888 0 243.971
0.0217861 0.014685 0 249.418
0.022387 0.0150903 0 255.26
0.0230018 0.0155049 0 261.555
0.0236307 0.0159291 0 268.34
0.0242741 0.0163629 0 275.675
0.0249322 0.0168068 0 283.603
0.0256053 0.0172608 0 292.204
0.0262939 0.0177251 0 301.555
0.0269981 0.0182 0 311.715
0.0277183 0.0186857 0 322.812
0.0284548 0.0191825 0 334.906
0.029208 0.0196904 0 348.152
0.0299782 0.0202098 0 362.679
0.0307658 0.0207409 0 378.621
0.031571 0.021284 0 396.163
0.0323942 0.0218393 0 415.511
0.033236 0.0224069 0 436.88
0.0340965 0.0229872 0 460.531
0.0349762 0.0235805 0 486.731
0.0358753 0.0241869 0 515.856
0.0367944 0.0248067 0 548.234
0.0377338 0.0254403 0 584.3
0.0386938 0.0260877 0 624.589
0.039675 0.0267494 0 669.564
0.0406776 0.0274256 0 719.907
0.0417021 0.0281165 0 776.306
0.0427488 0.0288225 0 840.029
0.0438183 0.0295437 0 911.936
0.0449109 0.0302805 0 993.538
0.046027 0.0310332 0 1086.31
0.0471671 0.0318021 0 1191.92
0.0483315 0.0325874 0 1311.66
0.0495209 0.0333895 0 1446.92
0.0507354 0.0342086 0 1597.95
0.0519756 0.035045 0 1764.65
0.053242 0.0358991 0 1947.14
0.054535 0.036771 0 2142.06
0.0558549 0.0376613 0 2344.12
0.0572024 0.03857 0 2548.74
0.0585778 0.0394976 0 2748.98
0.0599816 0.0404443 0 2938.96
0.0614142 0.0414105 0 3120.61
0.0628761 0.0423964 0 3276.44
0.0643678 0.0434024 0 3372.04
0.0658897 0.0444287 0 3403.78
0.0674422 0.0454758 0 3414.88
0.069026 0.0465439 0 3370.12
0.0706413 0.0476333 0 3283.84
0.0722886 0.0487443 0 3182.85
0.0739685 0.0498771 0 3048.81
0.0756813 0.0510323 0 2880.88
0.0774275 0.05221 0 2682.83
0.0792077 0.0534105 0 2488.73
0.0810221 0.0546342 0 2323.97
0.0828712 0.0558812 0 2191.93
0.0847556 0.0571521 0 2087.89
0.0866757 0.058447 0 2007.69
0.0886318 0.0597661 0 1947.16
0.0906244 0.06111 0 1907.06
0.0926539 0.0624787 0 1883.51
0.0947207 0.0638726 0 1896.24
0.0968252 0.0652919 0 1906.59
0.0989682 0.066737 0 1907.59
0.101149 0.068208 0 1899.37
0.103369 0.0697052 0 1892.77
0.105629 0.0712289 0 1900
0.107928 0.0727794 0 1914.35
0.110267 0.0743568 0 1924.52
0.112646 0.0759614 0 1935.37
0.115066 0.0775934 0 1938.19
0.117527 0.079253 0 1935.61
0.120029 0.0809404 0 1924.83
0.122572 0.0826558 0 1913.15
0.125158 0.0843994 0 1905.33
0.127785 0.0861713 0 1912.55
0.130454 0.0879717 0 1922.03
0.133167 0.0898008 0 1927.24
0.135921 0.0916586 0 1929.61
0.138719 0.0935453 0 1932.54
0.141559 0.095461 0 1935.22
0.144443 0.0974057 0 1941.55
0.14737 0.0993798 0 1942.94
0.15034 0.101383 0 1944.33
0.153354 0.103415 0 1953.99
0.156411 0.105477 0 1961.84
0.159511 0.107568 0 1963.88
0.162655 0.109688 0 1965.34
0.165842 0.111837 0 1965.52
0.169073 0.114016 0 1973.88
0.172346 0.116223 0 1986.74
0.175663 0.118461 0 1990
0.179022 0.120727 0 1986.08
0.182425 0.123021 0 1984.84
0.18587 0.125344 0 1992.59
0.189357 0.127696 0 1998.99
0.192886 0.130076 0 2001.01
0.196457 0.132484 0 1993.59
0.200069 0.13492 0 1987.75
0.203722 0.137384 0 1988.85
0.207416 0.139875 0 1991.95
0.21115 0.142393 0 1992.12
0.214924 0.144938 0 1980.3
0.218736 0.147509 0 1963.96
0.222587 0.150107 0 1954.03
0.226476 0.152729 0 1947.12
0.230403 0.155377 0 1940.97
0.234366 0.15805 0 1928.61
0.238366 0.160748 0 1913.23
0.242401 0.163469 0 1899.15
0.24647 0.166214 0 1892.61
0.250573 0.168981 0 1890.42
0.25471 0.17177 0 1884.1
0.258878 0.174582 0 1873.01
0.263078 0.177414 0 1864.79
0.267309 0.180266 0 1854.75
0.271568 0.183139 0 1854.41
0.275856 0.186031 0 1849.16
0.280172 0.188942 0 1844.22
0.284514 0.19187 0 1839.71
0.288881 0.194815 0 1845.16
0.293272 0.197777 0 1847.13
0.297687 0.200754 0 1844.85
0.302124 0.203746 0 1844.52
0.306581 0.206752 0 1839.36
0.311058 0.209772 0 1834.43
0.315554 0.212804 0 1831.69
0.320067 0.215847 0 1828.8
0.324595 0.218901 0 1833.89
0.329138 0.221965 0 1833.76
0.333695 0.225038 0 1830.46
0.338264 0.228119 0 1828.78
0.342843 0.231208 0 1828.4
0.347432 0.234302 0 1829.46
0.352029 0.237402 0 1829.99
0.356632 0.240507 0 1828.93
0.361241 0.243616 0 1824.79
0.365854 0.246727 0 1822.75
0.370469 0.249839 0 1823.19
0.375085 0.252953 0 1826.29
0.379702 0.256066 0 1831.77
0.384317 0.259178 0 1833.3
0.388929 0.262289 0 1831.89
0.393537 0.265396 0 1829.01
0.398139 0.2685 0 1824.44
0.402734 0.271598 0 1826.42
0.407321 0.274692 0 1831.89
0.411898 0.277779 0 1839.18
0.416464 0.280858 0 1841.41
0.421017 0.283929 0 1843.58
0.425557 0.286991 0 1839.71
0.430082 0.290042 0 1831.93
0.434591 0.293083 0 1823.77
0.439082 0.296112 0 1820.47
0.443555 0.299128 0 1822.74
0.448008 0.302131 0 1836.5
0.45244 0.30512 0 1848.74
0.456849 0.308094 0 1854.8
0.461235 0.311052 0 1859.18
0.465596 0.313993 0 1853.37
0.469932 0.316917 0 1846.14
0.474241 0.319823 0 1826.72
0.478523 0.322711 0 1815.92
0.482776 0.325579 0 1806.82
0.486999 0.328427 0 1809.09
0.491191 0.331254 0 1818.7
0.495353 0.334061 0 1849.02
