# wallHeatFlux  FACE_DATA 398
# x  y  z  wallHeatFlux
-0.7975 -7.61524e-06 0 -98551.4
-0.79239 -7.61524e-06 0 -22460.2
-0.787056 -7.61524e-06 0 -13918
-0.781492 -7.61524e-06 0 -10969.2
-0.775691 -7.61524e-06 0 -9216.04
-0.769649 -7.61524e-06 0 -8010.15
-0.763361 -7.61524e-06 0 -7121.32
-0.756822 -7.61524e-06 0 -6428.17
-0.750025 -7.61524e-06 0 -5867.76
-0.742968 -7.61524e-06 0 -5408.38
-0.735648 -7.61524e-06 0 -5033.57
-0.72806 -7.61524e-06 0 -4722.24
-0.720203 -7.61524e-06 0 -4453.3
-0.712075 -7.61524e-06 0 -4221.49
-0.703676 -7.61524e-06 0 -4016.06
-0.695006 -7.61524e-06 0 -3837.07
-0.686065 -7.61524e-06 0 -3673.9
-0.676855 -7.61524e-06 0 -3526.57
-0.667379 -7.61524e-06 0 -3395.07
-0.657641 -7.61524e-06 0 -3274.14
-0.647644 -7.61524e-06 0 -3163.62
-0.637398 -7.61524e-06 0 -3063.64
-0.626906 -7.61524e-06 0 -2974.35
-0.616179 -7.61524e-06 0 -2890.08
-0.605225 -7.61524e-06 0 -2805.77
-0.594054 -7.61524e-06 0 -2732.03
-0.582677 -7.61524e-06 0 -2658.05
-0.57111 -7.61524e-06 0 -2594.66
-0.559364 -7.61524e-06 0 -2536.57
-0.547454 -7.61524e-06 0 -2478.3
-0.535396 -7.61524e-06 0 -2425.3
-0.523205 -7.61524e-06 0 -2372.07
-0.510901 -7.61524e-06 0 -2329.59
-0.498499 -7.61524e-06 0 -2286.89
-0.486021 -7.61524e-06 0 -2244.12
-0.473482 -7.61524e-06 0 -2201.24
-0.460905 -7.61524e-06 0 -2163.6
-0.448307 -7.61524e-06 0 -2131.31
-0.435709 -7.61524e-06 0 -2098.94
-0.42313 -7.61524e-06 0 -2066.43
-0.41059 -7.61524e-06 0 -2039.26
-0.39811 -7.61524e-06 0 -2006.64
-0.385706 -7.61524e-06 0 -1979.32
-0.373398 -7.61524e-06 0 -1952.02
-0.361205 -7.61524e-06 0 -1930.05
-0.349142 -7.61524e-06 0 -1913.38
-0.337226 -7.61524e-06 0 -1896.71
-0.325475 -7.61524e-06 0 -1874.64
-0.313901 -7.61524e-06 0 -1852.58
-0.30252 -7.61524e-06 0 -1830.5
-0.291343 -7.61524e-06 0 -1808.47
-0.280381 -7.61524e-06 0 -1791.81
-0.269647 -7.61524e-06 0 -1775.13
-0.259148 -7.61524e-06 0 -1763.84
-0.248893 -7.61524e-06 0 -1763.33
-0.23889 -7.61524e-06 0 -1757.49
-0.229143 -7.61524e-06 0 -1746.27
-0.219659 -7.61524e-06 0 -1740.48
-0.210441 -7.61524e-06 0 -1723.97
-0.201491 -7.61524e-06 0 -1707.59
-0.192812 -7.61524e-06 0 -1680.43
-0.184405 -7.61524e-06 0 -1632.04
-0.176269 -7.61524e-06 0 -1546.15
-0.168404 -7.61524e-06 0 -1412.21
-0.160809 -7.61524e-06 0 -1251.56
-0.15348 -7.61524e-06 0 -1101.73
-0.146415 -7.61524e-06 0 -984.02
-0.13961 -7.61524e-06 0 -893.036
-0.133063 -7.61524e-06 0 -823.49
-0.126767 -7.61524e-06 0 -780.7
-0.120717 -7.61524e-06 0 -743.269
-0.11491 -7.61524e-06 0 -721.891
-0.109339 -7.61524e-06 0 -711.217
-0.103997 -7.61524e-06 0 -727.269
-0.0988804 -7.61524e-06 0 -754.088
-0.0939809 -7.61524e-06 0 -796.91
-0.0892928 -7.61524e-06 0 -855.81
-0.0848096 -7.61524e-06 0 -936.118
-0.0805248 -7.61524e-06 0 -1027.15
-0.0764317 -7.61524e-06 0 -1118.21
-0.0725237 -7.61524e-06 0 -1219.98
-0.0687943 -7.61524e-06 0 -1321.81
-0.065237 -7.61524e-06 0 -1428.98
-0.0618454 -7.61524e-06 0 -1536.22
-0.058613 -7.61524e-06 0 -1643.45
-0.0555337 -7.61524e-06 0 -1750.75
-0.0526013 -7.61524e-06 0 -1847.34
-0.0498099 -7.61524e-06 0 -1943.97
-0.0471536 -7.61524e-06 0 -2029.91
-0.0446266 -7.61524e-06 0 -2110.52
-0.0422235 -7.61524e-06 0 -2185.79
-0.0399389 -7.61524e-06 0 -2250.36
-0.0377676 -7.61524e-06 0 -2314.94
-0.0357044 -7.61524e-06 0 -2374.22
-0.0337445 -7.61524e-06 0 -2422.74
-0.0318832 -7.61524e-06 0 -2476.66
-0.0301159 -7.61524e-06 0 -2519.86
-0.0284383 -7.61524e-06 0 -2568.44
-0.0268462 -7.61524e-06 0 -2617.03
-0.0253353 -7.61524e-06 0 -2665.63
-0.023902 -7.61524e-06 0 -2724.97
-0.0225425 -7.61524e-06 0 -2778.93
-0.0212532 -7.61524e-06 0 -2843.75
-0.0200306 -7.61524e-06 0 -2913.84
-0.0188715 -7.61524e-06 0 -2983.99
-0.0177727 -7.61524e-06 0 -3064.9
-0.0167313 -7.61524e-06 0 -3145.84
-0.0157444 -7.61524e-06 0 -3226.81
-0.0148093 -7.61524e-06 0 -3313.13
-0.0139232 -7.61524e-06 0 -3394.3
-0.0130838 -7.61524e-06 0 -3480.61
-0.0122887 -7.61524e-06 0 -3561.89
-0.0115355 -7.61524e-06 0 -3637.61
-0.0108223 -7.61524e-06 0 -3708.09
-0.0101469 -7.61524e-06 0 -3778.61
-0.00950727 -7.61524e-06 0 -3838.47
-0.00890169 -7.61524e-06 0 -3893
-0.00832834 -7.61524e-06 0 -3942.22
-0.00778557 -7.61524e-06 0 -3980.76
-0.00727176 -7.61524e-06 0 -4014.02
-0.00678541 -7.61524e-06 0 -4041.95
-0.00632507 -7.61524e-06 0 -4059.27
-0.00588937 -7.61524e-06 0 -4071.27
-0.00547703 -7.61524e-06 0 -4072.65
-0.00508681 -7.61524e-06 0 -4063.38
-0.00471753 -7.61524e-06 0 -4048.9
-0.0043681 -7.61524e-06 0 -4029.16
-0.00403746 -7.61524e-06 0 -3993.47
-0.00372461 -7.61524e-06 0 -3952.63
-0.0034286 -7.61524e-06 0 -3906.64
-0.00314855 -7.61524e-06 0 -3850.14
-0.00288361 -7.61524e-06 0 -3783.25
-0.00263295 -7.61524e-06 0 -3711.32
-0.00239582 -7.61524e-06 0 -3634.56
-0.00217149 -7.61524e-06 0 -3552.97
-0.00195929 -7.61524e-06 0 -3461.32
-0.00175856 -7.61524e-06 0 -3365.16
-0.00156869 -7.61524e-06 0 -3264.68
-0.00138908 -7.61524e-06 0 -3160.14
-0.00121921 -7.61524e-06 0 -3046.24
-0.00105853 -7.61524e-06 0 -2923.4
-0.000906546 -7.61524e-06 0 -2797.3
-0.000762803 -7.61524e-06 0 -2662.72
-0.000626849 -7.61524e-06 0 -2519.71
-0.000498266 -7.61524e-06 0 -2356.42
-0.000376656 -7.61524e-06 0 -2182.59
-0.000261642 -7.61524e-06 0 -1970.28
-0.00015287 -7.61524e-06 0 -1700.77
-5e-05 -7.61524e-06 0 -1261.94
4.14596e-05 2.03453e-05 0 -1280.01
0.000125379 7.69412e-05 0 -1706.2
0.000211356 0.000134924 0 -1943.35
0.000299438 0.000194328 0 -2117.39
0.000389678 0.000255186 0 -2256.67
0.000482128 0.000317535 0 -2368.99
0.000576841 0.000381409 0 -2466.45
0.000673871 0.000446848 0 -2554.5
0.000773276 0.000513887 0 -2633.06
0.000875112 0.000582565 0 -2707.49
0.000979439 0.000652924 0 -2772.26
0.00108632 0.000725003 0 -2837.28
0.00119581 0.000798843 0 -2897.94
0.00130797 0.000874487 0 -2959.95
0.00142287 0.000951979 0 -3016.95
0.00154058 0.00103136 0 -3072.79
0.00166117 0.00111268 0 -3128.62
0.00178469 0.00119599 0 -3185.85
0.00191123 0.00128133 0 -3238.67
0.00204085 0.00136875 0 -3291.93
0.00217364 0.0014583 0 -3343.73
0.00230966 0.00155003 0 -3396.5
0.00244899 0.001644 0 -3448.7
0.00259171 0.00174025 0 -3500.48
0.00273791 0.00183885 0 -3554.21
0.00288767 0.00193985 0 -3608.39
0.00304108 0.0020433 0 -3659.52
0.0031982 0.00214927 0 -3715.44
0.00335915 0.00225781 0 -3770.18
0.003524 0.002369 0 -3824.93
0.00369286 0.00248287 0 -3887.13
0.00386582 0.00259951 0 -3942.93
0.00404297 0.00271899 0 -4001.92
0.00422442 0.00284136 0 -4062.04
0.00441026 0.00296669 0 -4125.84
0.0046006 0.00309506 0 -4187.89
0.00479556 0.00322653 0 -4250.53
0.00499523 0.00336119 0 -4314.84
0.00519972 0.00349911 0 -4378.6
0.00540916 0.00364036 0 -4442.37
0.00562366 0.00378501 0 -4506.13
0.00584334 0.00393316 0 -4564.59
0.00606831 0.00408489 0 -4628.35
0.00629871 0.00424027 0 -4692.12
0.00653466 0.0043994 0 -4750.57
0.00677629 0.00456236 0 -4812.32
0.00702374 0.00472923 0 -4874.05
0.00727714 0.00490013 0 -4937.77
0.00753663 0.00507513 0 -5002.2
0.00780234 0.00525433 0 -5065.84
0.00807444 0.00543783 0 -5134.95
0.00835306 0.00562573 0 -5200.77
0.00863835 0.00581814 0 -5269.87
0.00893047 0.00601514 0 -5340.5
0.00922958 0.00621687 0 -5414.86
0.00953584 0.00642341 0 -5492.95
0.00984939 0.00663489 0 -5569.67
0.0101705 0.00685141 0 -5650.23
0.0104992 0.00707309 0 -5735.36
0.0108357 0.00730005 0 -5825.11
0.0111802 0.00753241 0 -5916.01
0.011533 0.0077703 0 -6008.88
0.0118941 0.00801384 0 -6107.14
0.0122638 0.00826316 0 -6212.23
0.0126422 0.00851837 0 -6320.68
0.0130296 0.00877964 0 -6434.31
0.0134262 0.00904708 0 -6556.57
0.0138321 0.00932084 0 -6681.43
0.0142476 0.00960107 0 -6817.18
0.0146729 0.00988792 0 -6954.43
0.0151082 0.0101815 0 -7107.64
0.0155538 0.0104819 0 -7265.06
0.0160098 0.0107895 0 -7434.55
0.0164766 0.0111042 0 -7613.83
0.0169542 0.0114263 0 -7804.03
0.0174429 0.011756 0 -8006.32
0.0179431 0.0120934 0 -8223.67
0.018455 0.0124386 0 -8456.98
0.0189789 0.0127918 0 -8706.19
0.0195149 0.0131533 0 -8971.45
0.0200633 0.0135232 0 -9254.73
0.0206245 0.0139016 0 -9561.95
0.0211986 0.0142888 0 -9890.33
0.0217861 0.014685 0 -10244.7
0.022387 0.0150903 0 -10624.6
0.0230018 0.0155049 0 -11034
0.0236307 0.0159291 0 -11478.4
0.0242741 0.0163629 0 -11960.3
0.0249322 0.0168068 0 -12476.8
0.0256053 0.0172608 0 -13045.4
0.0262939 0.0177251 0 -13656.4
0.0269981 0.0182 0 -14322.4
0.0277183 0.0186857 0 -15046.4
0.0284548 0.0191825 0 -15835.7
0.029208 0.0196904 0 -16696.6
0.0299782 0.0202098 0 -17644.3
0.0307658 0.0207409 0 -18676.1
0.031571 0.021284 0 -19811.8
0.0323942 0.0218393 0 -21060.4
0.033236 0.0224069 0 -22438.9
0.0340965 0.0229872 0 -23955.3
0.0349762 0.0235805 0 -25625.9
0.0358753 0.0241869 0 -27472.6
0.0367944 0.0248067 0 -29512.1
0.0377338 0.0254403 0 -31770.8
0.0386938 0.0260877 0 -34268.2
0.039675 0.0267494 0 -37019.9
0.0406776 0.0274256 0 -40037
0.0417021 0.0281165 0 -43384
0.0427488 0.0288225 0 -47124.5
0.0438183 0.0295437 0 -51298.2
0.0449109 0.0302805 0 -56041.8
0.046027 0.0310332 0 -61444.9
0.0471671 0.0318021 0 -67592.6
0.0483315 0.0325874 0 -74516.2
0.0495209 0.0333895 0 -82323.7
0.0507354 0.0342086 0 -90922.4
0.0519756 0.035045 0 -100254
0.053242 0.0358991 0 -110232
0.054535 0.036771 0 -120474
0.0558549 0.0376613 0 -130560
0.0572024 0.03857 0 -139970
0.0585778 0.0394976 0 -148195
0.0599816 0.0404443 0 -155338
0.0614142 0.0414105 0 -161396
0.0628761 0.0423964 0 -165342
0.0643678 0.0434024 0 -164540
0.0658897 0.0444287 0 -160320
0.0674422 0.0454758 0 -154868
0.069026 0.0465439 0 -147374
0.0706413 0.0476333 0 -138691
0.0722886 0.0487443 0 -129986
0.0739685 0.0498771 0 -120615
0.0756813 0.0510323 0 -110666
0.0774275 0.05221 0 -100318
0.0792077 0.0534105 0 -90717.4
0.0810221 0.0546342 0 -82766
0.0828712 0.0558812 0 -76396.7
0.0847556 0.0571521 0 -71322
0.0866757 0.058447 0 -67303.6
0.0886318 0.0597661 0 -64090.7
0.0906244 0.06111 0 -61677.1
0.0926539 0.0624787 0 -59758.3
0.0947207 0.0638726 0 -59344.9
0.0968252 0.0652919 0 -58827.8
0.0989682 0.066737 0 -57882.4
0.101149 0.068208 0 -56806.2
0.103369 0.0697052 0 -56165.9
0.105629 0.0712289 0 -56696.5
0.107928 0.0727794 0 -55643
0.110267 0.0743568 0 -56308.5
0.112646 0.0759614 0 -55240.6
0.115066 0.0775934 0 -55341.5
0.117527 0.079253 0 -54018.1
0.120029 0.0809404 0 -53442.9
0.122572 0.0826558 0 -52789.7
0.125158 0.0843994 0 -52374.4
0.127785 0.0861713 0 -51804.4
0.130454 0.0879717 0 -51572.4
0.133167 0.0898008 0 -51348.2
0.135921 0.0916586 0 -51256.8
0.138719 0.0935453 0 -50602
0.141559 0.095461 0 -51006.9
0.144443 0.0974057 0 -49409.8
0.14737 0.0993798 0 -49158.5
0.15034 0.101383 0 -49032.1
0.153354 0.103415 0 -48217.9
0.156411 0.105477 0 -47949.9
0.159511 0.107568 0 -48405.2
0.162655 0.109688 0 -47747.5
0.165842 0.111837 0 -47559.8
0.169073 0.114016 0 -48545
0.172346 0.116223 0 -47211.3
0.175663 0.118461 0 -46015.4
0.179022 0.120727 0 -47171.4
0.182425 0.123021 0 -45432.7
0.18587 0.125344 0 -45135.7
0.189357 0.127696 0 -45377.1
0.192886 0.130076 0 -45907.4
0.196457 0.132484 0 -45561.2
0.200069 0.13492 0 -44662.5
0.203722 0.137384 0 -43292.9
0.207416 0.139875 0 -43677.4
0.21115 0.142393 0 -43523.5
0.214924 0.144938 0 -43131.6
0.218736 0.147509 0 -43232.6
0.222587 0.150107 0 -41510.9
0.226476 0.152729 0 -41046.7
0.230403 0.155377 0 -40635.6
0.234366 0.15805 0 -40249.2
0.238366 0.160748 0 -39773.4
0.242401 0.163469 0 -40059.7
0.24647 0.166214 0 -39362.6
0.250573 0.168981 0 -38180.7
0.25471 0.17177 0 -38377.9
0.258878 0.174582 0 -38743.9
0.263078 0.177414 0 -37517.6
0.267309 0.180266 0 -38791.5
0.271568 0.183139 0 -36387.5
0.275856 0.186031 0 -36416
0.280172 0.188942 0 -36627.2
0.284514 0.19187 0 -37239.1
0.288881 0.194815 0 -36218.8
0.293272 0.197777 0 -35793.9
0.297687 0.200754 0 -37324.1
0.302124 0.203746 0 -35913.4
0.306581 0.206752 0 -35643.4
0.311058 0.209772 0 -35350.3
0.315554 0.212804 0 -35555.9
0.320067 0.215847 0 -37706.8
0.324595 0.218901 0 -36027.5
0.329138 0.221965 0 -34759.9
0.333695 0.225038 0 -35101.4
0.338264 0.228119 0 -34954.8
0.342843 0.231208 0 -34552.2
0.347432 0.234302 0 -34683.2
0.352029 0.237402 0 -34514.3
0.356632 0.240507 0 -34448.3
0.361241 0.243616 0 -34993.1
0.365854 0.246727 0 -34623.2
0.370469 0.249839 0 -34262.6
0.375085 0.252953 0 -35484.3
0.379702 0.256066 0 -34707.4
0.384317 0.259178 0 -33869.6
0.388929 0.262289 0 -34052.8
0.393537 0.265396 0 -33775.1
0.398139 0.2685 0 -33566.3
0.402734 0.271598 0 -33508.4
0.407321 0.274692 0 -33336.8
0.411898 0.277779 0 -33513.8
0.416464 0.280858 0 -34656.7
0.421017 0.283929 0 -34503.7
0.425557 0.286991 0 -34038.1
0.430082 0.290042 0 -33472.6
0.434591 0.293083 0 -33629.1
0.439082 0.296112 0 -32821.6
0.443555 0.299128 0 -33806.4
0.448008 0.302131 0 -32876.1
0.45244 0.30512 0 -33086.6
0.456849 0.308094 0 -35198.4
0.461235 0.311052 0 -33646.5
0.465596 0.313993 0 -34284.3
0.469932 0.316917 0 -32163.9
0.474241 0.319823 0 -33212.4
0.478523 0.322711 0 -32462.9
0.482776 0.325579 0 -32322.1
0.486999 0.328427 0 -32186.7
0.491191 0.331254 0 -33796
0.495353 0.334061 0 -30990.4
