# y+ ()       
# Time        	patch         	min           	max           	average       
5600          	base	4.917772e-03	2.472424e+01	5.551703e+00
