# Wall heat-flux
# Time        	patch         	min           	max           	integral      
1700          	base	-1.193029e+04	3.249319e+04	3.633181e+02
