/*--------------------------------*- C++ -*----------------------------------*\
| =========                 |                                                 |
| \\      /  F ield         | OpenFOAM: The Open Source CFD Toolbox           |
|  \\    /   O peration     | Version:  v2012                                 |
|   \\  /    A nd           | Website:  www.openfoam.com                      |
|    \\/     M anipulation  |                                                 |
\*---------------------------------------------------------------------------*/
FoamFile
{
    version     2.0;
    format      ascii;
    class       volScalarField;
    location    "0";
    object      Prt;
}
// * * * * * * * * * * * * * * * * * * * * * * * * * * * * * * * * * * * * * //

dimensions      [0 0 0 0 0 0 0];


internalField   nonuniform List<scalar> 
39402
(
0.000287768
3.16639e-06
0.00598585
2.19744e-07
0.000800034
0.00930847
1.45735e-07
0.000108683
0.00874146
0.00749446
1.5967e-07
6.60379e-05
0.00230749
0.0244519
0.00478596
1.81448e-07
6.98196e-05
0.00148856
0.0105679
0.0393836
0.00290052
2.00037e-07
7.63934e-05
0.00153201
0.00786151
0.0242832
0.0489861
0.00165954
2.09562e-07
8.19652e-05
0.00162108
0.00795309
0.0198754
0.0388537
0.0535794
0.000919907
2.16651e-07
8.46437e-05
0.00169741
0.00821168
0.0198765
0.033874
0.0509427
0.0545695
0.000506612
2.19421e-07
8.66169e-05
0.00173112
0.00844334
0.020175
0.0335782
0.0462804
0.0596514
0.0532998
0.000279005
2.16556e-07
8.72582e-05
0.0017554
0.00853542
0.0204832
0.033677
0.0455394
0.055621
0.0653337
0.050596
0.000154422
2.1078e-07
8.61214e-05
0.00176032
0.00860002
0.020588
0.0338932
0.0452844
0.0543989
0.062088
0.0688258
0.0470568
8.56858e-05
2.0536e-07
8.40923e-05
0.00173883
0.00860023
0.0206574
0.0339378
0.0452987
0.0537649
0.060397
0.0665497
0.0708068
0.0431719
4.81244e-05
1.9885e-07
8.21864e-05
0.00170426
0.00850946
0.0206286
0.0339613
0.0452433
0.0535552
0.0593575
0.0644783
0.0696888
0.0717973
0.0384879
2.69836e-05
1.91877e-07
7.99193e-05
0.00167195
0.00837467
0.02045
0.0338918
0.0451983
0.0534015
0.0589579
0.0630052
0.0674423
0.0719551
0.0721574
0.03258
1.52698e-05
1.85588e-07
7.75027e-05
0.00163381
0.00824854
0.020202
0.03366
0.045097
0.0532918
0.058726
0.0624107
0.0656817
0.069556
0.0736849
0.0721091
0.0260499
8.68861e-06
1.79368e-07
7.53111e-05
0.00159324
0.00810028
0.0199692
0.0333561
0.0448559
0.0531707
0.0585688
0.0620847
0.0648541
0.067701
0.071047
0.0749544
0.0721095
0.0195766
4.99039e-06
1.72568e-07
7.31255e-05
0.00155614
0.00794335
0.0196975
0.033069
0.0445599
0.0529499
0.0584395
0.0618777
0.0644011
0.0667077
0.069106
0.072185
0.0754114
0.0719851
0.0137905
2.87625e-06
1.65902e-07
7.07405e-05
0.0015189
0.00779849
0.0194098
0.0327382
0.0442792
0.0526975
0.0582492
0.0617284
0.0641319
0.066158
0.0680297
0.0700853
0.0729211
0.075182
0.0705103
0.00905969
1.72001e-06
1.60149e-07
6.83886e-05
0.00147831
0.00765222
0.0191428
0.0323885
0.0439601
0.0524563
0.0580468
0.0615479
0.0639324
0.0658488
0.0674285
0.06893
0.0707588
0.0730967
0.0753808
0.0668158
0.00562586
9.5203e-07
1.54992e-07
6.63481e-05
0.001438
0.00749254
0.0188717
0.0320614
0.0436237
0.0521865
0.0578537
0.0613758
0.0637363
0.0656087
0.0670872
0.0682797
0.0695329
0.0712235
0.0733072
0.0762363
0.0604944
0.00312947
4.32972e-07
1.49816e-07
6.44953e-05
0.00140272
0.00733368
0.0185759
0.0317285
0.0433075
0.051905
0.0576433
0.0612109
0.0635621
0.0654031
0.0668368
0.0678929
0.0688273
0.069972
0.0717676
0.074551
0.0766969
0.0515199
0.00162968
1.66602e-07
1.44626e-07
6.26244e-05
0.00137033
0.00719236
0.0182798
0.0313653
0.0429852
0.0516384
0.0574256
0.0610384
0.0633959
0.0652328
0.0666365
0.0676371
0.0683947
0.06919
0.0704235
0.0726975
0.0765229
0.0761608
0.0409197
0.000852301
3.7977e-08
1.39997e-07
6.07576e-05
0.0013375
0.00706166
0.0180137
0.031
0.0426342
0.0513674
0.0572176
0.0608688
0.0632265
0.0650698
0.0664825
0.0674392
0.0681233
0.0687016
0.0694923
0.0710222
0.0741041
0.078
0.0744348
0.0299777
0.000450576
3.77298e-09
1.35753e-07
5.90688e-05
0.00130462
0.00692858
0.0177652
0.0306689
0.0422811
0.0510739
0.0570078
0.0607129
0.0630745
0.0649071
0.0663367
0.0672968
0.0679226
0.0683999
0.0689093
0.0698277
0.0718879
0.0756785
0.0780836
0.0712844
0.0200819
0.0002214
2.61382e-10
1.31631e-07
5.7531e-05
0.0012747
0.00679499
0.0175117
0.030357
0.041957
0.0507778
0.0567831
0.0605567
0.062946
0.064758
0.0661944
0.0671672
0.0677876
0.0681873
0.0685538
0.0690926
0.0702876
0.0730168
0.076873
0.0766659
0.0662538
0.0122476
8.95777e-05
1.29677e-11
1.2762e-07
5.60278e-05
0.00124728
0.00667238
0.0172568
0.0300387
0.0416506
0.0505037
0.0565541
0.0603927
0.062817
0.0646258
0.0660562
0.0670384
0.0676689
0.0680523
0.068313
0.0686488
0.0693109
0.0709399
0.0740872
0.0775138
0.0750696
0.0587401
0.00660202
3.02999e-05
8.08334e-14
1.23936e-07
5.45533e-05
0.00122042
0.00655941
0.0170205
0.0297178
0.041337
0.0502434
0.0563417
0.0602255
0.0626861
0.0644958
0.0659248
0.0669165
0.0675539
0.0679383
0.0681677
0.0683582
0.0687315
0.0696319
0.0716147
0.0749614
0.0777037
0.0740032
0.0479557
0.00306287
9.11514e-06
1.80523e-13
1.20495e-07
5.31886e-05
0.00119406
0.00644841
0.0168017
0.0294183
0.0410202
0.0499776
0.0561395
0.0600692
0.0625552
0.0643644
0.0657985
0.0668025
0.0674464
0.067834
0.0680549
0.0681894
0.0683651
0.0688575
0.0699942
0.0722533
0.0757801
0.0770418
0.072165
0.0340827
0.00120409
2.46918e-06
7.53181e-13
1.1713e-07
5.19235e-05
0.00116952
0.00633914
0.0165858
0.0291383
0.040723
0.0497084
0.0559331
0.0599183
0.0624272
0.064236
0.0656721
0.0666916
0.0673461
0.0677357
0.0679484
0.0680693
0.0681553
0.0683786
0.0690039
0.0703614
0.0730567
0.0764229
0.0752169
0.0677431
0.0196807
0.00040271
6.22626e-07
1.64977e-12
1.13938e-07
5.06869e-05
0.00114671
0.00623712
0.0163733
0.0288625
0.0404446
0.0494542
0.0557249
0.0597668
0.0623075
0.0641106
0.0655468
0.0665824
0.0672491
0.0676434
0.067858
0.0679603
0.0680152
0.0681041
0.0683915
0.0691542
0.070912
0.0739657
0.0766063
0.073201
0.0593419
0.00889818
0.000117371
1.42757e-07
1.62971e-12
1.11187e-07
4.95132e-05
0.00112451
0.00614201
0.0161734
0.0285902
0.0401692
0.0492161
0.0555267
0.0596135
0.0621871
0.0639946
0.0654286
0.0664756
0.0671533
0.0675555
0.067773
0.0678696
0.0679002
0.0679339
0.0680383
0.0684067
0.0694508
0.0716616
0.0748849
0.0759639
0.0717317
0.0459276
0.00320532
3.03505e-05
2.73115e-08
7.83412e-13
1.08562e-07
4.84912e-05
0.00110338
0.00604956
0.0159873
0.0283329
0.039896
0.0489792
0.0553381
0.0594664
0.062064
0.0638752
0.0653151
0.0663753
0.0670637
0.0674737
0.0676914
0.0677894
0.0678054
0.0677977
0.0678315
0.0679764
0.0685102
0.0699322
0.0725733
0.0755146
0.0741124
0.0687879
0.0285825
0.000981078
7.05144e-06
4.11727e-09
1.25042e-13
1.05897e-07
4.75276e-05
0.00108497
0.00596135
0.0158055
0.0280934
0.0396376
0.0487447
0.0551532
0.0593274
0.0619468
0.0637587
0.0652044
0.0662772
0.0669768
0.0673976
0.0676167
0.067708
0.0677231
0.0676928
0.0676729
0.0677191
0.0679758
0.0687535
0.0706127
0.0735969
0.0754837
0.0718271
0.0614721
0.0128907
0.000273798
1.2117e-06
4.8208e-10
3.33888e-15
1.03203e-07
4.65442e-05
0.00106767
0.00588397
0.0156324
0.0278589
0.0393966
0.0485218
0.0549695
0.059191
0.0618384
0.0636465
0.065095
0.0661833
0.0668921
0.0673204
0.0675486
0.0676366
0.0676422
0.0676048
0.0675531
0.0675422
0.067634
0.0680559
0.06919
0.0715287
0.0745484
0.0743236
0.0701856
0.047896
0.00419669
6.89189e-05
1.15981e-07
3.32588e-11
1.32854e-14
1.00856e-07
4.55506e-05
0.00105004
0.00581183
0.0154799
0.0276354
0.0391608
0.0483137
0.0547954
0.0590547
0.0617284
0.0635408
0.0649896
0.0660909
0.0668097
0.0672456
0.0674819
0.0675743
0.0675693
0.0675237
0.067457
0.0674003
0.0674114
0.0676325
0.0682657
0.0698356
0.0726052
0.0750137
0.0721344
0.0669813
0.0287285
0.00118289
1.32689e-05
8.99983e-09
5.75803e-12
2.94649e-16
9.90056e-08
4.46888e-05
0.00103227
0.00573842
0.0153375
0.0274378
0.0389353
0.0481096
0.0546321
0.0589251
0.061622
0.0634367
0.0648888
0.0660022
0.0667346
0.0671762
0.0674145
0.0675133
0.0675106
0.0674495
0.0673688
0.0673004
0.0672468
0.0673316
0.0677021
0.0686599
0.0707103
0.0736783
0.0744911
0.0700682
0.0584619
0.0115611
0.000298292
1.68066e-06
1.8884e-09
5.19232e-11
3.079e-17
9.72111e-08
4.40133e-05
0.00101696
0.00566478
0.015194
0.0272539
0.0387356
0.0479148
0.0544714
0.0588033
0.06152
0.0633341
0.0647932
0.065916
0.0666595
0.0671105
0.0673518
0.0674511
0.0674521
0.0673895
0.0672925
0.0671961
0.0671264
0.0671223
0.0673206
0.0679001
0.0692716
0.0717847
0.0743593
0.0723231
0.0680575
0.0426023
0.00310994
5.02171e-05
5.18793e-08
6.48744e-10
8.96055e-11
1.93237e-17
9.52428e-08
4.33651e-05
0.00100499
0.00560114
0.0150502
0.0270684
0.0385512
0.0477423
0.0543185
0.0586844
0.0614219
0.063238
0.0646987
0.0658325
0.0665851
0.0670443
0.0672928
0.0673933
0.0673926
0.0673325
0.0672295
0.0671128
0.0670148
0.0669716
0.067061
0.0673865
0.0682827
0.0701156
0.0728947
0.0740769
0.0695908
0.0629969
0.0219567
0.000593348
6.64176e-06
3.67142e-09
1.01921e-10
5.53081e-11
1.00953e-16
9.32328e-08
4.26529e-05
0.000993696
0.00555207
0.0149257
0.0268828
0.038365
0.0475816
0.0541818
0.0585702
0.0613352
0.063145
0.0646059
0.0657543
0.0665153
0.0669824
0.0672351
0.0673391
0.0673369
0.0672743
0.067173
0.0670446
0.0669223
0.0668571
0.0668807
0.067061
0.0676007
0.0688811
0.071195
0.0737262
0.0721671
0.0678786
0.0511793
0.00641087
9.45663e-05
8.05732e-07
3.88739e-09
7.23364e-12
7.28453e-12
1.63518e-16
9.14798e-08
4.19212e-05
0.000981281
0.00550629
0.0148306
0.0267239
0.0381779
0.0474213
0.054055
0.0584694
0.061254
0.0630757
0.0645205
0.0656783
0.0664493
0.0669218
0.0671803
0.0672889
0.0672891
0.0672175
0.0671144
0.0669841
0.066845
0.0667519
0.0667291
0.0668247
0.0671465
0.0679897
0.0697315
0.0723699
0.073697
0.0694714
0.0648017
0.0312505
0.00104123
1.44211e-05
9.1942e-09
1.50982e-09
1.53018e-13
8.55416e-13
7.11587e-17
9.01898e-08
4.1289e-05
0.000968554
0.00545598
0.0147424
0.0266026
0.0380182
0.0472605
0.053928
0.0583737
0.0611793
0.0630107
0.0644499
0.065608
0.0663878
0.0668638
0.0671242
0.0672353
0.067242
0.0671698
0.0670562
0.066925
0.0667882
0.0666562
0.066595
0.0666295
0.0668252
0.0673614
0.0685807
0.0708293
0.0733042
0.0720535
0.0675784
0.0558035
0.010756
0.000133196
1.57709e-06
5.72689e-09
1.06483e-10
1.42043e-12
7.96653e-13
1.83833e-17
8.90808e-08
4.08357e-05
0.000957667
0.00540436
0.0146461
0.0264898
0.0378972
0.0471223
0.0538037
0.0582796
0.0611108
0.0629483
0.0643824
0.0655362
0.0663283
0.0668119
0.0670752
0.0671862
0.0671913
0.0671254
0.0670062
0.0668671
0.0667216
0.0665958
0.0664967
0.0664614
0.066586
0.0669392
0.0677537
0.0694529
0.0720457
0.0734074
0.0693398
0.0650691
0.0378546
0.00164712
1.58003e-05
1.38407e-07
6.24438e-10
3.14856e-12
4.06637e-12
9.72976e-16
3.42521e-18
8.77832e-08
4.04478e-05
0.000950122
0.00536076
0.0145478
0.0263678
0.037785
0.0470175
0.0536943
0.0581869
0.0610422
0.0628938
0.0643218
0.0654699
0.0662667
0.0667593
0.0670284
0.0671438
0.0671454
0.0670795
0.0669614
0.0668155
0.0666613
0.0665281
0.0664076
0.0663535
0.0663929
0.0666284
0.067193
0.0683899
0.0705756
0.0730284
0.0718472
0.0671564
0.057821
0.0151069
0.000147536
1.71384e-06
1.92734e-09
1.31682e-12
2.29061e-12
2.67306e-12
4.37075e-14
3.4373e-19
8.62482e-08
3.9994e-05
0.000943856
0.00533183
0.0144657
0.0262441
0.0376643
0.0469211
0.0536106
0.0581044
0.0609757
0.0628387
0.0642646
0.065408
0.0662091
0.0667056
0.0669821
0.0670987
0.0671047
0.0670331
0.0669198
0.0667691
0.0666109
0.066453
0.0663324
0.0662612
0.0662446
0.0663853
0.0667772
0.0676154
0.0692867
0.0718148
0.0731208
0.0690452
0.0648779
0.0416139
0.00238391
1.32823e-05
1.06146e-07
5.19401e-11
7.58512e-11
9.72608e-13
2.38946e-11
2.14226e-15
2.88698e-20
8.47031e-08
3.94463e-05
0.000936375
0.00530849
0.0144131
0.0261417
0.0375418
0.0468186
0.0535346
0.0580394
0.0609172
0.0627857
0.0642098
0.0653512
0.0661546
0.0666562
0.0669334
0.0670563
0.067064
0.0669921
0.0668758
0.0667246
0.0665626
0.0664006
0.0662636
0.0661586
0.0661412
0.0662071
0.0664471
0.0670383
0.0682655
0.0704276
0.0728294
0.0715065
0.0666975
0.0585845
0.0182312
0.000160994
1.00395e-06
1.8826e-09
1.91556e-09
2.19502e-11
4.24131e-14
6.18429e-11
5.05836e-15
3.49859e-21
8.33909e-08
3.88919e-05
0.000927215
0.00528016
0.014372
0.0260786
0.0374413
0.0467152
0.0534557
0.0579844
0.0608687
0.0627363
0.0641556
0.0652992
0.0661037
0.0666093
0.0668904
0.0670128
0.0670227
0.0669545
0.0668337
0.0666794
0.0665151
0.0663473
0.0661973
0.066088
0.0660386
0.0660526
0.0662084
0.0666179
0.0675067
0.0692032
0.0717064
0.0728269
0.0686255
0.0644402
0.0435629
0.00297873
9.15685e-06
4.31632e-08
1.56793e-12
8.77147e-10
4.72685e-11
4.48533e-14
9.88797e-12
4.1465e-15
2.70306e-22
8.25153e-08
3.84288e-05
0.000917895
0.00524489
0.0143223
0.0260312
0.0373819
0.0466303
0.0533751
0.0579253
0.0608256
0.0626982
0.0641025
0.0652472
0.0660563
0.0665676
0.0668492
0.0669748
0.0669846
0.0669175
0.066797
0.0666403
0.0664685
0.0662995
0.0661393
0.0660045
0.0659254
0.0659465
0.0660325
0.0662964
0.0669193
0.068214
0.0704256
0.0726994
0.0709927
0.0661768
0.0585418
0.0201416
0.00015087
5.19199e-07
2.58639e-10
2.98607e-10
2.36427e-10
4.32509e-16
9.4734e-12
1.64088e-13
6.09541e-16
5.66697e-23
8.21831e-08
3.81347e-05
0.000910308
0.0052088
0.0142581
0.0259732
0.0373385
0.0465798
0.0533092
0.0578669
0.0607827
0.0626596
0.0640596
0.0651952
0.0660108
0.0665225
0.0668112
0.06694
0.0669497
0.0668806
0.0667618
0.066606
0.066426
0.0662487
0.06608
0.0659532
0.0658523
0.0658151
0.0658885
0.0660831
0.0665098
0.0674282
0.0692083
0.0717146
0.0725042
0.0680331
0.0638964
0.0440421
0.00329975
5.05474e-06
1.28573e-08
1.95539e-12
1.00864e-09
3.94962e-12
2.10999e-13
6.34674e-11
1.17863e-13
7.15365e-17
1.60028e-23
8.1857e-08
3.80539e-05
0.000905879
0.00518028
0.0141924
0.0258959
0.0372833
0.0465439
0.0532692
0.0578168
0.0607386
0.0626248
0.0640214
0.0651491
0.0659683
0.0664827
0.066773
0.0669023
0.0669138
0.0668439
0.0667239
0.066569
0.0663879
0.066203
0.0660383
0.0658886
0.065781
0.0657182
0.0657522
0.0658817
0.0662062
0.0668702
0.068207
0.0704522
0.0726406
0.0704204
0.0656383
0.0579733
0.0204788
0.000125143
1.34638e-07
3.14104e-12
1.87979e-11
7.34222e-11
2.52478e-11
5.30176e-13
9.35907e-11
5.57065e-16
3.13725e-18
6.14958e-26
8.13441e-08
3.79743e-05
0.000905523
0.00516558
0.014142
0.0258181
0.0372117
0.0464997
0.0532415
0.0577875
0.0607038
0.0625861
0.0639834
0.0651094
0.0659285
0.0664471
0.0667392
0.0668677
0.0668812
0.0668122
0.0666887
0.0665302
0.0663496
0.0661635
0.0659796
0.0658214
0.065721
0.0656272
0.065619
0.0657178
0.0659537
0.066447
0.0674402
0.0692751
0.0717467
0.0721642
0.0673826
0.0632363
0.0432498
0.00313338
1.9785e-06
2.16744e-10
9.86963e-16
1.2619e-11
1.13989e-12
6.2105e-12
8.89816e-13
3.69957e-12
1.44574e-14
1.26243e-20
2.51034e-28
8.04762e-08
3.78244e-05
0.000905187
0.00516853
0.0141199
0.0257591
0.0371399
0.0464432
0.0532088
0.0577633
0.0606791
0.062557
0.0639499
0.0650727
0.0658914
0.0664142
0.066705
0.0668368
0.0668492
0.0667794
0.0666563
0.0664989
0.066312
0.066126
0.0659421
0.0657716
0.0656359
0.0655539
0.0655323
0.0655771
0.065759
0.0661446
0.0668706
0.0682739
0.0705815
0.0725588
0.0697195
0.0650527
0.0569017
0.0193564
8.26734e-05
6.73545e-09
6.05331e-14
5.96769e-14
8.67286e-12
6.32703e-11
1.42301e-11
2.742e-11
1.37948e-14
9.05142e-15
3.53407e-21
3.25926e-28
7.91973e-08
3.75357e-05
0.000903557
0.00517179
0.0141331
0.0257384
0.0370872
0.0463848
0.053166
0.0577416
0.0606612
0.0625336
0.0639161
0.0650408
0.0658585
0.06638
0.0666738
0.0668064
0.0668191
0.0667489
0.0666218
0.0664658
0.0662806
0.0660849
0.0659019
0.0657347
0.0655941
0.0655017
0.0654383
0.065471
0.0655903
0.0658801
0.0664407
0.0675096
0.0694327
0.0718703
0.0717449
0.0666182
0.0624597
0.0413801
0.00254388
3.07002e-07
1.085e-13
1.12025e-12
4.48327e-14
3.12633e-10
1.7216e-10
1.032e-12
6.62797e-11
1.56298e-12
6.24323e-16
1.46903e-21
7.61602e-30
7.78288e-08
3.70726e-05
0.000899229
0.00516929
0.0141475
0.025764
0.0370726
0.046343
0.0531235
0.0577099
0.0606449
0.0625198
0.0638921
0.0650075
0.0658291
0.0663475
0.0666435
0.0667743
0.0667911
0.066722
0.0665918
0.0664326
0.0662487
0.0660493
0.06586
0.065691
0.0655407
0.0654186
0.0653588
0.065364
0.065458
0.0656743
0.0660959
0.0669097
0.0684512
0.0707916
0.0723522
0.0689388
0.0644239
0.0553545
0.0171334
3.69366e-05
3.99583e-11
1.11819e-11
3.6804e-12
1.547e-12
9.88612e-10
1.70193e-10
3.53355e-15
2.3075e-11
1.44504e-13
2.08714e-18
1.26436e-24
1.21973e-31
7.65154e-08
3.65677e-05
0.000891505
0.00515504
0.0141502
0.0257907
0.0371048
0.0463338
0.0530919
0.057678
0.0606226
0.0624992
0.0638715
0.0649806
0.0657963
0.0663191
0.066615
0.0667419
0.0667601
0.0666931
0.0665674
0.0664002
0.0662171
0.0660155
0.0658191
0.0656413
0.0654863
0.0653458
0.0652715
0.0652596
0.0653295
0.0654952
0.0658143
0.0664404
0.0676384
0.0696716
0.071978
0.0709739
0.0657652
0.0614972
0.0385711
0.00167118
3.05361e-09
2.30508e-12
7.44504e-15
5.55969e-12
2.05323e-13
1.08117e-09
2.33332e-11
3.24434e-12
3.70728e-11
7.60107e-14
1.77263e-18
3.65195e-25
1.35398e-33
7.54495e-08
3.6083e-05
0.000882886
0.00512568
0.01413
0.0258035
0.0371372
0.0463638
0.0530853
0.0576556
0.0605996
0.0624829
0.063848
0.0649558
0.0657684
0.0662925
0.0665872
0.0667147
0.0667266
0.0666613
0.0665384
0.0663708
0.066184
0.0659835
0.0657851
0.0656039
0.0654259
0.0652928
0.0652093
0.0651807
0.0652132
0.0653548
0.0655918
0.0660716
0.0669842
0.0686626
0.0710362
0.0720404
0.0679583
0.0636632
0.0532218
0.0137695
5.23869e-06
3.13312e-14
1.2376e-13
3.61406e-14
6.23354e-12
7.01911e-11
8.76631e-10
4.96586e-11
8.59274e-12
2.98441e-11
5.84218e-15
3.97444e-20
4.74516e-27
9.84878e-36
7.47578e-08
3.56965e-05
0.000874608
0.0050924
0.0140785
0.0257854
0.0371576
0.0463972
0.0531096
0.0576503
0.0605818
0.0624662
0.063831
0.0649376
0.0657467
0.0662662
0.0665611
0.0666918
0.0666974
0.0666316
0.0665061
0.0663445
0.0661532
0.0659503
0.0657484
0.0655605
0.0653882
0.0652397
0.0651466
0.0651034
0.0651102
0.0652135
0.0654356
0.0658063
0.0664967
0.0678181
0.0699915
0.0720742
0.0701208
0.0650667
0.060252
0.0344138
0.000819469
4.43553e-10
1.07704e-11
8.154e-14
1.17677e-11
1.51524e-15
1.68075e-11
6.42368e-11
7.29723e-13
5.74383e-11
3.5266e-16
2.17954e-18
1.7761e-22
3.59096e-29
4.50009e-38
7.45208e-08
3.54534e-05
0.000868135
0.00506036
0.0140187
0.0257269
0.037147
0.0464174
0.0531365
0.0576656
0.0605762
0.0624488
0.0638149
0.064917
0.0657306
0.0662445
0.0665347
0.0666638
0.0666772
0.0666041
0.0664788
0.0663169
0.0661288
0.0659197
0.0657147
0.0655219
0.0653477
0.0651839
0.0650979
0.0650336
0.0650194
0.0650991
0.0652846
0.0655909
0.0661174
0.067147
0.0689848
0.071383
0.0716645
0.0670041
0.0629294
0.0502472
0.00954476
8.38762e-07
1.05354e-11
2.93229e-12
2.21681e-12
1.21466e-10
7.37187e-13
8.2127e-12
1.13315e-10
4.93436e-11
4.0744e-10
2.58992e-13
2.77095e-18
5.02376e-24
1.63811e-31
1.20658e-40
7.46181e-08
3.53923e-05
0.000864299
0.00503579
0.0139607
0.0256568
0.0370942
0.0464144
0.0531541
0.0576824
0.0605839
0.0624425
0.0637954
0.0648989
0.0657106
0.0662218
0.0665111
0.0666363
0.0666546
0.0665821
0.0664514
0.0662874
0.0661019
0.0658976
0.0656842
0.0654829
0.065306
0.0651458
0.0650237
0.064958
0.0649523
0.0650054
0.0651455
0.0653827
0.0658288
0.0666204
0.0681001
0.0703879
0.0720792
0.0692088
0.0644183
0.0585119
0.0288745
0.000254953
4.29756e-12
1.83523e-11
1.41323e-13
1.37138e-11
2.7402e-10
1.91457e-10
1.5068e-10
3.58063e-12
1.95071e-11
6.97478e-11
3.43773e-14
3.20795e-19
2.51454e-26
4.16582e-34
1.45838e-43
7.48584e-08
3.5465e-05
0.000863968
0.00502232
0.0139178
0.0255879
0.0370309
0.0463738
0.0531539
0.0576961
0.060594
0.0624432
0.0637835
0.0648792
0.0656875
0.0662005
0.066487
0.0666104
0.0666275
0.0665633
0.0664261
0.066257
0.0660687
0.0658688
0.0656597
0.0654518
0.0652568
0.0651046
0.0649813
0.0649042
0.0648527
0.0649084
0.0650012
0.0652125
0.0655704
0.0662103
0.0673898
0.0693384
0.0716551
0.0709795
0.0659655
0.0620182
0.0460967
0.00557165
2.06046e-07
2.73842e-12
1.07219e-13
4.51138e-14
3.98146e-11
1.24065e-11
3.65594e-10
4.28826e-11
2.04343e-12
7.01725e-11
8.47385e-13
9.44382e-16
9.99631e-22
6.87562e-29
5.25436e-37
5.53135e-47
7.50791e-08
3.5602e-05
0.000866183
0.00502454
0.0138966
0.0255394
0.0369672
0.0463254
0.0531274
0.0576967
0.0606015
0.0624472
0.063778
0.0648617
0.0656723
0.0661826
0.0664659
0.0665891
0.0665974
0.0665367
0.0664074
0.066229
0.0660355
0.065831
0.0656307
0.0654234
0.0652256
0.0650624
0.0649371
0.0648471
0.0647941
0.0648123
0.0648858
0.0650793
0.0653589
0.0658946
0.0668157
0.0684562
0.070762
0.0717893
0.0680413
0.0636155
0.0560486
0.0221895
5.28994e-05
3.59271e-13
5.23722e-13
4.34748e-15
6.25676e-12
7.58534e-12
7.66831e-14
1.19506e-09
1.29263e-10
1.46461e-10
5.24885e-10
2.81133e-13
3.04234e-18
3.3965e-24
9.7145e-32
2.3866e-40
7.06531e-51
7.50715e-08
3.57165e-05
0.000869683
0.00503754
0.0139068
0.0255181
0.0369243
0.046276
0.0530929
0.0576798
0.0606002
0.0624497
0.063775
0.0648499
0.0656554
0.066167
0.0664533
0.066574
0.0665772
0.0665071
0.0663821
0.0662097
0.0660092
0.0657984
0.0655942
0.0653952
0.0652011
0.065026
0.0648824
0.0647825
0.0647218
0.0647294
0.0647962
0.0649478
0.0652163
0.0656327
0.0663695
0.0677136
0.0698184
0.0718228
0.0699323
0.0649311
0.0607285
0.0404298
0.00256843
1.15435e-08
2.98267e-12
8.5168e-14
3.35045e-11
1.36259e-13
2.64169e-11
9.2645e-12
1.68194e-09
2.49718e-10
3.49212e-11
1.35337e-10
2.61511e-15
3.13038e-20
6.07737e-27
4.93888e-35
7.62258e-44
1.25803e-54
7.48524e-08
3.5746e-05
0.000872679
0.00505634
0.0139394
0.0255378
0.036908
0.0462423
0.0530574
0.0576575
0.0605898
0.0624481
0.0637759
0.0648442
0.0656376
0.0661523
0.0664327
0.0665585
0.0665639
0.0664827
0.066353
0.0661832
0.0659869
0.0657764
0.06556
0.065361
0.0651715
0.0649893
0.0648407
0.06472
0.0646589
0.0646523
0.0647183
0.0648401
0.0650661
0.0653936
0.0660068
0.0670872
0.0689049
0.07122
0.0713256
0.0667545
0.0627117
0.0525107
0.0149141
8.14743e-06
6.28486e-16
2.5325e-13
2.10398e-11
1.47952e-10
2.38255e-12
1.12169e-12
6.52851e-10
4.86019e-11
1.54701e-13
5.6309e-11
9.43171e-13
9.15124e-17
1.92739e-22
4.81543e-30
8.64112e-39
1.1928e-47
1.15145e-58
7.44003e-08
3.56811e-05
0.000873929
0.0050723
0.0139831
0.0255868
0.0369344
0.0462319
0.0530339
0.0576327
0.0605767
0.0624396
0.0637758
0.0648413
0.0656282
0.0661317
0.0664157
0.0665372
0.0665454
0.0664632
0.0663254
0.0661549
0.0659617
0.0657533
0.0655371
0.0653256
0.0651312
0.0649641
0.0648067
0.0646749
0.0646172
0.0645963
0.0646385
0.0647187
0.0649305
0.06521
0.0657122
0.0665797
0.06812
0.070322
0.0717445
0.0687074
0.0640286
0.0588008
0.0330978
0.000825222
5.70762e-11
4.62403e-13
3.60762e-12
7.05756e-11
6.24361e-11
2.72576e-11
4.53107e-15
1.5703e-09
3.43937e-10
5.47223e-10
1.5894e-09
3.21866e-13
3.90836e-18
1.99526e-25
1.81283e-33
4.77154e-43
3.45712e-51
7.02326e-65
7.3694e-08
3.55213e-05
0.000873297
0.00508084
0.0140206
0.025651
0.0369874
0.046257
0.053026
0.0576181
0.0605581
0.0624301
0.0637658
0.0648401
0.0656208
0.0661145
0.0663979
0.0665153
0.0665249
0.0664444
0.0663035
0.0661278
0.0659357
0.0657304
0.0655141
0.0652967
0.0650953
0.0649238
0.0647739
0.0646531
0.0645502
0.0645202
0.0645564
0.0646442
0.0647869
0.0650513
0.0654703
0.0661809
0.067435
0.0694211
0.0714919
0.0703078
0.065383
0.0616255
0.04747
0.00814725
7.32974e-07
5.00288e-13
1.11997e-18
3.6049e-11
1.72597e-11
8.52227e-12
2.56555e-11
8.3639e-11
3.83762e-11
3.221e-11
7.94653e-11
5.68887e-11
3.06748e-15
3.79364e-21
6.89156e-29
3.06457e-37
9.65142e-49
2.63134e-54
5.08692e-62
7.28048e-08
3.52479e-05
0.000870727
0.0050804
0.0140424
0.0257053
0.0370574
0.0463046
0.0530462
0.0576132
0.0605481
0.0624162
0.0637533
0.0648315
0.0656167
0.0661058
0.0663781
0.0664977
0.066506
0.0664287
0.0662874
0.0661079
0.0659051
0.0657018
0.0654872
0.065273
0.065063
0.0648713
0.0647416
0.0646089
0.0645037
0.0644528
0.0644495
0.0645412
0.0646859
0.0648985
0.0652608
0.0658466
0.066846
0.0685501
0.0707385
0.0712225
0.0672001
0.0630577
0.0558342
0.024298
0.000142896
2.22567e-12
1.28957e-14
8.65474e-12
5.53115e-12
5.7691e-13
5.69565e-13
6.39968e-13
5.84463e-10
6.99779e-11
1.22169e-10
5.88722e-09
1.05177e-12
6.66396e-18
2.71145e-24
9.43978e-33
3.02341e-41
2.32233e-55
3.95902e-61
3.24644e-70
7.18044e-08
3.49033e-05
0.000865785
0.0050712
0.0140454
0.0257381
0.0371164
0.0463671
0.0530831
0.0576269
0.0605425
0.062403
0.0637458
0.0648188
0.0656105
0.0660963
0.066365
0.0664759
0.0664787
0.0664092
0.0662729
0.0660933
0.0658838
0.0656659
0.0654589
0.065246
0.0650414
0.0648368
0.0646817
0.0645643
0.0644711
0.0644048
0.0643886
0.0644473
0.0645706
0.0647801
0.0650659
0.0655562
0.0663987
0.0677981
0.0698259
0.0712994
0.068889
0.0642717
0.0600713
0.0404999
0.00325953
2.70933e-08
3.79293e-13
1.33683e-11
1.30691e-11
1.32455e-15
9.00129e-14
9.04573e-14
7.63044e-13
1.36224e-09
1.50907e-10
2.73768e-09
9.51468e-10
3.16885e-16
4.0227e-19
9.48296e-28
2.52242e-37
9.77211e-45
4.63752e-54
2.30687e-60
1.50051e-61
7.0795e-08
3.45085e-05
0.000859381
0.0050511
0.0140306
0.0257468
0.0371541
0.0464196
0.0531308
0.0576496
0.0605508
0.0623972
0.0637317
0.0648077
0.065603
0.0660878
0.0663505
0.0664568
0.0664523
0.0663786
0.0662511
0.0660754
0.0658683
0.0656403
0.065423
0.0652152
0.0650172
0.0648146
0.0646515
0.0645202
0.0644137
0.0643685
0.0643447
0.0643773
0.0644953
0.0646587
0.0649186
0.0653287
0.0659919
0.0671721
0.0689677
0.0708821
0.0701608
0.065721
0.0620386
0.0514581
0.014951
1.35127e-05
1.59911e-12
2.15919e-11
4.61319e-11
1.13414e-12
2.11197e-14
8.07327e-13
2.19423e-14
3.15051e-10
4.29151e-09
6.34326e-11
1.20115e-08
9.59595e-12
2.06984e-17
2.73747e-23
1.31012e-31
3.39091e-43
2.64552e-48
1.10171e-54
2.46522e-58
8.74196e-66
6.98135e-08
3.41014e-05
0.000851945
0.00502413
0.013993
0.0257315
0.0371665
0.0464555
0.0531722
0.0576816
0.0605636
0.0623967
0.0637227
0.0647993
0.0655878
0.0660838
0.0663405
0.0664434
0.066435
0.0663524
0.0662232
0.0660567
0.0658503
0.0656238
0.0653931
0.0651801
0.064982
0.0647993
0.0646269
0.064481
0.0643781
0.0643223
0.0643058
0.0643198
0.0644015
0.064553
0.0647988
0.0651405
0.0656991
0.0666605
0.0682008
0.0701833
0.0708522
0.0674058
0.063283
0.0575609
0.0313704
0.000776138
1.40248e-09
8.51049e-12
7.76685e-11
7.4278e-12
9.07447e-15
2.74801e-15
4.30815e-13
1.91967e-14
1.21092e-12
1.11358e-10
3.86744e-10
6.10051e-09
9.45916e-14
7.89298e-19
5.78991e-27
9.18257e-36
8.27568e-46
5.49421e-51
8.50409e-57
4.01844e-62
1.27949e-64
6.8912e-08
3.37036e-05
0.000844156
0.00499229
0.0139412
0.0256861
0.0371557
0.0464682
0.0531992
0.0577099
0.0605821
0.0624015
0.0637159
0.0647826
0.0655774
0.066073
0.066338
0.0664357
0.0664231
0.0663361
0.0661965
0.0660279
0.0658292
0.0656079
0.0653754
0.06515
0.0649454
0.0647676
0.0645943
0.0644545
0.0643079
0.0642595
0.0642368
0.0642656
0.0643166
0.0644392
0.0646673
0.06499
0.065438
0.0662385
0.0675665
0.0694868
0.0709864
0.0689069
0.0644012
0.0606492
0.0449539
0.00685389
7.99746e-07
1.40132e-12
1.07743e-10
2.91121e-11
2.51513e-13
9.99648e-14
4.10991e-15
2.93079e-13
4.92897e-10
1.74015e-08
3.65949e-10
3.78854e-09
1.40744e-10
1.16154e-17
1.46871e-22
2.81994e-31
9.38621e-39
1.20551e-53
6.21992e-59
3.63952e-62
6.76857e-61
2.85668e-62
6.81253e-08
3.33379e-05
0.000836455
0.00495844
0.0138777
0.0256222
0.037113
0.0464617
0.0532102
0.0577302
0.0605991
0.0624122
0.0637138
0.0647765
0.0655632
0.0660602
0.0663307
0.0664325
0.066413
0.0663184
0.0661724
0.0659975
0.0658029
0.065588
0.0653627
0.0651305
0.0649151
0.06472
0.0645642
0.064413
0.0642881
0.0641956
0.0641633
0.0641934
0.0642492
0.0643682
0.0645406
0.0648397
0.0652432
0.0659005
0.0669993
0.0687815
0.0707448
0.070158
0.065843
0.0621959
0.0535644
0.0205778
7.91431e-05
4.54162e-10
5.41543e-11
3.81528e-11
1.65227e-15
1.11133e-12
1.46312e-14
6.51166e-13
1.58924e-12
1.07819e-10
4.96238e-10
1.51702e-09
1.83981e-08
1.76418e-15
1.62256e-19
2.91153e-26
2.25001e-36
4.6971e-42
4.20448e-51
2.70184e-56
1.08851e-57
1.11098e-60
6.55282e-72
6.7483e-08
3.30158e-05
0.000829291
0.00492462
0.0138102
0.025541
0.0370498
0.0464278
0.053208
0.0577377
0.0606139
0.062422
0.063721
0.064774
0.0655521
0.0660473
0.0663197
0.0664244
0.0664087
0.066306
0.0661497
0.0659656
0.0657704
0.0655639
0.0653463
0.0651163
0.0648907
0.0646823
0.0645109
0.0643805
0.0642706
0.0641662
0.0641323
0.0641377
0.0642009
0.064293
0.0644755
0.0647073
0.0650589
0.0656274
0.0665856
0.068121
0.0701995
0.0708643
0.0674577
0.0633424
0.0583662
0.0356935
0.00195619
4.46983e-08
2.75289e-11
4.05688e-11
3.44038e-13
7.0803e-13
1.03005e-12
7.19621e-14
1.45135e-11
1.49436e-10
1.64127e-08
1.09372e-09
6.99242e-10
5.01643e-10
1.21129e-15
9.18628e-22
1.48978e-30
2.48672e-39
2.35613e-45
3.76471e-52
8.17716e-59
5.49336e-58
5.21218e-67
1.2662e-63
6.69709e-08
3.27494e-05
0.000822937
0.00489299
0.0137421
0.0254532
0.0369708
0.0463755
0.0531834
0.0577385
0.0606204
0.0624317
0.063726
0.064774
0.0655446
0.0660329
0.0663059
0.0664148
0.0663987
0.0663011
0.0661412
0.0659448
0.0657408
0.0655296
0.0653212
0.0651024
0.064877
0.0646716
0.0644768
0.0643357
0.0642227
0.0641377
0.0640747
0.0640833
0.0641232
0.0642334
0.0643964
0.0645897
0.0648897
0.0653976
0.0662124
0.0675531
0.0695579
0.0710182
0.0689143
0.0644089
0.060862
0.0472413
0.0100287
4.25425e-06
1.25852e-10
4.92343e-11
2.40146e-13
1.4815e-15
5.21847e-14
3.62233e-15
1.17727e-13
3.84523e-13
1.26528e-09
4.78711e-12
3.05205e-10
3.24419e-08
4.02033e-12
4.15421e-18
6.86451e-26
3.58074e-34
1.30141e-43
8.48037e-48
1.14925e-54
9.70867e-57
1.92763e-61
6.88217e-62
2.43519e-68
6.66018e-08
3.25359e-05
0.000817667
0.00486473
0.0136779
0.0253639
0.0368849
0.046311
0.0531462
0.057722
0.0606201
0.0624357
0.0637313
0.0647753
0.0655374
0.066018
0.0662903
0.0664025
0.0663911
0.0662941
0.0661393
0.0659375
0.0657179
0.0655006
0.0652839
0.0650775
0.0648618
0.0646521
0.064463
0.064312
0.064198
0.0641117
0.0640532
0.0640374
0.0640452
0.0641399
0.0643106
0.0645179
0.0647677
0.0651734
0.0658789
0.067064
0.0689005
0.0708495
0.0701047
0.0657952
0.0621954
0.0544949
0.0239925
0.000232729
5.29223e-09
8.99229e-11
3.73892e-12
9.59349e-16
1.5405e-13
1.45344e-13
1.12111e-14
1.94879e-13
4.10135e-11
1.05598e-08
1.30222e-09
4.34478e-11
1.36237e-09
4.58384e-15
1.53033e-21
4.64232e-30
1.76781e-37
1.35337e-48
5.08379e-51
1.70666e-59
1.60388e-59
3.56936e-59
7.29764e-68
1.67692e-70
6.62855e-08
3.23792e-05
0.000813452