# Wall heat-flux
# Time        	patch         	min           	max           	integral      
0             	base	-3.537443e+06	-2.469475e+04	-9.355423e+03
