# y+ ()       
# Time        	patch         	min           	max           	average       
3600          	base	1.981225e-02	6.346817e-01	2.552690e-01
