# p  FACE_DATA 398
# x  y  z  p
-0.7975 0 0.025 4472.49
-0.79239 0 0.025 3685.53
-0.787056 0 0.025 2929.72
-0.781492 0 0.025 2846.17
-0.775691 0 0.025 2790.71
-0.769649 0 0.025 2784.64
-0.763362 0 0.025 2810.82
-0.756822 0 0.025 2831.15
-0.750025 0 0.025 2848.77
-0.742968 0 0.025 2854.59
-0.735648 0 0.025 2859.36
-0.72806 0 0.025 2861.19
-0.720203 0 0.025 2861.16
-0.712076 0 0.025 2859.78
-0.703677 0 0.025 2859
-0.695006 0 0.025 2858.89
-0.686065 0 0.025 2856.28
-0.676855 0 0.025 2852.27
-0.667379 0 0.025 2849.91
-0.65764 0 0.025 2850.61
-0.647644 0 0.025 2846.81
-0.637397 0 0.025 2842.58
-0.626906 0 0.025 2842.65
-0.616179 0 0.025 2838.87
-0.605224 0 0.025 2837.01
-0.594054 0 0.025 2833.98
-0.582678 0 0.025 2831.85
-0.57111 0 0.025 2829.4
-0.559364 0 0.025 2828.58
-0.547454 0 0.025 2825.87
-0.535396 0 0.025 2823.76
-0.523205 0 0.025 2821.48
-0.510901 0 0.025 2818.77
-0.4985 0 0.025 2818.1
-0.486021 0 0.025 2817.02
-0.473483 0 0.025 2814.99
-0.460905 0 0.025 2813.26
-0.448308 0 0.025 2811.63
-0.435709 0 0.025 2809.37
-0.42313 0 0.025 2808.23
-0.41059 0 0.025 2807.75
-0.39811 0 0.025 2806.96
-0.385706 0 0.025 2805.6
-0.373398 0 0.025 2804.53
-0.361205 0 0.025 2803.24
-0.349141 0 0.025 2800.95
-0.337226 0 0.025 2799.02
-0.325475 0 0.025 2797.91
-0.313901 0 0.025 2798.66
-0.30252 0 0.025 2799.49
-0.291343 0 0.025 2799.4
-0.280382 0 0.025 2797.81
-0.269646 0 0.025 2796.08
-0.259148 0 0.025 2794.33
-0.248893 0 0.025 2792.88
-0.23889 0 0.025 2791.64
-0.229143 0 0.025 2790.99
-0.219659 0 0.025 2790.67
-0.210441 0 0.025 2790.35
-0.201491 0 0.025 2789.62
-0.192812 0 0.025 2788.98
-0.184405 0 0.025 2788.35
-0.176269 0 0.025 2788.02
-0.168404 0 0.025 2787.54
-0.160808 0 0.025 2787.24
-0.15348 0 0.025 2787.01
-0.146415 0 0.025 2787.15
-0.13961 0 0.025 2787.39
-0.133063 0 0.025 2787.8
-0.126767 0 0.025 2788.02
-0.120718 0 0.025 2788.07
-0.11491 0 0.025 2787.78
-0.109339 0 0.025 2787.3
-0.103997 0 0.025 2786.66
-0.0988805 0 0.025 2785.96
-0.0939808 0 0.025 2785.2
-0.0892928 0 0.025 2784.41
-0.0848096 0 0.025 2783.57
-0.0805248 0 0.025 2782.72
-0.0764316 0 0.025 2781.88
-0.0725237 0 0.025 2781.08
-0.0687943 0 0.025 2780.36
-0.065237 0 0.025 2779.7
-0.0618454 0 0.025 2779.09
-0.058613 0 0.025 2778.58
-0.0555337 0 0.025 2778.19
-0.0526013 0 0.025 2777.9
-0.0498099 0 0.025 2777.72
-0.0471536 0 0.025 2777.61
-0.0446266 0 0.025 2777.58
-0.0422235 0 0.025 2777.59
-0.039939 0 0.025 2777.63
-0.0377676 0 0.025 2777.65
-0.0357044 0 0.025 2777.82
-0.0337445 0 0.025 2777.77
-0.0318832 0 0.025 2799.03
-0.0301159 0 0.025 3185.73
-0.0284383 0 0.025 4571.68
-0.0268461 0 0.025 6108.52
-0.0253353 0 0.025 7192.77
-0.023902 0 0.025 7951.2
-0.0225426 0 0.025 8507.46
-0.0212532 0 0.025 8963.83
-0.0200306 0 0.025 9345.52
-0.0188715 0 0.025 9665.19
-0.0177728 0 0.025 9939.34
-0.0167313 0 0.025 10182.9
-0.0157444 0 0.025 10400.1
-0.0148092 0 0.025 10597.6
-0.0139232 0 0.025 10779.3
-0.0130838 0 0.025 10947
-0.0122887 0 0.025 11102.5
-0.0115356 0 0.025 11247
-0.0108223 0 0.025 11381.1
-0.0101469 0 0.025 11505.1
-0.00950727 0 0.025 11619.1
-0.00890168 0 0.025 11723
-0.00832835 0 0.025 11817.2
-0.00778557 0 0.025 11902
-0.00727176 0 0.025 11978.3
-0.0067854 0 0.025 12047
-0.00632507 0 0.025 12109.3
-0.00588937 0 0.025 12166.9
-0.00547703 0 0.025 12221.3
-0.0050868 0 0.025 12274.3
-0.00471753 0 0.025 12327.5
-0.0043681 0 0.025 12382.5
-0.00403746 0 0.025 12441.5
-0.00372461 0 0.025 12504.7
-0.0034286 0 0.025 12573.1
-0.00314855 0 0.025 12647.2
-0.0028836 0 0.025 12729.9
-0.00263294 0 0.025 12821.9
-0.00239581 0 0.025 12915
-0.0021715 0 0.025 13014.4
-0.00195929 0 0.025 13118.9
-0.00175856 0 0.025 13227.7
-0.00156869 0 0.025 13339.7
-0.00138908 0 0.025 13454
-0.0012192 0 0.025 13569.3
-0.00105853 0 0.025 13684.4
-0.000906546 0 0.025 13797.3
-0.000762803 0 0.025 13905.1
-0.000626848 0 0.025 14003.9
-0.000498265 0 0.025 14087.6
-0.000376656 0 0.025 14147.9
-0.000261642 0 0.025 14178.6
-0.00015287 0 0.025 14183.4
-5e-05 0 0.025 14276.8
4.14519e-05 2.79596e-05 0.025 13845.6
0.000125371 8.45641e-05 0.025 13948.5
0.000211347 0.000142556 0.025 13913
0.000299429 0.000201968 0.025 13842.9
0.000389669 0.000262835 0.025 13761.1
0.000482118 0.000325193 0.025 13677.9
0.000576831 0.000389077 0.025 13598.9
0.000673861 0.000454524 0.025 13527.6
0.000773265 0.000521574 0.025 13466.7
0.0008751 0.000590262 0.025 13417.8
0.000979426 0.000660632 0.025 13381.4
0.0010863 0.000732721 0.025 13358.3
0.00119579 0.000806572 0.025 13345
0.00130795 0.000882227 0.025 13345.5
0.00142285 0.00095973 0.025 13357.9
0.00154056 0.00103912 0.025 13380.2
0.00166115 0.00112046 0.025 13412.8
0.00178467 0.00120378 0.025 13455.5
0.00191121 0.00128913 0.025 13507.5
0.00204083 0.00137656 0.025 13569
0.00217362 0.00146612 0.025 13639.5
0.00230964 0.00155787 0.025 13718.2
0.00244897 0.00165185 0.025 13805.5
0.00259169 0.00174812 0.025 13902.1
0.00273789 0.00184673 0.025 14005.9
0.00288765 0.00194774 0.025 14118.3
0.00304105 0.00205122 0.025 14238.9
0.00319818 0.00215719 0.025 14368.2
0.00335912 0.00226575 0.025 14505.7
0.00352397 0.00237695 0.025 14652
0.00369283 0.00249085 0.025 14807.3
0.00386579 0.00260751 0.025 14971.8
0.00404294 0.00272699 0.025 15145.9
0.00422438 0.00284938 0.025 15330
0.00441022 0.00297474 0.025 15524.4
0.00460056 0.00310312 0.025 15729.8
0.00479552 0.00323462 0.025 15947
0.00499519 0.0033693 0.025 16176.3
0.00519968 0.00350723 0.025 16419
0.00540911 0.00364849 0.025 16675.3
0.00562361 0.00379318 0.025 16946.6
0.00584329 0.00394134 0.025 17233.8
0.00606826 0.00409309 0.025 17538.3
0.00629865 0.00424849 0.025 17860.8
0.0065346 0.00440764 0.025 18203.1
0.00677623 0.00457063 0.025 18566.1
0.00702368 0.00473753 0.025 18952.1
0.00727707 0.00490844 0.025 19362
0.00753655 0.00508347 0.025 19798.2
0.00780227 0.00526269 0.025 20262.5
0.00807436 0.00544622 0.025 20756.7
0.00835298 0.00563415 0.025 21284.4
0.00863826 0.00582659 0.025 21847
0.00893038 0.00602362 0.025 22448.2
0.00922949 0.00622537 0.025 23090.5
0.00953574 0.00643195 0.025 23777.7
0.00984929 0.00664345 0.025 24512.2
0.0101703 0.00686 0.025 25299.7
0.0104991 0.00708171 0.025 26141.9
0.0108356 0.00730871 0.025 27044.1
0.0111801 0.0075411 0.025 28012.1
0.0115329 0.00777902 0.025 29050.9
0.011894 0.00802259 0.025 30166.8
0.0122637 0.00827194 0.025 31368.2
0.0126421 0.00852719 0.025 32661.8
0.0130295 0.0087885 0.025 34061.6
0.013426 0.00905597 0.025 35575.4
0.013832 0.00932978 0.025 37214
0.0142475 0.00961003 0.025 38997.8
0.0146727 0.0098969 0.025 40936.9
0.0151081 0.0101905 0.025 43044.3
0.0155536 0.010491 0.025 45335.4
0.0160097 0.0107986 0.025 47830.4
0.0164764 0.0111134 0.025 50539.4
0.016954 0.0114356 0.025 53486.4
0.0174427 0.0117653 0.025 56685.6
0.0179429 0.0121026 0.025 60157.6
0.0184548 0.0124479 0.025 63906.9
0.0189786 0.0128013 0.025 67961.8
0.0195146 0.0131628 0.025 72354
0.020063 0.0135327 0.025 77105
0.0206242 0.0139112 0.025 82273.9
0.0211983 0.0142984 0.025 87917.2
0.0217857 0.0146947 0.025 94074.1
0.0223867 0.0151 0.025 100812
0.0230015 0.0155147 0.025 108105
0.0236304 0.0159389 0.025 115962
0.0242738 0.0163729 0.025 124432
0.0249318 0.0168167 0.025 133573
0.025605 0.0172708 0.025 143301
0.0262935 0.0177352 0.025 153113
0.0269977 0.0182102 0.025 162466
0.0277178 0.0186959 0.025 170063
0.0284544 0.0191927 0.025 174885
0.0292075 0.0197008 0.025 175948
0.0299777 0.0202203 0.025 176705
0.0307653 0.0207514 0.025 171473
0.0315704 0.0212945 0.025 167049
0.0323937 0.0218499 0.025 162756
0.0332354 0.0224176 0.025 158365
0.0340959 0.022998 0.025 153873
0.0349755 0.0235913 0.025 149309
0.0358747 0.0241978 0.025 145001
0.0367938 0.0248178 0.025 141090
0.0377331 0.0254513 0.025 137802
0.0386932 0.0260989 0.025 135045
0.0396743 0.0267606 0.025 132702
0.0406769 0.0274369 0.025 130777
0.0417013 0.0281279 0.025 129382
0.042748 0.0288339 0.025 128390
0.0438175 0.0295552 0.025 127482
0.04491 0.0302922 0.025 126688
0.0460262 0.031045 0.025 126303
0.0471662 0.031814 0.025 126222
0.0483306 0.0325995 0.025 126081
0.0495199 0.0334016 0.025 125831
0.0507344 0.0342208 0.025 125622
0.0519746 0.0350573 0.025 126135
0.0532409 0.0359114 0.025 126883
0.0545339 0.0367835 0.025 127002
0.0558538 0.0376739 0.025 126899
0.0572012 0.0385827 0.025 126715
0.0585766 0.0395104 0.025 126833
0.0599804 0.0404573 0.025 127256
0.061413 0.0414236 0.025 127435
0.0628748 0.0424096 0.025 127312
0.0643665 0.0434157 0.025 127130
0.0658883 0.0444422 0.025 127525
0.0674408 0.0454894 0.025 128178
0.0690245 0.0465576 0.025 128602
0.0706398 0.0476471 0.025 128669
0.0722871 0.0487582 0.025 128374
0.0739669 0.0498912 0.025 127884
0.0756797 0.0510466 0.025 128009
0.0774258 0.0522244 0.025 128367
0.0792059 0.053425 0.025 128962
0.0810203 0.0546489 0.025 129421
0.0828694 0.0558961 0.025 129610
0.0847537 0.0571671 0.025 129740
0.0866737 0.0584622 0.025 129821
0.0886298 0.0597816 0.025 129892
0.0906224 0.0611256 0.025 130168
0.0926518 0.0624944 0.025 130397
0.0947185 0.0638884 0.025 130517
0.096823 0.065308 0.025 130429
0.0989659 0.0667532 0.025 129993
0.101147 0.0682245 0.025 129128
0.103367 0.0697219 0.025 128388
0.105626 0.0712458 0.025 128061
0.107926 0.0727965 0.025 127902
0.110265 0.074374 0.025 128417
0.112644 0.0759789 0.025 128838
0.115063 0.0776111 0.025 129675
0.117524 0.0792709 0.025 130033
0.120026 0.0809585 0.025 130258
0.122569 0.0826741 0.025 130330
0.125155 0.0844179 0.025 130188
0.127782 0.0861901 0.025 129866
0.130451 0.0879908 0.025 129116
0.133163 0.08982 0.025 128650
0.135918 0.0916781 0.025 128299
0.138716 0.0935651 0.025 128635
0.141556 0.095481 0.025 129231
0.14444 0.097426 0.025 129686
0.147367 0.0994004 0.025 129452
0.150337 0.101404 0.025 129592
0.153351 0.103437 0.025 128794
0.156408 0.105498 0.025 127464
0.159508 0.107589 0.025 127796
0.162651 0.10971 0.025 127088
0.165838 0.111859 0.025 125661
0.169069 0.114039 0.025 126638
0.172343 0.116247 0.025 125732
0.175659 0.118483 0.025 125298
0.179018 0.120749 0.025 124516
0.182421 0.123045 0.025 123454
0.185866 0.125368 0.025 122880
0.189353 0.12772 0.025 122322
0.192882 0.1301 0.025 122064
0.196453 0.132509 0.025 122124
0.200065 0.134946 0.025 121876
0.203718 0.13741 0.025 121766
0.207412 0.139901 0.025 121914
0.211146 0.14242 0.025 121347
0.214919 0.144965 0.025 120789
0.218732 0.147537 0.025 121539
0.222583 0.150134 0.025 121512
0.226472 0.152757 0.025 122606
0.230399 0.155406 0.025 122365
0.234362 0.15808 0.025 122126
0.238362 0.160777 0.025 121165
0.242396 0.163498 0.025 120758
0.246466 0.166244 0.025 120204
0.250569 0.169012 0.025 120952
0.254706 0.171801 0.025 120457
0.258874 0.174613 0.025 120821
0.263074 0.177446 0.025 120563
0.267304 0.180299 0.025 121028
0.271564 0.183172 0.025 121392
0.275852 0.186064 0.025 120935
0.280168 0.188975 0.025 121374
0.28451 0.191904 0.025 121151
0.288876 0.19485 0.025 120948
0.293268 0.197812 0.025 121642
0.297683 0.20079 0.025 121075
0.302119 0.203782 0.025 120914
0.306577 0.206788 0.025 121396
0.311054 0.209808 0.025 120744
0.315549 0.212841 0.025 121007
0.320063 0.215885 0.025 120202
0.324591 0.218939 0.025 120586
0.329134 0.222003 0.025 120661
0.333691 0.225077 0.025 120349
0.33826 0.228159 0.025 120829
0.342839 0.231248 0.025 120963
0.347428 0.234343 0.025 121910
0.352025 0.237444 0.025 121064
0.356628 0.240548 0.025 121414
0.361237 0.243658 0.025 121640
0.36585 0.246769 0.025 120747
0.370465 0.249882 0.025 121776
0.375082 0.252996 0.025 121064
0.379698 0.25611 0.025 120717
0.384313 0.259223 0.025 121311
0.388926 0.262333 0.025 120755
0.393534 0.265442 0.025 121022
0.398136 0.268546 0.025 121229
0.40273 0.271645 0.025 120548
0.407317 0.274739 0.025 120347
0.411894 0.277826 0.025 119817
0.41646 0.280906 0.025 120691
0.421014 0.283977 0.025 120005
0.425554 0.28704 0.025 119807
0.430079 0.290092 0.025 120157
0.434588 0.293133 0.025 120236
0.439079 0.296162 0.025 121119
0.443551 0.299179 0.025 121347
0.448004 0.302183 0.025 121753
0.452437 0.305172 0.025 122227
0.456846 0.308146 0.025 122680
0.461232 0.311105 0.025 122664
0.465593 0.314047 0.025 122671
0.469929 0.316971 0.025 122232
0.474238 0.319878 0.025 122930
0.47852 0.322766 0.025 122309
0.482773 0.325635 0.025 121989
0.486996 0.328483 0.025 121244
0.491189 0.331311 0.025 120303
0.49535 0.334118 0.025 120887
