# p  FACE_DATA 398
# x  y  z  p
-0.7975 -7.61524e-06 0 1136.76
-0.79239 -7.61524e-06 0 893.87
-0.787056 -7.61524e-06 0 734.943
-0.781492 -7.61524e-06 0 707.192
-0.775691 -7.61524e-06 0 674.34
-0.769649 -7.61524e-06 0 653.875
-0.763361 -7.61524e-06 0 643.11
-0.756822 -7.61524e-06 0 635.567
-0.750025 -7.61524e-06 0 629.146
-0.742968 -7.61524e-06 0 619.286
-0.735648 -7.61524e-06 0 613.592
-0.72806 -7.61524e-06 0 603.723
-0.720203 -7.61524e-06 0 602.041
-0.712075 -7.61524e-06 0 604.369
-0.703676 -7.61524e-06 0 607.283
-0.695006 -7.61524e-06 0 610.235
-0.686065 -7.61524e-06 0 612.668
-0.676855 -7.61524e-06 0 614.108
-0.667379 -7.61524e-06 0 614.641
-0.657641 -7.61524e-06 0 614.935
-0.647644 -7.61524e-06 0 615.24
-0.637398 -7.61524e-06 0 614.989
-0.626906 -7.61524e-06 0 614.431
-0.616179 -7.61524e-06 0 613.919
-0.605225 -7.61524e-06 0 613.159
-0.594054 -7.61524e-06 0 612.276
-0.582677 -7.61524e-06 0 611.526
-0.57111 -7.61524e-06 0 610.941
-0.559364 -7.61524e-06 0 610.084
-0.547454 -7.61524e-06 0 609.055
-0.535396 -7.61524e-06 0 608.06
-0.523205 -7.61524e-06 0 607.201
-0.510901 -7.61524e-06 0 606.235
-0.498499 -7.61524e-06 0 605.287
-0.486021 -7.61524e-06 0 604.654
-0.473482 -7.61524e-06 0 604.338
-0.460905 -7.61524e-06 0 603.707
-0.448307 -7.61524e-06 0 602.74
-0.435709 -7.61524e-06 0 601.725
-0.42313 -7.61524e-06 0 601.165
-0.41059 -7.61524e-06 0 601.213
-0.39811 -7.61524e-06 0 601.191
-0.385706 -7.61524e-06 0 600.553
-0.373398 -7.61524e-06 0 599.508
-0.361205 -7.61524e-06 0 598.408
-0.349142 -7.61524e-06 0 597.752
-0.337226 -7.61524e-06 0 597.709
-0.325475 -7.61524e-06 0 598.187
-0.313901 -7.61524e-06 0 598.326
-0.30252 -7.61524e-06 0 597.731
-0.291343 -7.61524e-06 0 596.445
-0.280381 -7.61524e-06 0 595.037
-0.269647 -7.61524e-06 0 593.775
-0.259148 -7.61524e-06 0 592.929
-0.248893 -7.61524e-06 0 592.625
-0.23889 -7.61524e-06 0 593.155
-0.229143 -7.61524e-06 0 593.852
-0.219659 -7.61524e-06 0 594.482
-0.210441 -7.61524e-06 0 594.969
-0.201491 -7.61524e-06 0 595.189
-0.192812 -7.61524e-06 0 595.227
-0.184405 -7.61524e-06 0 594.823
-0.176269 -7.61524e-06 0 594.214
-0.168404 -7.61524e-06 0 593.423
-0.160809 -7.61524e-06 0 592.498
-0.15348 -7.61524e-06 0 591.55
-0.146415 -7.61524e-06 0 590.671
-0.13961 -7.61524e-06 0 589.88
-0.133063 -7.61524e-06 0 589.22
-0.126767 -7.61524e-06 0 588.714
-0.120717 -7.61524e-06 0 588.377
-0.11491 -7.61524e-06 0 588.21
-0.109339 -7.61524e-06 0 588.165
-0.103997 -7.61524e-06 0 588.303
-0.0988804 -7.61524e-06 0 588.561
-0.0939809 -7.61524e-06 0 588.885
-0.0892928 -7.61524e-06 0 589.232
-0.0848096 -7.61524e-06 0 589.563
-0.0805248 -7.61524e-06 0 589.866
-0.0764317 -7.61524e-06 0 590.135
-0.0725237 -7.61524e-06 0 590.367
-0.0687943 -7.61524e-06 0 590.577
-0.065237 -7.61524e-06 0 590.749
-0.0618454 -7.61524e-06 0 590.882
-0.058613 -7.61524e-06 0 590.982
-0.0555337 -7.61524e-06 0 591.039
-0.0526013 -7.61524e-06 0 591.087
-0.0498099 -7.61524e-06 0 591.238
-0.0471536 -7.61524e-06 0 603.221
-0.0446266 -7.61524e-06 0 742.933
-0.0422235 -7.61524e-06 0 1063.61
-0.0399389 -7.61524e-06 0 1268.38
-0.0377676 -7.61524e-06 0 1393.19
-0.0357044 -7.61524e-06 0 1478.55
-0.0337445 -7.61524e-06 0 1548.11
-0.0318832 -7.61524e-06 0 1606.08
-0.0301159 -7.61524e-06 0 1655.23
-0.0284383 -7.61524e-06 0 1697.82
-0.0268462 -7.61524e-06 0 1735.6
-0.0253353 -7.61524e-06 0 1769.37
-0.023902 -7.61524e-06 0 1799.67
-0.0225425 -7.61524e-06 0 1827.3
-0.0212532 -7.61524e-06 0 1852.43
-0.0200306 -7.61524e-06 0 1875.36
-0.0188715 -7.61524e-06 0 1896.28
-0.0177727 -7.61524e-06 0 1915.2
-0.0167313 -7.61524e-06 0 1932.21
-0.0157444 -7.61524e-06 0 1947.39
-0.0148093 -7.61524e-06 0 1960.71
-0.0139232 -7.61524e-06 0 1972.2
-0.0130838 -7.61524e-06 0 1981.98
-0.0122887 -7.61524e-06 0 1990.18
-0.0115355 -7.61524e-06 0 1996.94
-0.0108223 -7.61524e-06 0 2002.57
-0.0101469 -7.61524e-06 0 2007.17
-0.00950727 -7.61524e-06 0 2011.02
-0.00890169 -7.61524e-06 0 2014.34
-0.00832834 -7.61524e-06 0 2017.36
-0.00778557 -7.61524e-06 0 2020.29
-0.00727176 -7.61524e-06 0 2023.34
-0.00678541 -7.61524e-06 0 2026.73
-0.00632507 -7.61524e-06 0 2030.67
-0.00588937 -7.61524e-06 0 2035.34
-0.00547703 -7.61524e-06 0 2040.88
-0.00508681 -7.61524e-06 0 2047.44
-0.00471753 -7.61524e-06 0 2055.14
-0.0043681 -7.61524e-06 0 2064.14
-0.00403746 -7.61524e-06 0 2074.58
-0.00372461 -7.61524e-06 0 2086.54
-0.0034286 -7.61524e-06 0 2099.38
-0.00314855 -7.61524e-06 0 2113.66
-0.00288361 -7.61524e-06 0 2129.14
-0.00263295 -7.61524e-06 0 2145.76
-0.00239582 -7.61524e-06 0 2163.31
-0.00217149 -7.61524e-06 0 2181.39
-0.00195929 -7.61524e-06 0 2199.8
-0.00175856 -7.61524e-06 0 2218.44
-0.00156869 -7.61524e-06 0 2236.8
-0.00138908 -7.61524e-06 0 2254.49
-0.00121921 -7.61524e-06 0 2270.98
-0.00105853 -7.61524e-06 0 2285.7
-0.000906546 -7.61524e-06 0 2298.01
-0.000762803 -7.61524e-06 0 2307.28
-0.000626849 -7.61524e-06 0 2312.98
-0.000498266 -7.61524e-06 0 2315.12
-0.000376656 -7.61524e-06 0 2313.93
-0.000261642 -7.61524e-06 0 2310.04
-0.00015287 -7.61524e-06 0 2305.72
-5e-05 -7.61524e-06 0 2300.75
4.14596e-05 2.03453e-05 0 2285.96
0.000125379 7.69412e-05 0 2284.63
0.000211356 0.000134924 0 2279.63
0.000299438 0.000194328 0 2273.91
0.000389678 0.000255186 0 2267.13
0.000482128 0.000317535 0 2259.75
0.000576841 0.000381409 0 2251.86
0.000673871 0.000446848 0 2243.57
0.000773276 0.000513887 0 2235.01
0.000875112 0.000582565 0 2226.3
0.000979439 0.000652924 0 2217.61
0.00108632 0.000725003 0 2209.1
0.00119581 0.000798843 0 2200.93
0.00130797 0.000874487 0 2193.26
0.00142287 0.000951979 0 2186.24
0.00154058 0.00103136 0 2179.92
0.00166117 0.00111268 0 2174.51
0.00178469 0.00119599 0 2169.98
0.00191123 0.00128133 0 2166.47
0.00204085 0.00136875 0 2164.12
0.00217364 0.0014583 0 2162.6
0.00230966 0.00155003 0 2162.45
0.00244899 0.001644 0 2163.55
0.00259171 0.00174025 0 2165.75
0.00273791 0.00183885 0 2169.15
0.00288767 0.00193985 0 2173.85
0.00304108 0.0020433 0 2179.67
0.0031982 0.00214927 0 2186.61
0.00335915 0.00225781 0 2194.8
0.003524 0.002369 0 2204.17
0.00369286 0.00248287 0 2214.72
0.00386582 0.00259951 0 2226.47
0.00404297 0.00271899 0 2239.42
0.00422442 0.00284136 0 2253.55
0.00441026 0.00296669 0 2268.89
0.0046006 0.00309506 0 2285.45
0.00479556 0.00322653 0 2303.26
0.00499523 0.00336119 0 2322.29
0.00519972 0.00349911 0 2342.64
0.00540916 0.00364036 0 2364.32
0.00562366 0.00378501 0 2387.38
0.00584334 0.00393316 0 2411.83
0.00606831 0.00408489 0 2437.8
0.00629871 0.00424027 0 2465.28
0.00653466 0.0043994 0 2494.4
0.00677629 0.00456236 0 2525.21
0.00702374 0.00472923 0 2557.81
0.00727714 0.00490013 0 2592.28
0.00753663 0.00507513 0 2628.78
0.00780234 0.00525433 0 2667.39
0.00807444 0.00543783 0 2708.26
0.00835306 0.00562573 0 2751.56
0.00863835 0.00581814 0 2797.42
0.00893047 0.00601514 0 2846.05
0.00922958 0.00621687 0 2897.6
0.00953584 0.00642341 0 2952.35
0.00984939 0.00663489 0 3010.42
0.0101705 0.00685141 0 3072.24
0.0104992 0.00707309 0 3137.94
0.0108357 0.00730005 0 3207.75
0.0111802 0.00753241 0 3282.17
0.011533 0.0077703 0 3361.38
0.0118941 0.00801384 0 3445.82
0.0122638 0.00826316 0 3535.87
0.0126422 0.00851837 0 3631.83
0.0130296 0.00877964 0 3734.38
0.0134262 0.00904708 0 3843.79
0.0138321 0.00932084 0 3960.91
0.0142476 0.00960107 0 4086.12
0.0146729 0.00988792 0 4220.23
0.0151082 0.0101815 0 4364.04
0.0155538 0.0104819 0 4518.46
0.0160098 0.0107895 0 4684.22
0.0164766 0.0111042 0 4862.64
0.0169542 0.0114263 0 5055.01
0.0174429 0.011756 0 5262.35
0.0179431 0.0120934 0 5486.69
0.018455 0.0124386 0 5728.99
0.0189789 0.0127918 0 5991.05
0.0195149 0.0131533 0 6274.4
0.0200633 0.0135232 0 6580.38
0.0206245 0.0139016 0 6911.5
0.0211986 0.0142888 0 7268.88
0.0217861 0.014685 0 7655.6
0.022387 0.0150903 0 8074.34
0.0230018 0.0155049 0 8527.65
0.0236307 0.0159291 0 9019.66
0.0242741 0.0163629 0 9552.74
0.0249322 0.0168068 0 10130.9
0.0256053 0.0172608 0 10757.6
0.0262939 0.0177251 0 11436.5
0.0269981 0.0182 0 12174.2
0.0277183 0.0186857 0 12970.1
0.0284548 0.0191825 0 13820.2
0.029208 0.0196904 0 14719.4
0.0299782 0.0202098 0 15660.5
0.0307658 0.0207409 0 16626.2
0.031571 0.021284 0 17604.1
0.0323942 0.0218393 0 18571.6
0.033236 0.0224069 0 19519.4
0.0340965 0.0229872 0 20430.1
0.0349762 0.0235805 0 21254.9
0.0358753 0.0241869 0 21888.5
0.0367944 0.0248067 0 22241.4
0.0377338 0.0254403 0 22291.4
0.0386938 0.0260877 0 21998.3
0.039675 0.0267494 0 21273.8
0.0406776 0.0274256 0 20515.5
0.0417021 0.0281165 0 19724.8
0.0427488 0.0288225 0 18904.6
0.0438183 0.0295437 0 18122
0.0449109 0.0302805 0 17454.3
0.046027 0.0310332 0 16909.6
0.0471671 0.0318021 0 16466.1
0.0483315 0.0325874 0 16090.3
0.0495209 0.0333895 0 15771.6
0.0507354 0.0342086 0 15512.3
0.0519756 0.035045 0 15322.6
0.053242 0.0358991 0 15189.6
0.054535 0.036771 0 15090.9
0.0558549 0.0376613 0 15017.4
0.0572024 0.03857 0 14987.4
0.0585778 0.0394976 0 14983.8
0.0599816 0.0404443 0 14998
0.0614142 0.0414105 0 14983.9
0.0628761 0.0423964 0 14962.8
0.0643678 0.0434024 0 14938.9
0.0658897 0.0444287 0 14943.1
0.0674422 0.0454758 0 14977.6
0.069026 0.0465439 0 14972.4
0.0706413 0.0476333 0 14930.4
0.0722886 0.0487443 0 14869.3
0.0739685 0.0498771 0 14803.9
0.0756813 0.0510323 0 14757
0.0774275 0.05221 0 14735.2
0.0792077 0.0534105 0 14728.4
0.0810221 0.0546342 0 14750.5
0.0828712 0.0558812 0 14779.7
0.0847556 0.0571521 0 14806.2
0.0866757 0.058447 0 14816.4
0.0886318 0.0597661 0 14785
0.0906244 0.06111 0 14733.4
0.0926539 0.0624787 0 14682
0.0947207 0.0638726 0 14646.6
0.0968252 0.0652919 0 14632.2
0.0989682 0.066737 0 14634.9
0.101149 0.068208 0 14634.9
0.103369 0.0697052 0 14626.5
0.105629 0.0712289 0 14596.1
0.107928 0.0727794 0 14584.9
0.110267 0.0743568 0 14574.3
0.112646 0.0759614 0 14563.9
0.115066 0.0775934 0 14535.1
0.117527 0.079253 0 14514.3
0.120029 0.0809404 0 14498.3
0.122572 0.0826558 0 14482.5
0.125158 0.0843994 0 14457.2
0.127785 0.0861713 0 14438.3
0.130454 0.0879717 0 14416.3
0.133167 0.0898008 0 14409.4
0.135921 0.0916586 0 14387.5
0.138719 0.0935453 0 14365.3
0.141559 0.095461 0 14336.8
0.144443 0.0974057 0 14331
0.14737 0.0993798 0 14328.2
0.15034 0.101383 0 14321.4
0.153354 0.103415 0 14347.5
0.156411 0.105477 0 14397.6
0.159511 0.107568 0 14411.5
0.162655 0.109688 0 14409.3
0.165842 0.111837 0 14347.4
0.169073 0.114016 0 14273.8
0.172346 0.116223 0 14238.9
0.175663 0.118461 0 14222
0.179022 0.120727 0 14187.7
0.182425 0.123021 0 14289.7
0.18587 0.125344 0 14345.5
0.189357 0.127696 0 14368.7
0.192886 0.130076 0 14355.2
0.196457 0.132484 0 14282
0.200069 0.13492 0 14229.7
0.203722 0.137384 0 14220.9
0.207416 0.139875 0 14231.9
0.21115 0.142393 0 14237.2
0.214924 0.144938 0 14226.2
0.218736 0.147509 0 14193.1
0.222587 0.150107 0 14192
0.226476 0.152729 0 14206.1
0.230403 0.155377 0 14213.2
0.234366 0.15805 0 14155.6
0.238366 0.160748 0 14083
0.242401 0.163469 0 14024.1
0.24647 0.166214 0 14014.3
0.250573 0.168981 0 14031.5
0.25471 0.17177 0 14034.1
0.258878 0.174582 0 13978.7
0.263078 0.177414 0 13946.3
0.267309 0.180266 0 13925.9
0.271568 0.183139 0 13995.8
0.275856 0.186031 0 14019.9
0.280172 0.188942 0 14036.9
0.284514 0.19187 0 13955.8
0.288881 0.194815 0 13890.7
0.293272 0.197777 0 13839.7
0.297687 0.200754 0 13823.2
0.302124 0.203746 0 13855
0.306581 0.206752 0 13860.9
0.311058 0.209772 0 13847.1
0.315554 0.212804 0 13826.4
0.320067 0.215847 0 13808.3
0.324595 0.218901 0 13875.7
0.329138 0.221965 0 13923.9
0.333695 0.225038 0 13940.8
0.338264 0.228119 0 13932.3
0.342843 0.231208 0 13857.2
0.347432 0.234302 0 13793
0.352029 0.237402 0 13752.9
0.356632 0.240507 0 13805.5
0.361241 0.243616 0 13858.9
0.365854 0.246727 0 13889.5
0.370469 0.249839 0 13895
0.375085 0.252953 0 13834.4
0.379702 0.256066 0 13779.7
0.384317 0.259178 0 13744.8
0.388929 0.262289 0 13785.2
0.393537 0.265396 0 13866.2
0.398139 0.2685 0 13931.8
0.402734 0.271598 0 13961.6
0.407321 0.274692 0 13962.9
0.411898 0.277779 0 13871.1
0.416464 0.280858 0 13775.9
0.421017 0.283929 0 13706.9
0.425557 0.286991 0 13721
0.430082 0.290042 0 13813.9
0.434591 0.293083 0 13927.8
0.439082 0.296112 0 14049
0.443555 0.299128 0 14082.5
0.448008 0.302131 0 14080.5
0.45244 0.30512 0 13956.2
0.456849 0.308094 0 13774
0.461235 0.311052 0 13648.9
0.465596 0.313993 0 13576.6
0.469932 0.316917 0 13618.9
0.474241 0.319823 0 13718
0.478523 0.322711 0 13882.7
0.482776 0.325579 0 14036.2
0.486999 0.328427 0 14119.7
0.491191 0.331254 0 14112.9
0.495353 0.334061 0 14021.9
