# p  FACE_DATA 398
# x  y  z  p
-0.7975 0 0.025 4472.59
-0.79239 0 0.025 3681.82
-0.787056 0 0.025 2933.98
-0.781492 0 0.025 2837.4
-0.775691 0 0.025 2790.06
-0.769649 0 0.025 2788.84
-0.763362 0 0.025 2816.35
-0.756822 0 0.025 2840.37
-0.750025 0 0.025 2855.27
-0.742968 0 0.025 2862.22
-0.735648 0 0.025 2866.84
-0.72806 0 0.025 2868.41
-0.720203 0 0.025 2868.47
-0.712076 0 0.025 2866.92
-0.703677 0 0.025 2865.97
-0.695006 0 0.025 2864.92
-0.686065 0 0.025 2863.97
-0.676855 0 0.025 2863.39
-0.667379 0 0.025 2860.7
-0.65764 0 0.025 2856.05
-0.647644 0 0.025 2854.16
-0.637397 0 0.025 2854.67
-0.626906 0 0.025 2850.1
-0.616179 0 0.025 2848.42
-0.605224 0 0.025 2846.28
-0.594054 0 0.025 2844.8
-0.582678 0 0.025 2842.09
-0.57111 0 0.025 2839.97
-0.559364 0 0.025 2837.62
-0.547454 0 0.025 2836.96
-0.535396 0 0.025 2834.48
-0.523205 0 0.025 2833.01
-0.510901 0 0.025 2830.54
-0.4985 0 0.025 2828.05
-0.486021 0 0.025 2827.28
-0.473483 0 0.025 2826.04
-0.460905 0 0.025 2824.41
-0.448308 0 0.025 2822.8
-0.435709 0 0.025 2820.52
-0.42313 0 0.025 2818.29
-0.41059 0 0.025 2817.92
-0.39811 0 0.025 2817.91
-0.385706 0 0.025 2816.62
-0.373398 0 0.025 2814.48
-0.361205 0 0.025 2813.37
-0.349141 0 0.025 2812.31
-0.337226 0 0.025 2810.58
-0.325475 0 0.025 2808.79
-0.313901 0 0.025 2807.83
-0.30252 0 0.025 2807.57
-0.291343 0 0.025 2807.57
-0.280382 0 0.025 2806.81
-0.269646 0 0.025 2805.88
-0.259148 0 0.025 2804.84
-0.248893 0 0.025 2804.19
-0.23889 0 0.025 2803.24
-0.229143 0 0.025 2802.26
-0.219659 0 0.025 2801.19
-0.210441 0 0.025 2800.31
-0.201491 0 0.025 2799.03
-0.192812 0 0.025 2797.76
-0.184405 0 0.025 2796.43
-0.176269 0 0.025 2795.68
-0.168404 0 0.025 2795.16
-0.160808 0 0.025 2795.08
-0.15348 0 0.025 2795.13
-0.146415 0 0.025 2795.41
-0.13961 0 0.025 2795.7
-0.133063 0 0.025 2796.1
-0.126767 0 0.025 2796.35
-0.120718 0 0.025 2796.45
-0.11491 0 0.025 2796.15
-0.109339 0 0.025 2795.58
-0.103997 0 0.025 2794.73
-0.0988805 0 0.025 2793.8
-0.0939808 0 0.025 2792.84
-0.0892928 0 0.025 2791.99
-0.0848096 0 0.025 2791.23
-0.0805248 0 0.025 2790.59
-0.0764316 0 0.025 2790.03
-0.0725237 0 0.025 2789.49
-0.0687943 0 0.025 2789.05
-0.065237 0 0.025 2788.66
-0.0618454 0 0.025 2788.33
-0.058613 0 0.025 2788.04
-0.0555337 0 0.025 2787.79
-0.0526013 0 0.025 2787.55
-0.0498099 0 0.025 2787.36
-0.0471536 0 0.025 2787.2
-0.0446266 0 0.025 2787.11
-0.0422235 0 0.025 2787.06
-0.039939 0 0.025 2787.08
-0.0377676 0 0.025 2787.13
-0.0357044 0 0.025 2787.2
-0.0337445 0 0.025 2787.39
-0.0318832 0 0.025 2787.13
-0.0301159 0 0.025 2794.7
-0.0284383 0 0.025 2961.09
-0.0268461 0 0.025 3881.45
-0.0253353 0 0.025 5277.95
-0.023902 0 0.025 6329.76
-0.0225426 0 0.025 7134.57
-0.0212532 0 0.025 7714.97
-0.0200306 0 0.025 8184.59
-0.0188715 0 0.025 8600.63
-0.0177728 0 0.025 8954.48
-0.0167313 0 0.025 9265.44
-0.0157444 0 0.025 9542.6
-0.0148092 0 0.025 9788.56
-0.0139232 0 0.025 10011.6
-0.0130838 0 0.025 10217.3
-0.0122887 0 0.025 10407.8
-0.0115356 0 0.025 10584.1
-0.0108223 0 0.025 10747
-0.0101469 0 0.025 10897.5
-0.00950727 0 0.025 11036.6
-0.00890168 0 0.025 11164.4
-0.00832835 0 0.025 11281.3
-0.00778557 0 0.025 11388
-0.00727176 0 0.025 11485.4
-0.0067854 0 0.025 11574.4
-0.00632507 0 0.025 11656
-0.00588937 0 0.025 11731.5
-0.00547703 0 0.025 11802.2
-0.0050868 0 0.025 11869.3
-0.00471753 0 0.025 11934.2
-0.0043681 0 0.025 11998
-0.00403746 0 0.025 12062.9
-0.00372461 0 0.025 12129.6
-0.0034286 0 0.025 12198.9
-0.00314855 0 0.025 12271.3
-0.0028836 0 0.025 12348.1
-0.00263294 0 0.025 12432.7
-0.00239581 0 0.025 12521.8
-0.0021715 0 0.025 12613.3
-0.00195929 0 0.025 12709.9
-0.00175856 0 0.025 12811.1
-0.00156869 0 0.025 12915.7
-0.00138908 0 0.025 13023.1
-0.0012192 0 0.025 13132.4
-0.00105853 0 0.025 13242.3
-0.000906546 0 0.025 13351.2
-0.000762803 0 0.025 13456.3
-0.000626848 0 0.025 13553.7
-0.000498265 0 0.025 13637.3
-0.000376656 0 0.025 13698.7
-0.000261642 0 0.025 13731.2
-0.00015287 0 0.025 13738
-5e-05 0 0.025 13830
4.14519e-05 2.79596e-05 0.025 13405.4
0.000125371 8.45641e-05 0.025 13506.3
0.000211347 0.000142556 0.025 13471.3
0.000299429 0.000201968 0.025 13403.9
0.000389669 0.000262835 0.025 13325.5
0.000482118 0.000325193 0.025 13247.1
0.000576831 0.000389077 0.025 13174.2
0.000673861 0.000454524 0.025 13110.6
0.000773265 0.000521574 0.025 13058.7
0.0008751 0.000590262 0.025 13019.5
0.000979426 0.000660632 0.025 12994.5
0.0010863 0.000732721 0.025 12979.2
0.00119579 0.000806572 0.025 12979.5
0.00130795 0.000882227 0.025 12992.4
0.00142285 0.00095973 0.025 13016.6
0.00154056 0.00103912 0.025 13052.1
0.00166115 0.00112046 0.025 13098.8
0.00178467 0.00120378 0.025 13156.1
0.00191121 0.00128913 0.025 13222.9
0.00204083 0.00137656 0.025 13299.8
0.00217362 0.00146612 0.025 13385.7
0.00230964 0.00155787 0.025 13481
0.00244897 0.00165185 0.025 13584.3
0.00259169 0.00174812 0.025 13696.9
0.00273789 0.00184673 0.025 13817.8
0.00288765 0.00194774 0.025 13947.2
0.00304105 0.00205122 0.025 14085.5
0.00319818 0.00215719 0.025 14232.6
0.00335912 0.00226575 0.025 14388.4
0.00352397 0.00237695 0.025 14553.3
0.00369283 0.00249085 0.025 14727.7
0.00386579 0.00260751 0.025 14911.9
0.00404294 0.00272699 0.025 15106.2
0.00422438 0.00284938 0.025 15311.2
0.00441022 0.00297474 0.025 15527.5
0.00460056 0.00310312 0.025 15755.9
0.00479552 0.00323462 0.025 15997.1
0.00499519 0.0033693 0.025 16251.6
0.00519968 0.00350723 0.025 16521.1
0.00540911 0.00364849 0.025 16805.8
0.00562361 0.00379318 0.025 17107.3
0.00584329 0.00394134 0.025 17426.8
0.00606826 0.00409309 0.025 17765.5
0.00629865 0.00424849 0.025 18124.8
0.0065346 0.00440764 0.025 18506.7
0.00677623 0.00457063 0.025 18912.2
0.00702368 0.00473753 0.025 19343.9
0.00727707 0.00490844 0.025 19803.2
0.00753655 0.00508347 0.025 20292.8
0.00780227 0.00526269 0.025 20815.1
0.00807436 0.00544622 0.025 21372.4
0.00835298 0.00563415 0.025 21968.2
0.00863826 0.00582659 0.025 22605.1
0.00893038 0.00602362 0.025 23286.8
0.00922949 0.00622537 0.025 24015.8
0.00953574 0.00643195 0.025 24796.6
0.00984929 0.00664345 0.025 25631.8
0.0101703 0.00686 0.025 26527.7
0.0104991 0.00708171 0.025 27485.7
0.0108356 0.00730871 0.025 28511.9
0.0111801 0.0075411 0.025 29612.9
0.0115329 0.00777902 0.025 30794.3
0.011894 0.00802259 0.025 32061.8
0.0122637 0.00827194 0.025 33429.5
0.0126421 0.00852719 0.025 34898
0.0130295 0.0087885 0.025 36483.5
0.013426 0.00905597 0.025 38192.1
0.013832 0.00932978 0.025 40033.3
0.0142475 0.00961003 0.025 42020.1
0.0146727 0.0098969 0.025 44159.3
0.0151081 0.0101905 0.025 46465.3
0.0155536 0.010491 0.025 48954.3
0.0160097 0.0107986 0.025 51649.4
0.0164764 0.0111134 0.025 54559
0.016954 0.0114356 0.025 57708.9
0.0174427 0.0117653 0.025 61107.2
0.0179429 0.0121026 0.025 64787.9
0.0184548 0.0124479 0.025 68765.7
0.0189786 0.0128013 0.025 73060.7
0.0195146 0.0131628 0.025 77714.4
0.020063 0.0135327 0.025 82758.5
0.0206242 0.0139112 0.025 88247.4
0.0211983 0.0142984 0.025 94277.8
0.0217857 0.0146947 0.025 100935
0.0223867 0.0151 0.025 108261
0.0230015 0.0155147 0.025 116227
0.0236304 0.0159389 0.025 124888
0.0242738 0.0163729 0.025 134111
0.0249318 0.0168167 0.025 143572
0.025605 0.0172708 0.025 152535
0.0262935 0.0177352 0.025 159781
0.0269977 0.0182102 0.025 164411
0.0277178 0.0186959 0.025 166004
0.0284544 0.0191927 0.025 165863
0.0292075 0.0197008 0.025 163807
0.0299777 0.0202203 0.025 162250
0.0307653 0.0207514 0.025 159644
0.0315704 0.0212945 0.025 157008
0.0323937 0.0218499 0.025 154183
0.0332354 0.0224176 0.025 151009
0.0340959 0.022998 0.025 147571
0.0349755 0.0235913 0.025 144045
0.0358747 0.0241978 0.025 140769
0.0367938 0.0248178 0.025 137783
0.0377331 0.0254513 0.025 135234
0.0386932 0.0260989 0.025 133102
0.0396743 0.0267606 0.025 131366
0.0406769 0.0274369 0.025 129939
0.0417013 0.0281279 0.025 128836
0.042748 0.0288339 0.025 128125
0.0438175 0.0295552 0.025 127653
0.04491 0.0302922 0.025 127234
0.0460262 0.031045 0.025 126816
0.0471662 0.031814 0.025 126605
0.0483306 0.0325995 0.025 127060
0.0495199 0.0334016 0.025 127595
0.0507344 0.0342208 0.025 127703
0.0519746 0.0350573 0.025 127350
0.0532409 0.0359114 0.025 126984
0.0545339 0.0367835 0.025 126915
0.0558538 0.0376739 0.025 127162
0.0572012 0.0385827 0.025 127202
0.0585766 0.0395104 0.025 126910
0.0599804 0.0404573 0.025 126487
0.061413 0.0414236 0.025 126838
0.0628748 0.0424096 0.025 127777
0.0643665 0.0434157 0.025 128572
0.0658883 0.0444422 0.025 128631
0.0674408 0.0454894 0.025 128252
0.0690245 0.0465576 0.025 127847
0.0706398 0.0476471 0.025 127656
0.0722871 0.0487582 0.025 128081
0.0739669 0.0498912 0.025 128607
0.0756797 0.0510466 0.025 128772
0.0774258 0.0522244 0.025 128793
0.0792059 0.053425 0.025 128793
0.0810203 0.0546489 0.025 128971
0.0828694 0.0558961 0.025 129196
0.0847537 0.0571671 0.025 129450
0.0866737 0.0584622 0.025 129563
0.0886298 0.0597816 0.025 129636
0.0906224 0.0611256 0.025 129796
0.0926518 0.0624944 0.025 130079
0.0947185 0.0638884 0.025 130419
0.096823 0.065308 0.025 130507
0.0989659 0.0667532 0.025 130525
0.101147 0.0682245 0.025 129870
0.103367 0.0697219 0.025 129297
0.105626 0.0712458 0.025 128983
0.107926 0.0727965 0.025 128463
0.110265 0.074374 0.025 128063
0.112644 0.0759789 0.025 127350
0.115063 0.0776111 0.025 127638
0.117524 0.0792709 0.025 127805
0.120026 0.0809585 0.025 128484
0.122569 0.0826741 0.025 129552
0.125155 0.0844179 0.025 130281
0.127782 0.0861901 0.025 130313
0.130451 0.0879908 0.025 129718
0.133163 0.08982 0.025 129343
0.135918 0.0916781 0.025 128936
0.138716 0.0935651 0.025 129148
0.141556 0.095481 0.025 129585
0.14444 0.097426 0.025 129892
0.147367 0.0994004 0.025 129290
0.150337 0.101404 0.025 129665
0.153351 0.103437 0.025 128768
0.156408 0.105498 0.025 127188
0.159508 0.107589 0.025 127730
0.162651 0.10971 0.025 126683
0.165838 0.111859 0.025 124330
0.169069 0.114039 0.025 127449
0.172343 0.116247 0.025 125459
0.175659 0.118483 0.025 124959
0.179018 0.120749 0.025 124175
0.182421 0.123045 0.025 123085
0.185866 0.125368 0.025 122632
0.189353 0.12772 0.025 122135
0.192882 0.1301 0.025 122024
0.196453 0.132509 0.025 122226
0.200065 0.134946 0.025 121610
0.203718 0.13741 0.025 121699
0.207412 0.139901 0.025 121986
0.211146 0.14242 0.025 121215
0.214919 0.144965 0.025 120481
0.218732 0.147537 0.025 121318
0.222583 0.150134 0.025 121120
0.226472 0.152757 0.025 122548
0.230399 0.155406 0.025 122161
0.234362 0.15808 0.025 122191
0.238362 0.160777 0.025 120987
0.242396 0.163498 0.025 120957
0.246466 0.166244 0.025 120194
0.250569 0.169012 0.025 121155
0.254706 0.171801 0.025 120316
0.258874 0.174613 0.025 120418
0.263074 0.177446 0.025 120005
0.267304 0.180299 0.025 120711
0.271564 0.183172 0.025 121263
0.275852 0.186064 0.025 120776
0.280168 0.188975 0.025 121390
0.28451 0.191904 0.025 121006
0.288876 0.19485 0.025 120347
0.293268 0.197812 0.025 121045
0.297683 0.20079 0.025 119891
0.302119 0.203782 0.025 119460
0.306577 0.206788 0.025 120269
0.311054 0.209808 0.025 119459
0.315549 0.212841 0.025 120122
0.320063 0.215885 0.025 119493
0.324591 0.218939 0.025 121037
0.329134 0.222003 0.025 121574
0.333691 0.225077 0.025 121037
0.33826 0.228159 0.025 121943
0.342839 0.231248 0.025 121526
0.347428 0.234343 0.025 122476
0.352025 0.237444 0.025 121026
0.356628 0.240548 0.025 121307
0.361237 0.243658 0.025 121310
0.36585 0.246769 0.025 119683
0.370465 0.249882 0.025 122062
0.375082 0.252996 0.025 120766
0.379698 0.25611 0.025 119537
0.384313 0.259223 0.025 121371
0.388926 0.262333 0.025 120547
0.393534 0.265442 0.025 120953
0.398136 0.268546 0.025 121262
0.40273 0.271645 0.025 120515
0.407317 0.274739 0.025 120386
0.411894 0.277826 0.025 119947
0.41646 0.280906 0.025 121436
0.421014 0.283977 0.025 120580
0.425554 0.28704 0.025 120370
0.430079 0.290092 0.025 120911
0.434588 0.293133 0.025 120666
0.439079 0.296162 0.025 121445
0.443551 0.299179 0.025 121075
0.448004 0.302183 0.025 120984
0.452437 0.305172 0.025 121105
0.456846 0.308146 0.025 121420
0.461232 0.311105 0.025 121292
0.465593 0.314047 0.025 121461
0.469929 0.316971 0.025 121056
0.474238 0.319878 0.025 122192
0.47852 0.322766 0.025 121853
0.482773 0.325635 0.025 121954
0.486996 0.328483 0.025 121518
0.491189 0.331311 0.025 120767
0.49535 0.334118 0.025 122080
