4.96314e-06 	28.3757 	-0.0151494 	0
1.48429e-05 	83.3292 	-0.040295 	0
2.46948e-05 	136.538 	-0.0616534 	0
3.46404e-05 	188.82 	-0.082809 	0
4.47862e-05 	240.598 	-0.104304 	0
5.52311e-05 	291.752 	-0.126271 	0
6.60699e-05 	341.671 	-0.148639 	0
7.73965e-05 	389.527 	-0.171077 	0
8.93058e-05 	434.645 	-0.193298 	0
0.000101896 	476.719 	-0.215081 	0
0.000115268 	515.814 	-0.235744 	0
0.00012953 	552.292 	-0.254642 	0
0.000144795 	586.493 	-0.271071 	0
0.000161185 	618.606 	-0.284324 	0
0.000178829 	648.801 	-0.293667 	0
0.000197868 	677.253 	-0.29879 	0
0.00021845 	704.131 	-0.298585 	0
0.000240738 	729.593 	-0.292136 	0
0.000264909 	753.781 	-0.279699 	0
0.000291153 	776.831 	-0.260565 	0
0.000319676 	798.885 	-0.234418 	0
0.000350703 	820.107 	-0.201328 	0
0.000384479 	840.629 	-0.161419 	0
0.000421271 	860.533 	-0.114949 	0
0.000461366 	879.883 	-0.0623665 	0
0.000505082 	898.736 	-0.00446714 	0
0.000552762 	917.145 	0.0579071 	0
0.000604783 	935.155 	0.123851 	0
0.000661554 	952.807 	0.192225 	0
0.000723523 	970.138 	0.261686 	0
0.000791177 	987.184 	0.330865 	0
0.00086505 	1003.98 	0.398338 	0
0.000945722 	1020.55 	0.462673 	0
0.00103383 	1036.92 	0.522484 	0
0.00113007 	1053.13 	0.576517 	0
0.0012352 	1069.2 	0.623705 	0
0.00135004 	1085.16 	0.663217 	0
0.0014755 	1101.03 	0.694601 	0
0.00161258 	1116.85 	0.718751 	0
0.00176234 	1132.64 	0.736696 	0
0.00192597 	1148.44 	0.748452 	0
0.00210476 	1164.27 	0.756754 	0
0.00230012 	1180.18 	0.76525 	0
0.00251358 	1196.21 	0.778616 	0
0.00274683 	1212.4 	0.802358 	0
0.00300171 	1228.82 	0.843166 	0
0.00328023 	1245.57 	0.908436 	0
0.00358457 	1262.82 	1.00815 	0
0.00391714 	1280.68 	1.15403 	0
0.00428056 	1299.3 	1.35987 	0
0.00467769 	1318.78 	1.64002 	0
0.00511167 	1339.23 	2.01185 	0
0.00558591 	1360.54 	2.4893 	0
0.00610416 	1382.23 	3.08986 	0
0.0066705 	1403.63 	3.8117 	0
0.0072894 	1424.47 	4.67389 	0
0.00796574 	1444.87 	5.78126 	0
0.00855799 	1460.11 	6.97418 	0
0.00894392 	1468.41 	7.85173 	0
0.00951253 	1476.19 	9.19089 	0
0.0103952 	1481.53 	11.0337 	0
0.0113598 	1482.45 	12.0959 	0
0.0124139 	1482.48 	12.1323 	0
0.013566 	1482.46 	12.153 	0
0.0148251 	1482.47 	12.2481 	0
0.0162011 	1482.49 	12.4228 	0
0.017705 	1482.5 	12.7653 	0
0.0193486 	1482.53 	12.9812 	0
0.0202967 	1482.54 	13.08 	0
0.0212348 	1482.55 	13.1264 	0
0.0231084 	1482.57 	13.1174 	0
0.0252543 	1482.54 	12.9698 	0
0.0276001 	1482.57 	13.066 	0
0.0301448 	1482.57 	13.301 	0
0.031484 	1482.56 	13.4554 	0
0.0329673 	1482.54 	13.5979 	0
0.0360314 	1482.53 	13.7652 	0
0.0393815 	1482.48 	13.6531 	0
0.041589 	1482.42 	13.5369 	0
0.0435022 	1482.38 	13.4305 	0
0.0470499 	1482.38 	13.2506 	0
0.0506434 	1482.32 	13.5135 	0
0.0529317 	1482.32 	13.7258 	0
0.0562215 	1482.37 	14.0788 	0
0.0602482 	1482.34 	14.7097 	0
0.0629866 	1482.35 	15.0689 	0
0.0671978 	1482.38 	15.4858 	0
0.07057 	1482.26 	15.3443 	0
0.0738498 	1482.2 	14.8111 	0
0.078218 	1482.49 	12.4507 	0
0.0818093 	1482.81 	10.0739 	0
0.0859665 	1483.22 	6.63345 	0
0.0899001 	1483.52 	3.99119 	0
0.0938543 	1483.77 	1.90108 	0
0.098165 	1483.93 	0.556714 	0
0.101925 	1483.97 	0.276292 	0
0.106651 	1484 	0.0219464 	0
0.110224 	1484 	0.0131408 	0
0.113967 	1484 	0.00329954 	0
0.118805 	1484 	0.000179605 	0
0.122029 	1484 	0.000104603 	0
0.126872 	1484 	2.16381e-07 	0
0.130784 	1484 	2.34152e-07 	0
0.133691 	1484 	1.72668e-07 	0
0.138506 	1484 	-5.71682e-08 	0
0.142708 	1484 	-4.31972e-08 	0
0.145325 	1484 	-3.33076e-08 	0
0.148982 	1484 	-1.81984e-08 	0
0.15382 	1484 	-8.08239e-09 	0
0.15705 	1484 	-6.5261e-09 	0
0.159283 	1484 	-5.14976e-09 	0
0.16276 	1484 	-2.40109e-09 	0
0.166887 	1484 	2.44775e-10 	0
0.1708 	1484 	1.36029e-10 	0
0.172904 	1484 	8.96989e-11 	0
0.174709 	1484 	5.84395e-11 	0
0.178025 	1484 	3.60425e-11 	0
0.181359 	1484 	6.64374e-11 	0
0.184518 	1484 	5.71496e-11 	0
0.187512 	1484 	4.57634e-11 	0
0.189414 	1484 	3.86367e-11 	0
0.190794 	1484 	3.35138e-11 	0
0.193039 	1484 	2.55067e-11 	0
0.195586 	1484 	1.70792e-11 	0
0.197999 	1484 	1.00539e-11 	0
0.200286 	1484 	6.82829e-12 	0
0.202452 	1484 	5.764e-12 	0
0.204504 	1484 	4.62868e-12 	0
0.206447 	1484 	3.54566e-12 	0
0.207887 	1484 	2.83401e-12 	0
0.208782 	1484 	2.41575e-12 	0
0.21003 	1484 	1.84313e-12 	0
0.21168 	1484 	1.1582e-12 	0
0.213242 	1484 	6.41387e-13 	0
0.214721 	1484 	2.43755e-13 	0
0.216122 	1484 	4.29728e-14 	0
0.217447 	1484 	-8.10023e-14 	0
0.218702 	1484 	-1.53953e-13 	0
0.219889 	1484 	-1.65425e-13 	0
0.221014 	1484 	-2.5009e-13 	0
0.222078 	1484 	-2.69708e-13 	0
0.223085 	1484 	-2.26908e-13 	0
0.224038 	1484 	-4.02256e-13 	0
0.22494 	1484 	-3.81577e-13 	0
0.225793 	1484 	-3.14624e-13 	0
0.2266 	1484 	-3.35628e-13 	0
0.227363 	1484 	-3.24435e-13 	0
0.228086 	1484 	-2.42417e-13 	0
0.228681 	1484 	-2.38991e-13 	0
0.229013 	1484 	-2.78836e-13 	0
0.229416 	1484 	-3.10137e-13 	0
0.230028 	1484 	-3.33456e-13 	0
0.230607 	1484 	-3.32609e-13 	0
0.231154 	1484 	-3.46861e-13 	0
0.231672 	1484 	-3.25906e-13 	0
0.232161 	1484 	-2.91317e-13 	0
0.232625 	1484 	-3.02481e-13 	0
0.233063 	1484 	-1.6199e-13 	0
0.233478 	1484 	-4.18268e-14 	0
0.23387 	1484 	-4.8352e-14 	0
0.234241 	1484 	-1.36262e-13 	0
0.234591 	1484 	-1.93602e-13 	0
0.234924 	1484 	-2.08111e-13 	0
0.235237 	1484 	-2.00106e-13 	0
0.235535 	1484 	-2.58639e-13 	0
0.235816 	1484 	-3.99575e-13 	0
0.236082 	1484 	-3.89968e-13 	0
0.236335 	1484 	-4.21032e-13 	0
0.236575 	1484 	-5.15504e-13 	0
0.236811 	1484 	-5.31001e-13 	0
0.237052 	1484 	-5.53694e-13 	0
0.237298 	1484 	-5.60081e-13 	0
0.237548 	1484 	-5.79414e-13 	0
0.237805 	1484 	-5.81589e-13 	0
0.238067 	1484 	-6.92394e-13 	0
0.238335 	1484 	-6.77183e-13 	0
0.23861 	1484 	-7.09484e-13 	0
0.238891 	1484 	-7.42518e-13 	0
0.239179 	1484 	-8.43507e-13 	0
0.239474 	1484 	-8.74665e-13 	0
0.239775 	1484 	-6.11369e-13 	0
0.240085 	1484 	-8.39904e-13 	0
0.240402 	1484 	-8.59775e-13 	0
0.240727 	1484 	-7.54724e-13 	0
0.241058 	1484 	-9.3703e-13 	0
0.241398 	1484 	-1.29661e-12 	0
0.241747 	1484 	-1.40234e-12 	0
0.242104 	1484 	-1.35502e-12 	0
0.242469 	1484 	-8.44041e-13 	0
0.242844 	1484 	-3.404e-12 	0
0.243227 	1484 	-5.52773e-12 	0
0.24362 	1484 	-8.32812e-12 	0
0.244022 	1484 	-1.13477e-11 	0
0.244434 	1484 	-1.56264e-11 	0
0.244855 	1484 	-1.93244e-11 	0
0.245287 	1484 	-1.97682e-11 	0
0.245728 	1484 	-1.22586e-11 	0
0.246182 	1484 	2.28109e-11 	0
0.246646 	1484 	1.12206e-10 	0
0.24712 	1484 	2.98698e-10 	0
0.247605 	1484 	6.57515e-10 	0
0.248102 	1484 	1.28681e-09 	0
0.248612 	1484 	2.33421e-09 	0
0.249133 	1484 	4.00393e-09 	0
0.249667 	1484 	6.5688e-09 	0
0.250213 	1484 	1.03819e-08 	0
0.250772 	1484 	1.589e-08 	0
0.251345 	1484 	2.36401e-08 	0
0.251931 	1484 	3.42941e-08 	0
0.252531 	1484 	4.86095e-08 	0
0.253145 	1484 	6.7457e-08 	0
0.253587 	1484 	8.37879e-08 	0
0.253906 	1484 	9.74188e-08 	0
0.254418 	1484 	1.22478e-07 	0
0.255076 	1484 	1.60698e-07 	0
0.25575 	1484 	2.07524e-07 	0
0.25644 	1484 	2.63968e-07 	0
0.257146 	1484 	3.31011e-07 	0
0.257868 	1484 	4.09488e-07 	0
0.258608 	1484 	4.99879e-07 	0
0.259364 	1484 	6.02534e-07 	0
0.260139 	1484 	7.17429e-07 	0
0.260931 	1484 	8.44114e-07 	0
0.261741 	1484 	9.81709e-07 	0
0.262571 	1484 	1.12858e-06 	0
0.263419 	1484 	1.28275e-06 	0
0.264287 	1484 	1.44175e-06 	0
0.265176 	1484 	1.60215e-06 	0
0.266085 	1484 	1.7599e-06 	0
0.267014 	1484 	1.90993e-06 	0
0.267965 	1484 	2.05273e-06 	0
0.268938 	1484 	2.18841e-06 	0
0.269932 	1484 	2.30106e-06 	0
0.27095 	1484 	2.3834e-06 	0
0.271991 	1484 	2.42712e-06 	0
0.273056 	1484 	2.43073e-06 	0
0.274145 	1484 	2.39461e-06 	0
0.275258 	1484 	2.32139e-06 	0
0.276397 	1484 	2.18178e-06 	0
0.277562 	1484 	1.96959e-06 	0
0.278752 	1484 	1.68255e-06 	0
0.279969 	1484 	1.31618e-06 	0
0.281073 	1484 	9.20272e-07 	0
0.281704 	1484 	6.74554e-07 	0
0.282492 	1484 	3.29202e-07 	0
0.283802 	1484 	-2.98414e-07 	0
0.285142 	1484 	-1.02162e-06 	0
0.286512 	1484 	-1.84108e-06 	0
0.287913 	1484 	-2.75307e-06 	0
0.289346 	1484 	-3.75096e-06 	0
0.290812 	1484 	-4.82618e-06 	0
0.29231 	1484 	-5.96898e-06 	0
0.293842 	1484 	-7.16677e-06 	0
0.295409 	1484 	-8.40735e-06 	0
0.29701 	1484 	-9.62648e-06 	0
0.298648 	1484 	-1.07082e-05 	0
0.300322 	1484 	-1.17571e-05 	0
0.302032 	1484 	-1.27535e-05 	0
0.303782 	1484 	-1.36762e-05 	0
0.305569 	1484 	-1.45057e-05 	0
0.307397 	1484 	-1.52211e-05 	0
0.309265 	1484 	-1.58022e-05 	0
0.310844 	1484 	-1.61753e-05 	0
0.311808 	1484 	-1.63447e-05 	0
0.313121 	1484 	-1.65014e-05 	0
0.315112 	1484 	-1.65865e-05 	0
0.317146 	1484 	-1.64721e-05 	0
0.319224 	1484 	-1.61445e-05 	0
0.321348 	1484 	-1.55991e-05 	0
0.323518 	1484 	-1.48247e-05 	0
0.325733 	1484 	-1.38158e-05 	0
0.327996 	1484 	-1.27831e-05 	0
0.330308 	1484 	-1.26027e-05 	0
0.332669 	1484 	-1.23102e-05 	0
0.33508 	1484 	-1.19039e-05 	0
0.337542 	1484 	-1.13893e-05 	0
0.340057 	1484 	-1.07644e-05 	0
0.342457 	1484 	-1.00855e-05 	0
0.343757 	1484 	-9.68872e-06 	0
0.345282 	1484 	-9.19522e-06 	0
0.348019 	1484 	-8.25032e-06 	0
0.350819 	1484 	-7.20565e-06 	0
0.35368 	1484 	-6.06656e-06 	0
0.356603 	1484 	-4.83344e-06 	0
0.359592 	1484 	-3.51054e-06 	0
0.362645 	1484 	-2.65721e-06 	0
0.365765 	1484 	-2.13639e-06 	0
0.368952 	1484 	-1.59004e-06 	0
0.372208 	1484 	-1.01836e-06 	0
0.375533 	1484 	-4.22644e-07 	0
0.377533 	1484 	-5.89192e-08 	0
