# p  FACE_DATA 398
# x  y  z  p
-0.7975 -7.61524e-06 0 225.796
-0.79239 -7.61524e-06 0 155.257
-0.787056 -7.61524e-06 0 118.1
-0.781492 -7.61524e-06 0 108.178
-0.775691 -7.61524e-06 0 101.256
-0.769649 -7.61524e-06 0 95.7799
-0.763361 -7.61524e-06 0 91.2542
-0.756822 -7.61524e-06 0 87.4196
-0.750025 -7.61524e-06 0 84.0397
-0.742968 -7.61524e-06 0 81.0946
-0.735648 -7.61524e-06 0 78.7801
-0.72806 -7.61524e-06 0 76.8918
-0.720203 -7.61524e-06 0 75.1953
-0.712075 -7.61524e-06 0 73.6931
-0.703676 -7.61524e-06 0 72.4049
-0.695006 -7.61524e-06 0 71.2628
-0.686065 -7.61524e-06 0 70.2071
-0.676855 -7.61524e-06 0 69.2335
-0.667379 -7.61524e-06 0 68.3666
-0.657641 -7.61524e-06 0 67.5959
-0.647644 -7.61524e-06 0 66.8798
-0.637398 -7.61524e-06 0 66.2135
-0.626906 -7.61524e-06 0 65.6096
-0.616179 -7.61524e-06 0 65.0594
-0.605225 -7.61524e-06 0 64.543
-0.594054 -7.61524e-06 0 64.0539
-0.582677 -7.61524e-06 0 63.5967
-0.57111 -7.61524e-06 0 63.1783
-0.559364 -7.61524e-06 0 62.7938
-0.547454 -7.61524e-06 0 62.4358
-0.535396 -7.61524e-06 0 62.1007
-0.523205 -7.61524e-06 0 61.7896
-0.510901 -7.61524e-06 0 61.498
-0.498499 -7.61524e-06 0 61.2163
-0.486021 -7.61524e-06 0 60.9421
-0.473482 -7.61524e-06 0 60.686
-0.460905 -7.61524e-06 0 60.4583
-0.448307 -7.61524e-06 0 60.2589
-0.435709 -7.61524e-06 0 60.0733
-0.42313 -7.61524e-06 0 59.8873
-0.41059 -7.61524e-06 0 59.6975
-0.39811 -7.61524e-06 0 59.5131
-0.385706 -7.61524e-06 0 59.3468
-0.373398 -7.61524e-06 0 59.2067
-0.361205 -7.61524e-06 0 59.0907
-0.349142 -7.61524e-06 0 58.9851
-0.337226 -7.61524e-06 0 58.8709
-0.325475 -7.61524e-06 0 58.7392
-0.313901 -7.61524e-06 0 58.5979
-0.30252 -7.61524e-06 0 58.4623
-0.291343 -7.61524e-06 0 58.3437
-0.280381 -7.61524e-06 0 58.2543
-0.269647 -7.61524e-06 0 58.2007
-0.259148 -7.61524e-06 0 58.1746
-0.248893 -7.61524e-06 0 58.1804
-0.23889 -7.61524e-06 0 58.1727
-0.229143 -7.61524e-06 0 58.1329
-0.219659 -7.61524e-06 0 58.0762
-0.210441 -7.61524e-06 0 57.9854
-0.201491 -7.61524e-06 0 57.8774
-0.192812 -7.61524e-06 0 57.7555
-0.184405 -7.61524e-06 0 57.6307
-0.176269 -7.61524e-06 0 57.5097
-0.168404 -7.61524e-06 0 57.4057
-0.160809 -7.61524e-06 0 57.3192
-0.15348 -7.61524e-06 0 57.2531
-0.146415 -7.61524e-06 0 57.2094
-0.13961 -7.61524e-06 0 57.1854
-0.133063 -7.61524e-06 0 57.1941
-0.126767 -7.61524e-06 0 57.2284
-0.120717 -7.61524e-06 0 57.2733
-0.11491 -7.61524e-06 0 57.3303
-0.109339 -7.61524e-06 0 57.3864
-0.103997 -7.61524e-06 0 57.4373
-0.0988804 -7.61524e-06 0 57.479
-0.0939809 -7.61524e-06 0 57.5106
-0.0892928 -7.61524e-06 0 57.5323
-0.0848096 -7.61524e-06 0 57.5537
-0.0805248 -7.61524e-06 0 57.6322
-0.0764317 -7.61524e-06 0 59.3415
-0.0725237 -7.61524e-06 0 82.9596
-0.0687943 -7.61524e-06 0 151.649
-0.065237 -7.61524e-06 0 164.722
-0.0618454 -7.61524e-06 0 166.453
-0.058613 -7.61524e-06 0 169.258
-0.0555337 -7.61524e-06 0 171.169
-0.0526013 -7.61524e-06 0 172.003
-0.0498099 -7.61524e-06 0 172.193
-0.0471536 -7.61524e-06 0 172.149
-0.0446266 -7.61524e-06 0 172.439
-0.0422235 -7.61524e-06 0 173.254
-0.0399389 -7.61524e-06 0 174.769
-0.0377676 -7.61524e-06 0 177.256
-0.0357044 -7.61524e-06 0 178.701
-0.0337445 -7.61524e-06 0 179.258
-0.0318832 -7.61524e-06 0 178.356
-0.0301159 -7.61524e-06 0 176.419
-0.0284383 -7.61524e-06 0 173.769
-0.0268462 -7.61524e-06 0 170.991
-0.0253353 -7.61524e-06 0 169.226
-0.023902 -7.61524e-06 0 167.41
-0.0225425 -7.61524e-06 0 166.787
-0.0212532 -7.61524e-06 0 166.613
-0.0200306 -7.61524e-06 0 166.305
-0.0188715 -7.61524e-06 0 165.616
-0.0177727 -7.61524e-06 0 164.687
-0.0167313 -7.61524e-06 0 163.461
-0.0157444 -7.61524e-06 0 161.814
-0.0148093 -7.61524e-06 0 159.675
-0.0139232 -7.61524e-06 0 157.125
-0.0130838 -7.61524e-06 0 154.405
-0.0122887 -7.61524e-06 0 151.86
-0.0115355 -7.61524e-06 0 149.809
-0.0108223 -7.61524e-06 0 148.436
-0.0101469 -7.61524e-06 0 147.829
-0.00950727 -7.61524e-06 0 147.932
-0.00890169 -7.61524e-06 0 148.654
-0.00832834 -7.61524e-06 0 149.699
-0.00778557 -7.61524e-06 0 151.024
-0.00727176 -7.61524e-06 0 152.483
-0.00678541 -7.61524e-06 0 153.964
-0.00632507 -7.61524e-06 0 155.418
-0.00588937 -7.61524e-06 0 156.821
-0.00547703 -7.61524e-06 0 158.108
-0.00508681 -7.61524e-06 0 159.322
-0.00471753 -7.61524e-06 0 160.458
-0.0043681 -7.61524e-06 0 161.498
-0.00403746 -7.61524e-06 0 162.439
-0.00372461 -7.61524e-06 0 163.274
-0.0034286 -7.61524e-06 0 164.002
-0.00314855 -7.61524e-06 0 164.622
-0.00288361 -7.61524e-06 0 165.138
-0.00263295 -7.61524e-06 0 165.556
-0.00239582 -7.61524e-06 0 165.881
-0.00217149 -7.61524e-06 0 166.121
-0.00195929 -7.61524e-06 0 166.283
-0.00175856 -7.61524e-06 0 166.373
-0.00156869 -7.61524e-06 0 166.399
-0.00138908 -7.61524e-06 0 166.377
-0.00121921 -7.61524e-06 0 166.303
-0.00105853 -7.61524e-06 0 166.183
-0.000906546 -7.61524e-06 0 166.028
-0.000762803 -7.61524e-06 0 165.843
-0.000626849 -7.61524e-06 0 165.635
-0.000498266 -7.61524e-06 0 165.413
-0.000376656 -7.61524e-06 0 165.186
-0.000261642 -7.61524e-06 0 164.963
-0.00015287 -7.61524e-06 0 164.752
-5e-05 -7.61524e-06 0 164.565
4.14596e-05 2.03453e-05 0 164.344
0.000125379 7.69412e-05 0 164.325
0.000211356 0.000134924 0 164.274
0.000299438 0.000194328 0 164.22
0.000389678 0.000255186 0 164.159
0.000482128 0.000317535 0 164.085
0.000576841 0.000381409 0 163.995
0.000673871 0.000446848 0 163.886
0.000773276 0.000513887 0 163.757
0.000875112 0.000582565 0 163.605
0.000979439 0.000652924 0 163.432
0.00108632 0.000725003 0 163.236
0.00119581 0.000798843 0 163.015
0.00130797 0.000874487 0 162.751
0.00142287 0.000951979 0 162.514
0.00154058 0.00103136 0 162.232
0.00166117 0.00111268 0 161.927
0.00178469 0.00119599 0 161.6
0.00191123 0.00128133 0 161.252
0.00204085 0.00136875 0 160.882
0.00217364 0.0014583 0 160.49
0.00230966 0.00155003 0 160.076
0.00244899 0.001644 0 159.638
0.00259171 0.00174025 0 159.177
0.00273791 0.00183885 0 158.689
0.00288767 0.00193985 0 158.176
0.00304108 0.0020433 0 157.635
0.0031982 0.00214927 0 157.066
0.00335915 0.00225781 0 156.466
0.003524 0.002369 0 155.838
0.00369286 0.00248287 0 155.183
0.00386582 0.00259951 0 154.504
0.00404297 0.00271899 0 153.808
0.00422442 0.00284136 0 153.106
0.00441026 0.00296669 0 152.409
0.0046006 0.00309506 0 151.731
0.00479556 0.00322653 0 151.086
0.00499523 0.00336119 0 150.486
0.00519972 0.00349911 0 149.943
0.00540916 0.00364036 0 149.459
0.00562366 0.00378501 0 149.039
0.00584334 0.00393316 0 148.68
0.00606831 0.00408489 0 148.381
0.00629871 0.00424027 0 148.141
0.00653466 0.0043994 0 147.964
0.00677629 0.00456236 0 147.848
0.00702374 0.00472923 0 147.815
0.00727714 0.00490013 0 147.88
0.00753663 0.00507513 0 148.053
0.00780234 0.00525433 0 148.355
0.00807444 0.00543783 0 148.797
0.00835306 0.00562573 0 149.384
0.00863835 0.00581814 0 150.114
0.00893047 0.00601514 0 150.98
0.00922958 0.00621687 0 151.975
0.00953584 0.00642341 0 153.095
0.00984939 0.00663489 0 154.336
0.0101705 0.00685141 0 155.708
0.0104992 0.00707309 0 157.206
0.0108357 0.00730005 0 158.843
0.0111802 0.00753241 0 160.639
0.011533 0.0077703 0 162.599
0.0118941 0.00801384 0 164.738
0.0122638 0.00826316 0 167.069
0.0126422 0.00851837 0 169.603
0.0130296 0.00877964 0 172.37
0.0134262 0.00904708 0 175.385
0.0138321 0.00932084 0 178.685
0.0142476 0.00960107 0 182.278
0.0146729 0.00988792 0 186.221
0.0151082 0.0101815 0 190.523
0.0155538 0.0104819 0 195.237
0.0160098 0.0107895 0 200.383
0.0164766 0.0111042 0 206.006
0.0169542 0.0114263 0 212.127
0.0174429 0.011756 0 218.8
0.0179431 0.0120934 0 226.064
0.018455 0.0124386 0 233.953
0.0189789 0.0127918 0 242.524
0.0195149 0.0131533 0 251.828
0.0200633 0.0135232 0 261.942
0.0206245 0.0139016 0 272.923
0.0211986 0.0142888 0 284.851
0.0217861 0.014685 0 297.83
0.022387 0.0150903 0 311.943
0.0230018 0.0155049 0 327.335
0.0236307 0.0159291 0 344.143
0.0242741 0.0163629 0 362.542
0.0249322 0.0168068 0 382.745
0.0256053 0.0172608 0 405.034
0.0262939 0.0177251 0 429.682
0.0269981 0.0182 0 456.909
0.0277183 0.0186857 0 487.142
0.0284548 0.0191825 0 520.598
0.029208 0.0196904 0 557.903
0.0299782 0.0202098 0 599.681
0.0307658 0.0207409 0 646.54
0.031571 0.021284 0 699.994
0.0323942 0.0218393 0 761.322
0.033236 0.0224069 0 832.161
0.0340965 0.0229872 0 916.258
0.0349762 0.0235805 0 1015.73
0.0358753 0.0241869 0 1132.35
0.0367944 0.0248067 0 1274.03
0.0377338 0.0254403 0 1442.84
0.0386938 0.0260877 0 1636.39
0.039675 0.0267494 0 1854.76
0.0406776 0.0274256 0 2093.23
0.0417021 0.0281165 0 2326.67
0.0427488 0.0288225 0 2548.09
0.0438183 0.0295437 0 2800.17
0.0449109 0.0302805 0 3059.21
0.046027 0.0310332 0 3253.69
0.0471671 0.0318021 0 3364.29
0.0483315 0.0325874 0 3345.54
0.0495209 0.0333895 0 3241.11
0.0507354 0.0342086 0 3084.29
0.0519756 0.035045 0 2883.38
0.053242 0.0358991 0 2633.19
0.054535 0.036771 0 2385.81
0.0558549 0.0376613 0 2203.2
0.0572024 0.03857 0 2091.99
0.0585778 0.0394976 0 2028.01
0.0599816 0.0404443 0 1994.46
0.0614142 0.0414105 0 1985.53
0.0628761 0.0423964 0 1979
0.0643678 0.0434024 0 1970.88
0.0658897 0.0444287 0 1963.88
0.0674422 0.0454758 0 1960.6
0.069026 0.0465439 0 1968.07
0.0706413 0.0476333 0 1982.47
0.0722886 0.0487443 0 1993.33
0.0739685 0.0498771 0 1989.34
0.0756813 0.0510323 0 1975.4
0.0774275 0.05221 0 1963.57
0.0792077 0.0534105 0 1966
0.0810221 0.0546342 0 1978.06
0.0828712 0.0558812 0 1987.31
0.0847556 0.0571521 0 1986.56
0.0866757 0.058447 0 1979.49
0.0886318 0.0597661 0 1972.38
0.0906244 0.06111 0 1968.75
0.0926539 0.0624787 0 1969.14
0.0947207 0.0638726 0 1972.12
0.0968252 0.0652919 0 1974.73
0.0989682 0.066737 0 1975.78
0.101149 0.068208 0 1973.46
0.103369 0.0697052 0 1967.31
0.105629 0.0712289 0 1958.13
0.107928 0.0727794 0 1952.97
0.110267 0.0743568 0 1945.14
0.112646 0.0759614 0 1941.15
0.115066 0.0775934 0 1933.95
0.117527 0.079253 0 1928.84
0.120029 0.0809404 0 1923.71
0.122572 0.0826558 0 1920.96
0.125158 0.0843994 0 1919.43
0.127785 0.0861713 0 1917.57
0.130454 0.0879717 0 1912.66
0.133167 0.0898008 0 1905.87
0.135921 0.0916586 0 1898.81
0.138719 0.0935453 0 1894.71
0.141559 0.095461 0 1890.73
0.144443 0.0974057 0 1896.66
0.14737 0.0993798 0 1901.14
0.15034 0.101383 0 1904.66
0.153354 0.103415 0 1911.94
0.156411 0.105477 0 1920.42
0.159511 0.107568 0 1927.67
0.162655 0.109688 0 1937.14
0.165842 0.111837 0 1936.73
0.169073 0.114016 0 1930.96
0.172346 0.116223 0 1932.65
0.175663 0.118461 0 1935.32
0.179022 0.120727 0 1935.49
0.182425 0.123021 0 1941.87
0.18587 0.125344 0 1945.91
0.189357 0.127696 0 1951.32
0.192886 0.130076 0 1957.99
0.196457 0.132484 0 1963.63
0.200069 0.13492 0 1960.28
0.203722 0.137384 0 1952.88
0.207416 0.139875 0 1950.45
0.21115 0.142393 0 1954.04
0.214924 0.144938 0 1957.92
0.218736 0.147509 0 1951.42
0.222587 0.150107 0 1936.7
0.226476 0.152729 0 1914.99
0.230403 0.155377 0 1904.24
0.234366 0.15805 0 1902.54
0.238366 0.160748 0 1899.43
0.242401 0.163469 0 1887.27
0.24647 0.166214 0 1873.14
0.250573 0.168981 0 1864.4
0.25471 0.17177 0 1860.33
0.258878 0.174582 0 1859.44
0.263078 0.177414 0 1858.17
0.267309 0.180266 0 1846.88
0.271568 0.183139 0 1842.82
0.275856 0.186031 0 1834.85
0.280172 0.188942 0 1831.5
0.284514 0.19187 0 1829.86
0.288881 0.194815 0 1832.82
0.293272 0.197777 0 1828.35
0.297687 0.200754 0 1824.07
0.302124 0.203746 0 1829.19
0.306581 0.206752 0 1831.61
0.311058 0.209772 0 1833.43
0.315554 0.212804 0 1827.89
0.320067 0.215847 0 1816.15
0.324595 0.218901 0 1817.24
0.329138 0.221965 0 1819.06
0.333695 0.225038 0 1820.91
0.338264 0.228119 0 1823.46
0.342843 0.231208 0 1823.24
0.347432 0.234302 0 1819.06
0.352029 0.237402 0 1815.98
0.356632 0.240507 0 1820.08
0.361241 0.243616 0 1824.13
0.365854 0.246727 0 1828.82
0.370469 0.249839 0 1829.66
0.375085 0.252953 0 1822.18
0.379702 0.256066 0 1816.08
0.384317 0.259178 0 1809.62
0.388929 0.262289 0 1809.93
0.393537 0.265396 0 1818.19
0.398139 0.2685 0 1824.51
0.402734 0.271598 0 1827.68
0.407321 0.274692 0 1828.84
0.411898 0.277779 0 1819.29
0.416464 0.280858 0 1808.67
0.421017 0.283929 0 1807.5
0.425557 0.286991 0 1813.99
0.430082 0.290042 0 1826.27
0.434591 0.293083 0 1835.13
0.439082 0.296112 0 1844.76
0.443555 0.299128 0 1842.55
0.448008 0.302131 0 1838.45
0.45244 0.30512 0 1820.17
0.456849 0.308094 0 1801.36
0.461235 0.311052 0 1798.26
0.465596 0.313993 0 1802.71
0.469932 0.316917 0 1821.73
0.474241 0.319823 0 1836.6
0.478523 0.322711 0 1855.03
0.482776 0.325579 0 1867.72
0.486999 0.328427 0 1865.9
0.491191 0.331254 0 1853.92
0.495353 0.334061 0 1834.99
