/*--------------------------------*- C++ -*----------------------------------*\
| =========                 |                                                 |
| \\      /  F ield         | OpenFOAM: The Open Source CFD Toolbox           |
|  \\    /   O peration     | Version:  v2012                                 |
|   \\  /    A nd           | Website:  www.openfoam.com                      |
|    \\/     M anipulation  |                                                 |
\*---------------------------------------------------------------------------*/
FoamFile
{
    version     2.0;
    format      ascii;
    class       volScalarField;
    location    "1";
    object      p;
}
// * * * * * * * * * * * * * * * * * * * * * * * * * * * * * * * * * * * * * //

dimensions      [1 -1 -2 0 0 0 0];


internalField   uniform 671.719;

boundaryField
{
    freestream
    {
        type            characteristicFarfieldPressure;
        U               ( 703.36 0 0 );
        p               671.719;
        T               60.467;
        value           uniform 671.719;
    }
    inlet
    {
        type            characteristicFarfieldPressure;
        U               ( 703.36 0 0 );
        p               671.719;
        T               60.467;
        value           uniform 671.719;
    }
    outlet
    {
        type            zeroGradient;
    }
    inviscidWall
    {
        type            zeroGradient;
    }
    viscousWall
    {
        type            characteristicWallPressure;
        value           uniform 671.719;
    }
    frontAndBack
    {
        type            empty;
    }
}


// ************************************************************************* //
