# Wall heat-flux
# Time        	patch         	min           	max           	integral      
8900          	base	-3.625806e+06	-3.250517e+04	-9.577781e+03
