# Wall heat-flux
# Time        	patch         	min           	max           	integral      
5700          	base	-2.277700e+06	-4.097705e+04	-2.716362e+02
