/*--------------------------------*- C++ -*----------------------------------*\
| =========                 |                                                 |
| \\      /  F ield         | OpenFOAM: The Open Source CFD Toolbox           |
|  \\    /   O peration     | Version:  v2012                                 |
|   \\  /    A nd           | Website:  www.openfoam.com                      |
|    \\/     M anipulation  |                                                 |
\*---------------------------------------------------------------------------*/
FoamFile
{
    version     2.0;
    format      ascii;
    class       volScalarField;
    location    "12000";
    object      alphat;
}
// * * * * * * * * * * * * * * * * * * * * * * * * * * * * * * * * * * * * * //

dimensions      [1 -1 -1 0 0 0 0];


internalField   nonuniform List<scalar> 
27324
(
0.000946006
0.000926332
0.0010305
0.000886799
0.00102177
0.00113945
0.000839161
0.000988951
0.00113934
0.00115861
0.000783931
0.000946827
0.0011076
0.00114581
0.000963352
0.000722182
0.000893934
0.00106232
0.00109369
0.00090812
0.000548092
0.000658586
0.00082985
0.000999108
0.00102175
0.000819009
0.000469294
0.000210591
0.000590914
0.000758078
0.000915881
0.000925485
0.000716227
0.000384285
0.000155583
5.63477e-05
0.000486366
0.000674542
0.000817688
0.000805858
0.000603905
0.000304616
0.000109403
3.44564e-05
1.09659e-05
0.000336267
0.000544554
0.000690246
0.000672525
0.000492696
0.000235731
7.43894e-05
2.04604e-05
6.21166e-06
2.33277e-06
0.000187075
0.000383304
0.000534012
0.00054465
0.000399282
0.000187217
5.04371e-05
1.23685e-05
3.80173e-06
1.58286e-06
8.01359e-07
0.000103391
0.000233742
0.000382599
0.000417244
0.000322656
0.000155589
3.93443e-05
7.99185e-06
2.68326e-06
1.2426e-06
6.85801e-07
4.06689e-07
8.73509e-05
0.000145038
0.000259626
0.000315721
0.00025594
0.000131382
3.48935e-05
6.48009e-06
2.16055e-06
1.09695e-06
6.27284e-07
3.83207e-07
2.36947e-07
8.09319e-05
0.000125192
0.000182355
0.000238865
0.000209245
0.000111227
3.13006e-05
6.17968e-06
1.98884e-06
1.02411e-06
5.97508e-07
3.66156e-07
2.28515e-07
1.42907e-07
7.60408e-05
0.000117641
0.000160275
0.000190665
0.000177413
9.97571e-05
2.82564e-05
5.79781e-06
1.94455e-06
9.92934e-07
5.77915e-07
3.55124e-07
2.20185e-07
1.38466e-07
8.58944e-08
7.17242e-05
0.000112105
0.000150449
0.000172055
0.00016126
9.3969e-05
2.76906e-05
5.46737e-06
1.82507e-06
9.71246e-07
5.66071e-07
3.46411e-07
2.14107e-07
1.33519e-07
8.29289e-08
5.13143e-08
6.75989e-05
0.000107134
0.000142852
0.000161945
0.000151704
9.31534e-05
2.85207e-05
5.67959e-06
1.71622e-06
9.00603e-07
5.47323e-07
3.39347e-07
2.08595e-07
1.2968e-07
7.95269e-08
4.94465e-08
3.0413e-08
6.37388e-05
0.000102409
0.00013638
0.000153847
0.000143686
8.96802e-05
2.9774e-05
6.27757e-06
1.76701e-06
8.47724e-07
5.00698e-07
3.18658e-07
2.02138e-07
1.25713e-07
7.67365e-08
4.69948e-08
2.91564e-08
1.7924e-08
6.01647e-05
9.7992e-05
0.000130488
0.000147131
0.000136117
8.45659e-05
2.88481e-05
6.98909e-06
1.93263e-06
8.81662e-07
4.77629e-07
2.88652e-07
1.8464e-07
1.17037e-07
7.28163e-08
4.45746e-08
2.69805e-08
1.72047e-08
1.00003e-08
5.68405e-05
9.39419e-05
0.00012517
0.000141096
0.000129521
7.90516e-05
2.73687e-05
6.93154e-06
2.12796e-06
9.69371e-07
5.09514e-07
2.83382e-07
1.68515e-07
1.04312e-07
6.48306e-08
3.97637e-08
2.42312e-08
1.49881e-08
8.70086e-09
5.3239e-09
5.36709e-05
9.02128e-05
0.000120306
0.000135557
0.00012327
7.38912e-05
2.57446e-05
6.79699e-06
2.12259e-06
1.05953e-06
5.72577e-07
3.11582e-07
1.72914e-07
9.9109e-08
5.82985e-08
3.4827e-08
2.07813e-08
1.23731e-08
7.24887e-09
4.23559e-09
2.59054e-09
5.06639e-05
8.66406e-05
0.000115641
0.000130267
0.000117245
6.87898e-05
2.3957e-05
6.60943e-06
2.09492e-06
1.04811e-06
6.34399e-07
3.56854e-07
1.95497e-07
1.06909e-07
5.941e-08
3.37529e-08
1.94297e-08
1.13157e-08
6.61251e-09
3.8722e-09
2.32144e-09
1.52276e-09
4.78153e-05
8.32325e-05
0.000110843
0.000124891
0.000111272
6.38846e-05
2.19561e-05
6.26706e-06
2.07439e-06
1.01631e-06
6.30075e-07
4.01895e-07
2.27142e-07
1.23378e-07
6.66613e-08
3.667e-08
2.04531e-08
1.15977e-08
6.6653e-09
3.89606e-09
2.32122e-09
1.46132e-09
1.06067e-09
4.50692e-05
7.99877e-05
0.000105877
0.00011912
0.000105192
5.91417e-05
1.99439e-05
5.77699e-06
2.01965e-06
1.01011e-06
6.08907e-07
4.02088e-07
2.59683e-07
1.4621e-07
7.8054e-08
4.19567e-08
2.29041e-08
1.27035e-08
7.15943e-09
4.12368e-09
2.44089e-09
1.50282e-09
1.01526e-09
8.32947e-10
4.23637e-05
7.68508e-05
0.000100699
0.000112996
9.89839e-05
5.46127e-05
1.79604e-05
5.24407e-06
1.92603e-06
1.00033e-06
6.03293e-07
3.8759e-07
2.61435e-07
1.68298e-07
9.21244e-08
4.88258e-08
2.61339e-08
1.42541e-08
7.90391e-09
4.47373e-09
2.60567e-09
1.57455e-09
1.01228e-09
7.78896e-10
6.96402e-10
3.96495e-05
7.36672e-05
9.53077e-05
0.000106604
9.28141e-05
5.05105e-05
1.61046e-05
4.70199e-06
1.82268e-06
9.83403e-07
6.00553e-07
3.7732e-07
2.51469e-07
1.72751e-07
1.06242e-07
5.69094e-08
2.99339e-08
1.60479e-08
8.75848e-09
4.87202e-09
2.787e-09
1.66014e-09
1.04105e-09
7.45735e-10
6.60169e-10
6.11963e-10
3.69278e-05
7.03691e-05
8.96873e-05
0.000100128
8.6855e-05
4.68323e-05
1.46351e-05
4.19931e-06
1.71861e-06
9.64476e-07
5.96009e-07
3.75456e-07
2.42381e-07
1.67481e-07
1.11968e-07
6.5136e-08
3.42586e-08
1.80785e-08
9.71409e-09
5.31842e-09
2.98862e-09
1.75043e-09
1.08036e-09
7.29055e-10
6.20845e-10
5.91414e-10
6.00465e-10
3.42025e-05
6.69003e-05
8.39273e-05
9.36826e-05
8.12208e-05
4.35394e-05
1.3482e-05
3.84101e-06
1.62513e-06
9.45061e-07
5.90354e-07
3.73761e-07
2.39771e-07
1.59744e-07
1.10786e-07
7.05428e-08
3.87593e-08
2.03592e-08
1.078e-08
5.82028e-09
3.21707e-09
1.85016e-09
1.1246e-09
7.33753e-10
5.82107e-10
5.65518e-10
5.65294e-10
7.57185e-10
3.15253e-05
6.32644e-05
7.81088e-05
8.74333e-05
7.58907e-05
4.05456e-05
1.25644e-05
3.59271e-06
1.56194e-06
9.26968e-07
5.83835e-07
3.712e-07
2.38702e-07
1.55177e-07
1.05231e-07
7.21768e-08
4.33645e-08
2.29053e-08
1.19773e-08
6.38261e-09
3.47647e-09
1.96427e-09
1.17232e-09
7.52051e-10
5.54805e-10
5.28652e-10
5.40027e-10
6.5089e-10
1.41597e-09
2.89692e-05
5.95397e-05
7.24784e-05
8.16107e-05
7.09761e-05
3.7813e-05
1.18053e-05
3.4227e-06
1.52002e-06
9.14233e-07
5.77035e-07
3.68046e-07
2.37299e-07
1.54031e-07
1.00794e-07
6.9114e-08
4.57863e-08
2.57085e-08
1.33284e-08
7.00634e-09
3.76807e-09
2.09402e-09
1.22749e-09
7.75138e-10
5.42842e-10
4.89549e-10
5.14786e-10
5.81837e-10
1.07408e-09
3.77173e-09
2.65764e-05
5.58718e-05
6.72169e-05
7.6347e-05
6.64861e-05
3.53035e-05
1.11545e-05
3.30316e-06
1.49214e-06
9.05256e-07
5.71864e-07
3.64665e-07
2.35598e-07
1.53126e-07
9.85116e-08
6.5292e-08
4.50835e-08
2.78518e-08
1.48335e-08
7.69487e-09
4.08965e-09
2.24055e-09
1.28996e-09
8.00757e-10
5.4662e-10
4.55658e-10
4.83904e-10
5.34576e-10
8.47369e-10
2.64774e-09
1.20659e-08
2.44158e-05
5.24017e-05
6.24376e-05
7.1648e-05
6.23529e-05
3.30003e-05
1.05586e-05
3.21306e-06
1.47279e-06
8.98671e-07
5.68087e-07
3.62153e-07
2.33757e-07
1.52078e-07
9.77678e-08
6.28689e-08
4.25435e-08
2.85658e-08
1.62363e-08
8.4547e-09
4.43864e-09
2.4037e-09
1.36161e-09
8.29813e-10
5.5742e-10
4.32872e-10
4.46638e-10
4.99367e-10
6.96549e-10
1.88742e-09
8.30776e-09
4.11536e-08
2.2461e-05
4.92529e-05
5.81296e-05
6.74361e-05
5.85097e-05
3.08696e-05
1.00121e-05
3.13089e-06
1.45777e-06
8.93578e-07
5.65437e-07
3.6043e-07
2.3239e-07
1.50962e-07
9.70589e-08
6.18843e-08
4.02262e-08
2.75647e-08
1.72928e-08
9.25179e-09
4.81921e-09
2.58206e-09
1.44301e-09
8.63814e-10
5.70789e-10
4.24184e-10
4.09736e-10
4.68026e-10
5.96672e-10
1.37389e-09
5.71653e-09
2.85632e-08
1.42021e-07
2.07106e-05
4.65023e-05
5.43523e-05
6.35785e-05
5.48929e-05
2.88974e-05
9.50857e-06
3.05385e-06
1.44317e-06
8.89404e-07
5.63629e-07
3.59399e-07
2.31481e-07
1.50104e-07
9.63192e-08
6.13978e-08
3.8723e-08
2.58377e-08
1.74207e-08
1.00571e-08
5.23568e-09
2.77412e-09
1.5342e-09
9.03328e-10
5.86238e-10
4.2604e-10
3.78832e-10
4.34551e-10
5.29393e-10
1.03076e-09
3.93609e-09
1.97007e-08
1.00286e-07
4.87475e-07
1.91281e-05
4.41185e-05
5.09718e-05
5.99746e-05
5.14633e-05
2.7058e-05
9.0437e-06
2.98085e-06
1.42898e-06
8.84967e-07
5.62284e-07
3.58834e-07
2.31002e-07
1.49522e-07
9.57116e-08
6.09275e-08
3.81827e-08
2.44747e-08
1.66139e-08
1.05227e-08
5.66947e-09
2.97998e-09
1.63399e-09
9.48903e-10
6.04267e-10
4.322e-10
3.57751e-10
3.97376e-10
4.81565e-10
8.03183e-10
2.72617e-09
1.3482e-08
7.0247e-08
3.51657e-07
1.64891e-06
1.76639e-05
4.1977e-05
4.7781e-05
5.64282e-05
4.81662e-05
2.5335e-05
8.60657e-06
2.91152e-06
1.41549e-06
8.8087e-07
5.61056e-07
3.5856e-07
2.30822e-07
1.49241e-07
9.52625e-08
6.05228e-08
3.78684e-08
2.35928e-08
1.55224e-08
1.0524e-08
6.06895e-09
3.20276e-09
1.74071e-09
1.00045e-09
6.25754e-10
4.39847e-10
3.48871e-10
3.61874e-10
4.43297e-10
6.53218e-10
1.91069e-09
9.1714e-09
4.87039e-08
2.51338e-07
1.21778e-06
5.46304e-06
1.62596e-05
3.98948e-05
4.46316e-05
5.28519e-05
4.49769e-05
2.37177e-05
8.19158e-06
2.84461e-06
1.40303e-06
8.77019e-07
5.60127e-07
3.58305e-07
2.30824e-07
1.492e-07
9.50314e-08
6.01902e-08
3.76012e-08
2.32859e-08
1.4707e-08
1.00099e-08
6.33904e-09
3.43596e-09
1.85323e-09
1.05721e-09
6.50714e-10
4.48892e-10
3.48329e-10
3.32147e-10
4.07432e-10
5.53979e-10
1.367e-09
6.21319e-09
3.34482e-08
1.77742e-07
8.8972e-07
4.14279e-06
1.78137e-05
1.48694e-05
3.77589e-05
4.14418e-05
4.92744e-05
4.19444e-05
2.21739e-05
7.77975e-06
2.78005e-06
1.39132e-06
8.73434e-07
5.59346e-07
3.58192e-07
2.30882e-07
1.49311e-07
9.49853e-08
5.99986e-08
3.73627e-08
2.31051e-08
1.41956e-08
9.34301e-09
6.32406e-09
3.67079e-09
1.97204e-09
1.11743e-09
6.79295e-10
4.59775e-10
3.51284e-10
3.11213e-10
3.70295e-10
4.86546e-10
1.00774e-09
4.20757e-09
2.27561e-08
1.24444e-07
6.42883e-07
3.10519e-06
1.38793e-05
5.72508e-05
1.35141e-05
3.54656e-05
3.82717e-05
4.58015e-05
3.9085e-05
2.07193e-05
7.35207e-06
2.71077e-06
1.37996e-06
8.69714e-07
5.5867e-07
3.58144e-07
2.31042e-07
1.4945e-07
9.50846e-08
5.99444e-08
3.72193e-08
2.29609e-08
1.40208e-08
8.83547e-09
6.0324e-09
3.82254e-09
2.09971e-09
1.17933e-09
7.11034e-10
4.73146e-10
3.55443e-10
3.0104e-10
3.35336e-10
4.37391e-10
7.72745e-10
2.85966e-09
1.53559e-08
8.6234e-08
4.59787e-07
2.30138e-06
1.06849e-05
4.58078e-05
0.000180226
1.22171e-05
3.30565e-05
3.51088e-05
4.25036e-05
3.64155e-05
1.93597e-05
6.93193e-06
2.63025e-06
1.36724e-06
8.65568e-07
5.57787e-07
3.58143e-07
2.31265e-07
1.49645e-07
9.5205e-08
5.9999e-08
3.71598e-08
2.28533e-08
1.39346e-08
8.52594e-09
5.62349e-09
3.83578e-09
2.22143e-09
1.24233e-09
7.44885e-10
4.88827e-10
3.60791e-10
2.98544e-10
3.05476e-10
3.96945e-10
6.19648e-10
1.96395e-09
1.02912e-08
5.9144e-08
3.25588e-07
1.68776e-06
8.14031e-06
3.62152e-05
0.000147982
0.000549909
1.1013e-05
3.05924e-05
3.21606e-05
3.94834e-05
3.39517e-05
1.81107e-05
6.53694e-06
2.54868e-06
1.35159e-06
8.60708e-07
5.56559e-07
3.57973e-07
2.31518e-07
1.49866e-07
9.53511e-08
6.008e-08
3.71776e-08
2.27932e-08
1.38735e-08
8.41481e-09
5.29322e-09
3.69135e-09
2.32503e-09
1.30833e-09
7.79253e-10
5.06897e-10
3.67584e-10
2.99558e-10
2.83208e-10
3.59311e-10
5.19122e-10
1.37511e-09
6.85863e-09
4.01334e-08
2.28317e-07
1.22482e-06
6.13993e-06
2.83715e-05
0.000120075
0.000463048
0.0016041
9.92992e-06
2.82397e-05
2.953e-05
3.68746e-05
3.16827e-05
1.69831e-05
6.1992e-06
2.47036e-06
1.33412e-06
8.54265e-07
5.54814e-07
3.57571e-07
2.31638e-07
1.50084e-07
9.5505e-08
6.01617e-08
3.7249e-08
2.27811e-08
1.38332e-08
8.37304e-09
5.09056e-09
3.44411e-09
2.35019e-09
1.37543e-09
8.13024e-10
5.2683e-10
3.76271e-10
3.01828e-10
2.7038e-10
3.23766e-10
4.51046e-10
9.92507e-10
4.5581e-09
2.69728e-08
1.58543e-07
8.80053e-07
4.58347e-06
2.20309e-05
9.66774e-05
0.000385335
0.00138596
0.00435682
9.00509e-06
2.60832e-05
2.72593e-05
3.46021e-05
2.96287e-05
1.59207e-05
5.91941e-06
2.40604e-06
1.3155e-06
8.46795e-07
5.52285e-07
3.56823e-07
2.31579e-07
1.50202e-07
9.56492e-08
6.02362e-08
3.73067e-08
2.28048e-08
1.38115e-08
8.34133e-09
4.99422e-09
3.21615e-09
2.29162e-09
1.43351e-09
8.47026e-10
5.47808e-10
3.86807e-10
3.04915e-10
2.65405e-10
2.92819e-10
4.0131e-10
7.46481e-10
3.03381e-09
1.79525e-08
1.0902e-07
6.26151e-07
3.38732e-06
1.69498e-05
7.72537e-05
0.00031852
0.00118312
0.00387683
0.0104085
8.20173e-06
2.41868e-05
2.53049e-05
3.25888e-05
2.77227e-05
1.49288e-05
5.66798e-06
2.35539e-06
1.29845e-06
8.38573e-07
5.49107e-07
3.55569e-07
2.31246e-07
1.50184e-07
9.57174e-08
6.02948e-08
3.73451e-08
2.28469e-08
1.38102e-08
8.31612e-09
4.96671e-09
3.06485e-09
2.15334e-09
1.4681e-09
8.82415e-10
5.68492e-10
3.99066e-10
3.09217e-10
2.64695e-10
2.68321e-10
3.6059e-10
5.88967e-10
2.03676e-09
1.18427e-08
7.41933e-08
4.41387e-07
2.47829e-06
1.29212e-05
6.12516e-05
0.000261586
0.00100375
0.00340624
0.00959369
0.0204538
7.49859e-06
2.25642e-05
2.36091e-05
3.07578e-05
2.59471e-05
1.39964e-05
5.43579e-06
2.30801e-06
1.28397e-06
8.30693e-07
5.45473e-07
3.53937e-07
2.30606e-07
1.49954e-07
9.56812e-08
6.03078e-08
3.73668e-08
2.28776e-08
1.38231e-08
8.29692e-09
4.94542e-09
2.96829e-09
1.99607e-09
1.4503e-09
9.17035e-10
5.8788e-10
4.12559e-10
3.1495e-10
2.65681e-10
2.51687e-10
3.23771e-10
4.87508e-10
1.39246e-09
7.75487e-09
4.99528e-08
3.08243e-07
1.79614e-06
9.7575e-06
4.81871e-05
0.000213422
0.000846484
0.0029745
0.00872913
0.0195425
0.0329725
6.86111e-06
2.11003e-05
2.20824e-05
2.90775e-05
2.42805e-05
1.31217e-05
5.21775e-06
2.26215e-06
1.2688e-06
8.23257e-07
5.41973e-07
3.52048e-07
2.29741e-07
1.49508e-07
9.55094e-08
6.02636e-08
3.73632e-08
2.28846e-08
1.38393e-08
8.28386e-09
4.92328e-09
2.93525e-09
1.87437e-09
1.38528e-09
9.44279e-10
6.06721e-10
4.2637e-10
3.22231e-10
2.67361e-10
2.43344e-10
2.91197e-10
4.20041e-10
9.81908e-10
5.05406e-09
3.32586e-08
2.1326e-07
1.28977e-06
7.30145e-06
3.76046e-05
0.000173011
0.000709658
0.00258174
0.00789526
0.0184499
0.0323087
0.0473391
6.2591e-06
1.96894e-05
2.06095e-05
2.74581e-05
2.27376e-05
1.22919e-05
5.01106e-06
2.21784e-06
1.25416e-06
8.16084e-07
5.38766e-07
3.50331e-07
2.28735e-07
1.48922e-07
9.5198e-08
6.01415e-08
3.73303e-08
2.28774e-08
1.38502e-08
8.27812e-09
4.90571e-09
2.9182e-09
1.79764e-09
1.28596e-09
9.51994e-10
6.25965e-10
4.39428e-10
3.30813e-10
2.70072e-10
2.40472e-10
2.63976e-10
3.71747e-10
7.23209e-10
3.2963e-09
2.188e-08
1.46131e-07
9.18132e-07
5.41421e-06
2.91146e-05
0.000139337
0.000591598
0.00222762
0.00709699
0.0173398
0.0313298
0.0470729
0.0647759
5.67671e-06
1.82647e-05
1.91952e-05
2.59272e-05
2.12804e-05
1.15101e-05
4.81018e-06
2.17494e-06
1.23974e-06
8.09245e-07
5.35535e-07
3.48887e-07
2.27861e-07
1.48262e-07
9.48076e-08
5.99276e-08
3.72472e-08
2.28502e-08
1.38484e-08
8.27771e-09
4.89694e-09
2.90462e-09
1.75677e-09
1.19125e-09
9.27417e-10
6.43803e-10
4.50941e-10
3.40518e-10
2.73974e-10
2.40141e-10
2.43154e-10
3.33063e-10
5.62184e-10
2.16457e-09
1.42262e-08
9.90662e-08
6.48163e-07
3.98046e-06
2.23607e-05
0.000111511
0.000490443
0.00191125
0.00634043
0.0162141
0.0303066
0.0463378
0.0651776
0.0819996
5.11352e-06
1.68468e-05
1.78846e-05
2.44987e-05
1.99257e-05
1.07499e-05
4.6088e-06
2.13192e-06
1.22527e-06
8.02454e-07
5.32399e-07
3.47633e-07
2.27188e-07
1.4771e-07
9.43953e-08
5.96653e-08
3.71385e-08
2.28045e-08
1.38383e-08
8.2791e-09
4.89504e-09
2.89383e-09
1.74331e-09
1.12308e-09
8.75278e-10
6.56275e-10
4.61469e-10
3.50578e-10
2.79217e-10
2.40864e-10
2.29868e-10
2.9924e-10
4.61884e-10
1.44575e-09
9.14649e-09
6.63924e-08
4.53646e-07
2.9031e-06
1.70407e-05
8.86765e-05
0.00040449
0.00163088
0.00563031
0.0150835
0.0292293
0.0455537
0.0649271
0.0834346
0.0940257
4.59092e-06
1.54746e-05
1.66907e-05
2.31527e-05
1.86385e-05
1.00252e-05
4.39394e-06
2.08553e-06
1.21002e-06
7.95551e-07
5.29249e-07
3.46532e-07
2.26691e-07
1.47307e-07
9.40802e-08
5.94075e-08
3.7013e-08
2.27489e-08
1.38235e-08
8.27519e-09
4.90036e-09
2.88768e-09
1.73587e-09
1.08085e-09
8.0744e-10
6.55417e-10
4.72007e-10
3.60052e-10
2.85645e-10
2.424e-10
2.23192e-10
2.70264e-10
3.97085e-10
9.95558e-10
5.83366e-09
4.39179e-08
3.14703e-07
2.10093e-06
1.28917e-05
7.00872e-05
0.000331945
0.00138473
0.00496983
0.0139566
0.0281082
0.0447031
0.0646271
0.084087
0.0963891
0.100194
4.13582e-06
1.42426e-05
1.56756e-05
2.18908e-05
1.74021e-05
9.34108e-06
4.18023e-06
2.03142e-06
1.19333e-06
7.88059e-07
5.25969e-07
3.45508e-07
2.26296e-07
1.47073e-07
9.38627e-08
5.92219e-08
3.68955e-08
2.26895e-08
1.38083e-08
8.27122e-09
4.91032e-09
2.8871e-09
1.72939e-09
1.06124e-09
7.46412e-10
6.32411e-10
4.8179e-10
3.68037e-10
2.93077e-10
2.44853e-10
2.20702e-10
2.46533e-10
3.52144e-10
7.19703e-10
3.7097e-09
2.86481e-08
2.16111e-07
1.50941e-06
9.68457e-06
5.50752e-05
0.000271179
0.00117032
0.00436224
0.0128415
0.0269479
0.0437977
0.0642365
0.0847255
0.0979628
0.103114
0.101959
3.74969e-06
1.31766e-05
1.48268e-05
2.07211e-05
1.61947e-05
8.72928e-06
3.97775e-06
1.97393e-06
1.17327e-06
7.79842e-07
5.22296e-07
3.44404e-07
2.25937e-07
1.46898e-07
9.37698e-08
5.91032e-08
3.681e-08
2.26338e-08
1.37929e-08
8.2671e-09
4.91746e-09
2.89143e-09
1.72671e-09
1.0547e-09
7.02964e-10
5.92943e-10
4.87668e-10
3.74546e-10
3.01102e-10
2.48576e-10
2.202e-10
2.28479e-10
3.17537e-10
5.52397e-10
2.37247e-09
1.84039e-08
1.46723e-07
1.07626e-06
7.22987e-06
4.30374e-05
0.000220643
0.00098521
0.00380858
0.0117503
0.0257522
0.0428365
0.0637734
0.0852664
0.099594
0.105282
0.105167
0.100519
3.41923e-06
1.22647e-05
1.40945e-05
1.95878e-05
1.50264e-05
8.16043e-06
3.80786e-06
1.91667e-06
1.15149e-06
7.70205e-07
5.18076e-07
3.43015e-07
2.2549e-07
1.46744e-07
9.36962e-08
5.90663e-08
3.67441e-08
2.25845e-08
1.37755e-08
8.26239e-09
4.92116e-09
2.89862e-09
1.7253e-09
1.05095e-09
6.75693e-10
5.43424e-10
4.85044e-10
3.80754e-10
3.09065e-10
2.53391e-10
2.2053e-10
2.17247e-10
2.88316e-10
4.511e-10
1.5457e-09
1.16452e-08
9.82638e-08
7.61404e-07
5.36532e-06
3.34664e-05
0.000178858
0.000826737
0.00330947
0.0106915
0.0245217
0.0418202
0.0632349
0.0857317
0.10118
0.10755
0.107679
0.103847
0.0967084
3.11823e-06
1.14653e-05
1.34419e-05
1.84639e-05
1.39012e-05
7.63986e-06
3.65922e-06
1.86919e-06
1.12906e-06
7.59588e-07
5.13003e-07
3.41177e-07
2.2485e-07
1.46522e-07
9.36166e-08
5.9025e-08
3.67248e-08
2.2538e-08
1.3753e-08
8.25516e-09
4.92233e-09
2.90426e-09
1.72641e-09
1.04733e-09
6.62234e-10
4.98438e-10
4.66968e-10
3.86567e-10
3.16084e-10
2.59075e-10
2.22473e-10
2.11625e-10
2.63312e-10
3.88444e-10
1.04466e-09
7.26798e-09
6.48005e-08
5.33729e-07
3.96011e-06
2.59089e-05
0.000144548
0.000692002
0.00286444
0.00967516
0.023262
0.0407554
0.0626222
0.08611
0.10275
0.109811
0.110309
0.106539
0.100042
0.0911551
2.83104e-06
1.06918e-05
1.27929e-05
1.73399e-05
1.28258e-05
7.16146e-06
3.52094e-06
1.82607e-06
1.10942e-06
7.48446e-07
5.07453e-07
3.38795e-07
2.23844e-07
1.46176e-07
9.34814e-08
5.89737e-08
3.67027e-08
2.25082e-08
1.37267e-08
8.24385e-09
4.92037e-09
2.90549e-09
1.72922e-09
1.044e-09
6.56997e-10
4.65567e-10
4.37584e-10
3.90219e-10
3.21636e-10
2.65493e-10
2.25164e-10
2.0939e-10
2.42836e-10
3.47526e-10
7.4361e-10
4.49822e-09
4.19797e-08
3.70178e-07
2.90624e-06
1.99876e-05
0.000116525
0.000578321
0.00247151
0.00871067
0.0219808
0.0396435
0.0619352
0.0863968
0.104293
0.112101
0.112957
0.109358
0.102799
0.0944117
0.0843833
2.55988e-06
9.9262e-06
1.21201e-05
1.62057e-05
1.18089e-05
6.71986e-06
3.39239e-06
1.78407e-06
1.09108e-06
7.38355e-07
5.01702e-07
3.36098e-07
2.22514e-07
1.45577e-07
9.32789e-08
5.8884e-08
3.66743e-08
2.24707e-08
1.3695e-08
8.22252e-09
4.91551e-09
2.90335e-09
1.73299e-09
1.04135e-09
6.54016e-10
4.44908e-10
4.00381e-10
3.88475e-10
3.26075e-10
2.72214e-10
2.29018e-10
2.08755e-10
2.27627e-10
3.16881e-10
5.64392e-10
2.78828e-09
2.66786e-08
2.53386e-07
2.1198e-06
1.53727e-05
9.37915e-05
0.000482927
0.00212836
0.00780565
0.0206877
0.0384812
0.0611709
0.0866004
0.105804
0.114408
0.115656
0.112208
0.105686
0.0971489
0.0874999
0.0768492
2.30851e-06
9.18809e-06
1.14411e-05
1.50909e-05
1.08553e-05
6.311e-06
3.26986e-06
1.74306e-06
1.07331e-06
7.28876e-07
4.96821e-07
3.33311e-07
2.21022e-07
1.44771e-07
9.29141e-08
5.87579e-08
3.6621e-08
2.24293e-08
1.36586e-08
8.1934e-09
4.90385e-09
2.89922e-09
1.73598e-09
1.04033e-09
6.51717e-10
4.33738e-10
3.6464e-10
3.77195e-10
3.301e-10
2.78864e-10
2.33554e-10
2.09574e-10
2.18209e-10
2.91523e-10
4.60386e-10
1.75896e-09
1.66253e-08
1.70735e-07
1.53448e-06
1.17947e-05
7.54402e-05
0.000403386
0.0018313
0.00696784
0.0193924
0.0372735
0.0603308
0.086731
0.107277
0.11673
0.118397
0.115124
0.108614
0.100014
0.0901499
0.0797782
0.0689484
2.08362e-06
8.49804e-06
1.07461e-05
1.39943e-05
9.96781e-06
5.92507e-06
3.15164e-06
1.70169e-06
1.05574e-06
7.19764e-07
4.92539e-07
3.31142e-07
2.19501e-07
1.43889e-07
9.24269e-08
5.85453e-08
3.65453e-08
2.23852e-08
1.36202e-08
8.16133e-09
4.88915e-09
2.89442e-09
1.73659e-09
1.04109e-09
6.50301e-10
4.29706e-10
3.36888e-10
3.54429e-10
3.33382e-10
2.8472e-10
2.38726e-10
2.12477e-10
2.13431e-10
2.6975e-10
3.98254e-10
1.15453e-09
1.01655e-08
1.12935e-07
1.10045e-06
9.0258e-06
6.07116e-05
0.000337373
0.00157651
0.00620194
0.018108
0.0360245
0.0594179
0.0867844
0.108708
0.119064
0.121178
0.118094
0.111615
0.102926
0.0929229
0.0822903
0.0716563
0.061012
1.88764e-06
7.88318e-06
1.00553e-05
1.29014e-05
9.14621e-06
5.56451e-06
3.03081e-06
1.6598e-06
1.03771e-06
7.10965e-07
4.88706e-07
3.29464e-07
2.18377e-07
1.43041e-07
9.19018e-08
5.82831e-08
3.64281e-08
2.23377e-08
1.35868e-08
8.1315e-09
4.87145e-09
2.88905e-09
1.73579e-09
1.04314e-09
6.49429e-10
4.28018e-10
3.18353e-10
3.25436e-10
3.33233e-10
2.89287e-10
2.44572e-10
2.16363e-10
2.11115e-10
2.51857e-10
3.58651e-10
8.07228e-10
6.12866e-09
7.31049e-08
7.80109e-07
6.88571e-06
4.89259e-05
0.000282919
0.00135947
0.00551154
0.0168472
0.0347412
0.0584345
0.0867565
0.110089
0.121405
0.123995
0.121119
0.114679
0.105915
0.0957473
0.0849184
0.0739944
0.0634784
0.0533032
1.71366e-06
7.33158e-06
9.37357e-06
1.18408e-05
8.39362e-06
5.23583e-06
2.91057e-06
1.6136e-06
1.01933e-06
7.02058e-07
4.85115e-07
3.28014e-07
2.17632e-07
1.42435e-07
9.14197e-08
5.79941e-08
3.63069e-08
2.22824e-08
1.35639e-08
8.10814e-09
4.85416e-09
2.88305e-09
1.73459e-09
1.04495e-09
6.49378e-10
4.26896e-10
3.06701e-10
2.94947e-10
3.26691e-10
2.92907e-10
2.51031e-10
2.20962e-10
2.10269e-10
2.38995e-10
3.30276e-10
6.11187e-10
3.67779e-09
4.62223e-08
5.44991e-07
5.23153e-06
3.95145e-05
0.000238209
0.001176
0.00489666
0.0156261
0.0334302
0.0573866
0.0866424
0.111409
0.123747
0.126846
0.124194
0.117806
0.108972
0.0986499
0.0875999
0.0764398
0.0656197
0.0555193
0.0460171
1.55353e-06
6.81464e-06
8.6986e-06
1.08144e-05
7.71381e-06
4.93989e-06
2.79874e-06
1.56578e-06
9.99225e-07
6.92856e-07
4.81391e-07
3.2665e-07
2.17028e-07
1.42136e-07
9.10744e-08
5.77371e-08
3.61804e-08
2.223e-08
1.35398e-08
8.09447e-09
4.83954e-09
2.87596e-09
1.73304e-09
1.04552e-09
6.50247e-10
4.25893e-10
3.0154e-10
2.69008e-10
3.10948e-10
2.96086e-10
2.57777e-10
2.25948e-10
2.12394e-10
2.31001e-10
3.06835e-10
4.96459e-10
2.23851e-09
2.8504e-08
3.74149e-07
3.95109e-06
3.19963e-05
0.000201692
0.00102187
0.0043558
0.0144591
0.0321031
0.0562786
0.0864403
0.112657
0.126085
0.129726
0.127319
0.120993
0.112098
0.101623
0.0903585
0.0789388
0.0678586
0.0574523
0.0479839
0.0392865
1.39956e-06
6.31298e-06
8.02825e-06
9.83594e-06
7.09829e-06
4.67281e-06
2.69322e-06
1.5212e-06
9.78438e-07
6.8312e-07
4.77423e-07
3.25141e-07
2.16447e-07
1.41888e-07
9.0926e-08
5.75487e-08
3.60563e-08
2.21776e-08
1.35162e-08
8.08773e-09
4.82744e-09
2.86825e-09
1.73011e-09
1.04496e-09
6.51707e-10
4.25117e-10
2.99323e-10
2.49888e-10
2.88829e-10
2.97388e-10
2.64372e-10
2.31414e-10
2.15814e-10
2.26683e-10
2.86612e-10
4.32026e-10
1.42036e-09
1.71633e-08
2.51528e-07
2.96072e-06
2.59681e-05
0.000171985
0.000893427
0.00388492
0.013361
0.0307737
0.0551186
0.0861491
0.113822
0.12841
0.13263
0.130488
0.124239
0.11529
0.104667
0.0931875
0.0815121
0.0701497
0.059473
0.049707
0.0410128
0.0331904
1.25015e-06
5.82124e-06
7.3765e-06
8.91872e-06
6.5394e-06
4.4284e-06
2.59129e-06
1.47915e-06
9.58883e-07
6.73321e-07
4.7306e-07
3.23329e-07
2.15732e-07
1.41634e-07
9.08258e-08
5.74447e-08
3.59342e-08
2.21149e-08
1.34916e-08
8.08113e-09
4.8203e-09
2.8604e-09
1.72594e-09
1.04391e-09
6.53314e-10
4.24714e-10
2.98153e-10
2.37348e-10
2.63644e-10
2.95251e-10
2.70316e-10
2.3724e-10
2.20658e-10
2.24461e-10
2.70124e-10
3.92066e-10
9.68318e-10
1.01286e-08
1.65102e-07
2.19562e-06
2.11165e-05
0.000147842
0.000787314
0.00347963
0.012342
0.0294623
0.0539138
0.0857709
0.11489
0.130714
0.135551
0.133697
0.127539
0.118545
0.107779
0.0960878
0.0841537
0.0725109
0.0615436
0.051508
0.0425314
0.0346902
0.0277636
1.10777e-06
5.33323e-06
6.75474e-06
8.07294e-06
6.03574e-06
4.20059e-06
2.4913e-06
1.43841e-06
9.40808e-07
6.64287e-07
4.68655e-07
3.21223e-07
2.1478e-07
1.41295e-07
9.06915e-08
5.73521e-08
3.58276e-08
2.20417e-08
1.34632e-08
8.07102e-09
4.81478e-09
2.85312e-09
1.7202e-09
1.04224e-09
6.54309e-10
4.24871e-10
2.97369e-10
2.30009e-10
2.39721e-10
2.8768e-10
2.75068e-10
2.43482e-10
2.26201e-10
2.24454e-10
2.5845e-10
3.64158e-10
7.22519e-10
5.92398e-09
1.05494e-07
1.60762e-06
1.71898e-05
0.000128221
0.000700363
0.00313512
0.0114118
0.0281897
0.052678
0.0853078
0.115848
0.132986
0.138482
0.136941
0.130889
0.121861
0.110959
0.0990565
0.0868648
0.074937
0.0636789
0.0533554
0.0441187
0.0360151
0.0290546
0.0230069
9.71772e-07
4.85678e-06
6.17102e-06
7.31186e-06
5.5813e-06
3.98655e-06
2.39166e-06
1.39845e-06
9.24189e-07
6.56239e-07
4.6477e-07
3.19071e-07
2.13657e-07
1.40791e-07
9.05093e-08
5.72705e-08
3.57197e-08
2.19668e-08
1.34152e-08
8.05692e-09
4.8098e-09
2.84648e-09
1.71342e-09
1.0404e-09
6.54557e-10
4.25559e-10
2.96654e-10
2.26859e-10
2.20034e-10
2.71829e-10
2.78088e-10
2.50434e-10
2.32311e-10
2.2718e-10
2.51361e-10
3.40338e-10
5.85977e-10
3.50527e-09
6.55409e-08
1.15881e-06
1.40014e-05
0.000112225
0.000629762
0.00284633
0.0105756
0.0269718
0.0514296
0.0847659
0.11668
0.135213
0.141413
0.140213
0.134285
0.125233
0.114202
0.102093
0.0896428
0.0774292
0.0658748
0.055262
0.0457486
0.0374001
0.0301998
0.0241082
0.0188965
8.44501e-07
4.38961e-06
5.62469e-06
6.64544e-06
5.17488e-06
3.78223e-06
2.29143e-06
1.35905e-06
9.08745e-07
6.49022e-07
4.61498e-07
3.1724e-07
2.12531e-07
1.40229e-07
9.02484e-08
5.71615e-08
3.56363e-08
2.18915e-08
1.3356e-08
8.03377e-09
4.80185e-09
2.84107e-09
1.70701e-09
1.03805e-09
6.54355e-10
4.26521e-10
2.96539e-10
2.25578e-10
2.05594e-10
2.52606e-10
2.78997e-10
2.58288e-10
2.38867e-10
2.31547e-10
2.47155e-10
3.19208e-10
5.09899e-10
2.17298e-09
3.96127e-08
8.20191e-07
1.14049e-05
9.9153e-05
0.000572812
0.00260873
0.00983631
0.0258259
0.0502
0.0841506
0.117373
0.137383
0.144331
0.143503
0.137719
0.128659
0.117505
0.105194
0.0924872
0.0799852
0.0681323
0.0572241
0.0474318
0.0388238
0.0313972
0.0250895
0.019828
0.0153917
7.33803e-07
3.92972e-06
5.11769e-06
6.06844e-06
4.81579e-06
3.58451e-06
2.19179e-06
1.32052e-06
8.9422e-07
6.42376e-07
4.58668e-07
3.15765e-07
2.11661e-07
1.39707e-07
8.99741e-08
5.70341e-08
3.55643e-08
2.18236e-08
1.32943e-08
8.00839e-09
4.79281e-09
2.83805e-09
1.70137e-09
1.03507e-09
6.53895e-10
4.27355e-10
2.96647e-10
2.24957e-10
1.9588e-10
2.32106e-10
2.75556e-10
2.66126e-10
2.45752e-10
2.37325e-10
2.45167e-10
3.02052e-10
4.63769e-10
1.46691e-09
2.34134e-08
5.68142e-07
9.29384e-06
8.84457e-05
0.000527219
0.00241717
0.00919821
0.0247645
0.0490215
0.0834703
0.117926
0.13948
0.147224
0.146801
0.141185
0.13213
0.120865
0.108357
0.0953951
0.0826047
0.0704494
0.0592427
0.0491653
0.040295
0.0326295
0.0261161
0.0206616
0.0161728
0.0124414
6.38134e-07
3.48908e-06
4.65602e-06
5.5755e-06
4.49628e-06
3.39043e-06
2.09472e-06
1.28369e-06
8.80614e-07
6.36057e-07
4.56081e-07
3.14507e-07
2.10984e-07
1.39341e-07
8.97212e-08
5.69117e-08
3.54898e-08
2.17697e-08
1.32377e-08
7.98062e-09
4.78294e-09
2.83432e-09
1.69711e-09
1.03209e-09
6.53296e-10
4.27786e-10
2.97125e-10
2.24574e-10
1.90675e-10
2.12885e-10
2.68371e-10
2.73052e-10
2.52983e-10
2.43882e-10
2.4557e-10
2.89605e-10
4.31545e-10
1.09913e-09
1.3714e-08
3.83901e-07
7.58491e-06
7.96957e-05
0.000490998
0.0022665
0.00866441
0.0238016
0.0479201
0.0827526
0.118361
0.141487
0.150075
0.150091
0.14467
0.135642
0.124277
0.111578
0.0983638
0.0852851
0.072826
0.0613161
0.0509499
0.0418112
0.0339039
0.0271738
0.0215345
0.0168747
0.0130903
0.00998868
5.55945e-07
3.08678e-06
4.253e-06
5.15408e-06
4.21005e-06
3.19825e-06
2.00089e-06
1.25024e-06
8.6811e-07
6.30018e-07
4.5353e-07
3.13359e-07
2.1043e-07
1.39075e-07
8.95265e-08
5.67982e-08
3.54238e-08
2.17355e-08
1.31954e-08
7.95501e-09
4.7689e-09
2.83008e-09
1.69624e-09
1.02928e-09
6.51576e-10
4.27779e-10
2.97812e-10
2.24662e-10
1.88565e-10
1.97443e-10
2.56848e-10
2.77835e-10
2.60792e-10
2.51155e-10
2.4851e-10
2.82079e-10
4.03684e-10
9.0357e-10
8.1957e-09
2.52145e-07
6.21751e-06
7.25919e-05
0.00046265
0.00215134
0.00823657
0.0229543
0.0469135
0.0820325
0.118685
0.143382
0.152865
0.153358
0.148162
0.139182
0.127733
0.114853
0.101391
0.0880239
0.0752596
0.0634442
0.0527842
0.0433732
0.0352183
0.0282686
0.0224352
0.0176108
0.0136759
0.0105224
0.00797446
4.82663e-07
2.73397e-06
3.91404e-06
4.7919e-06
3.94942e-06
3.00685e-06
1.9108e-06
1.22067e-06
8.57119e-07
6.24299e-07
4.51037e-07
3.12223e-07
2.09942e-07
1.38852e-07
8.93772e-08
5.66972e-08
3.53657e-08
2.17059e-08
1.31756e-08
7.93541e-09
4.75314e-09
2.82554e-09
1.69571e-09
1.02691e-09
6.49428e-10
4.27552e-10
2.98765e-10
2.25306e-10
1.87839e-10
1.8646e-10
2.41923e-10
2.79371e-10
2.69365e-10
2.59011e-10
2.53261e-10
2.77516e-10
3.78069e-10
7.939e-10
5.26468e-09
1.60271e-07
5.14575e-06
6.6922e-05
0.000441021
0.00206706
0.00791159
0.0222473
0.046012
0.0813404
0.118916
0.145134
0.155565
0.156578
0.15164
0.142737
0.131225
0.118177
0.104472
0.0908195
0.0777483
0.065625
0.0546681
0.0449798
0.0365734
0.0293988
0.0233684
0.0183716
0.0142913
0.0110061
0.00840868
0.00634022
4.17011e-07
2.42945e-06
3.63195e-06
4.47676e-06
3.70643e-06
2.81794e-06
1.82486e-06
1.19428e-06
8.47441e-07
6.19187e-07
4.48618e-07
3.11133e-07
2.09475e-07
1.38675e-07
8.92441e-08
5.6616e-08
3.52959e-08
2.16786e-08
1.3157e-08
7.91989e-09
4.73548e-09
2.81942e-09
1.69517e-09
1.02529e-09
6.46745e-10
4.27218e-10
2.99908e-10
2.26122e-10
1.87953e-10
1.79403e-10
2.26113e-10
2.76648e-10
2.78798e-10
2.6731e-10
2.59511e-10
2.76256e-10
3.5745e-10
7.26894e-10
3.83856e-09
9.81489e-08