/*--------------------------------*- C++ -*----------------------------------*\
| =========                 |                                                 |
| \\      /  F ield         | OpenFOAM: The Open Source CFD Toolbox           |
|  \\    /   O peration     | Version:  v2012                                 |
|   \\  /    A nd           | Website:  www.openfoam.com                      |
|    \\/     M anipulation  |                                                 |
\*---------------------------------------------------------------------------*/
FoamFile
{
    version     2.0;
    format      ascii;
    class       volScalarField;
    location    "12000";
    object      betann;
}
// * * * * * * * * * * * * * * * * * * * * * * * * * * * * * * * * * * * * * //

dimensions      [0 0 0 0 0 0 0];


internalField   nonuniform List<scalar> 
27324
(
1.49819
1.5735
2.03699
1.63617
2.14616
2.2474
1.70353
2.20947
2.33882
2.34337
1.76804
2.26928
2.38891
2.42244
2.39053
1.82737
2.32521
2.43777
2.46634
2.44584
2.37685
1.82279
2.3822
2.48393
2.50865
2.47888
2.40665
2.30715
1.84977
2.41117
2.52832
2.54842
2.50931
2.43634
2.32377
2.116
2.06198
2.241
2.6094
2.58574
2.54198
2.4572
2.36963
2.15276
1.94639
2.42371
1.93593
2.4072
2.65869
2.57915
2.48129
2.39064
2.24591
1.98661
1.87578
2.0007
2.28845
1.7833
2.44032
2.59041
2.51831
2.41767
2.29158
2.07776
1.88909
1.94728
1.65714
1.88404
2.317
1.70246
2.35741
2.46361
2.46354
2.35651
2.14161
1.89663
1.98665
2.07906
1.72092
2.07241
1.88994
2.31369
1.87182
2.17623
2.30404
2.44483
2.26966
1.94625
1.89822
2.1583
2.07344
1.73697
2.15072
2.12713
1.87955
2.28552
2.02286
2.06282
2.16703
2.35974
2.14969
1.82614
2.04605
2.18648
2.02027
1.76999
2.159
2.20112
2.11101
1.86827
2.25777
2.08451
2.04065
2.13276
2.20013
2.121
1.8402
2.08037
2.10785
1.99517
1.77347
2.17305
2.2056
2.19891
2.10559
1.85919
2.23931
2.11056
1.96758
2.15944
2.29827
2.27468
2.06995
2.04527
1.9224
1.92073
1.7722
2.16463
2.20212
2.20405
2.2157
2.0693
1.96765
2.23342
2.12341
1.89717
2.18253
2.39094
2.38054
2.41743
2.43043
1.9963
1.76198
1.76018
2.15823
2.19264
2.20103
2.22555
2.2296
1.88048
2.06644
2.04807
1.95152
2.36403
2.34432
2.09803
2.40255
2.4838
2.41169
2.33663
2.21482
1.75317
2.14908
2.19056
2.20644
2.2335
2.24956
2.20376
1.78929
1.86327
2.23417
2.37449
2.44217
2.78921
2.62084
2.32282
2.17482
2.24511
2.1285
2.34396
1.75109
2.14634
2.19392
2.21446
2.24329
2.26334
2.24347
2.07657
2.03987
1.79832
2.3136
2.3519
2.36218
2.59395
3.04872
2.92497
2.97247
3.07701
2.87723
2.78713
1.75246
2.14691
2.20311
2.22739
2.2527
2.26386
2.24892
2.19822
1.70586
2.10682
1.87676
2.25822
2.26539
2.28242
2.29181
2.33216
2.08408
1.9738
1.97634
1.73313
1.75338
1.75864
2.14969
2.21365
2.24202
2.26416
2.26634
2.24821
2.20519
2.08913
1.75231
2.1539
2.14988
2.27931
2.01419
2.00808
2.18628
2.38065
2.40345
2.35996
2.08664
1.72075
1.9492
1.77606
2.15614
2.22497
2.25487
2.27403
2.2684
2.24565
2.2089
2.13153
1.87652
1.98544
2.00272
2.32153
2.67734
1.50861
1.5424
1.83726
2.04655
2.01046
1.60515
1.01636
1.39937
1.73973
1.80321
2.16987
2.23645
2.26452
2.27918
2.26967
2.24669
2.20844
2.12466
1.9814
1.46384
2.12416
2.62958
2.31116
2.38952
1.90393
1.84438
2.05159
2.12416
1.89043
1.35132
1.06746
1.5773
1.76352
1.83462
2.18391
2.2458
2.2707
2.2792
2.26856
2.25104
2.21897
2.12472
1.99014
1.81562
1.65211
2.26339
2.22924
2.3251
1.84653
1.77426
1.92938
2.12403
2.01723
1.60377
1.0463
1.35823
1.63224
1.68848
1.86618
2.1994
2.25376
2.27197
2.27651
2.26607
2.25537
2.23424
2.13656
2.00501
1.86141
1.35616
2.03305
2.13209
2.34007
2.19108
1.12058
1.55627
1.98598
2.0632
1.68718
1.06116
1.07924
1.71574
1.71577
1.40477
1.90067
2.21638
2.25889
2.27457
2.27396
2.26412
2.25866
2.24482
2.15598
2.03918
1.89719
1.57134
0.996186
2.24921
2.62866
2.43171
1.90102
1.15685
1.73562
2.0718
1.80406
1.26546
0.990982
1.49535
1.72598
1.66727
1.05715
1.93022
2.22844
2.26034
2.27128
2.26977
2.2638
2.26185
2.2484
2.1699
2.07906
1.94135
1.62733
1.20097
1.85676
2.37951
1.99713
2.32727
1.44593
1.502
1.95807
1.8674
1.49751
1.08503
1.05864
1.67454
1.7141
1.31614
1.0843
1.94813
2.23672
2.25596
2.26341
2.26525
2.26198
2.26517
2.24813
2.17617
2.10754
1.98244
1.68261
1.36583
1.0663
2.21371
2.60036
2.44595
2.13987
1.46486
1.71321
1.87081
1.61705
1.05161
1.02426
1.57972
1.68422
1.48666
1.06175
1.07179
1.95412
2.23855
2.25081
2.2569
2.26426
2.26431
2.26693
2.2481
2.17754
2.1222
2.00419
1.74144
1.43726
1.17414
1.5989
2.3596
2.57419
2.36561
1.43119
1.29686
1.77028
1.6832
1.22715
0.987606
1.25541
1.65059
1.62287
1.12786
1.07571
1.02305
1.96084
2.23545
2.24607
2.25317
2.26573
2.2665
2.27146
2.24295
2.17546
2.12509
2.00735
1.77406
1.54025
1.24906
1.02087
2.15705
2.17888
2.34926
2.10055
1.04413
1.49565
1.68679
1.43765
1.09115
1.09079
1.5963
1.6819
1.28562
1.07599
1.04326
1.1642
1.95804
2.22754
2.24185
2.25344
2.26792
2.26812
2.27036
2.23807
2.17416
2.11856
1.99687
1.78292
1.60619
1.3774
1.1149
1.39051
2.35231
2.76329
2.37147
1.51532
1.08398
1.60209
1.53482
1.05775
0.984008
1.42014
1.63681
1.45245
1.0636
1.06388
1.21341
1.1612
1.95297
2.21863
2.23684
2.25571
2.27067
2.26756
2.26797
2.23239
2.16423
2.11196
1.97851
1.77476
1.6315
1.47861
1.24374
0.99996
2.11168
2.04177
2.16822
2.1194
1.00371
1.35885
1.56324
1.22846
1.05064
1.13727
1.59526
1.58693
1.12391
1.07277
1.10799
1.20239
1.10241
1.95395
2.21486
2.24027
2.26599
2.27284
2.26553
2.26376
2.22529
2.15105
2.09812
1.95394
1.75148
1.61839
1.53332
1.37535
1.09313
1.38266
2.34477
2.79418
2.35889
1.60314
1.0333
1.51178
1.36191
1.08421
1.10151
1.53572
1.64243
1.25412
1.07341
1.02617
1.18539
1.13637
1.09255
1.97048
2.2178
2.25043
2.27649
2.27632
2.26194
2.25906
2.217
2.13624
2.08272
1.92808
1.7296
1.57125
1.53276
1.47449
1.21817
1.0666
2.08085
2.04439
2.18371
2.09096
1.03638
1.313
1.4522
1.09229
0.983517
1.37204
1.60117
1.38779
1.06496
1.04911
1.18758
1.12469
1.14873
1.32033
1.99842
2.22884
2.26141
2.28381
2.2758
2.25687
2.25536
2.20881
2.11869
2.07361
1.91221
1.70826
1.51437
1.47003
1.51985
1.34367
1.08467
1.42302
2.3733
2.72529
2.32711
1.2488
1.04299
1.4435
1.21814
1.08366
1.10336
1.55781
1.52749
1.08746
1.06328
1.18505
1.13135
1.13614
1.4139
1.56304
2.0229
2.23966
2.26986
2.28623
2.27094
2.25295
2.25475
2.2032
2.10483
2.06218
1.89656
1.68364
1.46332
1.37255
1.48554
1.45312
1.17631
1.12248
2.13143
1.96484
2.32698
1.80185
0.999223
1.3044
1.32238
1.08726
1.11384
1.48878
1.60542
1.21262
1.06853
1.08002
1.12979
1.15652
1.42338
1.61247
1.76334
2.05648
2.25552
2.27405
2.28258
2.26706
2.25074
2.25479
2.20027
2.10007
2.053
1.8747
1.6559
1.40102
1.28237
1.38965
1.47454
1.31968
1.12542
1.45595
2.36992
2.56081
2.07261
1.05298
1.08204
1.34497
1.07343
0.98317
1.36139
1.57985
1.32588
1.06513
1.03138
1.1216
1.18201
1.45374
1.63318
1.77873
1.89689
2.08821
2.26718
2.27711
2.27888
2.26437
2.25209
2.2575
2.19631
2.0983
2.05014
1.85185
1.61298
1.33947
1.20942
1.2588
1.42749
1.43077
1.2169
1.03161
2.1663
2.19417
2.18819
1.4216
1.06953
1.30373
1.1978
1.08673
1.13174
1.53776
1.44788
1.0563
1.05233
1.10887
1.21444
1.47938
1.66948
1.77345
1.91417
1.98193
2.1031
2.2744
2.26951
2.26668
2.26098
2.2574
2.26088
2.19721
2.10141
2.04895
1.84283
1.57152
1.26057
1.14579
1.15393
1.31793
1.47163
1.37981
1.05336
1.53227
2.16718
2.14635
1.80462
1.00185
1.16536
1.27221
1.09284
1.11146
1.47101
1.5425
1.18198
1.0643
1.10452
1.2502
1.50854
1.69336
1.78649
1.88609
2.01402
2.03421
2.11113
2.27187
2.26026
2.25556
2.26144
2.26136
2.26358
2.20024
2.10929
2.05093
1.84117
1.55712
1.20073
1.08019
1.08489
1.19665
1.43516
1.49125
1.22367
1.00037
2.05163
2.37146
1.9768
1.0389
1.07532
1.29557
1.07038
0.982441
1.37479
1.55882
1.26389
1.06698
1.0147
1.28527
1.53765
1.71591
1.80207
1.88034
1.97332
2.08241
2.06283
2.11307
2.26799
2.25246
2.25262
2.26308
2.26949
2.26523
2.20366
2.11708
2.04903
1.84949
1.55957
1.17402
1.02692
1.02677
1.12323
1.33623
1.53446
1.39125
1.05511
1.58994
1.86042
1.83333
1.49478
0.988335
1.23715
1.176
1.07407
1.2038
1.53184
1.35943
1.06117
1.04492
1.31724
1.56728
1.73395
1.82026
1.87704
1.96231
2.03431
2.12452
2.06941
2.10945
2.25887
2.24913
2.25288
2.26449
2.27404
2.26005
2.20494
2.12243
2.05111
1.86801
1.5871
1.18115
0.999889
0.999101
1.07281
1.22002
1.48988
1.51656
1.18843
1.03771
1.97557
2.37829
1.75033
1.06621
1.10916
1.23345
1.10134
1.09143
1.46946
1.46028
1.1013
1.06541
1.34875
1.5965
1.7498
1.83776
1.87972
1.94844
2.02524
2.07254
2.1398
2.03729
2.11139
2.25264
2.24786
2.25455
2.26377
2.27262
2.2567
2.20003
2.12219
2.05248
1.89656
1.62457
1.2245
1.02607
0.99885
1.01732
1.12907
1.36917
1.52924
1.32338
0.995738
1.71958
1.93896
1.86575
1.11079
1.08669
1.25627
1.07568
0.986976
1.38861
1.52986
1.20631
1.0758
1.37965
1.62507
1.76591
1.85314
1.88715
1.93772
2.0092
2.06735
2.0881
2.11491
1.86722
2.12705
2.25638
2.25761
2.25918
2.26175
2.27037
2.25106
2.19201
2.11777
2.05194
1.92635
1.67729
1.28736
1.0872
1.02505
0.999473
1.04368
1.19852
1.46726
1.3882
1.03118
1.13639
1.85078
1.82292
1.46582
0.988596
1.21735
1.14389
1.02637
1.27778
1.51539
1.28193
1.07622
1.27871
1.65128
1.78329
1.86555
1.8976
1.93063
1.99411
2.05278
2.08755
2.07122
1.95646
1.36332
2.1494
2.26463
2.2678
2.26572
2.25963
2.26752
2.24706
2.18209
2.10598
2.03477
1.94034
1.71953
1.36847
1.14477
1.08443
1.05192
1.02323
1.0437
1.32575
1.4192
1.02966
1.01436
1.79469
2.2651
1.67038
1.07482
1.10215
1.21172
1.11343
1.07805
1.47887
1.36425
1.06782
1.13163
1.67431
1.802
1.87592
1.90875
1.92816
1.97955
2.03848
2.07633
2.07773
1.93613
1.42902
1
2.17161
2.27278
2.26946
2.26238
2.25594
2.26617
2.24422
2.17243
2.0969
2.02394
1.94183
1.73153
1.43147
1.21848
1.12953
1.14261
1.09712
1.01755
1.15191
1.38484
1.07222
0.990202
1.47658
1.56778
1.77819
1.05077
1.08802
1.23638
1.08544
1.11543
1.40966
1.43833
1.13881
1.0677
1.69403
1.82337
1.88532
1.91859
1.93019
1.96716
2.02275
2.06511
2.07313
1.95972
1.43971
1
1
2.2005
2.27949
2.26606
2.25861
2.25292
2.26517
2.24371
2.16507
2.08691
2.006
1.92638
1.72824
1.45331
1.27189
1.16789
1.19429
1.17935
1.08964
1.0681
1.28101
1.15294
1.02023
1.06355
1.75494
1.81054
1.34727
1.02595
1.22028
1.08977
0.981855
1.3619
1.49394
1.22752
1.05766
1.71156
1.84682
1.89411
1.9263
1.93552
1.95818
2.0067
2.05164
2.06766
1.97308
1.48424
1
1
1
2.2068
2.28211
2.25698
2.2548
2.25641
2.26784
2.24158
2.16135
2.07889
1.98549
1.89964
1.68921
1.45476
1.28479
1.15126
1.19478
1.22551
1.14882
1.06939
1.14195
1.18964
1.06557
0.987699
1.65291
2.06055
1.58496
1.04602
1.136
1.18427
1.09712
1.23068
1.47685
1.28803
1.10401
1.61527
1.87011
1.90306
1.93209
1.94228
1.95361
1.99131
2.03666
2.05891
1.98483
1.52657
1
1
1
1
2.20743
2.27365
2.24038
2.25069
2.26022
2.27077
2.24275
2.15806
2.07502
1.96875
1.86978
1.6428
1.41585
1.28532
1.12264
1.11463
1.19407
1.17535
1.06495
1.02945
1.14126
1.0502
0.988271
1.26466
1.42105
1.69707
1.06825
1.07955
1.22479
1.10094
1.07581
1.42551
1.36565
1.24638
1.47646
1.89059
1.91252
1.93693
1.94858
1.95355
1.97782
2.0206
2.04757
1.9926
1.57173
1
1
1
1
1
2.20423
2.26615
2.23266
2.25221
2.26845
2.27326
2.24264
2.16307
2.07682
1.96129
1.84097
1.59743
1.36654
1.25732
1.12234
1.04957
1.09092
1.15382
1.05806
1.00677
1.0499
1.04131
1.04606
1.09652
1.66618
1.70295
1.2412
1.11146
1.22837
1.07801
1.11806
1.37829
1.42727
1.3383
1.35721
1.90468
1.92371
1.9417
1.95334
1.95695
1.96752
2.00435
2.03395
1.99691
1.61652
1
1
1
1
1
1
2.20721
2.2567
2.23063
2.25602
2.27425
2.27247
2.24393
2.16912
2.07884
1.96427
1.8249
1.56221
1.31432
1.21366
1.14499
1.07669
1.01965
1.10953
1.05191
1.00527
1.03259
1.04063
1.08349
0.984784
1.56418
2.0225
1.48758
0.984418
1.18513
1.13837
0.985175
1.33851
1.46099
1.38024
1.25184
1.91029
1.93814
1.94693
1.9566
1.96182
1.96149
1.98888
2.01864
1.99747
1.65825
1
1
1
1
1
1
1
2.23155
2.26127
2.23319
2.25851
2.27467
2.26824
2.23747
2.17618
2.08606
1.97327
1.82914
1.55161
1.2846
1.17296
1.15541
1.15199
1.0595
1.06883
1.06671
1.00523
1.03329
1.04507
1.07174
0.986325
1.24401
1.51286
1.6325
1.09644
1.07082
1.20158
1.11552
1.24454
1.44735
1.42344
1.23808
1.84677
1.95609
1.95287
1.95881
1.9661
1.96007
1.97526
2.00244
1.99402
1.69531
1
1
1
1
1
1
1
1
2.25473
2.27513
2.24634
2.26269
2.27377
2.26403
2.23493
2.17926
2.09416
1.99063
1.843
1.582
1.28393
1.13128
1.13
1.18929
1.13392
1.06611
1.06321
1.00422
0.996041
1.06127
1.06547
1.00718
1.09011
1.59021
1.47291
1.15101
1.09281
1.22414
1.08592
1.08174
1.42551
1.45753
1.32885
1.66994
1.97562
1.95978
1.96065
1.96849
1.9624
1.96478
1.9865
1.98693
1.72825
1.00197
1
1
1
1
1
1
1
1
2.2713
2.28465
2.25163
2.26377
2.27192
2.26107
2.23232
2.18205
2.09248
2.00403
1.8648
1.61944
1.33143
1.10842
1.06015
1.14183
1.15904
1.06822
1.03754
1.02558
0.994038
1.00961
1.06661
1.05838
0.986982
1.52439
1.87142
1.32288
1.05316
1.22065
1.09964
1.12864
1.41004
1.49503
1.44455
1.53103
1.99291
1.96818
1.96249
1.96886
1.96641
1.95856
1.97179
1.97708
1.75599
1.02908
1
1
1
1
1
1
1
1
1
2.28507
2.28924
2.25291
2.26201
2.26795
2.2587
2.23072
2.18355
2.09059
2.00304
1.87931
1.66172
1.38103
1.15597
1.00458
1.05381
1.1053
1.05879
1.00968
1.05712
0.99495
0.989997
1.07606
1.10052
0.982989
1.28548
1.60955
1.53021
1.05293
1.17992
1.18848
1.10923
1.4131
1.51056
1.52946
1.42322
2.00147
1.97888
1.9645
1.96798
1.96967
1.95703
1.9595
1.96569
1.77817
1.05512
1
1
1
1
1
1
1
1
1
1
2.28595
2.28963
2.25613
2.26239
2.26676
2.25623
2.22906
2.18336
2.08593
1.99417
1.87333
1.69019
1.43288
1.21505
1.06273
1.00911
1.03397
1.04216
1.0128
1.0635
1.028
0.990403
1.07147
1.09255
0.986939
1.07831
1.46992
1.51512
1.06243
1.07291
1.22857
1.07629
1.44591
1.50273
1.58561
1.34285
2.00157
1.99231
1.967
1.9669
1.9705
1.95923
1.9508
1.95385
1.795
1.08025
1
1
1
1
1
1
1
1
1
1
1
2.28885
2.28446
2.25535
2.26416
2.26629
2.25565
2.23125
2.18402
2.08074
1.9785
1.85821
1.69208
1.4571
1.26089
1.11793
1.05453
1.01221
1.02912
1.03432
1.035
1.03788
0.990881
1.00885
1.09116
1.04605
1.05277
1.51138
1.6336
1.20279
1.08599
1.25431
1.21538
1.44197
1.49801
1.6118
1.34176
1.83165
2.00762
1.97068
1.9661
1.96857
1.96272
1.94683
1.94265
1.80707
1.10444
1
1
1
1
1
1
1
1
1
1
1
1
2.3026
2.28331
2.25735
2.26589
2.26213
2.25417
2.23209
2.18713
2.07473
1.96605
1.84714
1.68035
1.44897
1.25164
1.13153
1.08369
1.02915
1.01875
1.04578
1.00638
1.04064
0.991784
0.98782
1.097
1.09366
0.981895
1.36296
1.7145
1.37133
1.1208
1.27203
1.2841
1.22429
1.51684
1.611
1.46216
1.6647
2.02215
1.97646
1.96554
1.9649
1.96453
1.94794
1.93318
1.81535
1.12877
1
1
1
1
1
1
1
1
1
1
1
1
1
2.32673
2.28962
2.26002
2.26753
2.26089
2.25121
2.23455
2.18621
2.06905
1.95358
1.83811
1.68009
1.42778
1.22046
1.08192
1.06607
1.02944
1.00541
1.05334
1.0005
1.01459
0.997671
0.986903
1.07023
1.11031
0.984014
1.17605
1.32389
1.53736
1.07679
1.28023
1.31798
1.07666
1.56434
1.60809
1.59777
1.54144
2.03158
1.9849
1.9651
1.96062
1.96268
1.95262
1.92684
1.82085
1.15429
1
1
1
1
1
1
1
1
1
1
1
1
1
1
2.35348
2.29896
2.26325
2.26646
2.2595
2.25051
2.24195
2.18764
2.06169
1.94449
1.83738
1.68463
1.41958
1.18453
1.0391
1.01967
1.02078
1.00164
1.04618
1.00755
0.994359
1.00455
0.986855
1.00281
1.10709
1.01858
1.10026
1.49011
1.44821
1.0559
1.26968
1.35113
1.24629
1.60356
1.59763
1.68466
1.42051
2.03244
1.99573
1.9651
1.95651
1.95711
1.95746
1.92528
1.82458
1.18126
1
1
1
1
1
1
1
1
1
1
1
1
1
1
1
2.3756
2.30934
2.26049
2.26412
2.25712
2.24957
2.249
2.19283
2.04968
1.93426
1.83796
1.6979
1.43069
1.16956
1.02063
1.00841
1.00839
1.01387
1.0397
1.00465
0.993927
0.994246
0.987851
0.985224
1.11077
1.06655
1.02278
1.42466
1.51455
1.24782
1.22826
1.37473
1.29386
1.54119
1.60616
1.71963
1.39764
2.02449
2.00774
1.9664
1.95276
1.94913
1.95852
1.92931
1.82781
1.21118
1
1
1
1
1
1
1
1
1
1
1
1
1
1
1
1
2.39129
2.31732
2.25572
2.2594
2.25358
2.24822
2.25545
2.19788
2.03749
1.91991
1.83014
1.71602
1.45686
1.17921
1.02099
1.00737
1.00686
1.0132
1.03084
1.00534
0.994096
0.990985
0.990035
0.984648
1.08338
1.10406
0.980968
1.28875
1.3993
1.38004
1.05428
1.3968
1.34346
1.35884
1.64557
1.72859
1.44555
1.81345
2.01848
1.97013
1.94926
1.94034
1.95357
1.937
1.83214
1.24247
1
1
1
1
1
1
1
1
1
1
1
1
1
1
1
1
1
2.41045
2.32315
2.25269
2.25341
2.25029
2.24791
2.26125
2.20311
2.0292
1.91658
1.81913
1.71595
1.48708
1.20862
1.03393
1.00668
1.01268
1.00645
1.01223
1.00291
0.994723
0.99015
1.00418
0.98512
1.03653
1.1195
0.984392
1.10575
1.40548
1.51296
1.06551
1.4248
1.39027
1.19473
1.69546
1.70122
1.5853
1.65443
2.02497
1.97681
1.94607
1.93155
1.94321
1.94346
1.8395
1.27315
1
1
1
1
1
1
1
1
1
1
1
1
1
1
1
1
1
1
2.43421
2.33242
2.25255
2.24784
2.2466
2.24886
2.26785
2.20289
2.02417
1.92723
1.80962
1.7066
1.4857
1.23145
1.07062
1.01334
1.03143
1.01947
1.0056
0.999006
0.994531
0.9898
0.997757
0.985984
0.986705
1.12015
1.03636
1.10623
1.42834
1.46538
1.31235
1.4372
1.42079
1.27777
1.69543
1.68258
1.68934
1.55269
2.0238
1.98558
1.94371
1.92292
1.92976
1.94392
1.85122
1.30419
1
1
1
1
1
1
1
1
1
1
1
1
1
1
1
1
1
1
1
2.4559
2.34322
2.25289
2.24131
2.24239
2.25497
2.27104
2.19699
2.01498
1.94067
1.82117
1.68
1.46313
1.22359
1.11793
1.01084
1.05257
1.04783
1.01757
0.998975
0.994145
0.989877
0.989695
0.987233
0.983701
1.09307
1.08175
1.0376
1.38043
1.42207
1.43986
1.39744
1.44032
1.33944
1.57725
1.68163
1.75429
1.45075
2.01331
1.99406
1.94333
1.9144
1.9156
1.93688
1.86474
1.33718
1
1
1
1
1
1
1
1
1
1
1
1
1
1
1
1
1
1
1
1
2.46549
2.35156
2.24888
2.23374
2.23917
2.26468
2.27546
2.1856
1.998
1.95293
1.84326
1.68014
1.4131
1.18125
1.14448
1.01437
1.05174
1.06818
1.02864
0.99899
0.994056
0.989803
0.987543
0.987209
0.983078
1.05388
1.11251
0.982461
1.2676
1.46299
1.51268
1.26773
1.45853
1.4022
1.38891
1.71964
1.76855
1.47302
1.9963
1.99977
1.94609
1.90633
1.90211
1.9245
1.87425
1.37259
1
1
1
1
1
1
1
1
1
1
1
1
1
1
1
1
1
1
1
1
1
2.47352
2.3515
2.23935
2.22784
2.23726
2.2754
2.28349
2.17076
1.98066
1.94958
1.86076
1.70824
1.3815
1.13182
1.11736
1.07805
1.00751
1.07856
1.0364
0.999101
0.994157
0.989883
0.986947
0.986244
0.982857
1.00511
1.12146
1.07377
1.11547
1.4517
1.55875
1.17131
1.48005
1.44929
1.25089
1.76286
1.75048
1.57012
1.87509
2.00049
1.95186
1.89972
1.8899
1.91016
1.87534
1.40592
1
1
1
1
1
1
1
1
1
1
1
1
1
1
1
1
1
1
1
1
1
1
2.48665
2.34909
2.22725
2.22349
2.237
2.28624
2.28706
2.16333
1.97206
1.93527
1.861
1.73284
1.4028
1.1371
1.06699
1.11417
1.02846
1.05228
1.0497
0.99889
0.995182
0.989794
0.98686
0.98501
0.983706
0.984191
1.12237
1.12481
1.10644
1.45471
1.55976
1.34157
1.50627
1.48151
1.26283
1.74721
1.71606
1.67103
1.73151
1.99423
1.9586
1.89608
1.87941
1.8958
1.86794
1.42664
1
1
1
1
1
1
1
1
1
1
1
1
1
1
1
1
1
1
1
1
1
1
1
2.50466
2.35048
2.21469
2.22494
2.24056
2.29323
2.2865
2.15546
1.98374
1.91443
1.83736
1.74043
1.45237
1.11243
1.06817
1.04245
1.12829
1.00836
1.07777
0.999158
1.00404
0.989866
0.986932
0.984528
0.984204
0.982859
1.12188
1.11159
1.11261
1.47906
1.55269
1.6885
1.49745
1.50214
1.34987
1.65453
1.70221
1.74524
1.67302
1.97826
1.96282
1.89698
1.87122
1.88162
1.85357
1.42205
1
1
1
1
1
1
1
1
1
1
1
1
1
1
1
1
1
1
1
1
1
1
1
1
2.52114
2.35751
2.20526
2.23349
2.24977
2.29668
2.28233
2.14654
2.0041
1.91608
1.80477
1.70732
1.4843
1.13737
1.12476
1.01504
1.14747
1.04292
1.07103
1.00932
1.00483
0.990489
0.986806
0.984563
0.983681
0.982621
1.12527
1.10239
1.08901
1.51869
1.55044
1.824
1.41494
1.5163
1.41732
1.46615
1.7292
1.77438
1.67215
1.95271
1.96216
1.90295
1.86584
1.8663
1.83192
1.38233
1
1
1
1
1
1
1
1
1
1
1
1
1
1
1
1
1
1
1
1
1
1
1
1
1
2.54317
2.36505
2.19731
2.24326
2.26103
2.29989
2.27608
2.13293
2.01771
1.92886
1.79805
1.66798
1.46599
1.21969
1.04865
1.14283
1.03723
1.15912
1.01178
1.09775
0.995091
0.996052
0.986777
0.984607
0.982954
0.98346
1.12262
1.09421
1.07017
1.56055
1.6046
1.82942
1.2827
1.52971
1.46674
1.32071
1.74868
1.76319
1.69329
1.93581
1.95729
1.91166
1.86311
1.84727
1.80029
1.29387
1
1
1
1
1
1
1
1
1
1
1
1
1
1
1
1
1
1
1
1
1
1
1
1
1
1
2.56954
2.38146
2.18912
2.2499
2.26993
2.29727
2.27203
2.12698
2.01205
1.92961
1.82532
1.63162
1.401
1.27787
1.06156
1.21027
1.03457
1.18663
1.05041
1.13103
0.994588
1.02527
0.986816
0.985394
0.983268
0.987735
1.11419
1.08451
1.17201
1.4162
1.71082
1.79779
1.25118
1.54316
1.50258
1.23975
1.77448
1.73218
1.76603
1.94667
1.94877
1.91723
1.86102
1.82091
1.75492
1.1269
1
1
1
1
1
1
1
1
1
1
1
1
1
1
1
1
1
1
1
1
1
1
1
1
1
1
1
2.58938
2.4094
2.18767
2.25026
2.27825
2.2923
2.26832
2.12784
2.0067
1.91033
1.83969
1.66705
1.34343
1.19691
1.17813
1.05283
1.17979
1.05272
1.20002
1.03517
1.03251
1.02163
0.988896
0.987358
0.983586
1.0453
1.10302
1.07856
1.2231
1.27811
1.81183
1.75758
1.57722
1.54884
1.52831
1.28889
1.7301
1.70516
1.86605
1.98585
1.93263
1.91156
1.85437
1.78485
1.69178
1
1
1
1
1
1
1
1
1
1
1
1
1
1
1
1
1
1
1
1
1
1
1
1
1
1
1
1
1
2.60758
2.43138
2.1974
2.24916
2.28234
2.28756
2.26332
2.13903
2.00615
1.88803
1.83543
1.69668
1.35286
1.14777
1.16674
1.04754
1.20604
1.05869
1.26082
1.00793
1.03332
0.990375
1.03332
0.987647
0.984343
1.11158
1.08885
1.13258
1.2553
1.26922
1.85523
1.76293
1.87465
1.52155
1.54451
1.36328
1.58507
1.68612
1.9329
2.03792
1.90488
1.88845
1.83508
1.74032
1.60842
1.01528
1
1
1
1
1
1
1
1
1
1
1
1
1
1
1
1
1
1
1
1
1
1
1
1
1
1
1
1
1
2.61278
2.45686
2.19737
2.24456
2.28354
2.28526
2.25376
2.14483
2.00557
1.8878
1.81721
1.70288
1.41638
1.15001
1.04294
1.21405
1.02873
1.25839
1.12893
1.19162
1.03744
1.00196
1.06248
0.984858
1.01852
1.10217
1.07598
1.19596
1.28186
1.30569
1.72029
1.81193
1.97264
1.41053
1.55352
1.42529
1.40507
1.68089
1.94979
2.10926
1.87977
1.84626
1.79331
1.69282
1.50447
1.06049
1
1
1
1
1
1
1
1
1
1
1
1
1
1
1
1
1
1
1
1
1
1
1
1
1
1
1
1
1
1
2.6391
2.48881
2.19518
2.23925
2.28359
2.28598
2.24701
2.14168
1.99934
1.90581
1.81693
1.66636
1.46177
1.13719
1.11651
1.11469
1.10625
1.29151
1.03698
1.33896
0.994942
1.05744
1.05396
1.03118
1.10762
1.08248
1.1459
1.24164
1.32346
1.34907
1.53298
1.87422
1.96519
1.2708
1.55999
1.4748
1.25421
1.68294
1.93921
2.18893
1.87377
1.78639
1.72544
1.64603
1.38005
1.08878
1
1
1
1
1
1
1
1
1
1
1
1
1
1
1
1
1
1
1
1
1
1
1
1
1
1
1
1
1
1
1
2.55506
2.49674
2.20851
2.2211
2.27622
2.29459
2.24367
2.14286
1.9806
1.92353
1.85249
1.64071
1.42256
1.23827
1.08806
1.05614
1.26139
1.0667
1.25191
1.24846
1.03578
1.04567
0.99699
1.0889
1.09632
1.07216
1.22193
1.29004
1.35927
1.3793
1.41423
1.96111
1.91137
1.31379
1.56642
1.50983
1.19174
1.7025
1.915
2.26534
1.87804
1.70937
1.64063
1.59557
1.26251
1.10241
1
1
1
1
1
1
1
1
1
1
1
1
1
1
1
1
1
1
1
1
1
1
1
1
1
1
1
1
1
1
1
1
2.10828
2.35588
2.19451
2.21669
2.25753
2.29511
2.24369
2.14563
1.98355
1.91111
1.86517
1.66967
1.36289
1.25403
1.04993
1.28518
1.09661
1.18109
1.29957
0.999374
1.12195
1.05619
1.00518
1.0658
1.07345
1.17699
1.28493
1.3472
1.39056
1.39998
1.37215
1.96682
1.86977
1.63457
1.5608
1.53388
1.26077
1.66209
1.87962
2.27214
1.86251
1.60933
1.53004
1.5142
1.18491
1.10734
1.01093
1
1
1
1
1
1
1
1
1
1
1
1
1
1
1
1
1
1
1
1
1
1
1
1
1
1
1
1
1
1
1
1
2.05319
2.10896
1.7195
2.23265
2.25399
2.28573
2.24824
2.15084
1.99892
1.91947
1.82539
1.68804
1.34665
1.1488
1.21435
1.12124
1.11829
1.39204
1.08687
1.30542
1.15975
0.990577
1.07728
1.20084
1.16514
1.2469
1.36084
1.39509
1.41202
1.41372
1.37081
1.87021
1.83641
1.88807
1.52288
1.547
1.32211
1.5276
1.8145
2.23649
1.82725
1.48611
1.41727
1.43233
1.18394
1.10574
1.02076
1
1
1
1
1
1
1
1
1
1
1
1
1
1
1
1
1
1
1
1
1
1
1
1
1
1
1
1
1
1
1
1
1
2.12217
1.90547
2.11131
1.71642
2.23849
2.29522
2.23668
2.14923
2.02192
1.94083
1.79159
1.64198
1.41224
1.13473
1.11323
1.12381
1.35004
1.18412
1.23375
1.49556
1.02981
1.07341
1.17529
1.25628
1.26279
1.34675
1.41513
1.42631
1.42993
1.42459
1.38672
1.68262
1.84644
1.96868
1.39504
1.54726
1.35836
1.34843
1.7664
2.22914
1.77506
1.41456
1.35716
1.39683
1.25899
1.09737
1.02901
1
1
1
1
1
1
1
1
1
1
1
1
1
1
1
1
1
1
1
1
1
1
1
1
1
1
1
1
1
1
1
1
1
1
2.12911
2.24299
1.79297
2.08874
1.82013
2.19349
2.24271
2.12447
2.02295
1.94686
1.81912
1.56776
1.40594
1.1492
1.07776
1.32349
1.123
1.26854
1.46739
1.27044
1.03551
1.44096
1.26455
1.31237
1.37774
1.41976
1.45503
1.45188
1.4455
1.43394
1.40497
1.53432
1.93093
1.94037
1.21428
1.54297
1.40405
1.08252
1.70549
2.24461
1.83478
1.45452
1.35783
1.40057
1.29783
1.09064
1.03222
1
1
1
1
1
1
1
1
1
1
1
1
1
1
1
1
1
1
1
1
1
1
1
1
1
1
1
1
1
1
1
1
1
1
1
2.14933
2.25847
2.25313
1.76095
2.11456
2.02119
1.79757
2.04701
1.96304
1.90271
1.83291
1.63297
1.27795
1.36119
1.05057
1.00887
1.31426
1.57362
1.31535
1.27372
1.39791
1.56463
1.32474
1.42586
1.50262
1.50295
1.50567
1.47645
1.45892
1.44208
1.41643
1.42963
2.00193
1.87639
1.2339
1.5476
1.43133
1.07459
1.6121
2.25222
1.93561
1.54487
1.38743
1.39529
1.3142
1.09028
1.03818
1
1
1
1
1
1
1
1
1
1
1
1
1
1
1
1
1
1
1
1
1
1
1
1
1
1
1
1
1
1
1
1
1
1
1
1
2.15796
2.26649
2.27255
2.2619
1.7528
2.16921
2.13782
1.9697
1.60004
1.73749
1.69727
1.70958
1.21546
1.12732
1.29047
1.43311
1.47135
1.16134
1.22432
1.82618
1.64114
1.60558
1.54086
1.5745
1.61142
1.57549
1.54871
1.5077
1.47031
1.44898
1.42266
1.38671
1.98848
1.744
1.49099
1.51587
1.42307
1.07725
1.43219
2.24936
2.03262
1.64241
1.42016
1.38734
1.31167
1.09056
1.04454
1
1
1
1
1
1
1
1.00442
1
1.00188
1
1
1
1
1
1
1
1
1
1
1
1
1
1
1
1
1
1
1
1
1
1
1
1
1
1
1
2.15756
2.26463
2.27608
2.25383
2.25769
1.95513
2.25556
2.24103
2.12462
1.89006
1.62479
1.32682
1.61643
1.36999
1.50751
1.10296
1.15093
1.6948
1.78129
2.00324
1.68415
1.69352
1.69502
1.68387
1.67579
1.63007
1.58262
1.53336
1.4855
1.45442
1.42531
1.37412
1.90457
1.67603
1.61383
1.42967
1.36989
1.07625
1.21477
2.23629
2.11246
1.7324
1.46552
1.38597
1.2974
1.09016
1.04928
1
1
1
1
1
1
1
1.00902
1.01239
1.00221
1.00666
1.00126
1.00004
1
1
1
1
1
1
1
1
1
1
1
1
1
1
1
1
1
1
1
1
1
1
1
1
1
2.16409
2.25984
2.27262
2.25076
2.23087
2.25352
2.293
2.35625
2.41879
2.24866
2.13215
1.99267
1.77399
1.6615
1.3657
1.86648
1.80465
2.02851
1.95002
2.0541
1.89635
1.84055
1.80953
1.75583
1.71364
1.66565
1.61059
1.55346
1.49946
1.45777
1.42424
1.36796
1.73557
1.63341
1.59868
1.29847
1.32381
1.09338
1.0543
2.21445
2.1775
1.81868
1.52691
1.39711
1.278
1.09019
1.05492
1
1
1
1
1
1
1.00804
1.00455
1.01838
1.01686
1.00758
1.01097
1.00435
1.00211
1
1
1
1
1
1
1
1
1
1
1
1
1
1
1
1
1
1
1
1
1
1
1
1
1
2.16752
2.25576
2.2676
2.24915
2.21689
2.23948
1.13842
1.6224
2.33317
2.53944
2.38694
2.31546
2.24424
2.24022
2.13827
2.18434
2.05869
2.15022
2.16699
2.24292
2.08694
1.97396
1.88834
1.80157
1.74285
1.68924
1.63345
1.56892
1.5094
1.45809
1.41801
1.35314
1.53161
1.5718
1.55597
1.09925
1.28265
1.16808
1.04203
2.1907
2.22646
1.90136
1.60135
1.42648
1.25819
1.09037
1.06084
1
1
1
1
1
1
1.01307
1.02111
1.01256
1.02589
1.01893
1.01197
1.01424
1.00663
1.00317
1
1
1
1
1
1
1
1
1
1
1
1
1
1
1
1
1
1
1
1
1
1
1
1
1
2.17506
2.25255
2.25941
2.248
2.21183
2.25794
1.04152
1.05741
1.30683
2.32336
2.47625
2.53513
2.51057
2.39046
2.451
2.41342
2.38591
2.3707
2.38531
2.3825
2.20349
2.04802
1.9334
1.83626
1.76737
1.70851
1.65051
1.57985
1.51384
1.45354
1.40361
1.31655
1.3682
1.52693
1.55023
1.12228
1.26324
1.23513
1.02745
2.14843
2.24798
1.97937
1.68023
1.47533
1.24536
1.0905
1.06717
1
1
1
1
1
1.00723
1.01242
1.02862
1.02777
1.01915
1.03158
1.02035
1.01504
1.01632
1.00791
1.0031
1
1
1
1
1
1
1
1
1
1
1
1
1
1
1
1
1
1
1
1
1
1
1
1
1
2.16941
2.24894
2.24989
2.24794
2.21479
2.2682
1.18203
1.06926
1.4507
1.13345
2.36696
2.4191
2.43198
2.47177
2.50869
2.50384
2.46779
2.47127
2.46453
2.44641
2.27491
2.10261
1.97351
1.86821
1.7891
1.72315
1.66109
1.58501
1.50977
1.44109
1.3729
1.25607
1.20432
1.47811
1.53987
1.0541
1.24047
1.30704
1.06157
2.0406
2.24581
2.05103
1.75544
1.54221
1.25169
1.09059
1.07342
1
1
1
1
1
1.01133
1.0297
1.0248
1.03879
1.03081
1.02369
1.03542
1.02221
1.01732
1.0172
1.00801
1.00178
1
1
1
1
1
1
1
1
1
1
1
1
1
1
1
1
1
1
1
1
1
1
1
1
1
2.14308
2.24514
2.2374
2.24657
2.22514
2.275
1.3377
1.08823
1.41577
1.07552
1.26621
2.32651
2.43336
2.38886
2.41321
2.47817
2.49672
2.50659
2.49006
2.47224
2.34543
2.15577
2.01176
1.89709
1.80659
1.73257
1.6655
1.58134
1.49171
1.41547
1.31171
1.18918
1.08643
1.37374
1.50119
1.16818
1.18329
1.34595
1.13357
1.85006
2.23269
2.11595
1.82245
1.62
1.2889
1.09037
1.07966
1
1
1
1
1
1.00555
1.03776
1.04113
1.03243
1.04548
1.03347
1.02752
1.03787
1.02389
1.01874
1.01683
1.00682
1
1
1
1
1
1
1
1
1
1
1
1
1
1
1
1
1
1
1
1
1
1
1
1
1
1
2.13463
2.23819
2.22544
2.24777
2.24121
2.27342
1.41458
1.08711
1.41361
1.11398
1.10971
1.02288
2.28617
2.46036
2.38201
2.39249
2.45356
2.49837
2.50753
2.49407
2.41987
2.20986
2.04689
1.91867
1.81716
1.73485
1.66039
1.56296
1.45292
1.36417
1.22866
1.0763
1.11148
1.2633
1.46837
1.28313
1.07227
1.3689
1.29167
1.56722
2.21549
2.17518
1.88154
1.69794
1.35972
1.0891
1.08525
1
1
1
1
1
1.01595
1.03055
1.05372
1.04726
1.03779
1.04986
1.03578
1.0308
1.03927
1.02509
1.01917
1.01523
1.00419
1
1
1
1
1
1
1
1
1
1
1
1
1
1
1
1
1
1
1
1
1
1
1
1
1
1
2.11764
2.24315
2.22631
2.2441
2.26728
2.26085
1.45386
1.06776
1.36279
1.08169
1.09149
1.03595
1.05749
2.24985
2.46983
2.4038
2.40976
2.46274
2.48975
2.49286
2.4824
2.24956
2.06935
1.92847
1.81685
1.72619
1.6392
1.51884
1.4035
1.25855
1.10725
1.09809
1.08204
1.09161
1.46075
1.40708
1.09677
1.3743
1.47867
1.15647
2.19353
2.22567
1.93672
1.76578
1.45616
1.08576
1.09024
1
1
1
1
1
1.02749
1.04168
1.04584
1.06326
1.05065
1.04205
1.05296
1.03798
1.0335
1.03971
1.02553
1.01842
1.01228
1.00011
1
1
1
1
1
1
1
1
1
1
1
1
1
1
1
1
1
1
1
1
1
1
1
1
1
1
2.1017
2.24637
2.22973
2.24884
2.28959
2.25656
1.28027
1.05474
1.27334
1.0809
1.05619
0.99066
1.10266
1.10297
2.14016
2.38775
2.45089
2.45588
2.46315
2.46775
2.4666
2.25912
2.06905
1.91917
1.79901
1.69903
1.58359
1.4323
1.29632
1.14037
1.09097
1.11293
0.985616
1.09541
1.45373
1.51641
1.05113
1.37655
1.59279
1.22456
2.15263
2.25577
1.99288
1.8178
1.5651
1.0795
1.0946
1
1
1
1
1
1.03193
1.05539
1.05559
1.05545
1.06897
1.05287
1.04568
1.055
1.04008
1.03541
1.03907
1.02487
1.01631
1.00787
1
1
1
1
1
1
1
1
1
1
1
1
1
1
1
1
1
1
1
1
1
1
1
1
1
1
1
2.08976
2.24524
2.2422
2.25043
2.30573
2.24594
1.06484
1.04706
1.18376
1.09976
1.00163
0.984208
1.11443
1.09314
1.05292
1.91948
2.2312
2.37672
2.43514
2.4377
2.43545
2.2261
2.03371
1.8789
1.75108
1.63696
1.46365
1.31308
1.15208
1.08752
1.1241
0.995865
0.981175
1.12946
1.41737
1.50293
1.08968
1.35846
1.68646
1.49519
2.05089
2.25967
2.05293
1.85471
1.6714
1.06692
1.09782
1
1
1
1
1
1.03841
1.06209
1.07007
1.06356
1.06162
1.07237
1.05486
1.04884
1.05619
1.04165
1.03637
1.03734
1.0229
1.01271
1.00192
1
1
1
1
1
1
1
1
1
1
1
1
1
1
1
1
1
1
1
1
1
1
1
1
1
1
1
2.09045
2.24474
2.2511
2.26221