/*--------------------------------*- C++ -*----------------------------------*\
| =========                 |                                                 |
| \\      /  F ield         | OpenFOAM: The Open Source CFD Toolbox           |
|  \\    /   O peration     | Version:  v2012                                 |
|   \\  /    A nd           | Website:  www.openfoam.com                      |
|    \\/     M anipulation  |                                                 |
\*---------------------------------------------------------------------------*/
FoamFile
{
    version     2.0;
    format      ascii;
    class       volScalarField;
    location    "12000";
    object      c;
}
// * * * * * * * * * * * * * * * * * * * * * * * * * * * * * * * * * * * * * //

dimensions      [0 1 -1 0 0 0 0];


internalField   nonuniform List<scalar> 
27324
(
254.009
256.062
253.471
257.137
255.427
252.355
258.212
256.432
254.128
250.687
259.072
257.419
255.014
252.218
248.444
259.632
258.185
255.849
252.943
249.695
245.736
259.911
258.65
256.458
253.578
250.246
246.876
243.472
260.077
258.841
256.749
253.993
250.696
247.414
244.784
242.174
255.299
258.914
256.768
254.131
250.969
247.883
245.44
243.604
241.435
246.773
254.091
256.556
253.849
251.037
248.222
246.015
244.325
242.883
240.961
236.301
245.724
251.92
253.336
250.602
248.346
246.454
244.933
243.627
242.394
240.624
229.042
235.483
243.87
248.924
250.004
248.065
246.652
245.403
244.221
243.164
242.02
240.439
227.59
228.361
234.15
241.353
245.599
247.378
246.493
245.629
244.675
243.742
242.833
241.76
240.319
227.362
226.917
227.26
232.366
238.39
242.767
245.38
245.376
244.909
244.182
243.408
242.608
241.522
240.317
227.441
226.688
225.819
225.856
230.093
235.639
240.663
243.824
244.5
244.437
243.824
243.175
242.402
241.366
240.428
227.638
226.715
225.572
224.383
224.093
227.653
233.588
238.79
242.37
243.767
244.047
243.526
242.972
242.2
241.251
240.657
227.892
226.913
225.573
224.115
222.577
221.926
225.802
232.064
236.91
240.729
242.867
243.605
243.209
242.775
241.868
241.298
240.814
228.174
227.139
225.749
224.088
222.284
220.305
219.918
224.833
230.78
234.998
238.723
241.502
242.749
242.705
242.425
241.508
241.105
240.663
228.476
227.392
225.951
224.245
222.237
219.969
217.98
218.943
224.334
229.724
233.014
236.194
239.258
241.303
241.605
241.674
240.144
241.005
239.576
228.75
227.674
226.181
224.414
222.362
219.926
217.58
216.433
218.76
224.337
228.857
231.088
233.27
235.776
237.865
238.679
238.444
237.921
236.622
237.755
228.951
227.93
226.435
224.613
222.5
220.015
217.532
215.894
215.622
219.282
224.635
228.252
229.444
230.501
231.753
232.714
232.896
232.352
231.283
229.902
231.854
229.098
228.101
226.663
224.828
222.669
220.128
217.609
215.828
214.86
215.256
220.388
225.247
227.821
228.301
228.572
228.713
228.437
227.713
226.845
226.028
225.505
228.537
229.188
228.218
226.809
225.023
222.845
220.27
217.747
215.934
214.763
214.105
215.396
222.008
226.116
227.582
227.811
227.792
227.337
226.403
225.418
224.845
224.719
225.082
229.923
229.247
228.282
226.905
225.15
223.003
220.422
217.899
216.072
214.832
213.936
213.632
216.271
223.844
227.133
227.718
227.852
227.676
227.011
225.901
225.044
224.637
224.871
226.181
233.63
229.276
228.317
226.961
225.225
223.103
220.561
218.066
216.243
214.984
213.995
213.324
213.545
218.057
225.54
227.966
227.991
227.977
227.62
226.681
225.583
225
224.885
225.421
229.414
236.786
229.279
228.327
226.983
225.264
223.165
220.649
218.219
216.421
215.146
214.148
213.323
212.942
214.06
220.538
226.887
228.379
228.338
228.125
227.473
226.357
225.427
225.086
225.202
227.257
233.746
238.534
229.265
228.316
226.991
225.287
223.193
220.699
218.325
216.587
215.318
214.301
213.473
212.901
212.831
215.4
223.292
227.716
228.501
228.402
228.044
227.083
225.935
225.284
225.188
225.844
231.139
236.955
239.345
229.254
228.276
226.951
225.262
223.169
220.703
218.387
216.706
215.481
214.46
213.602
213.019
212.663
213.046
217.954
225.622
228.09
228.478
228.36
227.759
226.562
225.559
225.213
225.318
228.389
235.269
238.622
239.821
229.242
228.234
226.907
225.212
223.135
220.687
218.415
216.783
215.605
214.615
213.737
213.138
212.701
212.553
214.063
221.349
227.275
228.45
228.508
228.282
227.249
226.019
225.294
225.191
226.459
232.813
237.861
239.451
240.217
229.253
228.208
226.861
225.162
223.083
220.647
218.421
216.82
215.688
214.738
213.872
213.254
212.799
212.544
212.727
216.284
224.663
228.283
228.632
228.594
227.909
226.603
225.512
225.173
225.481
230.085
236.568
239.118
239.966
240.598
229.307
228.214
226.82
225.102
223.017
220.595
218.391
216.831
215.73
214.826
213.998
213.373
212.885
212.611
212.512
213.414
219.891
226.942
228.715
228.725
228.41
227.266
225.864
225.189
225.151
227.645
234.718
238.561
239.785
240.388
240.93
229.376
228.225
226.794
225.038
222.945
220.526
218.348
216.81
215.743
214.872
214.097
213.491
212.977
212.679
212.527
212.606
215.358
223.812
228.055
228.747
228.673
227.907
226.366
225.326
225.081
226.028
232.311
237.721
239.517
240.259
240.742
241.113
229.465
228.264
226.803
224.99
222.882
220.462
218.293
216.761
215.737
214.893
214.154
213.588
213.083
212.753
212.557
212.489
213.144
219.021
226.718
228.546
228.756
228.408
226.983
225.601
225.076
225.28
229.692
236.441
239.152
240.095
240.634
240.951
241.134
229.558
228.334
226.845
225.005
222.837
220.406
218.237
216.704
215.695
214.858
214.176
213.643
213.183
212.85
212.597
212.484
212.56
214.892
223.416
228.142
228.768
228.682
227.637
226.043
225.16
225.065
227.409
234.619
238.611
239.903
240.51
240.852
241.003
241.19
229.653
228.405
226.899
225.025
222.823
220.37
218.182
216.643
215.656
214.817
214.165
213.656
213.255
212.95
212.658
212.494
212.461
213
218.759
226.533
228.659
228.742
228.21
226.637
225.369
225.038
225.898
232.29
237.802
239.65
240.381
240.74
240.923
241.087
241.833
229.709
228.451
226.952
225.051
222.817
220.356
218.148
216.588
215.612
214.774
214.148
213.645
213.29
213.038
212.737
212.527
212.441
212.498
214.843
223.432
228.05
228.726
228.595
227.325
225.738
225.038
225.18
229.745
236.603
239.302
240.234
240.632
240.83
241.032
241.776
242.752
229.717
228.467
226.984
225.096
222.842
220.353
218.139
216.557
215.574
214.728
214.12
213.615
213.296
213.094
212.826
212.574
212.446
212.402
212.991
219.003
226.796
228.559
228.763
228.006
226.262
225.155
224.96
227.483
234.914
238.804
240.056
240.523
240.738
240.973
241.731
242.906
243.795
229.705
228.465
227.025
225.154
222.868
220.38
218.15
216.547
215.553
214.689
214.09
213.58
213.287
213.119
212.898
212.659
212.453
212.376
212.479
215.075
223.993
228.298
228.797
228.535
226.925
225.37
224.925
225.923
232.736
238.076
239.823
240.413
240.647
240.92
241.686
242.985
244.189
244.849
229.693
228.424
227.003
225.179
222.904
220.402
218.178
216.55
215.543
214.666
214.064
213.547
213.275
213.121
212.95
212.75
212.522
212.368
212.379
213.043
219.911
227.176
228.813
228.823
227.643
225.765
224.922
225.133
230.286
237.016
239.51
240.29
240.564
240.866
241.656
243.022
244.391
245.444
245.889
229.657
228.363
226.955
225.151
222.907
220.42
218.215
216.59
215.561
214.66
214.046
213.519
213.265
213.12
212.98
212.834
212.622
212.414
212.359
212.434
215.869
225.036
228.482
228.921
228.293
226.307
225.03
224.868
227.972
235.524
239.073
240.139
240.491
240.811
241.649
243.072
244.59
245.768
246.625
246.931
229.653
228.314
226.888
225.124
222.887
220.425
218.247
216.623
215.586
214.667
214.039
213.499
213.259
213.121
212.998
212.899
212.735
212.498
212.364
212.334
213.417
221.495
227.874
228.927
228.735
226.984
225.26
224.82
226.219
233.566
238.451
239.944
240.42
240.757
241.655
243.12
244.763
246.11
247.04
247.765
247.972
229.69
228.283
226.838
225.06
222.868
220.383
218.264
216.659
215.61
214.705
214.043
213.488
213.254
213.12
213.013
212.943
212.842
212.619
212.439
212.351
212.526
217.436
226.244
228.848
228.927
227.71
225.665
224.816
225.204
231.252
237.564
239.681
240.348
240.727
241.674
243.177
244.92
246.421
247.492
248.244
248.873
248.981
229.753
228.277
226.796
224.992
222.802
220.342
218.235
216.675
215.638
214.738
214.054
213.486
213.248
213.118
213.026
212.977
212.923
212.754
212.534
212.381
212.339
214.366
223.446
228.409
228.959
228.369
226.238
224.893
224.785
228.889
236.325
239.315
240.265
240.717
241.696
243.25
245.065
246.713
247.915
248.773
249.398
249.932
249.938
229.851
228.315
226.777
224.944
222.742
220.281
218.191
216.676
215.659
214.768
214.065
213.492
213.245
213.108
213.03
213.003
212.977
212.877
212.667
212.454
212.325
212.91
219.629
227.447
228.958
228.823
226.951
225.106
224.677
226.881
234.668
238.802
240.157
240.734
241.72
243.337
245.207
246.982
248.32
249.275
249.982
250.49
250.928
250.873
229.957
228.397
226.841
224.933
222.709
220.23
218.128
216.636
215.624
214.783
214.071
213.502
213.244
213.089
213.019
213.012
213.011
212.963
212.799
212.549
212.325
212.467
215.936
225.527
228.779
229.029
227.722
225.477
224.658
225.52
232.611
238.087
239.999
240.777
241.744
243.441
245.352
247.233
248.706
249.767
250.543
251.113
251.515
251.865
252.241
230.034
228.461
226.899
224.957
222.697
220.199
218.067
216.591
215.59
214.783
214.064
213.508
213.241
213.067
212.992
213.01
213.024
213.008
212.904
212.654
212.333
212.382
213.557
222.439
228.319
229.079
228.412
226.031
224.688
224.824
230.322
237.105
239.76
240.829
241.771
243.559
245.513
247.472
249.069
250.241
251.098
251.716
252.172
252.467
253.099
254.997
230.048
228.498
226.952
225.001
222.696
220.191
218.021
216.549
215.549
214.762
214.049
213.512
213.238
213.044
212.956
212.963
213.002
213.02
212.966
212.762
212.367
212.364
212.544
218.7
227.179
229.083
228.895
226.727
224.85
224.577
228.11
235.79
239.393
240.901
241.809
243.685
245.694
247.707
249.412
250.697
251.64
252.317
252.812
253.139
253.64
255.641
259.328
230.057
228.507
227.018
225.063
222.745
220.196
218.002
216.521
215.51
214.729
214.022
213.513
213.235
213.022
212.919
212.914
212.959
213.019
212.984
212.855
212.441
212.366
212.257
215.409
225.137
228.934
229.123
227.52
225.164
224.518
226.323
234.101
238.88
240.897
241.869
243.818
245.898
247.943
249.736
251.134
252.17
252.907
253.452
253.799
254.246
256.059
259.889
263.971
230.022
228.465
227.018
225.12
222.781
220.242
217.998
216.509
215.486
214.697
213.99
213.506
213.233
213.009
212.888
212.856
212.901
212.967
212.969
212.917
212.529
212.384
212.196
213.425
222.031
228.477
229.181
228.28
225.658
224.512
225.152
232.09
238.16
240.864
241.962
243.951
246.122
248.19
250.048
251.547
252.683
253.489
254.086
254.465
254.853
256.525
260.25
264.607
268.2
230.015
228.406
226.985
225.121
222.809
220.272
218.049
216.53
215.483
214.675
213.964
213.501
213.238
213.007
212.874
212.81
212.838
212.924
212.944
212.944
212.638
212.463
212.182
212.616
218.415
227.425
229.189
228.868
226.314
224.601
224.554
229.947
237.18
240.703
242.091
244.087
246.36
248.455
250.353
251.941
253.179
254.057
254.713
255.129
255.478
257.001
260.638
265.025
268.942
271.888
230.021
228.375
226.951
225.115
222.8
220.3
218.09
216.564
215.503
214.664
213.949
213.495
213.244
213.026
212.873
212.789
212.793
212.877
212.916
212.954
212.738
212.565
212.179
212.4
215.292
225.47
229.085
229.193
227.094
224.825
224.327
227.946
235.902
240.45
242.305
244.226
246.604
248.741
250.659
252.315
253.655
254.611
255.331
255.791
256.118
257.494
261.025
265.462
269.443
272.733
275.047
230.076
228.353
226.902
225.073
222.753
220.258
218.125
216.598
215.551
214.671
213.941
213.497
213.25
213.046
212.916
212.793
212.775
212.845
212.891
212.96
212.816
212.697
212.256
212.373
213.363
222.573
228.686
229.302
227.911
225.234
224.264
226.361
234.342
240.025
242.51
244.368
246.846
249.05
250.976
252.674
254.111
255.149
255.935
256.45
256.771
257.999
261.417
265.891
269.963
273.314
275.984
277.719
230.169
228.392
226.897
225.032
222.7
220.22
218.129
216.631
215.586
214.683
213.95
213.5
213.253
213.067
212.955
212.837
212.775
212.833
212.872
212.966
212.87
212.832
212.339
212.386
212.52
219.107
227.766
229.331
228.643
225.828
224.253
225.339
232.571
239.383
242.711
244.517
247.083
249.38
251.311
253.024
254.544
255.67
256.526
257.103
257.43
258.517
261.811
266.317
270.475
273.915
276.636
278.735
279.963
230.232
228.438
226.934
225.023
222.656
220.169
218.108
216.627
215.614
214.696
213.976
213.507
213.253
213.081
212.994
212.888
212.831
212.841
212.854
212.974
212.906
212.935
212.461
212.403
212.249
215.965
226.046
229.329
229.157
226.563
224.463
224.846
230.714
238.496
242.916
244.677
247.316
249.726
251.669
253.373
254.958
256.172
257.1
257.746
258.091
259.049
262.209
266.738
270.985
274.512
277.311
279.449
281.048
281.849
230.259
228.459
226.951
225.018
222.634
220.133
218.071
216.6
215.614
214.705
213.995
213.514
213.239
213.085
213.019
212.938
212.886
212.873
212.843
212.962
212.922
212.989
212.592
212.433
212.173
213.841
223.455
229.045
229.427
227.393
224.757
224.656
228.994
237.432
242.674
244.933
247.549
250.08
252.051
253.73
255.355
256.653
257.656
258.375
258.752
259.594
262.611
267.153
271.489
275.106
277.984
280.187
281.812
282.992
283.438
230.274
228.472
226.98
225.027
222.632
220.115
218.04
216.576
215.587
214.703
214.014
213.519
213.224
213.05
213.029
212.965
212.94
212.907
212.847
212.935
212.922
213.005
212.719
212.477
212.148
212.796
220.197
228.393
229.519
228.22
225.264
224.611
227.671
236.107
242.386
245.217
247.79
250.431
252.456
254.103
255.741
257.113
258.194
258.99
259.409
260.149
263.018
267.563
271.987
275.698
278.656
280.924
282.602
283.794
284.631
284.789
230.252
228.45
226.984
225.04
222.656
220.127
218.016
216.555
215.554
214.686
214.031
213.523
213.207
213.017
212.983
212.97
212.968
212.939
212.849
212.897
212.887
212.988
212.813
212.563
212.142
212.413
217.006
227.061
229.538
228.967
225.917
224.643
226.879
234.636
241.879
245.56
248.048
250.772
252.878
254.5
256.125
257.552
258.711
259.585
260.057
260.712
263.428
267.967
272.48
276.285
279.326
281.662
283.393
284.626
285.461
286.023
285.95
230.234
228.424
226.969
225.005
222.673
220.155
218.032
216.549
215.523
214.675
214.04
213.534
213.193
212.985
212.932
212.925
212.97
212.959
212.852
212.865
212.834
212.972
212.865
212.676
212.181
212.317
214.567
224.88
229.447
229.508
226.676
225.188
226.549
233.131
241.165
245.864
248.323
251.098
253.311
254.92
256.516
257.974
259.207
260.16
260.692
261.279
263.841
268.364
272.966
276.868
279.996
282.403
284.187
285.458
286.326
286.875
287.219
286.961
230.246
228.387
226.954
224.984
222.652
220.166
218.048
216.566
215.5
214.669
214.049
213.555
213.195
212.961
212.882
212.875
212.934
212.968
212.861
212.845
212.776
212.948
212.884
212.802
212.242
212.307
213.12
222.027
228.979
229.806
227.553
225.734
226.422
231.755
240.236
246.141
248.625
251.415
253.748
255.366
256.923
258.382
259.679
260.715
261.309
261.844
264.257
268.753
273.444
277.447
280.663
283.142
284.982
286.296
287.193
287.766
288.085
288.26
287.858
230.256
228.374
226.931
224.97
222.634
220.162
218.06
216.578
215.49
214.664
214.06
213.57
213.225
212.957
212.848
212.823
212.895
212.949
212.883
212.842
212.737
212.918
212.894
212.906
212.339
212.317
212.444
218.906
227.975
229.944
228.498
226.447
226.442
230.763
239.168
245.91
248.976
251.732
254.182
255.832
257.351
258.787
260.126
261.246
261.908
262.403
264.673
269.132
273.911
278.018
281.327
283.881
285.78
287.138
288.065
288.658
288.996
289.136
289.179
288.666
230.263
228.347
226.932
224.968
222.618
220.149
218.06
216.581
215.486
214.682
214.067
213.587
213.25
212.997
212.842
212.798
212.848
212.936
212.897
212.847
212.72
212.883
212.897
212.968
212.467
212.335
212.183
216.156
226.257
229.982
229.436
227.251
226.836
230.214
237.938
245.582
249.384
252.06
254.606
256.311
257.803
259.196
260.55
261.751
262.485
262.95
265.087
269.5
274.369
278.583
281.987
284.62
286.579
287.982
288.941
289.557
289.908
290.061
290.06
290.003
289.408
230.3
228.316
226.928
224.979
222.599
220.133
218.059
216.546
215.48
214.693
214.072
213.593
213.27
213.034
212.881
212.799
212.819
212.92
212.906
212.907
212.733
212.85
212.884
212.991
212.604
212.373
212.093
214.185
223.916
229.818
230.287
228.165
227.494
230.011
236.692
245.063
249.816
252.41
255.017
256.797
258.279
259.619
260.958
262.225
263.039
263.486
265.496
269.857
274.813
279.139
282.643
285.357
287.379
288.829
289.822
290.46
290.826
290.987
290.996
290.887
290.757
290.104
230.342
228.293
226.908
224.989
222.595
220.114
218.059
216.498
215.465
214.693
214.075
213.588
213.273
213.062
212.929
212.844
212.805
212.895
212.912
212.946
212.76
212.835
212.838
212.993
212.732
212.437
212.061
213.045
221.138
229.182
230.955
229.139
228.351
229.974
235.612
244.386
250.167
252.783
255.416
257.282
258.771
260.061
261.357
262.667
263.566
264.01
265.895
270.199
275.243
279.686
283.294
286.093
288.18
289.678
290.706
291.369
291.751
291.92
291.932
291.83
291.641
291.459
290.772
230.373
228.283
226.879
224.994
222.592
220.13
218.063
216.456
215.455
214.689
214.069
213.576
213.244
213.074
212.963
212.884
212.821
212.874
212.909
212.97
212.803
212.832
212.777
212.971
212.827
212.534
212.053
212.492
218.374
228.074
231.362
230.179
229.344
230.018
234.918
243.566
250.42
253.186
255.811
257.759
259.275
260.522
261.757
263.08
264.066
264.521
266.282
270.525
275.656
280.221
283.939
286.826
288.98
290.529
291.594
292.282
292.681
292.861
292.877
292.773
292.587
292.34
292.126
291.422
230.397
228.276
226.866
224.988
222.598
220.137
218.073
216.42
215.456
214.681
214.061
213.559
213.215
213.045
212.975
212.916
212.832
212.867
212.87
212.975
212.845
212.833
212.712
212.949
212.882
212.656
212.048
212.27
216.054
226.252
231.477
231.324
230.442
230.782
234.615
242.545
250.095
253.648
256.214
258.222
259.78
261
262.166
263.469
264.531
265.015
266.656
270.831
276.05
280.742
284.574
287.555
289.781
291.382
292.485
293.2
293.617
293.806
293.827
293.724
293.533
293.288
293.002
292.771
292.072
230.405
228.262
226.864
224.992
222.619
220.14
218.064
216.397
215.464
214.681
214.053
213.545
213.185
213.016
212.947
212.934
212.86
212.861
212.823
212.931
212.865
212.853
212.668
212.911
212.909
212.78
212.117
212.206
214.395
224.05
231.379
232.577
231.625
231.552
234.511
241.446
249.831
254.17
256.636
258.668
260.28
261.489
262.589
263.847
264.962
265.487
267.02
271.116
276.422
281.247
285.201
288.279
290.58
292.237
293.378
294.121
294.556
294.759
294.785
294.683
294.488
294.234
293.947
293.641
293.41
292.731
230.396
228.244
226.866
224.993
222.659
220.15
218.023
216.372
215.481
214.688
214.053
213.527
213.161
212.994
212.923
212.915
212.875
212.859
212.784
212.887
212.87
212.883
212.641
212.854
212.92
212.886
212.199
212.191
213.403
221.617
230.692
233.737
232.857
232.626
234.517
240.512
249.378
254.632
257.074
259.094
260.763
261.98
263.026
264.224
265.362
265.931
267.378
271.379
276.768
281.733
285.815
288.998
291.378
293.091
294.274
295.045
295.5
295.715
295.749
295.648
295.451
295.19
294.89
294.58
294.269
294.052
293.413
230.405
228.236
226.877
224.992
222.707
220.174
217.958
216.354
215.489
214.697
214.06
213.519
213.144
212.986
212.897
212.897
212.879
212.869
212.756
212.838
212.871
212.903
212.655
212.807
212.921
212.956
212.316
212.197
212.928
219.244
229.683
234.668
234.136
233.809
234.899
239.928
248.81
254.948
257.525
259.506
261.225
262.468
263.475
264.61
265.741
266.343
267.728
271.623
277.085
282.199
286.415
289.709
292.172
293.946
295.172
295.973
296.448
296.676
296.718
296.619
296.42
296.153
295.845
295.518
295.2
294.899
294.71
294.128
230.423
228.269
226.901
225.009
222.739
220.185
217.922
216.343
215.484
214.696
214.068
213.518
213.141
212.983
212.886
212.882
212.881
212.885
212.772
212.811
212.837
212.918
212.699
212.783
212.866
212.992
212.442
212.277
212.764
217.311
228.423
235.271
235.497
235.128
235.525
239.701
247.985
255.105
258.009
259.915
261.662
262.942
263.932
265.011
266.114
266.721
268.062
271.855
277.372
282.64
286.998
290.408
292.961
294.799
296.071
296.904
297.401
297.642
297.691
297.597
297.397
297.125
296.807
296.468
296.131
295.819
295.542
295.395
294.888
230.441
228.3
226.966
225.04
222.739
220.18
217.89
216.362
215.464
214.678
214.066
213.51
213.142
212.984
212.888
212.879
212.88
212.898
212.799
212.807
212.799
212.901
212.757
212.784
212.793
213.005
212.587
212.441
212.74
216.019
226.708
235.516
236.955
236.542
236.426
239.596
246.983
254.935
258.54
260.329
262.07
263.395
264.392
265.426
266.488
267.071
268.367
272.076
277.627
283.047
287.561
291.095
293.742
295.648
296.97
297.836
298.356
298.613
298.67
298.58
298.38
298.103
297.777
297.426
297.074
296.739
296.447
296.209
296.119
295.706
230.447
228.312
227.05
225.102
222.727
220.161
217.854
216.399
215.464
214.655
214.047
213.506
213.144
212.976
212.879
212.876
212.884
212.888
212.833
212.812
212.762
212.884
212.815
212.791
212.7
213.01
212.753
212.616
212.857
215.36
224.895
235.021
238.501
238.02
237.534
239.907
246.062
254.778
259.045
260.744
262.452
263.822
264.847
265.854
266.866
267.402
268.638
272.272
277.857
283.415
288.096
291.764
294.513
296.494
297.867
298.769
299.314
299.586
299.654
299.568
299.368
299.089
298.755
298.394
298.025
297.671
297.353
297.095
296.91
296.892
296.591
230.492
228.302
227.11
225.161
222.71
220.129
217.83
216.43
215.464
214.646
214.02
213.492
213.156
212.969
212.859
212.863
212.883
212.885
212.846
212.818
212.735
212.848
212.847
212.821
212.625
212.971
212.93
212.824
213.184
215.178
223.16
234.414
239.92
239.543
238.808
240.199
245.449
254.474
259.409
261.152
262.812
264.222
265.293
266.288
267.246
267.718
268.87
272.426
278.058
283.742
288.589
292.406
295.265
297.327
298.759
299.702
300.274
300.564
300.642
300.561
300.362
300.079
299.74
299.368
298.985
298.613
298.273
297.983
297.775
297.658
297.725
297.552
230.678
228.314
227.135
225.176
222.677
220.109
217.819
216.44
215.46
214.647
214.005
213.469
213.161
212.976
212.843
212.835
212.88
212.884
212.855
212.821
212.724
212.804
212.86
212.869
212.581
212.932
213.119
213.06
213.641
215.243
221.747
233.52
241.057
241.088
240.191
240.74
245.03
253.812
259.576
261.56
263.163
264.595
265.716
266.713
267.616
268.021
269.069
272.523
278.212
284.031
289.029
293.008
295.992
298.144
299.642
300.63
301.232
301.542
301.632
301.558
301.362
301.077
300.732
300.351
299.955
299.565
299.202
298.887
298.642
298.495
298.462
298.629
298.598
230.777
228.418
227.146
225.158
222.626
220.083
217.837
216.44
215.434
214.657
214.006
213.451
213.158
212.991
212.845
212.811
212.865
212.884
212.858
212.834
212.76
212.781
212.86
212.911
212.557
212.897
213.316
213.341
214.176
215.462
220.965
232.568
241.739
242.689
241.687
241.552
245.152
252.973
259.615
261.991
263.516
264.947
266.101
267.11
267.959
268.3
269.232
272.57
278.297
284.275
289.415
293.553
296.682
298.938
300.509
301.55
302.188
302.522
302.626
302.559
302.365
302.08
301.73
301.34
300.933
300.525
300.142
299.8
299.524
299.337
299.267
299.331
299.61
299.728
230.784
228.43
227.155
225.115
222.571
220.023
217.891
216.444
215.415
214.658
214.02
213.454
213.131
212.99
212.866
212.802
212.831
212.886
212.872
212.812
212.781
212.782
212.812
212.94
212.633
212.88
213.504
213.682
214.783
216.011
220.632
231.303
241.984
244.354
243.273
242.558
245.33
251.967
259.58
262.404
263.871
265.274
266.432
267.453
268.262
268.545
269.354
272.591
278.318
284.453
289.757
294.037
297.323
299.7
301.348
302.447
303.129
303.495
303.619
303.563
303.374
303.087
302.733
302.336
301.916
301.496
301.092
300.726
300.419
300.195
300.078
300.099
300.274
300.672
300.946
231.011
228.278
227.121
225.091
222.543
219.941
217.923
216.437
215.417
214.654
214.025
213.474
213.122
212.958
212.879
212.823
212.811
212.869
212.89
212.821
212.787
212.785
212.774
212.918
212.745
212.887
213.701
214.106
215.477
216.836
220.941
230.083
241.786
246.067
244.91
243.739
245.731
251.008
259.47
262.707
264.211
265.566
266.688
267.717
268.511
268.741
269.44
272.466
278.349
284.553
290.055
294.477
297.892
300.395
302.143
303.317
304.054
304.455
304.604
304.565
304.384
304.099
303.742
303.338
302.908
302.473
302.051
301.662
301.325
301.066
300.909
300.877
301.002
301.295
301.818
302.245
231.503
228.337
226.947
225.08
222.586
219.903
217.932
216.429
215.437
214.662
214.018
213.499
213.127
212.915
212.873
212.871
212.81
212.815
212.913
212.839
212.781
212.784
212.739
212.883
212.875
212.997
213.931
214.637
216.266
217.889
221.278
229.106
241.478
247.575
246.566
245.068
246.193
250.222
258.961
262.855
264.528
265.812
266.859
267.886
268.695
268.879
269.472
272.384
278.028
284.603
290.278
294.883
298.384
301.019
302.891
304.149
304.948
305.398
305.581
305.562
305.393
305.113
304.756
304.347
303.908
303.459
303.019
302.608
302.244
301.952
301.752
301.674
301.741
301.979
302.399
303.045
303.615
231.56
228.872
226.918
224.937
222.627
219.909
217.933
216.411
215.479
214.69
214.012
213.5
213.16
212.909
212.813
212.884
212.83
212.771
212.909
212.89
212.782
212.778
212.786
212.877
213.015
213.16
214.226
215.285
217.162
219.037
221.821
228.412
241.05
248.716
248.225
246.47
246.71
249.643
258.231
262.93
264.829
265.988
266.941
267.958
268.807
268.95
269.451
272.189
277.817
284.37
290.382
295.18
298.831
301.56
303.569
304.931
305.804
306.31
306.536
306.548
306.397
306.128
305.772
305.36
304.912
304.452
303.995
303.564
303.175
302.849
302.611
302.486
302.5
302.675
303.036
303.584
304.345
305.048
232.052
229.05
227.504
224.918
222.587
220.021
217.947
216.419
215.508
214.716
214.019
213.484
213.158
212.937
212.795
212.873
212.901
212.762
212.844
212.937
212.804
212.689
212.879
212.9
213.145
213.451
214.642
216.067
218.168
220.279
222.718
228.607
240.46
249.385
249.91
247.94
247.414
249.747
257.247
262.95
265.046
266.07
266.951
267.964
268.837
268.966
269.376
272.004
277.567
284.155
290.325
295.352
299.222
302.044
304.144
305.646
306.61
307.183
307.462
307.513
307.391
307.138
306.79
306.376
305.922
305.451
304.98
304.528
304.115
303.76
303.484
303.315
303.276
303.393
303.687
304.171
304.843
305.711
306.532
248.149
233.494
227.747
225.483
222.597
220.081
218.03
216.475
215.526
214.715
214.05
213.484
213.127
212.949
212.812
212.772
212.906
212.821
212.789
212.927
212.908
212.626
212.92
212.936
213.269
213.879
215.222
216.989
219.285
221.596
223.855
228.861
239.577
249.701
251.612
249.45
248.235
249.826
256.15
262.894
265.113
266.086
266.945
267.882
268.758
268.933
269.257
271.772
277.261
283.925
290.151
295.442
299.462
302.526
304.634
306.251
307.35
308.006
308.348
308.448
308.362
308.135
307.8
307.393
306.937
306.456
305.972
305.502
305.065
304.682
304.372
304.16
304.071
304.13
304.359
304.776
305.382
306.169
307.131
308.054
249.713
246.642
233.242
226.152
223.093
220.142
218.082
216.596
215.545
214.717
214.06
213.511
213.114
212.928
212.88
212.764
212.854
212.951
212.789
212.82
212.997
212.609
212.905
213.172
213.493
214.455
215.997
218.058
220.508
222.972
225.197
229.471
238.624
249.921
253.234
250.983
249.143
250.163
255.013
262.238
265.096
266.078
266.769
267.678
268.571
268.784
269.109
271.539
276.913
283.648
289.996
295.376
299.684
302.799
305.199
306.735
307.982
308.763
309.183
309.343
309.303
309.111
308.8
308.406
307.952
307.468
306.972
306.485
306.026
305.614
305.272
305.019
304.881
304.886
305.052
305.401
305.94
306.663
307.553
308.595
309.608
249.659
248.902
245.822
232.844
224.137
220.787
218.007
216.694
215.608
214.69
214.076
213.522
213.147
212.892
212.887
212.819
212.772
212.957
212.857
212.65
213.023
212.696
212.885
213.547
213.866
215.208
216.978
219.267
221.834
224.394
226.682
230.222
237.688
250.012
254.57
252.53
250.124
250.577
253.963
261.474
264.766
265.831
266.556
267.426
268.337
268.591
268.943
271.305
276.567
283.314
289.853
295.273
299.732
303.123
305.487
307.363
308.457
309.413
309.948
310.187
310.204
310.057
309.78
309.407
308.964
308.48
307.976
307.474
306.996
306.559
306.184
305.893
305.709
305.659
305.766
306.048
306.518
307.174
308.002
308.983
310.093
311.183
249.661
248.865
247.29
243.964
232.19
222.622
218.536
216.651
215.711
214.687
214.048
213.519
213.182
212.924
212.837
212.886
212.769
212.881
212.961
212.58
212.953
213.085
212.977
213.985
214.478
216.154
218.16
220.615
223.256
225.867
228.205
231.092
236.842
249.94
255.534
254.053
251.153
251.011
253.074
260.334
264.369
265.58
266.303
267.157
268.088
268.374
268.768
271.092
276.224
283.001
289.622
295.308
299.581
303.244
305.87
307.653
309.131
309.88
310.614
310.956
311.055
310.962
310.727
310.386
309.965
309.488
308.982
308.471
307.975
307.513
307.109
306.78
306.553
306.451
306.498
306.716
307.118
307.705
308.47
309.392
310.451
311.616
312.772
249.622
248.858
247.195
245.074
242.496
232.152
222.003
217.635
215.679
214.888
214.04
213.497
213.17
213.016
212.84
212.886
212.906
212.711
212.989
212.699
212.856
213.507
213.202
214.537
215.382
217.317
219.535
222.095
224.771
227.393
229.752
232.204
237.194
249.634
256.096
255.552
252.241
251.395
252.387
258.955
263.744
265.246
266.053
266.906
267.842
268.167
268.578
270.89
275.888
282.68
289.429
295.208
299.773
303.029
306.044
308.072
309.414
310.588
311.073
311.631
311.824
311.815
311.634
311.334
310.942
310.486
309.986
309.47
308.96
308.478
308.045
307.681
307.413
307.261
307.251
307.405
307.739
308.258
308.956
309.818
310.821
311.946
313.158
314.376
249.602
248.818
247.179
244.975
242.714
241.3
232.676
222.441
217.135
215.083
214.275
213.503
213.166
213.014
212.961
212.763
212.973
212.686
212.84
213.205
212.837
213.925
213.836
215.283
216.577
218.705
221.091
223.702
226.375
228.972
231.319
233.499
237.429
248.709
256.403
256.954
253.398
251.693
251.899
257.399
262.953
264.854
265.796
266.678
267.61
267.963
268.388
270.659
275.704
282.315
289.29
295.076
299.84
303.365
305.785
308.287
309.843
310.86
311.805
312.085
312.508
312.584
312.492
312.242
311.889
311.462
310.98
310.467
309.951
309.451
308.993
308.596
308.287
308.087
308.022
308.114
308.38
308.832
309.463
310.263
311.21
312.283
313.464
314.718
315.992
249.624
248.807
247.137
244.951
242.649
241.365
241.654
233.904
223.926
217.766
214.948
213.916
213.282
212.965
213.026
212.763
212.871
213.112
212.789
213.629
212.976
214.362
214.73
216.359
218.073
220.328
222.816
225.431
228.062
230.598
232.893
234.882
238.013
247.477
256.59
258.136
254.531
251.908
251.533
255.801