/*--------------------------------*- C++ -*----------------------------------*\
| =========                 |                                                 |
| \\      /  F ield         | OpenFOAM: The Open Source CFD Toolbox           |
|  \\    /   O peration     | Version:  v2012                                 |
|   \\  /    A nd           | Website:  www.openfoam.com                      |
|    \\/     M anipulation  |                                                 |
\*---------------------------------------------------------------------------*/
FoamFile
{
    version     2.0;
    format      ascii;
    class       volScalarField;
    location    "12000";
    object      Fs;
}
// * * * * * * * * * * * * * * * * * * * * * * * * * * * * * * * * * * * * * //

dimensions      [0 0 0 0 0 0 0];


internalField   nonuniform List<scalar> 
27324
(
2.05988e-05
2.11658e-05
1.90684e-05
2.55549e-05
1.97968e-05
1.73889e-05
2.94348e-05
2.4205e-05
1.82e-05
1.54963e-05
4.11227e-05
2.77834e-05
2.2389e-05
1.63508e-05
1.35804e-05
4.51791e-05
3.77742e-05
2.5799e-05
2.02062e-05
1.46144e-05
1.21422e-05
5.6169e-05
4.49522e-05
3.47489e-05
2.32924e-05
1.83141e-05
1.33813e-05
1.13149e-05
0.000290682
5.52574e-05
4.4462e-05
3.17995e-05
2.12957e-05
1.73052e-05
1.24213e-05
1.0821e-05
0.0186416
0.000312383
5.41487e-05
4.25277e-05
2.9998e-05
2.02334e-05
1.69438e-05
1.1469e-05
1.0341e-05
0.521076
0.0251593
0.000352664
5.28271e-05
4.20068e-05
2.85016e-05
1.99535e-05
1.65627e-05
1.03864e-05
1.01002e-05
0.676393
0.654009
0.0399847
0.000418532
5.50922e-05
4.39064e-05
2.77294e-05
1.96789e-05
1.60373e-05
9.23966e-06
1.01929e-05
0.00127674
0.800712
0.787836
0.0644015
0.000599659
6.22024e-05
4.57543e-05
2.66105e-05
1.94569e-05
1.53313e-05
8.09698e-06
1.10368e-05
8.86726e-05
0.00167547
0.881382
0.878052
0.122786
0.00102799
7.94863e-05
4.73967e-05
2.51486e-05
1.94009e-05
1.43664e-05
7.24456e-06
1.2271e-05
5.15598e-05
9.44386e-05
0.00212555
0.935222
0.932163
0.234647
0.00220705
0.000116212
5.0557e-05
2.4455e-05
1.93958e-05
1.30568e-05
6.72887e-06
1.40842e-05
4.14497e-05
5.09158e-05
9.94696e-05
0.00303432
0.964327
0.956661
0.394693
0.00627249
0.000222089
5.81079e-05
2.62932e-05
1.98174e-05
1.10885e-05
8.04015e-06
1.61695e-05
3.8884e-05
4.15852e-05
5.00525e-05
0.000108025
0.00477186
0.977146
0.96351
0.582195
0.0267258
0.000700371
8.10517e-05
3.30757e-05
2.31375e-05
9.60372e-06
1.21083e-05
1.89085e-05
3.69856e-05
3.79909e-05
4.13243e-05
4.97293e-05
0.000121846
0.00945882
0.978619
0.947878
0.731704
0.162047
0.00482862
0.000197349
5.13037e-05
3.39713e-05
1.05877e-05
2.36965e-05
2.52512e-05
3.56015e-05
3.60536e-05
3.70839e-05
4.09903e-05
5.00099e-05
0.000149579
0.0244353
0.964952
0.871568
0.784133
0.637477
0.0900119
0.00198856
0.000179299
7.93462e-05
2.4145e-05
0.000158493
3.06169e-05
3.54518e-05
3.46283e-05
3.5039e-05
3.61521e-05
4.05445e-05
5.17946e-05
0.000217177
0.0754743
0.898797
0.579999
0.676991
0.907406
0.810172
0.145632
0.0101068
0.00149417
0.00242423
0.00245844
0.00370587
3.8353e-05
3.43783e-05
3.35945e-05
3.41401e-05
3.52254e-05
4.00527e-05
5.58148e-05
0.000394492
0.237238
0.585685
0.132217
0.274248
0.900627
0.984439
0.967847
0.880849
0.579253
0.866548
0.818988
0.870649
4.11102e-05
3.73968e-05
3.34208e-05
3.2631e-05
3.31759e-05
3.46423e-05
4.02265e-05
6.25933e-05
0.000995272
0.522449
0.113599
0.0139762
0.0263835
0.347763
0.907596
0.976646
0.983865
0.985986
0.983096
0.991565
0.943207
4.34844e-05
4.03724e-05
3.65458e-05
3.24774e-05
3.16687e-05
3.25496e-05
3.41909e-05
4.08401e-05
7.67372e-05
0.00422217
0.685753
0.0084922
0.00128282
0.00132807
0.00509633
0.0221115
0.0638498
0.128261
0.164134
0.0817758
0.0390945
0.27361
4.52894e-05
4.29473e-05
3.9665e-05
3.56351e-05
3.15324e-05
3.1048e-05
3.19567e-05
3.40051e-05
4.21508e-05
0.000111207
0.0329044
0.608458
0.000571116
0.000141048
9.96709e-05
0.000110722
0.000112407
0.000119243
0.000176775
0.000199653
0.000163333
0.000518152
0.0415268
4.64377e-05
4.50779e-05
4.23169e-05
3.89435e-05
3.48131e-05
3.08393e-05
3.05709e-05
3.18767e-05
3.42135e-05
4.3793e-05
0.000231448
0.291151
0.26399
7.71389e-05
2.86334e-05
2.65207e-05
1.88502e-05
1.06898e-05
9.20936e-06
1.58e-05
2.65255e-05
5.09022e-05
0.00336032
0.0161999
4.81668e-05
4.62356e-05
4.45797e-05
4.18432e-05
3.82596e-05
3.40933e-05
3.03121e-05
3.05907e-05
3.17338e-05
3.47903e-05
4.8876e-05
0.000970039
0.765982
0.0400735
3.69189e-05
1.58824e-05
1.66738e-05
1.04681e-05
5.83281e-06
6.94457e-06
1.41649e-05
2.96347e-05
0.000215841
0.047707
0.00221156
4.9257e-05
4.81214e-05
4.61278e-05
4.40339e-05
4.126e-05
3.75435e-05
3.34599e-05
3.03606e-05
3.06503e-05
3.17368e-05
3.68809e-05
6.62193e-05
0.0113411
0.847744
0.00451088
4.62889e-05
2.21398e-05
1.55876e-05
7.73539e-06
6.14208e-06
1.1171e-05
2.43385e-05
6.44067e-05
0.00604201
0.0373987
0.000359511
5.0015e-05
4.92612e-05
4.79405e-05
4.58437e-05
4.31918e-05
4.05538e-05
3.69621e-05
3.31437e-05
3.03556e-05
3.10371e-05
3.22337e-05
3.95565e-05
0.000144463
0.232599
0.522567
0.000744387
5.67368e-05
2.89741e-05
1.41209e-05
6.71151e-06
8.91153e-06
2.11167e-05
4.23108e-05
0.000737432
0.0477764
0.00289292
0.000120569
4.98902e-05
5.00202e-05
4.92582e-05
4.7753e-05
4.58863e-05
4.28216e-05
4.0344e-05
3.64746e-05
3.25336e-05
3.08061e-05
3.19466e-05
3.35284e-05
4.39201e-05
0.000910753
0.798284
0.0391076
0.000141002
4.10317e-05
2.40043e-05
9.11318e-06
7.2794e-06
1.49685e-05
3.66291e-05
0.00014233
0.0214825
0.0113433
0.000315904
7.38404e-05
4.88731e-05
5.00544e-05
4.99109e-05
4.91607e-05
4.73975e-05
4.5779e-05
4.33158e-05
4.01665e-05
3.55896e-05
3.22305e-05
3.17686e-05
3.32589e-05
3.65181e-05
6.56823e-05
0.0243594
0.807961
0.00135419
4.2869e-05
3.04322e-05
1.48639e-05
7.17013e-06
1.04745e-05
2.7733e-05
6.271e-05
0.00298799
0.038603
0.000798492
0.000108279
6.18947e-05
4.76902e-05
4.87895e-05
5.00304e-05
4.97807e-05
4.89219e-05
4.753e-05
4.57353e-05
4.33243e-05
3.95207e-05
3.48344e-05
3.22719e-05
3.31471e-05
3.52809e-05
4.08889e-05
0.000235319
0.551185
0.235841
0.000176277
3.53755e-05
2.4603e-05
9.41063e-06
8.21989e-06
1.98546e-05
4.46084e-05
0.000393652
0.0407251
0.00339769
0.000156838
7.26401e-05
5.91191e-05
4.5005e-05
4.69888e-05
4.8392e-05
4.98915e-05
4.97033e-05
4.90597e-05
4.79195e-05
4.58936e-05
4.31014e-05
3.89463e-05
3.40575e-05
3.2715e-05
3.525e-05
3.8137e-05
5.25969e-05
0.00460091
0.87953
0.00875245
7.95585e-05
3.86492e-05
1.62574e-05
7.85978e-06
1.33937e-05
3.52292e-05
0.000101474
0.0121594
0.0145612
0.000326536
8.06452e-05
6.37445e-05
6.07734e-05
4.41349e-05
4.51233e-05
4.67218e-05
4.80242e-05
4.98354e-05
5.01567e-05
4.93161e-05
4.82444e-05
4.57514e-05
4.29317e-05
3.78058e-05
3.35225e-05
3.39174e-05
3.78903e-05
4.19702e-05
0.000134741
0.280769
0.484876
0.000481838
5.62211e-05
2.91808e-05
9.88787e-06
9.56698e-06
2.42241e-05
5.21573e-05
0.00169998
0.0372064
0.000936669
0.000105657
6.3808e-05
6.42651e-05
6.27925e-05
4.33625e-05
4.36368e-05
4.46379e-05
4.66653e-05
4.80647e-05
5.0248e-05
5.02418e-05
4.98566e-05
4.80914e-05
4.57371e-05
4.21172e-05
3.64886e-05
3.35921e-05
3.59455e-05
4.10995e-05
5.17012e-05
0.00194123
0.878033
0.0154906
8.99413e-05
4.24648e-05
1.60474e-05
7.90428e-06
1.54578e-05
3.76373e-05
0.000270361
0.0332771
0.00364735
0.000162293
6.95346e-05
6.23104e-05
6.66031e-05
5.81224e-05
4.31364e-05
4.2779e-05
4.31802e-05
4.43191e-05
4.6431e-05
4.8381e-05
5.03937e-05
5.06988e-05
4.96643e-05
4.8334e-05
4.53702e-05
4.08685e-05
3.54202e-05
3.46081e-05
3.89333e-05
4.54211e-05
0.000113515
0.172485
0.631952
0.000610901
5.31146e-05
2.85046e-05
8.48381e-06
9.84648e-06
2.72762e-05
8.38972e-05
0.00978678
0.0143374
0.000320629
8.00196e-05
6.36395e-05
6.46392e-05
6.10733e-05
4.67295e-05
4.40039e-05
4.24607e-05
4.23615e-05
4.28502e-05
4.45987e-05
4.61199e-05
4.8515e-05
5.09309e-05
5.03727e-05
4.97259e-05
4.76655e-05
4.50881e-05
3.92186e-05
3.48729e-05
3.68994e-05
4.21532e-05
5.46062e-05
0.00150118
0.866855
0.0231739
0.000123621
4.30343e-05
1.21725e-05
7.06812e-06
1.79559e-05
4.7781e-05
0.00156142
0.0342142
0.00085902
0.000101896
6.60473e-05
6.46141e-05
5.94743e-05
4.78167e-05
3.30541e-05
4.51903e-05
4.37522e-05
4.20015e-05
4.2108e-05
4.26425e-05
4.43612e-05
4.63709e-05
4.89041e-05
5.05685e-05
5.0277e-05
4.89875e-05
4.71156e-05
4.35779e-05
3.72688e-05
3.51898e-05
4.02431e-05
4.67229e-05
0.000113612
0.173061
0.577513
0.000607836
5.88023e-05
2.06149e-05
6.38382e-06
1.1511e-05
3.48585e-05
0.000282219
0.0318154
0.0030105
0.000150498
7.12527e-05
6.41387e-05
5.93127e-05
4.57542e-05
3.3679e-05
1.98803e-05
4.74633e-05
4.54068e-05
4.37246e-05
4.19471e-05
4.16744e-05
4.23909e-05
4.4432e-05
4.66043e-05
4.86671e-05
5.03341e-05
4.93272e-05
4.84155e-05
4.61052e-05
4.07158e-05
3.57321e-05
3.69324e-05
4.40272e-05
5.59012e-05
0.00187186
0.859255
0.0134644
8.66169e-05
3.25938e-05
8.09671e-06
7.68984e-06
2.50923e-05
9.05798e-05
0.0107038
0.0110367
0.000274886
8.11158e-05
6.42797e-05
5.82996e-05
4.47046e-05
3.24502e-05
1.9613e-05
1.19533e-05
4.90177e-05
4.7339e-05
4.51453e-05
4.31793e-05
4.1677e-05
4.13885e-05
4.26293e-05
4.45642e-05
4.65433e-05
4.86774e-05
4.93027e-05
4.8557e-05
4.70674e-05
4.39204e-05
3.7671e-05
3.47296e-05
3.98832e-05
4.73893e-05
0.000130428
0.253662
0.416482
0.000366182
4.20447e-05
1.37023e-05
6.07725e-06
1.65535e-05
4.91371e-05
0.00194666
0.027864
0.000657158
9.99087e-05
6.57661e-05
5.67334e-05
4.34368e-05
3.11125e-05
2.02933e-05
1.13504e-05
8.12005e-06
4.92192e-05
4.90663e-05
4.73706e-05
4.5249e-05
4.25296e-05
4.13247e-05
4.17313e-05
4.26392e-05
4.46314e-05
4.67662e-05
4.81398e-05
4.83611e-05
4.70285e-05
4.51677e-05
4.03137e-05
3.45569e-05
3.48357e-05
4.28065e-05
5.55763e-05
0.00364796
0.832388
0.00526276
7.19034e-05
2.47965e-05
6.33877e-06
1.04823e-05
3.41669e-05
0.000364048
0.0321719
0.00203353
0.000138875
6.96073e-05
5.46613e-05
4.21403e-05
2.92502e-05
2.02642e-05
1.23365e-05
7.37967e-06
6.32369e-06
4.9249e-05
4.96544e-05
4.91503e-05
4.72713e-05
4.51682e-05
4.28115e-05
4.1406e-05
4.15705e-05
4.28837e-05
4.48449e-05
4.67643e-05
4.75671e-05
4.67824e-05
4.51838e-05
4.22156e-05
3.5976e-05
3.23325e-05
3.68561e-05
4.48239e-05
0.000178986
0.435571
0.151595
0.000188215
3.87893e-05
9.2857e-06
7.03608e-06
2.36744e-05
0.000108545
0.0147094
0.00702969
0.000229569
7.67756e-05
5.28279e-05
4.05406e-05
2.74523e-05
1.96115e-05
1.26535e-05
8.25522e-06
5.54968e-06
5.51052e-06
4.78561e-05
4.90845e-05
4.98353e-05
4.89068e-05
4.71369e-05
4.49102e-05
4.29187e-05
4.1376e-05
4.20009e-05
4.32687e-05
4.496e-05
4.68052e-05
4.6451e-05
4.50284e-05
4.29826e-05
3.82883e-05
3.17202e-05
3.21423e-05
3.95003e-05
5.61488e-05
0.0122251
0.730384
0.00146669
5.61028e-05
1.69968e-05
5.62077e-06
1.51906e-05
5.34216e-05
0.00337522
0.0198106
0.00047381
9.03148e-05
5.15607e-05
3.82301e-05
2.58814e-05
1.87936e-05
1.2959e-05
8.51472e-06
6.28413e-06
4.71619e-06
5.20873e-06
4.5058e-05
4.71042e-05
4.89395e-05
4.97468e-05
4.88884e-05
4.74482e-05
4.4963e-05
4.29001e-05
4.194e-05
4.23259e-05
4.37879e-05
4.54897e-05
4.64781e-05
4.52947e-05
4.31267e-05
4.01769e-05
3.34282e-05
2.96732e-05
3.41032e-05
4.18457e-05
0.000393055
0.647062
0.0350834
0.000119864
2.98894e-05
5.97303e-06
9.20123e-06
3.52865e-05
0.000653961
0.0310592
0.00124088
0.00011682
5.11022e-05
3.56474e-05
2.45605e-05
1.77276e-05
1.3076e-05
8.91627e-06
6.44271e-06
5.36464e-06
4.37991e-06
5.20685e-06
4.35405e-05
4.48079e-05
4.66113e-05
4.90538e-05
4.99218e-05
4.92845e-05
4.75418e-05
4.50208e-05
4.35163e-05
4.22221e-05
4.31032e-05
4.45088e-05
4.62306e-05
4.60174e-05
4.42127e-05
4.09366e-05
3.64724e-05
2.96423e-05
3.03115e-05
3.75819e-05
7.60822e-05
0.0704965
0.457647
0.000485162
4.58141e-05
8.75804e-06
6.08155e-06
2.42043e-05
0.000170002
0.0215669
0.00383966
0.000172473
5.22468e-05
3.30558e-05
2.34847e-05
1.66015e-05
1.29624e-05
9.29235e-06
6.75608e-06
5.45558e-06
4.98335e-06
4.33551e-06
3.57749e-06
4.2402e-05
4.27962e-05
4.45676e-05
4.66862e-05
4.9288e-05
5.00815e-05
4.95797e-05
4.74549e-05
4.51784e-05
4.36115e-05
4.29893e-05
4.41308e-05
4.60535e-05
4.71089e-05
4.57993e-05
4.302e-05
3.92934e-05
3.22244e-05
2.87433e-05
3.40282e-05
4.74038e-05
0.0018949
0.750737
0.00529759
6.95887e-05
1.5693e-05
4.80032e-06
1.56655e-05
7.05382e-05
0.00700836
0.0115139
0.000301593
5.63671e-05
3.05294e-05
2.25242e-05
1.54973e-05
1.26139e-05
9.62492e-06
7.09598e-06
5.69276e-06
5.02595e-06
4.92352e-06
3.20236e-06
1.92979e-06
4.20636e-05
4.17507e-05
4.22553e-05
4.45521e-05
4.6747e-05
4.92319e-05
5.04152e-05
4.9528e-05
4.78058e-05
4.51402e-05
4.40864e-05
4.41424e-05
4.60766e-05
4.78637e-05
4.79982e-05
4.53861e-05
4.29136e-05
3.66753e-05
2.98335e-05
3.23761e-05
4.32131e-05
0.000174222
0.368064
0.105312
0.000162022
2.7448e-05
5.19104e-06
9.41831e-06
4.08677e-05
0.00152586
0.0244752
0.000640585
6.59596e-05
2.85042e-05
2.15692e-05
1.45227e-05
1.20174e-05
9.86808e-06
7.48003e-06
5.95296e-06
5.2086e-06
4.93024e-06
4.14071e-06
1.57447e-06
1.4949e-06
4.47428e-05
4.16708e-05
4.14642e-05
4.22857e-05
4.42926e-05
4.66791e-05
4.94766e-05
5.02363e-05
4.95001e-05
4.72136e-05
4.56904e-05
4.4962e-05
4.61393e-05
4.82901e-05
4.98664e-05
4.87262e-05
4.61245e-05
4.19776e-05
3.35731e-05
3.14862e-05
4.02352e-05
6.4834e-05
0.0195763
0.583052
0.000786341
4.36992e-05
7.7188e-06
6.09867e-06
2.69055e-05
0.000353011
0.0276528
0.0016262
8.65171e-05
2.70641e-05
2.04709e-05
1.37293e-05
1.12716e-05
9.95918e-06
7.88437e-06
6.26739e-06
5.40729e-06
5.07299e-06
4.63885e-06
2.03579e-06
1.21413e-06
1.34595e-06
4.67118e-05
4.44787e-05
4.167e-05
4.13327e-05
4.20086e-05
4.41054e-05
4.68659e-05
4.92753e-05
5.00678e-05
4.87133e-05
4.69842e-05
4.5638e-05
4.62118e-05
4.83534e-05
5.08671e-05
5.20092e-05
5.00442e-05
4.62009e-05
3.90127e-05
3.23195e-05
3.61973e-05
4.75803e-05
0.000851367
0.659419
0.00922791
7.23897e-05
1.40728e-05
4.49973e-06
1.72287e-05
0.000118143
0.0148395
0.00453779
0.000129516
2.73384e-05
1.91234e-05
1.31065e-05
1.05037e-05
9.8711e-06
8.27464e-06
6.63338e-06
5.65225e-06
5.22605e-06
5.08402e-06
2.19752e-06
1.50041e-06
1.12689e-06
1.14779e-06
4.95508e-05
4.64433e-05
4.41173e-05
4.13255e-05
4.09162e-05
4.20316e-05
4.41749e-05
4.68487e-05
4.91057e-05
4.92142e-05
4.80755e-05
4.62815e-05
4.58282e-05
4.73217e-05
5.09801e-05
5.35988e-05
5.3304e-05
5.00988e-05
4.45252e-05
3.49648e-05
3.30392e-05
4.25957e-05
0.000129542
0.198203
0.138381
0.000175617
2.53479e-05
4.41912e-06
1.04761e-05
5.5811e-05
0.00443684
0.0112593
0.000227008
2.95098e-05
1.75373e-05
1.2644e-05
9.79822e-06
9.60224e-06
8.60989e-06
7.04335e-06
5.94367e-06
5.42052e-06
5.20493e-06
2.4596e-06
1.56215e-06
1.32595e-06
9.41163e-07
1.01516e-06
5.13151e-05
4.89836e-05
4.65931e-05
4.38294e-05
4.09282e-05
4.09486e-05
4.19332e-05
4.42901e-05
4.69929e-05
4.83074e-05
4.82833e-05
4.67946e-05
4.51596e-05
4.5845e-05
4.87091e-05
5.32313e-05
5.50435e-05
5.27071e-05
4.80113e-05
3.86089e-05
3.10087e-05
3.76052e-05
5.91396e-05
0.0100457
0.553081
0.000856
4.20556e-05
5.99064e-06
6.33497e-06
3.39286e-05
0.00104782
0.0185989
0.000476235
3.43512e-05
1.59095e-05
1.22509e-05
9.24639e-06
9.17947e-06
8.83709e-06
7.48937e-06
6.28377e-06
5.65593e-06
5.37062e-06
2.7577e-06
1.66886e-06
1.36586e-06
1.103e-06
7.65464e-07
1.05206e-06
5.04132e-05
4.98859e-05
4.86717e-05
4.6446e-05
4.35597e-05
4.09964e-05
4.07708e-05
4.20632e-05
4.44266e-05
4.67129e-05
4.74888e-05
4.67266e-05
4.47421e-05
4.40238e-05
4.60844e-05
4.95517e-05
5.39551e-05
5.35035e-05
4.9351e-05
4.17299e-05
3.07718e-05
3.2932e-05
4.46376e-05
0.000608831
0.566522
0.00951866
7.09641e-05
1.03791e-05
4.39459e-06
2.15042e-05
0.000276988
0.0167245
0.00112784
4.42525e-05
1.42361e-05
1.18543e-05
8.87622e-06
8.67655e-06
8.90305e-06
7.94626e-06
6.67949e-06
5.93409e-06
5.57674e-06
3.12338e-06
1.77251e-06
1.43962e-06
1.14039e-06
9.13897e-07
7.27347e-07
1.21466e-06
4.80506e-05
4.81306e-05
4.91431e-05
4.85806e-05
4.6578e-05
4.32925e-05
4.07211e-05
4.11631e-05
4.23136e-05
4.46872e-05
4.64084e-05
4.61938e-05
4.45389e-05
4.27573e-05
4.30752e-05
4.56398e-05
4.97357e-05
5.24018e-05
4.94801e-05
4.32993e-05
3.24004e-05
2.97059e-05
3.82935e-05
0.000111893
0.162128
0.118332
0.000166559
1.91665e-05
3.75546e-06
1.32371e-05
9.74813e-05
0.00793067
0.00266206
6.50815e-05
1.33101e-05
1.14539e-05
8.69685e-06
8.16204e-06
8.79698e-06
8.36496e-06
7.1294e-06
6.26143e-06
5.82118e-06
3.56412e-06
1.88996e-06
1.52089e-06
1.20461e-06
9.40374e-07
8.8695e-07
7.83356e-07
1.46485e-06
4.5078e-05
4.63022e-05
4.80932e-05
4.92497e-05
4.88015e-05
4.675e-05
4.34104e-05
4.10028e-05
4.15143e-05
4.29574e-05
4.50423e-05
4.58823e-05
4.44178e-05
4.24314e-05
4.0739e-05
4.17231e-05
4.542e-05
4.95291e-05
4.86205e-05
4.37666e-05
3.53863e-05
2.8093e-05
3.33036e-05
5.38318e-05
0.0110282
0.492696
0.00070702
3.21783e-05
4.34424e-06
7.78779e-06
4.49688e-05
0.00234122
0.00521841
0.000114315
1.35769e-05
1.10086e-05
8.65073e-06
7.70996e-06
8.52723e-06
8.70089e-06
7.62453e-06
6.63942e-06
6.11392e-06
4.0998e-06
2.03899e-06
1.62079e-06
1.27702e-06
9.89362e-07
9.05697e-07
9.79683e-07
8.93558e-07
1.79552e-06
4.28257e-05
4.41875e-05
4.56988e-05
4.8321e-05
4.94665e-05
4.86352e-05
4.62497e-05
4.38859e-05
4.14736e-05
4.24281e-05
4.36846e-05
4.54438e-05
4.52858e-05
4.29019e-05
4.01319e-05
3.90426e-05
4.14619e-05
4.59403e-05
4.79397e-05
4.41102e-05
3.84318e-05
2.9449e-05
2.97586e-05
4.25576e-05
0.000852781
0.555887
0.0060307
5.62295e-05
6.58333e-06
5.01875e-06
2.35419e-05
0.00058215
0.0071095
0.000232268
1.48549e-05
1.04646e-05
8.66007e-06
7.36845e-06
8.15483e-06
8.89608e-06
8.14913e-06
7.06895e-06
6.45394e-06
4.75754e-06
2.23302e-06
1.73535e-06
1.36248e-06
1.04205e-06
9.44342e-07
1.00005e-06
1.14306e-06
1.0522e-06
2.21243e-06
4.21884e-05
4.29934e-05
4.40332e-05
4.5804e-05
4.78178e-05
4.94234e-05
4.84056e-05
4.62431e-05
4.36895e-05
4.23949e-05
4.34324e-05
4.50364e-05
4.6436e-05
4.45794e-05
4.12283e-05
3.83116e-05
3.88194e-05
4.27822e-05
4.70089e-05
4.56169e-05
4.17636e-05
3.32944e-05
2.81738e-05
3.95854e-05
0.000159956
0.214746
0.0657839
0.000118268
1.17042e-05
3.65027e-06
1.316e-05
0.000164869
0.00593212
0.000493758
2.14832e-05
9.55794e-06
8.62098e-06
7.18026e-06
7.75074e-06
8.91661e-06
8.65661e-06
7.56315e-06
6.84119e-06
5.55618e-06
2.47353e-06
1.86428e-06
1.46041e-06
1.10183e-06
9.84464e-07
1.04202e-06
1.16849e-06
1.36809e-06
1.26534e-06
2.73399e-06
4.32688e-05
4.39788e-05
4.34016e-05
4.40584e-05
4.56497e-05
4.75501e-05
4.91142e-05
4.82225e-05
4.59244e-05
4.39674e-05
4.3594e-05
4.5154e-05
4.72591e-05
4.71815e-05
4.38367e-05
4.0424e-05
3.82235e-05
4.09425e-05
4.58089e-05
4.81571e-05
4.50065e-05
3.91504e-05
2.80861e-05
3.67825e-05
7.00308e-05
0.0206979
0.347
0.000411963
2.0733e-05
3.44207e-06
7.73223e-06
5.67275e-05
0.00284296
0.00101796
3.54461e-05
8.74214e-06
8.47753e-06
7.15821e-06
7.38953e-06
8.75783e-06
9.09386e-06
8.11392e-06
7.27883e-06
6.51023e-06
2.77641e-06
2.01737e-06
1.57209e-06
1.17004e-06
1.02978e-06
1.08569e-06
1.21925e-06
1.40003e-06
1.66407e-06
1.54912e-06
3.38504e-06
4.57465e-05
4.46017e-05
4.41148e-05
4.36241e-05
4.39326e-05
4.56063e-05
4.7448e-05
4.8677e-05
4.74681e-05
4.56218e-05
4.41442e-05
4.54258e-05
4.75107e-05
4.95575e-05
4.7696e-05
4.40853e-05
4.04782e-05
4.04612e-05
4.52574e-05
5.06404e-05
4.89227e-05
4.46562e-05
3.00808e-05
3.32978e-05
4.87322e-05
0.00164974
0.515012
0.0025154
3.82376e-05
4.06876e-06
4.4594e-06
2.40573e-05
0.000897439
0.00176671
5.80907e-05
8.4256e-06
8.21127e-06
7.29588e-06
7.11884e-06
8.469e-06
9.38432e-06
8.71294e-06
7.77288e-06
7.14528e-06
3.16e-06
2.20534e-06
1.70279e-06
1.2496e-06
1.08122e-06
1.13517e-06
1.27298e-06
1.46293e-06
1.70159e-06
2.05111e-06
1.92691e-06
4.19945e-06
4.81467e-05
4.65363e-05
4.51924e-05
4.37002e-05
4.34835e-05
4.38955e-05
4.56645e-05
4.74084e-05
4.78129e-05
4.66456e-05
4.46878e-05
4.48009e-05
4.75125e-05
5.00109e-05
5.16966e-05
4.83839e-05
4.41549e-05
4.16315e-05
4.50576e-05
5.13865e-05
5.29385e-05
4.83439e-05
3.36061e-05
3.01288e-05
4.11785e-05
0.000253061
0.295484
0.0258629
7.51993e-05
5.79526e-06
3.031e-06
9.44543e-06
0.000241384
0.00215302
0.000113193
9.00709e-06
7.88518e-06
7.54915e-06
6.97066e-06
8.10955e-06
9.48799e-06
9.3198e-06
8.34526e-06
7.60059e-06
3.64441e-06
2.43858e-06
1.85666e-06
1.34304e-06
1.14057e-06
1.19073e-06
1.33388e-06
1.52908e-06
1.77906e-06
2.09329e-06
2.55694e-06
2.42827e-06
5.21056e-06
4.93607e-05
4.72089e-05
4.66548e-05
4.56579e-05
4.39002e-05
4.32769e-05
4.40157e-05
4.56323e-05
4.7087e-05
4.6671e-05
4.54047e-05
4.35785e-05
4.53643e-05
4.96147e-05
5.26306e-05
5.24128e-05
4.80931e-05
4.36721e-05
4.4307e-05
5.00313e-05
5.51711e-05
4.99091e-05
3.77543e-05
2.85721e-05
3.61306e-05
8.57485e-05
0.0530569
0.174709
0.000219378
9.41115e-06
2.27149e-06
4.19916e-06
7.48598e-05
0.00175483
0.00023225
1.1053e-05
7.62228e-06
7.81727e-06
6.95935e-06
7.76206e-06
9.39256e-06
9.87582e-06
9.00111e-06
8.12289e-06
4.2452e-06
2.73132e-06
2.03923e-06
1.45231e-06
1.20922e-06
1.25359e-06
1.40265e-06
1.60533e-06
1.86003e-06
2.18582e-06
2.60016e-06
3.21432e-06
3.08702e-06
6.45286e-06
4.82827e-05
4.73289e-05
4.71505e-05
4.67377e-05
4.56223e-05
4.46189e-05
4.36523e-05
4.44277e-05
4.57661e-05
4.63724e-05
4.52403e-05
4.34465e-05
4.27908e-05
4.61052e-05
5.10967e-05
5.41712e-05
5.10419e-05
4.64075e-05
4.29668e-05
4.68144e-05
5.35496e-05
5.11796e-05
4.14489e-05
2.93813e-05
3.20874e-05
5.18354e-05
0.0054209
0.415674
0.00106035
1.51594e-05
1.91843e-06
2.34195e-06
2.61182e-05
0.000934086
0.000447278
1.84519e-05
7.3059e-06
7.97755e-06
7.08339e-06
7.49224e-06
9.14786e-06
1.02921e-05
9.74612e-06
8.72591e-06
4.97436e-06
3.1005e-06
2.25815e-06
1.5812e-06
1.2883e-06
1.32487e-06
1.47973e-06
1.69067e-06
1.95246e-06
2.28199e-06
2.71058e-06
3.2541e-06
4.059e-06
3.94323e-06
7.9493e-06
4.57782e-05
4.67716e-05
4.71126e-05
4.73435e-05
4.65958e-05
4.5577e-05
4.50471e-05
4.43711e-05
4.4873e-05
4.57829e-05
4.54884e-05
4.34259e-05
4.1611e-05
4.27687e-05
4.64607e-05
5.17136e-05
5.25647e-05
4.81744e-05
4.23489e-05
4.38106e-05
4.97608e-05
5.16696e-05
4.42105e-05
3.2511e-05
2.8548e-05
4.22854e-05
0.000742895
0.381076
0.00769919
2.82276e-05
1.87661e-06
1.40275e-06
9.22273e-06
0.000356751
0.000716326
3.5371e-05
7.07906e-06
7.943e-06
7.33947e-06
7.34216e-06
8.83503e-06
1.05154e-05
1.05342e-05
9.44999e-06
5.83836e-06
3.55605e-06
2.52366e-06
1.73423e-06
1.38084e-06
1.40475e-06
1.56495e-06
1.78557e-06
2.05624e-06
2.39322e-06
2.82308e-06
3.38358e-06
4.09128e-06
5.12581e-06
5.03426e-06
9.7121e-06
4.4366e-05
4.59198e-05
4.64775e-05
4.68552e-05
4.70447e-05
4.65076e-05
4.57967e-05
4.53027e-05
4.50016e-05
4.53705e-05
4.59793e-05
4.45289e-05
4.18123e-05
4.02126e-05
4.26387e-05
4.66937e-05
5.14088e-05
4.83837e-05
4.27219e-05
4.06776e-05
4.58028e-05
5.14823e-05
4.74529e-05
3.6985e-05
2.72774e-05
3.79981e-05
0.000186691
0.139144
0.0544818
6.27925e-05
2.14282e-06
9.49536e-07
3.44332e-06
0.000119951
0.000858054
6.43758e-05
7.29222e-06
7.76531e-06
7.69776e-06
7.34258e-06
8.53689e-06
1.05334e-05
1.12942e-05
1.03203e-05
6.84398e-06
4.09925e-06
2.84927e-06
1.91668e-06
1.49073e-06
1.49603e-06
1.65987e-06
1.89042e-06
2.17165e-06
2.51719e-06
2.95277e-06
3.51363e-06
4.24006e-06
5.14512e-06
6.44657e-06
6.39484e-06
1.17388e-05
4.45613e-05
4.52649e-05
4.60124e-05
4.63967e-05
4.66005e-05
4.67795e-05
4.63824e-05
4.6458e-05
4.58437e-05
4.58579e-05
4.64613e-05
4.61015e-05
4.34663e-05
4.05272e-05
3.91382e-05
4.29952e-05
4.82426e-05
4.90635e-05
4.36757e-05
3.92584e-05
4.23887e-05
4.97714e-05
5.10545e-05
4.22807e-05
2.73216e-05
3.43501e-05
8.47252e-05
0.0212421
0.199052
0.000222044
2.78261e-06
7.18349e-07
1.55567e-06
4.17546e-05
0.000704801
0.000126116
8.74587e-06
7.54426e-06
8.10364e-06
7.49471e-06
8.33318e-06
1.03868e-05
1.19259e-05
1.13398e-05
8.01137e-06
4.71781e-06
3.25428e-06
2.13826e-06
1.62205e-06
1.602e-06
1.76767e-06
2.00755e-06
2.29988e-06
2.65444e-06
3.09702e-06
3.66286e-06
4.38707e-06
5.31367e-06
6.44714e-06
8.04015e-06
8.04835e-06
1.40092e-05
4.57484e-05
4.50241e-05
4.55485e-05
4.59916e-05
4.63444e-05
4.6549e-05
4.6498e-05
4.6599e-05
4.64582e-05
4.6711e-05
4.70796e-05
4.73906e-05
4.59739e-05
4.29046e-05
3.94428e-05
4.04903e-05
4.51501e-05
4.92547e-05
4.57819e-05
4.07405e-05
4.00295e-05
4.76258e-05
5.45744e-05
4.67756e-05
2.92141e-05
3.11455e-05
5.48347e-05
0.00283762
0.299899
0.00116429
4.41859e-06
5.99496e-07
8.11286e-07
1.60695e-05
0.000397938
0.000238304
1.25236e-05
7.40476e-06
8.44331e-06
7.80502e-06
8.26639e-06
1.01831e-05
1.23314e-05
1.2447e-05
9.37326e-06
5.39256e-06
3.75526e-06
2.41322e-06
1.78172e-06
1.72755e-06
1.89202e-06
2.13971e-06
2.44251e-06
2.80756e-06
3.25876e-06
3.82923e-06
4.55611e-06
5.47716e-06
6.63293e-06
8.01722e-06
9.9131e-06
1.00035e-05
1.6473e-05
4.68968e-05
4.53253e-05
4.51678e-05
4.56969e-05
4.60762e-05
4.614e-05
4.63001e-05
4.63348e-05
4.61302e-05
4.69058e-05
4.7497e-05
4.81849e-05
4.84578e-05
4.60804e-05
4.23496e-05
4.03091e-05
4.37232e-05
4.82258e-05
4.91007e-05
4.40667e-05
3.89853e-05
4.55661e-05
5.66618e-05
5.02791e-05
3.24892e-05
2.85907e-05
4.40509e-05
0.000537414
0.197199
0.0079099
8.76874e-06
5.28441e-07
4.9378e-07
5.24317e-06
0.00017159
0.000411271
2.43547e-05
7.26963e-06
8.59608e-06
8.26233e-06
8.37611e-06
1.00128e-05
1.25025e-05
1.35145e-05
1.09656e-05
6.15199e-06
4.35089e-06
2.76269e-06
1.97888e-06
1.87764e-06
2.03758e-06
2.28973e-06
2.60183e-06
2.97766e-06
3.43816e-06
4.01448e-06
4.74475e-06
5.66571e-06
6.81064e-06
8.21842e-06
9.86165e-06
1.20531e-05
1.22435e-05
1.90779e-05
4.64322e-05
4.55498e-05
4.53983e-05
4.52706e-05
4.58159e-05
4.62054e-05
4.63094e-05
4.60492e-05
4.55439e-05
4.6116e-05
4.70152e-05
4.82174e-05
4.93034e-05
4.91652e-05
4.58055e-05
4.22094e-05
4.21302e-05
4.74402e-05
5.26594e-05
4.81687e-05
4.10775e-05
4.34597e-05
5.50253e-05
5.28731e-05
3.64168e-05
2.77979e-05
3.72787e-05
0.000163482
0.0580403
0.03553
2.17986e-05
4.7801e-07
3.39921e-07
1.95994e-06
7.05277e-05
0.000559229
4.77172e-05
7.28218e-06
8.53885e-06
8.86471e-06
8.68646e-06
9.9613e-06
1.24927e-05
1.43765e-05
1.27739e-05
7.04943e-06
5.00898e-06
3.20439e-06
2.22396e-06
2.05759e-06
2.20941e-06
2.46356e-06
2.78266e-06
3.16651e-06
3.63693e-06
4.22119e-06
4.95522e-06
5.87527e-06
7.01628e-06
8.40566e-06
1.00744e-05
1.19711e-05
1.44297e-05
1.47377e-05
2.1752e-05
4.49891e-05
4.58796e-05
4.57222e-05
4.52601e-05
4.52883e-05
4.59054e-05
4.67046e-05
4.6436e-05
4.52821e-05
4.52599e-05
4.57134e-05
4.7229e-05
4.85089e-05
4.99048e-05
4.86231e-05
4.49815e-05
4.22797e-05
4.61845e-05
5.26907e-05
5.20743e-05
4.35793e-05
4.15163e-05
5.16741e-05
5.50091e-05
4.03547e-05
2.8872e-05
3.22108e-05
7.76073e-05
0.0100351
0.0843197
7.99599e-05
4.92492e-07
2.67348e-07
9.54373e-07
2.91065e-05
0.000525334
8.3685e-05
8.19195e-06
8.45804e-06
9.57599e-06
9.21903e-06
1.00748e-05
1.2407e-05
1.49016e-05
1.46538e-05
8.13548e-06
5.69683e-06
3.7387e-06
2.53321e-06
2.27382e-06
2.41221e-06
2.66626e-06
2.98957e-06
3.37977e-06
3.85759e-06
4.45036e-06
5.18924e-06
6.10936e-06
7.24522e-06
8.62486e-06
1.02662e-05
1.21871e-05
1.43186e-05
1.69914e-05
1.74287e-05
2.44241e-05
4.50923e-05
4.54035e-05
4.57212e-05
4.56791e-05
4.49563e-05
4.54333e-05
4.66093e-05
4.70044e-05
4.59244e-05
4.49522e-05
4.46602e-05
4.58933e-05
4.71994e-05
4.80588e-05
4.92353e-05
4.69658e-05
4.33782e-05
4.48051e-05
5.08902e-05
5.37328e-05
4.58757e-05
4.13078e-05
4.59972e-05
5.45473e-05
4.52369e-05
3.16012e-05
2.85792e-05
4.92257e-05
0.00157382
0.0918335
0.000371738
7.96151e-07
2.30372e-07
4.89704e-07
1.10956e-05
0.000335014
0.000158216
1.13529e-05
8.55206e-06
1.03089e-05
9.9668e-06
1.03907e-05
1.23419e-05
1.50884e-05
1.60927e-05
9.48443e-06
6.44278e-06
4.33498e-06
2.92958e-06
2.5391e-06
2.65405e-06
2.90568e-06
3.22839e-06
3.6217e-06
4.10365e-06
4.70252e-06
5.44742e-06
6.36983e-06
7.50142e-06
8.86932e-06
1.0494e-05
1.23794e-05
1.453e-05
1.68522e-05
1.96775e-05
2.02437e-05
2.7028e-05
4.55434e-05
4.4588e-05
4.54728e-05
4.57152e-05
4.52364e-05
4.48599e-05
4.6067e-05
4.677e-05
4.72297e-05
4.56985e-05
4.45111e-05
4.47042e-05
4.61578e-05
4.67615e-05
4.79156e-05
4.74556e-05
4.44076e-05
4.31481e-05
4.70296e-05
5.22099e-05
4.90638e-05
4.21845e-05
4.13109e-05
5.24072e-05
5.12757e-05
3.48763e-05
2.57663e-05
3.49686e-05
0.00032301
0.0476327
0.00153239
1.67587e-06
2.02962e-07
2.97577e-07
4.18557e-06
0.000165164
0.000292061
1.8296e-05
8.725e-06
1.09069e-05
1.09146e-05
1.09286e-05
1.23699e-05
1.5028e-05
1.69002e-05
1.10623e-05
7.35768e-06
4.96103e-06
3.43128e-06
2.88497e-06
2.95027e-06
3.1928e-06
3.51054e-06
3.89909e-06
4.38209e-06
4.98312e-06
5.73228e-06
6.65692e-06
7.78509e-06
9.14333e-06
1.07503e-05
1.26097e-05
1.47127e-05
1.70515e-05
1.95135e-05
2.24139e-05
2.31001e-05
2.94996e-05
4.69934e-05
4.46567e-05
4.46854e-05
4.5611e-05
4.5656e-05
4.5206e-05
4.51228e-05
4.56613e-05
4.75249e-05
4.72984e-05
4.53503e-05
4.43722e-05
4.50291e-05
4.63749e-05
4.68971e-05
4.68659e-05
4.48963e-05
4.24837e-05
4.31872e-05
4.82045e-05
5.17867e-05
4.439e-05
3.81992e-05
4.85341e-05
5.74071e-05
3.83692e-05
2.39601e-05
2.55672e-05
9.69745e-05
0.0120599
0.00558954
4.75321e-06
1.81237e-07
1.9887e-07
1.83397e-06
7.93143e-05
0.000473942
3.44984e-05
8.96526e-06
1.1256e-05
1.20342e-05
1.17097e-05
1.25274e-05
1.48798e-05
1.7309e-05
1.26912e-05
8.61077e-06
5.64711e-06
4.03027e-06
3.35954e-06
3.33207e-06
3.54629e-06
3.85095e-06
4.22754e-06
4.7001e-06
5.29895e-06
6.04729e-06
6.97311e-06
8.09771e-06
9.44712e-06
1.10338e-05
1.28675e-05
1.49378e-05
1.72217e-05
1.96943e-05
2.2232e-05
2.51273e-05
2.59146e-05
3.05995e-05
4.56158e-05
4.52887e-05
4.42235e-05
4.46076e-05
4.56259e-05
4.58944e-05
4.52576e-05
4.45791e-05
4.60354e-05
4.81642e-05
4.68871e-05
4.50772e-05
4.43233e-05
4.59873e-05
4.68087e-05
4.66013e-05
4.52816e-05
4.33108e-05
4.0721e-05
4.5517e-05
5.29968e-05
4.76848e-05
3.6951e-05
4.45395e-05
6.10356e-05
4.15331e-05
2.18816e-05
1.98934e-05
3.92785e-05
0.00219463
0.0117977
1.70481e-05
1.85596e-07
1.51069e-07
9.02689e-07
3.3399e-05
0.000546188
6.43154e-05
9.90223e-06
1.15722e-05
1.32746e-05
1.27407e-05
1.28664e-05
1.47797e-05
1.74825e-05
1.41496e-05
1.03135e-05
6.56662e-06
4.69941e-06
4.01319e-06
3.86542e-06
4.00513e-06
4.27745e-06
4.62704e-06
5.07491e-06
5.65784e-06
6.39803e-06
7.31907e-06
8.44131e-06
9.78025e-06
1.13488e-05
1.31549e-05
1.51911e-05
1.74323e-05
1.98431e-05
2.23875e-05
2.49357e-05
2.77493e-05
2.74861e-05
3.11672e-05
4.59418e-05
4.60994e-05
4.48628e-05
4.39022e-05
4.4748e-05
4.5631e-05
4.60825e-05
4.45617e-05
4.49436e-05
4.64685e-05
4.85779e-05