/*--------------------------------*- C++ -*----------------------------------*\
| =========                 |                                                 |
| \\      /  F ield         | OpenFOAM: The Open Source CFD Toolbox           |
|  \\    /   O peration     | Version:  v2012                                 |
|   \\  /    A nd           | Website:  www.openfoam.com                      |
|    \\/     M anipulation  |                                                 |
\*---------------------------------------------------------------------------*/
FoamFile
{
    version     2.0;
    format      ascii;
    class       volScalarField;
    location    "12000";
    object      I1_4;
}
// * * * * * * * * * * * * * * * * * * * * * * * * * * * * * * * * * * * * * //

dimensions      [0 0 0 0 0 0 0];


internalField   nonuniform List<scalar> 
27324
(
-1.71695
-1.67188
-1.84194
-1.45092
-1.83357
-2.13723
-1.21184
-1.64981
-2.21774
-2.6407
-0.734738
-1.45249
-2.12924
-2.93432
-3.43036
-0.10748
-0.963005
-2.06814
-3.11938
-4.20518
-3.82162
-5.93842
-0.194682
-1.73009
-3.52576
-4.87197
-4.74773
-3.30597
-3.43298
-8.10151
-0.504659
-4.01062
-6.09102
-4.74892
-3.83239
-3.143
-2.41123
-3.31451
-5.2178
-1.53646
-6.79363
-5.31123
-3.57557
-3.49737
-3.26089
-1.83572
-2.34704
-2.96176
-1.92084
-0.820373
-4.77733
-3.98539
-3.36143
-3.61752
-3.29671
-1.22544
-1.74695
-2.34198
-3.08411
-1.87288
-2.00979
-3.78028
-3.85989
-3.4261
-3.73776
-3.23008
-0.939167
-1.19692
-1.70329
-2.57589
-3.53407
-2.25484
-1.53756
-3.71717
-3.92939
-3.30853
-3.79446
-3.25452
-0.848278
-0.915405
-1.23078
-1.7218
-2.94567
-4.02068
-2.3658
-1.54789
-3.76417
-3.76408
-3.10845
-3.88558
-3.36732
-1.83686
-0.747981
-0.88403
-1.31452
-1.73393
-3.28337
-4.3042
-2.62517
-1.82094
-3.4254
-3.44166
-3.00825
-3.61781
-3.66154
-0.32321
-0.787905
-0.639821
-0.857936
-1.42638
-1.69483
-3.52604
-4.52157
-3.04419
-2.20998
-3.11756
-3.10139
-2.86351
-3.65912
-5.86545
-0.594519
-0.643235
-0.630702
-0.567728
-0.8278
-1.54506
-1.62623
-3.5655
-4.57406
-3.53705
-2.59144
-3.05592
-2.83137
-3.15742
-3.29816
-5.99822
-0.560786
-0.631684
-0.517092
-0.581083
-0.521808
-0.799088
-1.70603
-1.52588
-3.32748
-4.43796
-4.09749
-3.31038
-3.06819
-3.15385
-2.90881
-4.83988
-3.301
-0.603919
-0.566708
-0.533701
-0.49077
-0.481673
-0.490223
-0.80764
-1.92394
-1.40297
-2.9604
-4.03721
-4.4048
-4.04054
-3.77382
-3.12404
-4.89565
-3.64406
-5.29535
-0.539135
-0.536748
-0.50067
-0.522702
-0.717604
-0.427044
-0.478586
-0.880149
-2.09235
-1.26824
-2.47833
-3.34708
-4.13629
-4.4172
-4.48856
-4.28682
-4.46689
-5.90268
-3.54261
-0.428813
-0.472812
-0.500395
-0.570187
-0.791629
-0.905378
-0.405155
-0.508694
-1.01775
-2.14438
-1.11336
-2.02854
-2.52432
-3.1929
-3.6902
-3.87852
-3.63913
-3.36775
-3.31938
-2.57011
-0.284123
-0.40122
-0.484275
-0.609506
-0.935736
-1.2656
-0.809201
-0.413829
-0.573161
-1.21552
-1.9675
-1.01621
-1.66066
-1.82609
-2.10487
-2.33282
-2.36179
-2.24845
-1.89327
-1.39976
-2.86569
-0.144731
-0.292521
-0.455765
-0.656479
-0.995258
-1.58853
-0.957938
-0.853481
-0.414057
-0.679536
-1.44117
-1.74165
-1.05101
-1.32972
-1.34322
-1.41891
-1.48603
-1.46127
-1.39227
-1.33291
-0.830849
-1.92626
-0.0528019
-0.172698
-0.391353
-0.738067
-1.11872
-1.49464
-1.0265
-0.819964
-0.818501
-0.440801
-0.851599
-1.64809
-1.73416
-1.89415
-0.813302
-0.914983
-1.07316
-1.21341
-1.25926
-1.31707
-1.54245
-1.68789
-3.3196
-0.00461722
-0.0713404
-0.348269
-0.913353
-1.328
-1.40138
-0.918328
-1.12075
-0.759998
-0.746228
-0.495016
-1.10502
-1.74593
-1.76682
-2.09084
-7.57606
-0.864724
-1.50933
-1.57168
-1.60914
-2.5007
-2.78525
-0.860659
-3.19528
-0.309522
-0.0886465
-0.284906
-1.47084
-1.67022
-1.27649
-0.901413
-0.970069
-1.02748
-0.688452
-0.586843
-0.599334
-1.43303
-1.74614
-1.43461
-1.32165
-2.26017
-2.10987
-2.17956
-2.22725
-1.77842
-1.90012
-1.7126
-1.17815
-3.47227
-3.55821
-24.7795
-1.30291
-1.80656
-1.69751
-1.20869
-0.948354
-1.02485
-0.835468
-0.963599
-0.696054
-0.507698
-0.760702
-1.76479
-1.67689
-1.26484
-1.66497
-1.93326
-2.03877
-1.84737
-1.74563
-1.19884
-1.48516
-1.6628
-1.9249
-3.91098
-133.597
-1.6561
-0.553651
-0.457729
-1.20195
-1.03927
-1.00932
-1.01797
-0.883613
-0.796707
-1.00569
-0.898251
-0.512447
-1.00103
-1.99455
-1.51964
-2.35942
-2.41869
-2.01982
-1.9469
-1.61853
-1.62951
-0.466866
-1.53683
-2.00577
-2.88256
-4.16365
-65.6594
-0.753356
-0.420702
-0.388339
-0.67554
-1.20952
-0.988805
-1.05702
-0.89996
-0.924993
-0.967985
-0.87525
-0.671782
-0.640144
-1.30806
-2.06011
-1.50707
-2.87417
-1.90017
-1.95848
-1.78204
-1.54027
-3.67495
-2.01507
-1.5588
-2.86406
-3.48199
-4.47107
-12.6342
-0.685536
-0.543245
-0.723638
-0.865588
-0.785364
-1.00897
-0.953592
-0.948369
-0.966791
-1.10647
-0.878093
-0.736012
-0.532248
-0.83762
-1.60125
-1.9295
-1.82102
-1.53589
-1.99155
-1.87742
-1.69292
-1.84361
-1.8943
-1.51485
-2.12353
-3.93804
-3.29999
-5.17276
-12.6774
-0.754304
-0.778686
-1.17603
-1.41465
-0.749503
-0.949361
-1.03059
-0.871767
-1.08815
-1.03279
-1.02117
-0.815649
-0.694395
-0.597882
-1.10137
-1.86351
-1.87358
-1.12665
-1.92513
-1.96476
-1.72413
-1.74501
-5.42297
-1.75906
-1.69457
-3.25091
-4.44518
-2.79104
-5.51581
-0.131955
-1.4978
-1.30606
-1.57761
-1.32656
-0.552377
-0.789472
-1.1137
-0.955951
-1.02437
-1.13855
-0.957565
-1.00314
-0.620059
-0.517992
-0.756507
-1.44129
-2.02566
-2.2112
-1.78429
-1.97788
-1.80113
-1.62932
-2.51722
-2.69052
-1.45894
-2.60419
-4.21713
-4.3127
-2.32345
-5.02903
-0.374073
-0.27475
-1.41712
-1.73737
-0.885751
-0.371122
-0.806894
-0.835643
-1.05046
-1.01097
-1.04808
-1.0918
-0.925557
-0.909799
-0.326783
-0.615977
-0.974311
-1.77696
-2.09953
-2.13338
-2.03764
-1.86342
-1.65991
-1.85912
-1.6593
-1.48007
-1.99633
-3.90478
-4.3282
-3.86254
-2.01338
-4.96793
-0.30667
-0.264955
-0.10633
-1.86715
-0.537412
-0.340035
-0.62924
-0.585778
-0.97315
-1.03868
-0.977969
-1.03469
-1.07565
-0.886561
-1.0319
-0.433625
-0.745397
-1.27064
-2.02991
-1.99379
-2.29528
-1.89107
-1.68568
-1.68012
-11.0282
-1.86676
-1.59084
-3.27584
-4.53457
-3.81893
-3.26615
-2.27546
-5.78574
-0.214474
-0.229563
-0.184249
-0.440022
-0.55393
-0.333648
-0.62152
-0.393442
-0.921998
-0.827203
-1.17006
-0.996542
-1.05606
-1.04972
-0.859499
-2.27778
-0.650697
-0.913031
-1.68241
-2.20828
-2.1365
-1.78568
-1.72642
-1.67985
-2.6569
-2.98503
-1.4108
-2.56998
-4.44617
-4.18099
-3.14699
-3.33893
-2.91296
-5.97948
-0.0989967
-0.241741
-0.368531
-2.47217
-0.325292
-0.582802
-0.638843
-0.439535
-0.817501
-0.801018
-1.05091
-1.06503
-1.03643
-1.04972
-0.997848
-0.873331
-0.45692
-0.773913
-1.18624
-2.15558
-2.97308
-1.31874
-1.79984
-1.69382
-1.85803
-0.187349
-1.48934
-1.96497
-4.06116
-4.4558
-3.47079
-3.13117
-4.24404
-3.18832
-4.11602
-0.0190164
-0.266815
-0.906915
-9.27874
-1.28757
-0.847439
-0.922288
-0.640383
-0.995458
-0.571398
-1.20558
-1.07808
-0.992998
-1.04112
-1.03222
-0.984209
-0.950167
-0.739524
-0.892199
-1.62418
-2.52658
-0.539352
-1.89524
-1.73754
-1.69088
-7.10526
-2.0031
-1.55804
-3.4071
-4.65777
-3.75253
-3.31975
-3.96221
-4.56517
-2.80582
-3.78415
-0.590362
-0.220589
-2.55313
-16.5289
-18.2063
-1.74435
-1.12091
-1.0578
-1.01457
-0.876794
-0.936055
-0.963769
-1.07133
-1.02875
-1.03446
-1.0467
-0.903589
-0.952553
-0.804173
-1.16238
-2.16086
-2.79824
-1.80097
-1.78127
-1.67415
-2.36565
-3.47023
-1.3677
-2.67051
-4.63717
-4.06392
-3.45136
-4.1448
-4.26322
-3.47461
-3.10933
-3.77443
-93.4888
-0.481629
-0.0910344
-3.40665
-2.74939
-1.14309
-1.68155
-1.1085
-1.1934
-0.948208
-1.04388
-0.464642
-0.962428
-0.980809
-1.05617
-0.984884
-0.96411
-1.03519
-0.865762
-0.890405
-1.67915
-2.72627
-13.0556
-1.91243
-1.65084
-1.83515
-0.256611
-1.42097
-2.03449
-4.30198
-4.40026
-3.56524
-4.4898
-4.19192
-3.30432
-3.55954
-3.31624
-3.9655
-6.13903
-0.339852
-0.149582
-0.774912
-1.03342
-1.25928
-2.23985
-0.875641
-1.20479
-1.12414
-0.944858
-0.878805
-0.422973
-0.786825
-1.03251
-1.00982
-0.960574
-0.879498
-0.99163
-0.839744
-1.18115
-2.45111
-6.59608
-2.32959
-1.65915
-1.6394
-10.7526
-1.8659
-1.59137
-3.6795
-4.66957
-3.86109
-5.17617
-3.98768
-3.35998
-3.44716
-3.70256
-3.56881
-4.17273
-1.92856
-0.297161
-0.313519
-0.778508
-0.790228
-1.1886
-2.03579
-0.497762
-1.16204
-1.18948
-1.1597
-0.913045
-1.03131
-0.000128255
-0.869478
-1.01437
-0.970322
-0.976767
-0.697661
-0.994777
-0.899906
-1.82245
-3.26617
-2.1711
-1.66316
-1.59665
-2.82174
-3.18875
-1.35751
-2.93002
-4.73778
-4.26642
-5.47334
-3.73059
-3.37046
-3.45946
-3.65857
-3.94843
-3.82603
-4.38089
-1.95629
-0.344073
-0.567955
-1.83243
-1.43392
-0.620333
-1.14001
-0.667878
-1.27834
-0.994884
-1.17745
-1.14839
-0.891427
-1.11506
-0.394957
-0.931486
-0.984309
-0.905121
-1.40388
-1.49089
-0.84034
-1.2767
-2.7333
-20.6594
-1.7796
-1.56834
-1.93631
-1.35191
-1.34359
-2.23918
-4.52827
-4.63657
-5.37346
-3.5277
-3.40547
-3.46049
-3.69069
-3.93
-4.19198
-4.07721
-4.57282
-0.95571
-0.469922
-1.25938
-1.87331
-1.36668
-0.492522
-1.26345
-0.903177
-1.74303
-0.652731
-1.22648
-1.10845
-1.13627
-0.907394
-0.899811
-0.603057
-0.997501
-0.968895
-1.01553
-1.4268
-0.979851
-0.937358
-2.15539
-6.15609
-2.02793
-1.58
-1.69303
-89.606
-1.6521
-1.71964
-4.02147
-4.86522
-5.40876
-3.38905
-3.47211
-3.50694
-3.69941
-3.99825
-4.19826
-4.42332
-4.30498
-4.74274
-0.495596
-0.276806
-2.50536
-1.36694
-0.506848
-0.441099
-0.787269
-1.04364
-1.06733
-1.04303
-0.746321
-1.01566
-1.10793
-1.15525
-0.821791
-1.08889
-1.00871
-0.952402
-0.921706
-1.12111
-1.23748
-0.829316
-1.48753
-3.70148
-0.203512
-1.65115
-1.60564
-3.83234
-2.71626
-1.39944
-3.31669
-4.91179
-5.40765
-3.30977
-3.50559
-3.57527
-3.70742
-4.03176
-4.28879
-4.45434
-4.63167
-4.49755
-4.86034
-0.315866
-0.280852
-0.154071
-1.19174
-0.406805
-0.390549
-0.499364
-1.10859
-1.04246
-0.90238
-0.85804
-0.419723
-0.960278
-1.12734
-1.05404
-0.834749
-1.42745
-0.952178
-0.912022
-0.989005
-0.663077
-0.939697
-1.04527
-2.66363
-19.7205
-1.90521
-1.55233
-2.05473
-3.79217
-1.27741
-2.58462
-4.76451
-5.29239
-3.32204
-3.48204
-3.66624
-3.7205
-4.06228
-4.35343
-4.5645
-4.68444
-4.80837
-4.64288
-4.87031
-0.238183
-0.318775
-0.338617
-1.60656
-0.453793
-0.559107
-0.372148
-0.746767
-1.00942
-1.2981
-0.928237
-1.16567
-0.314522
-1.07731
-1.0522
-1.01945
-1.09553
-1.03538
-0.941156
-0.932686
-1.54014
-1.34757
-0.833303
-1.91067
-5.6591
-2.39888
-1.50782
-1.75906
-8.12114
-1.38615
-1.97244
-4.39293
-5.07539
-3.4586
-3.42197
-3.75415
-3.74611
-4.08676
-4.41899
-4.65339
-4.80609
-4.89003
-4.9369
-4.76155
-5.01987
-0.144719
-0.68319
-0.934457
-3.43252
-0.73954
-0.826196
-0.551755
-0.805423
-0.774706
-1.22396
-1.16577
-1.00902
-1.27157
-0.603909
-0.903868
-1.02771
-1.30535
-1.59064
-0.968084
-0.934765
-0.935739
-1.9579
-0.839366
-1.28198
-3.72273
-1.0637
-1.54638
-1.60218
-6.71946
-1.9016
-1.54733
-3.78547
-4.87482
-3.7611
-3.34718
-3.82296
-3.7881
-4.11019
-4.47381
-4.74684
-4.91059
-5.02836
-5.04224
-4.94075
-5.34774
-5.18582
-0.552754
-2.77187
-2.00418
-2.23223
-1.66907
-1.25099
-0.909614
-1.04617
-0.651942
-0.958253
-1.24244
-1.14143
-0.984252
-0.874497
-0.715644
-0.94623
-0.750924
-2.35789
-0.980028
-0.897811
-0.9366
-3.40838
-1.10243
-0.928761
-2.56423
-46.0583
-1.78594
-1.5352
-2.4382
-3.09404
-1.31479
-3.07248
-4.80126
-4.2825
-3.28255
-3.84949
-3.85269
-4.13668
-4.52081
-4.83545
-5.02024
-5.15257
-5.1937
-5.06446
-5.26726
-6.44127
-4.93433
-2.68696
-0.155776
-2.9239
-0.874809
-0.9339
-1.41319
-1.07903
-1.05123
-0.996362
-1.25794
-0.930303
-1.23971
-1.15735
-0.843034
-1.27758
-0.998379
-0.860182
-2.04034
-0.939283
-0.919226
-0.870392
-1.33279
-2.0134
-0.793417
-1.73474
-7.59809
-2.45112
-1.46607
-1.91968
-0.617455
-1.27594
-2.41962
-4.79114
-4.87474
-3.19915
-3.82929
-3.93687
-4.17499
-4.56135
-4.91756
-5.12758
-5.28199
-5.33061
-5.20944
-5.4351
-5.88435
-6.5938
-4.56785
-0.860064
-0.202115
-0.686235
-0.769852
-1.27752
-1.47854
-1.07197
-1.25356
-1.08167
-1.09066
-0.915551
-0.756547
-1.14353
-1.07674
-0.947011
-1.05653
-0.826367
-1.06272
-0.899634
-0.927282
-0.846436
-0.967124
-5.58031
-0.860092
-1.16724
-4.19798
-0.246325
-1.46596
-1.65779
-62.6869
-1.5096
-1.89416
-4.33088
-5.1356
-3.15092
-3.76743
-4.03682
-4.22818
-4.59871
-4.99165
-5.23618
-5.40851
-5.47124
-5.36912
-5.54483
-6.18516
-5.87029
-5.8832
-4.25669
-1.93604
-0.421136
-1.41628
-1.28199
-0.810417
-2.1845
-0.591641
-1.102
-1.29564
-1.10849
-1.02495
-7.75109
-0.593083
-1.25896
-1.04052
-0.957422
-0.853736
-1.14541
-0.59463
-0.894885
-0.866223
-0.96421
-0.140959
-1.16454
-0.85882
-2.72071
-56.7646
-1.6013
-1.58886
-3.80052
-2.3557
-1.52403
-3.66825
-4.93963
-3.13597
-3.68812
-4.14246
-4.29801
-4.63748
-5.05537
-5.34502
-5.53354
-5.61181
-5.54013
-5.67231
-6.30206
-6.33224
-5.2806
-5.18362
-3.95691
-0.103188
-2.27254
-5.05085
-2.04292
-0.774395
-1.38143
-0.946905
-1.03843
-1.03783
-1.26619
-1.10348
-1.21002
-5.20382
-0.817591
-1.02887
-1.30498
-1.15473
-1.03386
-1.43479
-0.467236
-0.905296
-0.830062
-1.07016
-1.68252
-0.759469
-1.78624
-11.8946
-2.09071
-1.51292
-2.06357
-3.94303
-1.31889
-3.01091
-4.58531
-3.34403
-3.63468
-4.23417
-4.38263
-4.68524
-5.10849
-5.44787
-5.66008
-5.75641
-5.71012
-5.7947
-6.45645
-6.55207
-5.73671
-4.69793
-4.59165
-3.68073
-0.0638817
-0.142283
-5.0637
-0.825823
-0.271767
-0.830243
-1.27358
-1.46083
-0.627421
-1.07802
-1.33021
-1.09565
-1.24655
-1.49339
-0.699586
-1.28336
-1.89684
-1.09006
-0.936472
-1.88928
-0.931647
-0.845125
-1.21972
-1.40863
-0.851778
-1.19768
-4.79741
-1.57604
-1.46376
-1.77554
-0.557426
-1.29277
-2.42418
-4.18357
-3.76435
-3.61114
-4.28825
-4.47587
-4.7468
-5.15812
-5.54223
-5.78664
-5.89838
-5.87091
-5.92919
-6.59797
-6.85731
-5.96911
-5.09114
-4.19753
-4.10841
-3.4457
-0.0473837
-0.113167
-0.574464
-1.10634
-0.252203
-0.513166
-1.39842
-1.12998
-1.18838
-0.612765
-0.968892
-1.2984
-1.11608
-0.961835
-1.37624
-1.06936
-1.623
-1.02236
-0.896453
-1.01915
-0.871371
-0.855286
-1.02749
-0.0835678
-1.25368
-0.873147
-3.02185
-6.1669
-1.49707
-1.59019
-5.06138
-1.50199
-1.96501
-3.82858
-4.34887
-3.64251
-4.28592
-4.57246
-4.82612
-5.2114
-5.6241
-5.91277
-6.03783
-6.04107
-6.07646
-6.74221
-7.15703
-6.28473
-5.28244
-4.52703
-3.78536
-3.73475
-3.24766
-0.0431922
-0.177904
-0.783591
-1.60156
-0.647046
-0.4437
-1.00703
-1.45686
-1.16986
-1.19493
-0.238056
-0.893487
-1.30299
-1.06213
-1.21339
-1.01732
-0.962243
-1.18272
-0.852551
-0.990883
-0.49912
-0.998711
-0.788653
-1.55692
-2.44877
-0.756271
-1.90311
-38.778
-1.74001
-1.56595
-2.71708
-2.14475
-1.68101
-3.4934
-5.09973
-3.66249
-4.2345
-4.6688
-4.92483
-5.27521
-5.6931
-6.03651
-6.18194
-6.2114
-6.22658
-6.88766
-7.46617
-6.6045
-5.54888
-4.67844
-4.06073
-3.46328
-3.44761
-3.08562
-0.327493
-1.15023
-1.35006
-2.9119
-1.54508
-1.45472
-1.38791
-0.896463
-1.47057
-1.12707
-1.1274
-0.0249628
-0.890318
-1.28966
-1.06064
-1.20267
-0.876337
-0.715968
-0.823309
-0.960693
-0.686998
-1.2076
-0.714754
-0.969649
-7.31228
-0.806976
-1.27373
-7.32468
-2.1516
-1.48644
-2.02274
-3.34294
-1.51474
-3.0364
-5.11591
-3.64722
-4.16696
-4.76183
-5.03932
-5.35532
-5.75416
-6.14813
-6.32527
-6.37831
-6.37632
-7.02946
-7.76736
-6.95235
-5.81927
-4.89392
-4.17726
-3.69509
-3.21837
-3.22863
-2.95293
-2.15842
-1.0573
-7.36463
-2.32731
-1.91257
-1.62079
-1.61493
-1.08509
-0.842489
-1.46255
-1.09129
-1.17877
-0.197333
-1.00094
-1.09468
-1.6815
-0.999634
-1.22841
-0.287876
-0.800573
-0.903015
-0.927861
-0.691248
-1.03742
-0.411446
-1.08633
-0.910569
-3.84175
-0.302061
-1.40531
-1.74319
-4.10183
-1.44625
-2.51233
-4.59693
-3.79369
-4.10347
-4.84357
-5.16336
-5.45493
-5.81469
-6.24232
-6.47195
-6.5458
-6.52637
-7.1804
-8.07212
-7.32165
-6.11277
-5.10819
-4.34797
-3.786
-3.41473
-3.03349
-3.06178
-2.84784
-0.584673
-0.685616
-2.23013
-0.869576
-1.13126
-1.08443
-1.81977
-1.47451
-0.728593
-1.01009
-1.408
-1.03565
-1.07351
-0.607971
-0.852472
-1.45924
-1.82422
-0.942724
-1.18115
-0.664714
-1.17008
-0.436156
-0.797843
-0.89281
-1.69988
-1.74213
-0.753523
-2.27131
-14.3066
-1.32727
-1.78503
-2.67942
-1.48602
-2.12869
-4.06284
-4.17374
-4.11763
-4.89708
-5.28731
-5.5707
-5.88608
-6.32019
-6.61834
-6.71282
-6.67538
-7.33467
-8.37331
-7.72298
-6.42985
-5.3373
-4.51288
-3.9206
-3.48863
-3.2047
-2.89495
-2.93477
-2.76347
-3.48155
-0.938159
-1.26066
-0.574832
-2.89456
-0.456341
-1.34945
-1.80788
-1.39227
-1.23369
-0.792314
-1.52652
-0.906694
-1.06542
-0.776145
-1.08623
-2.78328
-0.993784
-0.746798
-0.824066
-0.815201
-0.695676
-1.05269
-0.845882
-1.433
-2.79025
-0.754543
-1.51089
-20.0319
-1.31177
-1.82846
-1.31443
-1.62178
-1.90428
-3.63784
-4.79947
-4.20093
-4.90706
-5.40424
-5.69823
-5.97649
-6.38663
-6.75422
-6.88169
-6.81905
-7.4903
-8.66625
-8.14692
-6.7743
-5.58236
-4.69046
-4.05058
-3.59868
-3.26416
-3.0458
-2.79147
-2.83742
-2.69801
-0.11629
-41.7819
-0.933027
-0.633744
-1.39329
-1.81431
-0.618336
-1.62343
-1.68117
-1.27998
-0.938616
-0.776641
-1.56117
-0.844088
-0.848958
-1.0507
-1.32811
-0.878866
-0.780731
-1.50848
-0.783205
-1.37807
-1.43815
-0.804545
-1.02867
-2.39315
-0.92704
-1.07388
-4.86874
-1.04052
-1.75645
-1.53729
-1.74641
-1.80221
-3.25925
-5.48404
-4.3266
-4.87347
-5.50915
-5.83219
-6.08948
-6.4517
-6.87198
-7.0514
-6.96388
-7.65135
-8.95438
-8.59631
-7.143
-5.84854
-4.87752
-4.18711
-3.70056
-3.35523
-3.09712
-2.92543
-2.71482
-2.76512
-2.64707
-0.188918
-3.73375
-0.327683
-0.414772
-1.55036
-2.61938
-1.24083
-2.409
-1.54762
-1.7378
-1.21864
-0.705497
-1.09199
-1.44125
-0.783573
-1.10221
-1.23671
-0.285938
-0.771248
-1.68957
-1.11206
-0.868977
-0.486125
-0.837162
-0.790076
-4.97921
-1.41548
-0.836392
-2.90184
-0.739573
-1.66947
-1.79222
-2.18853
-1.76835
-2.8153
-5.45953
-4.39902
-4.82894
-5.59866
-5.96924
-6.22238
-6.53061
-6.96629
-7.21626
-7.12174
-7.80172
-9.23251
-9.07421
-7.54552
-6.13158
-5.07357
-4.32761
-3.80766
-3.44053
-3.17496
-2.97092
-2.836
-2.65928
-2.71214
-2.60864
-1.42143
-0.246926
-0.571199
-1.06507
-1.05462
-2.53565
-2.57843
-1.13933
-2.84847
-1.18551
-1.67335
-1.08533
-2.13265
-1.14998
-1.55055
-2.11896
-1.04523
-1.11793
-0.353083
-1.34751
-1.50611
-0.761844
-0.795541
-0.989057
-0.682404
-1.89368
-2.72584
-0.754079
-1.851
-57.3486
-1.61814
-2.05562
-2.89745
-1.79765
-2.44904
-4.84747
-4.55012
-4.81955
-5.66768
-6.10561
-6.36819
-6.63325
-7.04345
-7.36589
-7.30114
-7.93757
-9.48618
-9.57025
-7.98579
-6.43633
-5.27974
-4.47255
-3.9165
-3.52792
-3.24629
-3.04002
-2.87704
-2.76968
-2.62176
-2.67581
-2.58292
-3.08498
-0.0364056
-0.272161
-3.66706
-20.1926
-3.08895
-2.30871
-1.23217
-1.59142
-0.615465
-1.28486
-1.55176
-0.997605
-1.66709
-1.29526
-1.54002
-1.10467
-0.916767
-1.51313
-0.963252
-0.640748
-0.641875
-1.00386
-1.0256
-0.637248
-1.08734
-6.20338
-0.803885
-1.30179
-5.59382
-1.59999
-2.14705
-2.70033
-1.82221
-2.19148
-4.24052
-5.19313
-4.88726
-5.70595
-6.23501
-6.52054
-6.76048
-7.11898
-7.49078
-7.49933
-8.06338
-9.71073
-10.0776
-8.46005
-6.76433
-5.49973
-4.6245
-4.02742
-3.61326
-3.31779
-3.1015
-2.93879
-2.80762
-2.72236
-2.59766
-2.65456
-2.57155
-0.282566
-0.0147472
-0.0523143
-2.72528
-2.64533
-1.66919
-2.81279
-0.852334
-2.16558
-1.15317
-1.40931
-1.25892
-1.29959
-0.905339
-1.32198
-1.1791
-1.07484
-1.0874
-1.00786
-1.34704
-0.925554
-0.528062
-0.775326
-0.396926
-0.664887
-1.06125
-2.42888
-1.02793
-1.00271
-3.36351
-1.58292
-2.22468
-2.29169
-1.94099
-2.09162
-3.88444
-5.95024
-5.04166
-5.70148
-6.35322
-6.67291
-6.91158
-7.20849
-7.5928
-7.70261
-8.18429
-9.88572
-10.5833
-8.97571
-7.12002
-5.73284
-4.7824
-4.14021
-3.69988
-3.38912
-3.16295
-2.99309
-2.86421
-2.75746
-2.69034
-2.58632
-2.6478
-2.56952
-0.0107751
-0.106666
-0.0636852
-0.515615
-1.62562
-1.20598
-15.6309
-0.384767
-2.61823
-2.14829
-0.972717
-1.7972
-0.700087
-0.629203
-1.88062
-1.50228
-0.278237
-0.873158
-1.1396
-1.65549
-0.632988
-0.538655
-0.6957
-1.19398
-0.826634
-0.891523
-2.021
-1.52849
-0.852758
-2.41777
-7.01224
-2.27579
-2.19419
-2.29626
-2.08537
-3.43894
-6.58546
-5.20032
-5.66077
-6.45698
-6.82296
-7.07715
-7.32587
-7.6739
-7.87584
-8.32525
-9.99786
-11.0803
-9.53782
-7.50755
-5.98026
-4.94281
-4.25355
-3.78651
-3.45922
-3.22246
-3.04742
-2.91332
-2.80979
-2.72405
-2.67119
-2.58601
-2.65318
-2.5817
-1.53319
-0.0561294
-0.392645
-2.25669
-0.363566
-1.84111
-3.76969
-0.280421
-5.74405
-2.00885
-1.49468
-0.811418
-0.551068
-0.720757
-2.71832
-1.46854
-0.884706
-0.299623
-0.938557
-0.428742
-0.624225
-1.22343
-0.795965
-1.63561
-1.10892
-0.783313
-1.80328
-2.55869
-0.818301
-1.73976
-8.44931
-2.2351
-2.24105
-2.75615
-2.14857
-3.06312
-6.07723
-5.22639
-5.63402
-6.54875
-6.97366
-7.25095
-7.47207
-7.75544
-8.01904
-8.48087
-10.0696
-11.5393
-10.1362
-7.93037
-6.24385
-5.10924
-4.36785
-3.87029
-3.52731
-3.28122
-3.0996
-2.96181
-2.8548
-2.77206
-2.70402
-2.66446
-2.59697
-2.67325
-2.60718
-0.0286196
-0.113189
-0.230892
-1.9994
-0.3036
-1.74097
-1.20205
-1.94318
-0.41438
-5.58078
-2.11724
-1.18012
-0.453045
-0.835949
-1.08528
-1.59567
-0.891843
-0.991473
-1.1654
-1.04335
-0.778581
-0.781044
-1.20332
-0.740679
-1.09752
-0.762631
-1.05251
-4.653
-0.896255
-1.30332
-3.36681
-2.33761
-2.33524
-3.08359
-2.21824
-2.72184
-5.39133
-5.7474
-5.68081
-6.62591
-7.11964
-7.42847
-7.63922
-7.85766
-8.11998
-8.63241
-10.1531
-11.9026
-10.7515
-8.39071
-6.52395
-5.27996
-4.48158
-3.9532
-3.59255
-3.33734
-3.14962
-3.00805
-2.89923
-2.81381
-2.74891
-2.69565
-2.67068
-2.61879
-2.70843
-2.64745
-0.0813847
-0.0162385
-2.10678
-0.0194305
-0.071303
-0.127437
-0.132781
-1.8663
-1.81313
-0.342203
-29.0821
-0.951003
-0.391928
-0.648462
-1.47206
-0.896891
-1.2532
-1.02667
-1.47163
-0.969582
-0.0845828
-0.882863
-1.66746
-0.695351
-0.843778
-0.742613
-0.818886
-8.28264
-1.10939
-1.03508
-2.71373
-3.05668
-2.45245
-2.85704
-2.35795
-2.55496
-4.86879
-6.60753
-5.8389
-6.67182
-7.25232
-7.60581
-7.82191
-7.98576
-8.20029
-8.75462
-10.2468
-12.1501
-11.3564
-8.88562
-6.82471
-5.45867
-4.59287
-4.0334
-3.65435
-3.38906
-3.19635
-3.05193
-2.94126
-2.85516
-2.78818
-2.73867
-2.70032
-2.68798
-2.65356
-2.761
-2.70685
-1.37949
-0.0945944
-0.645694
-0.256137
-0.00639809
-0.0850153
-0.0380285
-1.3182
-4.15909
-3.17977
-1.39154
-1.70232
-0.737954
-16.0048
-5.58264
-0.537572
-1.1269
-1.26295
-0.835361
-0.965001
-1.72795
-0.750343
-0.865991
-0.613851
-0.95883
-0.709681
-0.756247
-9.73387
-1.44983
-0.932744
-2.29029
-5.15072
-2.57366
-2.75792
-2.65425
-2.53561
-4.39557
-7.55015
-6.0549
-6.67002
-7.36728
-7.78082
-8.01617
-8.13288
-8.28353
-8.82398
-10.3379
-12.357
-11.9175
-9.42408
-7.14249
-5.64083
-4.70443
-4.10782
-3.71341
-3.43777
-3.23976
-3.09237
-2.98011
-2.89387
-2.82755
-2.77618
-2.74025
-2.71598
-2.7187
-2.70191
-2.8334
-2.78659
-3.27648
-2.58197
-0.0695851
-0.0499703
-0.101265
-0.205687
-0.506974
-0.849649
-2.18292
-6.7317
-0.471194
-2.34281
-0.105096
-2.19731
-7.44443
-2.17093
-5.61962
-1.2283
-0.887283
-1.23421
-0.746098
-0.831251
-0.69561
-0.625758
-0.841994
-0.615035
-0.774867
-2.47544
-1.73744
-0.947076
-1.93262
-6.08839
-2.67625
-2.75907
-3.14541
-2.6025
-3.92467
-7.64989
-6.14788
-6.65698
-7.47357
-7.9462
-8.21381
-8.28283
-8.38444
-8.85124
-10.3839
-12.5877
-12.4036
-9.99378
-7.47657
-5.82273
-4.80861
-4.17755
-3.76563
-3.48296
-3.27937
-3.12983
-3.0157
-2.92936
-2.86232
-2.81236
-2.7758
-2.75471
-2.74503
-2.76351
-2.76625
-2.93082
-2.89121
-23.2352
-0.397054
-0.0868553
-0.00929028
-2.46123
-1.02199
-0.0787268
-0.408417
-0.600105
-1.70584
-31.9779
-1.13117
-6.28004
-0.538195
-2.49286
-5.46416
-0.298365
-2.70917
-0.950616
-0.667206
-0.697839
-0.123919
-0.512516
-0.0370407
-0.61734
-0.228689
-0.790813
-1.64965
-1.94572
-1.05404
-1.53839
-4.296
-2.67202
-2.85625
-3.64388
-2.74666
-3.50393
-6.97287
-6.37897
-6.70842
-7.58693
-8.09605
-8.40796
-8.42004
-8.50491
-8.8739
-10.3416
-12.7963
-12.8952
-10.5905
-7.84056
-6.00486
-4.90856
-4.24142
-3.81004
-3.52054
-3.31411
-3.16236
-3.04836
-2.96087
-2.89401
-2.84461
-2.80974
-2.7872
-2.78057
-2.78717
-2.82538
-2.85102
-3.05824
-3.02624
-3.34684
-103.521
-0.0221819
-0.0462523
-0.987444
-0.374403
-0.116061
-0.186762
-8.37438
-0.718177
-2.1727
-0.127142
-1.52724
-1.37751
-1.0776
-5.90515
-0.695578
-2.84846
-1.07451
-0.939659
-1.19734
-0.983266
-0.547282
-1.80842
-0.550835
-1.90835
-0.751258
-1.66653
-2.43156
-1.19295
-1.31741
-2.973
-2.97582
-2.99956
-3.73028
-2.8864
-3.28071
-6.2717
-7.26862
-6.88269
-7.69872
-8.21322
-8.57773
-8.54041
-8.64352
-8.91262
-10.2431
-12.855
-13.508
-11.2129
-8.22889
-6.16944
-4.98859
-4.28989
-3.8451
-3.54801
-3.34225
-3.18998
-3.07639
-2.98911
-2.92303
-2.87415
-2.83925
-2.81783
-2.81057
-2.82015
-2.84582
-2.90778
-2.96018
-3.22147
-3.19774
-0.106408
-2.05776
-0.0705013
-0.0328451
-3.51685
-0.059467
-0.709173
-0.614185
-1.33221
-7.40822
-1.09219
-1.9533
-0.709991
-1.62417
-0.418236
-1.8483
-0.373418
-1.67364
-2.11979
-0.824918
-4.53181
-0.635144
-0.287477
-0.726013
-0.678043
-1.42883
-0.856586
-1.82177
-2.54137
-1.29801
-1.20146
-2.44432
-4.12069
-3.17346
-3.61818
-3.04416
-3.14051
-5.60993
-8.56536
-7.15731
-7.77038
-8.28231
-8.69374
-8.65947
-8.80498
-8.98988
-10.1489
-12.5911
-14.1777
-11.9356
-8.66655
-6.33296
-5.05221
-4.31974
-3.86466
-3.56845
-3.36403
-3.21252
-3.09893
-3.0136
-2.94874
-2.9
-2.86568
-2.8462
-2.83992
-2.84851
-2.87637
-2.92375
-3.01368
-3.09807
-3.43174
-3.41102
-0.128351
-0.435575
-1.39132
-0.181934
-0.239955
-1.75645
-0.422825
-2.06676
-0.580713
-2.2356
-0.0658047
-1.2595
-5.08121
-1.26148
-2.91941
-1.08034
-26.1982
-0.820938
-3.12634
-1.25555
-0.0791183
-0.810049
-1.39214
-0.690967
-0.796507
-0.92253
-1.35964
-1.81309
-2.09214
-1.39701
-1.22828
-2.19072
-5.66188
-3.36468
-3.56779
-3.5124
-3.18777
-4.95777
-9.17273
-7.33083
-7.79436
-8.31237
-8.7425
-8.79431
-8.98124
-9.09516
-10.1244
-12.0569
-14.2152
-12.972
-9.22172
-6.54332
-5.11159
-4.33504
-3.86506
-3.57551
-3.37181
-3.22397
-3.11406
-3.03306
-2.96954
-2.92215
-2.88912
-2.87081
-2.86526
-2.87382
-2.90065
-2.95005
-3.02374
-3.15065
-3.27307
-3.69796
-3.67452
-0.343218
-0.754741
-0.906458
-2.04158
-0.0650277
-1.28836
-0.169156
-0.836192
-1.17161
-0.115296
-2.16469
-0.321674
-1.82735
-0.192175
-1.75655
-0.354999
-1.77141
-0.0671905
-1.44465
-1.48593
-0.171205
-1.21756
-1.11763
-0.682536
-0.177915
-1.15469
-1.68769
-1.70435
-1.61506
-1.48751
-1.29445
-1.96048
-5.97277
-3.53447
-3.62307
-4.17561
-3.25524
-4.43254
-8.94093
-7.5569
-7.82738
-8.3349
-8.74215
-8.98012
-9.20709
-9.14679
-10.3208
-11.5606
-12.8261
-14.3938
-10.0882
-6.8549
-5.12433
-4.24588
-3.76824
-3.49956
-3.32191
-3.2031
-3.1168
-3.0455
-2.98467
-2.9408
-2.90936
-2.89151
-2.88622
-2.89638
-2.92299
-2.97011
-3.04555
-3.1527
-3.32396
-3.49427
-4.03198
-3.99404
-0.332175
-0.900296
-3.22135
-1.39728
-0.742904
-0.0229034
-0.330016
-2.87095
-0.62774
-1.93312
-0.575595
-4.08839
-0.988236
-1.67949
-0.844116
-4.82931
-0.915064
-7.54597
-0.572452
-1.61674
-0.197305
-2.71076
-0.920866
-0.396326
-0.397675
-1.25263
-1.69318
-1.50815
-1.40317
-1.6355
-1.34753
-1.75714
-4.47177
-3.73247
-3.76355
-4.68875
-3.36678
-4.06293
-8.32923
-8.42079
-7.94056
-8.3725
-8.73531
-9.22351
-9.50244
-9.22581
-10.1456
-11.1857
-11.2252
-14.9506
-11.4245
-7.03099
-4.88318
-3.98559
-3.63595
-3.43642
-3.29674
-3.19487
-3.11404
-3.04579
-2.99282
-2.95436
-2.92458
-2.90821
-2.90472
-2.91592
-2.94232
-2.98887
-3.06185
-3.16876
-3.31768
-3.54493
-3.77082
-4.44888
-4.37648
-0.587259
-3.74133
-0.0733031
-4.29878
-0.76243
-0.511527
-0.00889329
-1.24477
-3.63518
-0.84092
-2.18334
-1.3202
-1.72473
-1.35682
-10.7456
-1.24868
-0.226298
-1.14262
-0.158871
-2.39453
-0.0123634
-0.125559
-1.27582
-0.528836
-0.533709
-1.58104
-1.47648
-1.35605
-1.28198
-1.68652
-1.42405
-1.65451
-3.49503
-4.41106
-3.9704
-4.86996
-3.36805
-3.83686
-7.60283
-9.93866
-8.11272
-8.41799
-8.78137
-9.45837
-9.88753
-9.21111
-10.5677
-8.83982
-7.09885
-12.5812
-12.8216
-6.78416
-4.5666
-3.79376
-3.54191
-3.38108
-3.26625
-3.18057
-3.10664
-3.04395
-2.99677
-2.95954
-2.9343
-2.92071
-2.91884
-2.93002
-2.95791
-3.00496
-3.07618
-3.17886
-3.32605
-3.52491
-3.82206
-4.11264
-4.95878
-4.82846
-0.790274
-0.850597
-2.11466
-0.02719
-2.43715
-0.726092
-0.957184
-0.00242852
-0.82231
-1.46907
-1.45904
-3.26518
-1.82979
-0.263605
-1.5035
-0.600787
-3.39478
-0.847055
-5.66252
-0.973469
-0.0912703
-0.944876
-0.75685
-0.708206
-1.00665
-1.96202
-1.35335
-1.24841
-1.21617
-1.56651
-1.50822
-1.64432
-3.06664
-5.99901
-4.21324
-4.65299
-3.383
-3.80978
-6.5498
-10.6541
-8.10991
-8.42665
-8.85285
-9.53112
-10.3454
-9.23005
-10.0797
-7.34721
-3.52033
-4.60165
-11.6682
-6.47503
-4.2419
-3.65916
-3.38884
-3.23675
-3.14297
-3.08969
-3.05222
-3.02061
-2.99117
-2.96257
-2.94059
-2.92974
-2.9287
-2.94122
-2.96953
-3.01622
-3.08578
-3.18672
-3.32682
-3.52311
-3.78565
-4.1661
-4.52926
-5.57779
-5.35215
-0.0816399
-0.822686
-1.24507
-2.75029
-0.508561
-2.61459
-0.907604
-1.02961
-0.0256843
-0.907825
-0.436683
-1.68256
-0.377714
-2.18363
-1.0929
-2.33068
-1.11322
-0.375899
-1.27264
-0.658417
-103.086
-0.80982
-0.322964
-0.963244
-1.35294
-2.07255
-1.2281
-1.18912
-1.20272
-1.50513
-1.68845
-1.69435
-2.83692
-8.08679
-4.50526
-4.54596
-3.80061
-3.86072
-5.6719
-10.5658
-8.20372
-8.32991
-8.81026
-9.42652
-10.1548
-9.84364
-9.40112
-4.47279
-1.9422
-2.24373
-2.36066
-6.5406
-3.98743
-3.29058
-3.04371
-2.94808
-2.96366
-2.96857
-2.97288
-2.97097
-2.96257
-2.95177
-2.94103
-2.93345
-2.93488
-2.94872
-2.97753
-3.02354
-3.09212
-3.18987
-3.32651
-3.51483
-3.77221
-4.11121
-4.5908
-5.02802
-6.31648
-5.95657
-2.07467
-0.487618
-0.594862
-1.30487
-2.85467
-0.238408
-2.4793
-0.925146
-0.81843
-0.230034
-1.85643
-0.170078
-1.45841
-1.0677
-0.444364
-1.10009
-0.386795
-1.75417
-0.78286
-0.398477
-1.08764
-0.543964
-1.00715
-2.42722
-1.09235
-1.86454
-1.16584
-1.16934
-1.22293
-1.51366
-1.93349
-1.78912
-2.65677
-7.71562
-4.80161
-4.60463
-4.68681
-3.98412
-5.08899
-10.306
-8.94247
-8.44536
-8.52151
-9.28948
-10.4169
-9.75054
-4.51642
-2.15552
-1.27664
-1.09173
-3.0074
-3.56084
-3.96924
-2.61826
-2.44795
-2.54882
-2.69557
-2.79116
-2.84723
-2.8848
-2.90863
-2.92018
-2.92464
-2.92741
-2.93461
-2.95125
-2.98049
-3.0264
-3.09463
-3.19034
-3.32291
-3.50415
-3.75069
-4.08368
-4.51269
-5.10937
-5.61438
-7.18965
-6.63617
-2.96086
-6.1776
-0.447345
-0.542588
-1.14183
-2.71845
-0.321283
-1.09659
-1.0532
-0.734894
-0.379409
-2.33144
-1.05978
-5.98709
-1.68625
-0.604611
-2.27354
-0.893794
-0.392208
-1.40043