/*--------------------------------*- C++ -*----------------------------------*\
| =========                 |                                                 |
| \\      /  F ield         | OpenFOAM: The Open Source CFD Toolbox           |
|  \\    /   O peration     | Version:  v2012                                 |
|   \\  /    A nd           | Website:  www.openfoam.com                      |
|    \\/     M anipulation  |                                                 |
\*---------------------------------------------------------------------------*/
FoamFile
{
    version     2.0;
    format      ascii;
    class       volScalarField;
    location    "12000";
    object      I2;
}
// * * * * * * * * * * * * * * * * * * * * * * * * * * * * * * * * * * * * * //

dimensions      [0 2 -2 0 0 0 0];


internalField   nonuniform List<scalar> 
27324
(
1.39054
1.33394
5.3267
1.28009
5.32575
5.76421
1.22179
5.31838
5.62869
3.35825
1.16341
5.28457
5.48749
3.17882
1.28116
1.1053
5.23646
5.32196
3.00629
1.18115
0.394167
1.04863
5.17467
5.1477
2.82943
1.08892
0.356674
0.110906
0.994175
5.10374
4.96541
2.65918
1.00072
0.322602
0.0988373
0.0302649
0.942312
5.02801
4.77846
2.49559
0.920722
0.291269
0.087947
0.0266318
0.00841564
0.892499
4.94974
4.58859
2.3387
0.847995
0.263802
0.0781799
0.0233958
0.00736281
0.00248649
0.844044
4.86431
4.39566
2.18617
0.780869
0.239595
0.0698032
0.0205616
0.00643817
0.00218524
0.00082867
0.796381
4.76575
4.1967
2.03484
0.716455
0.217683
0.0625818
0.0181829
0.00564253
0.00192426
0.000740736
0.000328991
0.749369
4.64747
3.98893
1.88412
0.652193
0.196727
0.0561658
0.0161753
0.00498486
0.00170173
0.000665501
0.000301648
0.000156338
0.703547
4.50711
3.77141
1.73489
0.588597
0.175703
0.0501084
0.0144241
0.00443705
0.00151926
0.00060123
0.000278512
0.000146718
8.474e-05
0.659346
4.34925
3.54618
1.59064
0.527145
0.155041
0.0440902
0.0127943
0.00396468
0.0013681
0.000548515
0.000258371
0.000138646
8.07119e-05
4.9496e-05
0.617146
4.17773
3.31729
1.45405
0.470596
0.135516
0.0382815
0.0111944
0.00352981
0.00123842
0.000504682
0.000241652
0.000131342
7.73499e-05
4.74982e-05
3.00144e-05
0.57655
3.99756
3.0876
1.32429
0.420239
0.118265
0.0329378
0.00967482
0.00310732
0.00111985
0.000466951
0.000227516
0.000125124
7.41559e-05
4.58378e-05
2.89037e-05
1.86203e-05
0.537464
3.80283
2.85765
1.19971
0.374571
0.103683
0.0283846
0.00830462
0.00271071
0.00100538
0.000432404
0.000215158
0.000119705
7.13479e-05
4.41933e-05
2.79827e-05
1.79661e-05
1.17967e-05
0.499985
3.59116
2.62653
1.07572
0.331993
0.0910158
0.0246875
0.00716239
0.00235738
0.000898457
0.000398984
0.000203709
0.000114838
6.88124e-05
4.27047e-05
2.70458e-05
1.74247e-05
1.14039e-05
7.69791e-06
0.464455
3.36141
2.39426
0.954813
0.289598
0.0795682
0.0215743
0.00625412
0.00206553
0.000803464
0.000367595
0.000192508
0.000110243
6.6469e-05
4.13194e-05
2.61776e-05
1.68646e-05
1.10807e-05
7.4619e-06
5.2288e-06
0.430925
3.11911
2.16289
0.839511
0.249383
0.0682559
0.0188187
0.00550042
0.00183515
0.000724716
0.000339448
0.000181815
0.000105677
6.42213e-05
4.00109e-05
2.53513e-05
1.6337e-05
1.07422e-05
7.27034e-06
5.08705e-06
3.74789e-06
0.398716
2.86941
1.93438
0.733592
0.212933
0.057808
0.0161058
0.00484006
0.00164508
0.000662184
0.000315677
0.00017202
0.000101219
6.1971e-05
3.87463e-05
2.45598e-05
1.58278e-05
1.04204e-05
7.06692e-06
4.97536e-06
3.66374e-06
2.87152e-06
0.367578
2.60894
1.709
0.635814
0.181904
0.0487141
0.0136354
0.00419195
0.0014795
0.000610319
0.000296382
0.000163468
9.70136e-05
5.97399e-05
3.74894e-05
2.37939e-05
1.53365e-05
1.01078e-05
6.87331e-06
4.8542e-06
3.60158e-06
2.8241e-06
2.3585e-06
0.337519
2.33711
1.48735
0.542386
0.154911
0.0413815
0.0115294
0.0036057
0.00131735
0.000564943
0.000280059
0.00015626
9.31849e-05
5.75839e-05
3.62388e-05
2.30442e-05
1.48629e-05
9.80555e-06
6.68491e-06
4.73959e-06
3.53171e-06
2.79366e-06
2.33485e-06
2.05319e-06
0.308305
2.05625
1.27204
0.454041
0.129599
0.0352327
0.00987658
0.00311042
0.00117031
0.000520246
0.000265501
0.000149963
8.98037e-05
5.55544e-05
3.50126e-05
2.23044e-05
1.44058e-05
9.5156e-06
6.50309e-06
4.6284e-06
3.46667e-06
2.75687e-06
2.32398e-06
2.04432e-06
1.87957e-06
0.279028
1.7672
1.06461
0.373033
0.10625
0.0294826
0.00851446
0.00272597
0.0010455
0.000479039
0.000250925
0.000144179
8.67445e-05
5.36874e-05
3.38331e-05
2.1575e-05
1.39624e-05
9.23899e-06
6.32939e-06
4.5217e-06
3.40428e-06
2.72375e-06
2.3079e-06
2.04465e-06
1.87399e-06
1.81285e-06
0.248705
1.46681
0.865588
0.299734
0.085732
0.0242175
0.00723942
0.00241127
0.00094791
0.000443344
0.000237076
0.000138294
8.38583e-05
5.19531e-05
3.27155e-05
2.08612e-05
1.35283e-05
8.97433e-06
6.16483e-06
4.42e-06
3.3452e-06
2.69272e-06
2.29453e-06
2.04123e-06
1.87494e-06
1.79202e-06
1.98119e-06
0.217748
1.15346
0.676089
0.233791
0.0680305
0.0196918
0.00607179
0.00211532
0.000867526
0.000414753
0.000224654
0.000132507
8.09115e-05
5.02942e-05
3.16553e-05
2.01712e-05
1.30986e-05
8.71875e-06
6.00892e-06
4.32375e-06
3.28931e-06
2.66423e-06
2.28258e-06
2.03969e-06
1.87864e-06
1.78587e-06
1.88611e-06
7.88568e-06
0.186779
0.846441
0.503997
0.176
0.052802
0.0158825
0.00507302
0.00184124
0.000791169
0.000390717
0.000214264
0.000127112
7.79333e-05
4.86285e-05
3.06351e-05
1.95069e-05
1.26772e-05
8.46595e-06
5.85982e-06
4.23285e-06
3.23651e-06
2.63803e-06
2.27234e-06
2.03879e-06
1.88385e-06
1.78767e-06
1.79732e-06
2.36678e-06
0.000539971
0.154229
0.566606
0.35536
0.130921
0.0401662
0.0126679
0.004233
0.00160408
0.000719052
0.000367373
0.00020517
0.000122361
7.50526e-05
4.69313e-05
2.96331e-05
1.88664e-05
1.22683e-05
8.21528e-06
5.71438e-06
4.1465e-06
3.18682e-06
2.61389e-06
2.26366e-06
2.03893e-06
1.88939e-06
1.79142e-06
1.7778e-06
2.20679e-06
0.000412339
0.00471273
0.10701
0.320546
0.231497
0.0964151
0.0313416
0.0100435
0.00351841
0.00140185
0.000655177
0.000344482
0.000196038
0.000118033
7.23902e-05
4.52511e-05
2.86245e-05
1.82486e-05
1.18743e-05
7.96987e-06
5.56995e-06
4.0638e-06
3.14016e-06
2.59165e-06
2.25639e-06
2.03992e-06
1.89538e-06
1.79959e-06
1.77724e-06
2.08988e-06
0.000295683
0.00378913
0.0129662
0.0574903
0.142754
0.136603
0.0683252
0.0250953
0.00828847
0.00292666
0.00122686
0.000599414
0.000323248
0.000186655
0.000113607
6.98918e-05
4.36474e-05
2.76089e-05
1.76417e-05
1.14998e-05
7.73359e-06
5.42764e-06
3.98323e-06
3.09658e-06
2.57148e-06
2.25021e-06
2.042e-06
1.90187e-06
1.81074e-06
1.78495e-06
1.99071e-06
0.000203503
0.00286026
0.0101478
0.0293575
0.0138294
0.0721649
0.0722277
0.0484468
0.019883
0.00708681
0.00253164
0.00107926
0.000549981
0.000303819
0.000177454
0.000108926
6.73491e-05
4.2116e-05
2.66134e-05
1.70272e-05
1.11395e-05
7.51024e-06
5.29045e-06
3.90404e-06
3.05583e-06
2.55352e-06
2.24529e-06
2.04522e-06
1.90931e-06
1.82546e-06
1.79594e-06
1.91634e-06
0.000131386
0.00210896
0.0076923
0.0236696
0.0718931
0.00822963
0.0368116
0.049754
0.0341707
0.0164688
0.00605654
0.00226568
0.000979982
0.000507241
0.000285798
0.000168601
0.000104172
6.46349e-05
4.05869e-05
2.56479e-05
1.64094e-05
1.07802e-05
7.29888e-06
5.16065e-06
3.82612e-06
3.01734e-06
2.53785e-06
2.24169e-06
2.04944e-06
1.91976e-06
1.84154e-06
1.8083e-06
1.83034e-06
8.0386e-05
0.00148151
0.00589968
0.0190607
0.0598039
0.173466
0.00760139
0.0300977
0.0339308
0.0325768
0.0140574
0.0054575
0.00203814
0.000913985
0.000477917
0.000269425
0.000160062
9.95044e-05
6.181e-05
3.89749e-05
2.46959e-05
1.58017e-05
1.04143e-05
7.09299e-06
5.03791e-06
3.75149e-06
2.97955e-06
2.52457e-06
2.24006e-06
2.055e-06
1.9338e-06
1.8574e-06
1.80196e-06
1.72606e-06
4.25099e-05
0.000967224
0.00450769
0.0153318
0.0494829
0.147331
0.402203
0.00743979
0.0289824
0.0267939
0.0342925
0.0165159
0.0051904
0.00191406
0.000859802
0.00045797
0.000257377
0.000151989
9.49766e-05
5.89929e-05
3.72861e-05
2.37143e-05
1.52068e-05
1.00492e-05
6.88322e-06
4.92007e-06
3.68074e-06
2.94286e-06
2.51376e-06
2.24008e-06
2.06494e-06
1.94925e-06
1.865e-06
1.72193e-06
1.58727e-06
1.97e-05
0.000575123
0.00340886
0.0122722
0.0407192
0.124468
0.34779
0.901094
0.00728435
0.0285841
0.0252532
0.0312559
0.0229037
0.00687005
0.00191614
0.000810109
0.000443545
0.000248417
0.000145629
9.06504e-05
5.62408e-05
3.55981e-05
2.26847e-05
1.46102e-05
9.6928e-06
6.66964e-06
4.80169e-06
3.61434e-06
2.90812e-06
2.50404e-06
2.24489e-06
2.07639e-06
1.9596e-06
1.81561e-06
1.6017e-06
1.42867e-06
8.13315e-06
0.000302629
0.00251791
0.00976674
0.0333177
0.104548
0.29967
0.790891
1.96633
0.00709205
0.0280431
0.0244065
0.0295994
0.0234738
0.0111459
0.00260201
0.00082786
0.000415051
0.000242516
0.000140788
8.70733e-05
5.35562e-05
3.39594e-05
2.1644e-05
1.39912e-05
9.34669e-06
6.45803e-06
4.67975e-06
3.55096e-06
2.87715e-06
2.4967e-06
2.25114e-06
2.08505e-06
1.92313e-06
1.70121e-06
1.44051e-06
1.26911e-06
3.44834e-06
0.000137521
0.00175785
0.00771053
0.0270992
0.0873195
0.256903
0.692997
1.74927
4.19526
0.0068593
0.0272439
0.0234277
0.0284453
0.0226665
0.0123527
0.00433941
0.00108865
0.000433885
0.000228399
0.000136915
8.43549e-05
5.11603e-05
3.23814e-05
2.06238e-05
1.33584e-05
9.00032e-06
6.25365e-06
4.55783e-06
3.4891e-06
2.85039e-06
2.4896e-06
2.25378e-06
2.0477e-06
1.8038e-06
1.53204e-06
1.28975e-06
1.17028e-06
1.84207e-06
5.43904e-05
0.00114935
0.00601276
0.0219037
0.0725242
0.219134
0.604758
1.55555
3.77924
8.76254
0.00660286
0.0262103
0.0224511
0.0275204
0.0219329
0.0121564
0.00479942
0.0016877
0.000565266
0.000245068
0.000130066
7.86098e-05
4.90317e-05
3.09143e-05
1.96637e-05
1.27275e-05
8.65065e-06
6.05546e-06
4.43974e-06
3.42129e-06
2.82373e-06
2.47458e-06
2.18794e-06
1.91989e-06
1.6165e-06
1.36007e-06
1.19695e-06
1.11703e-06
1.34545e-06
1.97969e-05
0.000685463
0.00460036
0.0175834
0.0599111
0.185933
0.526113
1.37828
3.40655
7.98514
17.9217
0.0063307
0.0250599
0.0215322
0.0267271
0.0213104
0.0118053
0.00476872
0.00192107
0.000847331
0.000318084
0.000143237
7.62366e-05
4.5398e-05
2.83466e-05
1.85318e-05
1.20872e-05
8.26108e-06
5.84007e-06
4.31051e-06
3.32885e-06
2.74436e-06
2.32524e-06
2.01276e-06
1.7023e-06
1.42424e-06
1.25379e-06
1.1459e-06
1.10496e-06
1.18404e-06
7.64079e-06
0.000361901
0.00340693
0.0140053
0.0492195
0.156973
0.456093
1.21868
3.05998
7.28733
16.5043
35.8697
0.00606363
0.0238856
0.020714
0.0260408
0.0207192
0.0113977
0.00464264
0.00189726
0.00100541
0.000464365
0.000185353
8.62334e-05
4.56112e-05
2.65632e-05
1.65547e-05
1.07659e-05
7.46079e-06
5.29567e-06
3.95801e-06
3.05395e-06
2.49325e-06
2.07282e-06
1.76e-06
1.49702e-06
1.31551e-06
1.1947e-06
1.12888e-06
1.1065e-06
1.13425e-06
3.4121e-06
0.000166465
0.00238955
0.011043
0.0402146
0.131839
0.393985
1.07498
2.74455
6.62854
15.232
33.3446
70.1972
0.00581499
0.022804
0.0200422
0.0254602
0.020162
0.0110009
0.0044716
0.00186715
0.000956957
0.000575661
0.000261662
0.00011156
5.30994e-05
2.77418e-05
1.59704e-05
9.93463e-06
6.54303e-06
4.58449e-06
3.3976e-06
2.63943e-06
2.14267e-06
1.80812e-06
1.57308e-06
1.38461e-06
1.25506e-06
1.17287e-06
1.13078e-06
1.11198e-06
1.1228e-06
1.9185e-06
6.72401e-05
0.00156042
0.00858762
0.0326569
0.11022
0.338998
0.946044
2.45723
6.02313
14.0145
31.0805
65.8036
134.228
0.00559719
0.021902
0.0194882
0.0249648
0.0196144
0.0106415
0.00431455
0.00181977
0.000945693
0.000542137
0.000333028
0.000152016
6.87249e-05
3.30024e-05
1.73475e-05
1.00112e-05
6.22631e-06
4.21234e-06
3.05943e-06
2.36419e-06
1.92893e-06
1.65192e-06
1.47344e-06
1.32572e-06
1.23742e-06
1.17638e-06
1.13693e-06
1.1196e-06
1.12365e-06
1.40213e-06
2.49831e-05
0.000933385
0.00654244
0.0263338
0.0917466
0.290513
0.830542
2.19656
5.4657
12.8866
28.8876
61.8635
126.844
249.809
0.00540555
0.0211944
0.0190224
0.0244913
0.0190628
0.0102973
0.00420146
0.00177447
0.00093135
0.0005347
0.00032268
0.000194344
9.05516e-05
4.26636e-05
2.09917e-05
1.12213e-05
6.5458e-06
4.20628e-06
2.96142e-06
2.25517e-06
1.83656e-06
1.5846e-06
1.4283e-06
1.32281e-06
1.2447e-06
1.18517e-06
1.14518e-06
1.12692e-06
1.12822e-06
1.22788e-06
9.45022e-06
0.000497698
0.00482606
0.0210528
0.0760699
0.247953
0.727358
1.96049
4.95462
11.8382
26.8446
57.9992
120.199
238.163
448.356
0.00522085
0.0205739
0.0185723
0.0239966
0.0185016
0.00995999
0.00410977
0.00174628
0.000917402
0.000528737
0.000313806
0.000196466
0.000114134
5.48659e-05
2.62805e-05
1.34363e-05
7.45767e-06
4.55671e-06
3.07868e-06
2.2893e-06
1.85063e-06
1.5979e-06
1.44258e-06
1.33704e-06
1.25675e-06
1.19556e-06
1.15352e-06
1.13358e-06
1.13383e-06
1.17295e-06
4.01855e-06
0.00023137
0.00338534
0.0166346
0.0628479
0.21079
0.635347
1.74733
4.48683
10.8676
24.9321
54.3797
113.57
227.662
432.065
754.709
0.00502932
0.0199431
0.0180852
0.0234605
0.0179372
0.00962597
0.00402659
0.00172696
0.000909017
0.000522762
0.000310872
0.000183872
0.00012166
6.78073e-05
3.30141e-05
1.62732e-05
8.67325e-06
5.07842e-06
3.31841e-06
2.40448e-06
1.90987e-06
1.63243e-06
1.4662e-06
1.35419e-06
1.27069e-06
1.2063e-06
1.16136e-06
1.1398e-06
1.13964e-06
1.15919e-06
2.1087e-06
9.39627e-05
0.00220756
0.0129404
0.0517242
0.178543
0.553565
1.55516
4.05999
9.97038
23.1488
50.9717
107.306
216.894
417.478
736.776
1153.83
0.00481745
0.0192583
0.0175791
0.0229197
0.0173826
0.00928928
0.00394635
0.00171095
0.000903933
0.000519147
0.000307971
0.000181819
0.000113711
7.6441e-05
3.97933e-05
1.98569e-05
1.01932e-05
5.71786e-06
3.60269e-06
2.53923e-06
1.97783e-06
1.67046e-06
1.49104e-06
1.37263e-06
1.28446e-06
1.21655e-06
1.16896e-06
1.14582e-06
1.14542e-06
1.15922e-06
1.46259e-06
3.41489e-05
0.00132266
0.00987275
0.0423303
0.15074
0.481134
1.38234
3.67108
9.14351
21.4876
47.7779
101.356
206.569
401.864
721.431
1141.12
1579.26
0.00457655
0.0185026
0.0170938
0.0223939
0.0168386
0.00895589
0.00386216
0.00169647
0.000899897
0.00051715
0.000306112
0.000180413
0.00011111
7.31012e-05
4.59955e-05
2.3743e-05
1.20473e-05
6.49934e-06
3.93782e-06
2.69201e-06
2.05286e-06
1.71098e-06
1.51651e-06
1.39075e-06
1.29816e-06
1.22684e-06
1.17658e-06
1.15187e-06
1.15114e-06
1.16379e-06
1.26002e-06
1.20814e-05
0.000708021
0.00729797
0.0343091
0.126955
0.417207
1.22731
3.31751
8.38282
19.9447
44.7883
95.7394
196.611
386.58
703.621
1132.53
1579.28
1952.15
0.00433054
0.0177166
0.0166573
0.0218828
0.0162961
0.0086276
0.00377473
0.00168035
0.000896055
0.000515569
0.000305254
0.000179568
0.000110379
6.90543e-05
4.63491e-05
2.75608e-05
1.4284e-05
7.45742e-06
4.34627e-06
2.86977e-06
2.13701e-06
1.75485e-06
1.5433e-06
1.40954e-06
1.31223e-06
1.23747e-06
1.18447e-06
1.15802e-06
1.15683e-06
1.16963e-06
1.20459e-06
4.58403e-06
0.000329149
0.00513432
0.0274923
0.106738
0.36113
1.08842
2.99674
7.68479
18.5139
41.9981
90.4485
187.076
371.489
685.715
1119.96
1585.67
1968.92
2224.49
0.00410713
0.017023
0.016326
0.0214089
0.0157527
0.00831387
0.0036875
0.00166174
0.000891107
0.000513993
0.00030467
0.000179374
0.000109933
6.84387e-05
4.33533e-05
2.95066e-05
1.65339e-05
8.6308e-06
4.84573e-06
3.08159e-06
2.23313e-06
1.8032e-06
1.57192e-06
1.42932e-06
1.32701e-06
1.24862e-06
1.19266e-06
1.16432e-06
1.16248e-06
1.17573e-06
1.19451e-06
2.15181e-06
0.00013007
0.00335908
0.0216956
0.0896257
0.312158
0.964412
2.70606
7.04569
17.191
39.3982
85.4848
177.977
356.709
667.455
1106.87
1587.04
1994.64
2256.71
2390.91
0.00391562
0.0164419
0.0160853
0.0209534
0.0151883
0.00802539
0.00360781
0.00164129
0.000884854
0.000511834
0.000304134
0.000179399
0.000109838
6.81376e-05
4.23922e-05
2.79282e-05
1.82944e-05
9.95918e-06
5.44396e-06
3.33626e-06
2.34329e-06
1.85658e-06
1.60255e-06
1.45015e-06
1.34253e-06
1.26031e-06
1.2012e-06
1.17073e-06
1.16809e-06
1.18178e-06
1.19753e-06
1.42741e-06
4.3329e-05
0.00201386
0.0167537
0.0751044
0.269623
0.853941
2.44338
6.46115
15.9711
36.9828
80.8396
169.34
342.285
649.036
1092.82
1587.82
2015.2
2300.28
2435.09
2464.83
0.0037548
0.0159642
0.0158884
0.0204605
0.0146036
0.0077641
0.00354023
0.00162215
0.000877828
0.000509058
0.000303352
0.00017945
0.00010991
6.80203e-05
4.21768e-05
2.64217e-05
1.82719e-05
1.10129e-05
6.14508e-06
3.63762e-06
2.47101e-06
1.91539e-06
1.6353e-06
1.4721e-06
1.35884e-06
1.27259e-06
1.21006e-06
1.17725e-06
1.17369e-06
1.18775e-06
1.20392e-06
1.25692e-06
1.31149e-05
0.0010765
0.0125553
0.062722
0.232832
0.755969
2.20646
5.92767
14.8479
34.746
76.5078
161.173
328.292
630.525
1078.03
1587.32
2035.63
2339.27
2492.29
2517.02
2467.17
0.00360073
0.0155649
0.0157005
0.0199022
0.0140104
0.00752447
0.00348598
0.00160734
0.000871208
0.000505882
0.000302319
0.000179357
0.000109986
6.80328e-05
4.20573e-05
2.61803e-05
1.71151e-05
1.15264e-05
6.8135e-06
3.98627e-06
2.62148e-06
1.9809e-06
1.67043e-06
1.49533e-06
1.37603e-06
1.28552e-06
1.21928e-06
1.1839e-06
1.17927e-06
1.19367e-06
1.21107e-06
1.22902e-06
4.11936e-06
0.000493775
0.00902334
0.0519744
0.201183
0.669431
1.99356
5.44128
13.8162
32.6795
72.4836
153.489
314.79
612.04
1062.57
1585.72
2055.13
2379.02
2545.67
2583.11
2523.9
2418.81
0.00344037
0.0151294
0.0154409
0.0192722
0.0134128
0.00730627
0.00343969
0.00159575
0.000866069
0.000502903
0.000301139
0.000179118
0.00010998
6.80614e-05
4.20289e-05
2.60794e-05
1.63778e-05
1.10698e-05
7.27786e-06
4.38062e-06
2.79742e-06
2.05551e-06
1.70833e-06
1.51999e-06
1.39421e-06
1.29914e-06
1.22889e-06
1.19069e-06
1.18487e-06
1.19956e-06
1.21843e-06
1.23197e-06
1.7855e-06
0.00018506
0.00607034
0.042492
0.17409
0.593438
1.8028
4.99901
12.8694
30.7774
68.7582
146.29
301.857
593.669
1046.57
1582.99
2073.82
2418.76
2600.6
2646.13
2594.79
2477.45
2337.3
0.00327839
0.0146361
0.0150921
0.018581
0.0128216
0.00709909
0.00340006
0.00158578
0.000862517
0.000500698
0.000300143
0.00017879
0.000109904
6.80546e-05
4.20396e-05
2.60253e-05
1.62818e-05
1.03913e-05
7.33707e-06
4.69338e-06
2.99878e-06
2.14196e-06
1.74954e-06
1.54621e-06
1.41342e-06
1.31353e-06
1.23891e-06
1.19762e-06
1.19049e-06
1.20546e-06
1.22576e-06
1.24118e-06
1.30014e-06
5.25836e-05
0.00373215
0.0342201
0.150959
0.527004
1.63261
4.59771
12.0021
29.0304
65.3268
139.581
289.566
575.524
1030.09
1579.16
2091.57
2458.62
2656.35
2711.25
2663.2
2550.02
2396
2235.95
0.00311667
0.0141091
0.0146837
0.0178692
0.0122569
0.00689978
0.00336039
0.00157688
0.000859726
0.000499191
0.000299627
0.000178585
0.000109795
6.80235e-05
4.2041e-05
2.60115e-05
1.62255e-05
1.01261e-05
6.90979e-06
4.83947e-06
3.21772e-06
2.24025e-06
1.7953e-06
1.57405e-06
1.43373e-06
1.32872e-06
1.24939e-06
1.20471e-06
1.19616e-06
1.21141e-06
1.23307e-06
1.25082e-06
1.24402e-06
1.06828e-05
0.00203576
0.0270194
0.131105
0.469222
1.4813
4.23517
11.2085
27.431
62.1793
133.37
277.942
557.723
1013.13
1574.28
2108.29
2498.53
2713.06
2777.83
2734.05
2620.54
2468.09
2293.48
2124.17
0.00296508
0.0135696
0.0142015
0.0171316
0.0117273
0.00671086
0.00331957
0.00156642
0.000857236
0.000498212
0.000299631
0.000178659
0.000109756
6.79834e-05
4.20324e-05
2.60129e-05
1.62026e-05
1.00766e-05
6.50178e-06
4.72414e-06
3.34631e-06
2.34926e-06
1.84716e-06
1.60368e-06
1.45513e-06
1.34477e-06
1.26037e-06
1.21198e-06
1.2019e-06
1.21746e-06
1.24044e-06
1.26034e-06
1.25031e-06
2.02395e-06
0.00093258
0.0208312
0.113819
0.419134
1.34747
3.90899
10.4845
25.9689
59.3086
127.654
267.015
540.389
995.788
1568.68
2123.81
2538.42
2770.68
2846.02
2806.8
2693.68
2538.42
2363.7
2179.77
2008.31
0.00283382
0.0130769
0.0136779
0.01637
0.0112299
0.00653394
0.00327508
0.00155405
0.000853926
0.000497533
0.000299993
0.000179005
0.000109862
6.79887e-05
4.20265e-05
2.60146e-05
1.62088e-05
1.00452e-05
6.36815e-06
4.39826e-06
3.36398e-06
2.46314e-06
1.90459e-06
1.63567e-06
1.47764e-06
1.36173e-06
1.27193e-06
1.21947e-06
1.20772e-06
1.22364e-06
1.24792e-06
1.26975e-06
1.26096e-06
1.2787e-06
0.000323032
0.0155238
0.0984162
0.375866
1.22984
3.61728
9.82585
24.6358
56.7019
122.433
256.812
523.664
978.209
1562.23
2138.81
2578.27
2829.14
2915.79
2881.57
2768.95
2611.43
2432.36
2247.3
2061.53
1892.49
0.00271178
0.0126076
0.0131243
0.0156009
0.0107811
0.00637678
0.00322865
0.00153782
0.000849602
0.000496606
0.000300545
0.000179539
0.000110108
6.80751e-05
4.20482e-05
2.60246e-05
1.62206e-05
1.00388e-05
6.34165e-06
4.14026e-06
3.21678e-06
2.51621e-06
1.96563e-06
1.67097e-06
1.50127e-06
1.37967e-06
1.28413e-06
1.22722e-06
1.21365e-06
1.22997e-06
1.25553e-06
1.27907e-06
1.27193e-06
1.27867e-06
6.21472e-05
0.0110549
0.0844853
0.338725
1.12708
3.35814
9.23005
23.4228
54.3476
117.705
247.371
507.652
960.589
1555.02
2152.93
2617.86
2888.38
2987.07
2958.36
2846.48
2686.66
2503.67
2313.39
2125.93
1943.11
1779.29
0.00259017
0.0121373
0.0125418
0.0148327
0.0103745
0.00624298
0.00318683
0.0015196
0.000843841
0.000495287
0.000300994
0.000180146
0.000110452
6.8234e-05
4.21073e-05
2.60513e-05
1.62366e-05
1.00507e-05
6.33239e-06
4.05197e-06
2.96844e-06
2.47644e-06
2.02694e-06
1.70932e-06
1.5263e-06
1.3986e-06
1.29705e-06
1.23527e-06
1.2197e-06
1.23648e-06
1.26326e-06
1.2883e-06
1.28261e-06
1.2824e-06
1.59912e-06
0.00759772
0.0720851
0.306824
1.03801
3.12935
8.69493
22.3241
52.2292
113.465
238.716
492.465
943.122
1547.22
2166.15
2657.16
2948.32
3059.85
3037.12
2926.28
2764.26
2577.21
2382.06
2188.96
2004.15
1827.2
1670.29
0.00245969
0.0116204
0.0119364
0.0140768
0.0100058
0.00612881
0.00314911
0.00150338
0.00083755
0.000493453
0.000301232
0.000180691
0.000110823
6.84366e-05
4.22062e-05
2.60948e-05
1.62576e-05
1.00688e-05
6.33793e-06
4.04091e-06
2.78516e-06
2.3243e-06
2.05662e-06
1.7487e-06
1.55343e-06
1.4186e-06
1.31073e-06
1.24369e-06
1.22588e-06
1.24321e-06
1.27106e-06
1.2975e-06
1.29282e-06
1.28945e-06
1.56593e-06
0.0051504
0.0611847
0.279222
0.961233
2.92908
8.21826
21.3358
50.3332
109.698
230.886
478.191
926.017
1538.99
2178.45
2696.1
3008.85
3134.04
3117.84
3008.29
2844.22
2653.11
2452.9
2254.46
2063.9
1884.84
1715.45
1566.4
0.00231672
0.0110474
0.0113293
0.013357
0.00966484
0.00602923
0.00311226
0.00148905
0.000832226
0.000491529
0.000301126
0.000181098
0.000111153
6.86492e-05
4.23224e-05
2.61538e-05
1.62832e-05
1.00865e-05
6.3505e-06
4.03722e-06
2.69883e-06
2.11122e-06
1.99951e-06
1.78769e-06
1.58288e-06
1.43981e-06
1.32526e-06
1.25253e-06
1.23221e-06
1.25009e-06
1.27889e-06
1.30673e-06
1.30264e-06
1.29885e-06
1.55145e-06
0.00372834
0.0518497
0.254846
0.895468
2.75542
7.79867
20.455
48.6481
106.386
223.905
464.943
909.454
1530.59
2189.85
2734.55
3069.88
3209.51
3200.43
3092.53
2926.51
2731.38
2526.05
2322.06
2126
1941.23
1769.72
1608.83
1468.12
0.00216816
0.0104091
0.010741
0.0126883
0.00935933
0.00593611
0.00307427
0.00147543
0.000828427
0.00049021
0.000300968
0.000181289
0.00011141
6.88466e-05
4.244e-05
2.62186e-05
1.63091e-05
1.01033e-05
6.36278e-06
4.04089e-06
2.6897e-06
1.95613e-06
1.85951e-06
1.81344e-06
1.61292e-06
1.46277e-06
1.34068e-06
1.26184e-06
1.23878e-06
1.25702e-06
1.28683e-06
1.31591e-06
1.31213e-06
1.30959e-06
1.54677e-06
0.00318668
0.0435845
0.2325
0.839601
2.60701
7.4343
19.681
47.1649
103.506
217.793
452.836
893.609
1522.27
2200.4
2772.42
3131.25
3286.18
3284.77
3178.91
3011.14
2812
2601.52
2391.88
2190.1
1999.85
1822.77
1659.78
1507.84
1375.71
0.00201473
0.00973459
0.0101849
0.0120922
0.00908551
0.00584687
0.00303151
0.00146188
0.000825774
0.000489728
0.000301154
0.00018144
0.000111567
6.90133e-05
4.25544e-05
2.62875e-05
1.63326e-05
1.01173e-05
6.3718e-06
4.04895e-06
2.68672e-06
1.87248e-06
1.66567e-06
1.76028e-06
1.64269e-06
1.48833e-06
1.35709e-06
1.27161e-06
1.24567e-06
1.26392e-06
1.29491e-06
1.32506e-06
1.32129e-06
1.32047e-06
1.5464e-06
0.00310881
0.0365174
0.212456
0.792916
2.48243
7.12378
19.0124
45.8812
101.033
212.547
442.012
878.643
1514.3
2210.21
2809.58
3192.84
3363.86
3370.77
3267.31
3098.05
2894.98
2679.29
2463.93
2256.3
2060.37
1877.94
1709.57
1555.58
1412.75
1289.3
0.00185938
0.00903042
0.00966239
0.0115816
0.00884516
0.00575654
0.00298296
0.00144765
0.000823942
0.00048975
0.000301759
0.00018175
0.000111711
6.91531e-05
4.26614e-05
2.63541e-05
1.63602e-05
1.01299e-05
6.37841e-06
4.05675e-06
2.68832e-06
1.86075e-06
1.50726e-06
1.64789e-06
1.66737e-06
1.51592e-06
1.3748e-06
1.28183e-06
1.25282e-06
1.27073e-06
1.30309e-06
1.33415e-06
1.3302e-06
1.33088e-06
1.55118e-06
0.0030913
0.0314293
0.194959
0.754214
2.38029
6.86522
18.4494
44.7961
98.9548
208.141
432.6
864.779
1506.77
2219.45
2845.95
3254.49
3442.29
3458.18
3357.73
3187.17
2980.27
2759.4
2538.2
2324.65
2122.88
1934.9
1761.36
1602.19
1457.37
1323.68
1208.95
0.00170408
0.00830511
0.00917824
0.0111582
0.00863947
0.00566017
0.00293041
0.00143347
0.00082249
0.000490073
0.000302605
0.000182248
0.000111964
6.93036e-05
4.27627e-05
2.64219e-05
1.63942e-05
1.01438e-05
6.38346e-06
4.06279e-06
2.6939e-06
1.85906e-06
1.42169e-06
1.47359e-06
1.65792e-06
1.54357e-06
1.39451e-06
1.29254e-06
1.26015e-06
1.27763e-06
1.31126e-06
1.34318e-06
1.33889e-06
1.34094e-06
1.5605e-06
0.00312926
0.0287057
0.180066
0.721988
2.29877
6.65729
17.9914
43.913
97.2636
204.544
424.676
852.315
1499.71
2228.31
2881.39
3315.28
3520.81
3546.89
3450.06
3278.65
3068.02
2841.85
2614.73
2395.12
2187.43
1993.75
1814.85
1650.71
1500.9
1365.26
1240.67
1134.71
0.00155476
0.00759142
0.00874464
0.0108222
0.00846505
0.00555114
0.00287571
0.00142065
0.000821603
0.000490448
0.000303534
0.000182845
0.000112295
6.95043e-05
4.28703e-05
2.64928e-05
1.64315e-05
1.01631e-05
6.38918e-06
4.06889e-06
2.70085e-06
1.85957e-06
1.39164e-06
1.29992e-06
1.57855e-06
1.57164e-06
1.41707e-06
1.30383e-06
1.26758e-06
1.28468e-06
1.31935e-06
1.35214e-06
1.34742e-06
1.35068e-06
1.57239e-06
0.00320879
0.0278335
0.167345
0.694717
2.23629
6.49892
17.6397
43.2349
95.9648
201.728
418.257
841.563
1493.31
2237.07
2914.25
3374.5
3599.79
3636.83
3544.25
3372.24
3158.08
2926.69
2693.6
2467.75
2254
2054.53
1870.12
1700.83
1546.25
1405.8
1279.29
1163.73
1066.65
0.00141636
0.00694044
0.00838626
0.010562
0.00831643
0.00542807
0.00282007
0.00141048
0.00082154
0.000490897
0.000304425
0.000183468
0.000112686
6.97455e-05
4.29883e-05
2.65695e-05
1.64717e-05
1.01868e-05
6.39753e-06
4.07601e-06
2.70644e-06
1.86365e-06
1.38911e-06
1.19006e-06
1.44172e-06
1.59001e-06
1.4417e-06
1.31606e-06
1.27498e-06
1.29178e-06
1.32726e-06
1.36096e-06
1.35581e-06
1.36013e-06
1.58659e-06
0.00331921
0.027317
0.156429
0.671769
2.19204
6.38996
17.3963
42.7667
95.0667
199.678
413.297
832.754
1488.03
2243.77
2943.62
3433.31
3679.25
3728.09
3640.1
3467.83
3250.23
3013.73
2774.66
2542.6
2322.63
2117.22
1927.21
1752.64
1593.12
1448.08
1316.91
1199.45
1092.92
1004.87
0.00128179
0.00637255
0.00811379
0.0103613
0.00818188
0.00528986
0.00276436
0.00140337
0.000822429
0.000491589
0.000305266
0.000184072
0.000113095
7.00142e-05
4.31225e-05
2.66455e-05
1.6514e-05
1.02147e-05
6.41024e-06
4.08403e-06
2.71104e-06
1.86933e-06
1.38978e-06
1.13479e-06
1.27158e-06
1.55472e-06
1.46666e-06
1.33004e-06
1.28221e-06
1.29885e-06
1.33497e-06
1.36965e-06
1.3641e-06
1.36936e-06
1.60178e-06
0.0034568
0.0271862
0.149117
0.654415
2.16565
6.33024
17.2636
42.5124
94.5791
198.388
409.73
825.992
1482.94
2248.04
2971.3
3491.82
3759.49
3820.5
3737.55
3565.15
3344.32
3102.79
2857.84
2619.52
2393.33
2181.85
1986.11
1806.16
1641.58
1491.8
1356.2
1234.21
1125.76
1028.29
949.509
0.0011578
0.00588194
0.00792423
0.0102041
0.00804661
0.00513959
0.00271039
0.00139881
0.000824001
0.000492607
0.000306165
0.000184678
0.000113514
7.0294e-05
4.32672e-05
2.67266e-05
1.65568e-05
1.02433e-05
6.42455e-06
4.09292e-06
2.71542e-06
1.87435e-06
1.39296e-06
1.12182e-06
1.12608e-06
1.46665e-06
1.49326e-06
1.34692e-06
1.28931e-06
1.30574e-06
1.34246e-06
1.37823e-06
1.3723e-06
1.37851e-06
1.61726e-06
0.00361849
0.0275052
0.14405
0.643309
2.15615
6.31893
17.244
42.4775
94.5055
197.858
407.485
820.516
1476.95
2251.4
2997.88
3550.25
3840.49
3914.06
3836.33
3663.99
3440.24
3193.87
2943
2698.43
2465.95
2248.42
2046.86
1861.39
1691.67
1537.04
1396.87
1270.57
1157.68
1058.26
969.945
900.748
0.00104114
0.00547229
0.00782
0.0100645
0.00790354
0.00498454
0.00266091
0.00139652
0.000825995
0.00049388
0.000307165
0.000185345
0.000113957
7.05824e-05
4.34185e-05
2.68133e-05
1.65991e-05
1.02721e-05
6.43934e-06
4.10227e-06
2.71939e-06
1.87832e-06
1.398e-06
1.12153e-06
1.03804e-06
1.3334e-06
1.50525e-06
1.36611e-06
1.2965e-06
1.31235e-06
1.34969e-06
1.38667e-06
1.38048e-06
1.38766e-06
1.63322e-06
0.00380693
0.0283013
0.140463
0.635922
2.15959
6.3479
17.3219
42.6533
94.8409
198.05
405.964
814.823
1470.73
2255.65
3023.85
3608.07
3922.22
4008.72
3936.17
3764.39
3537.93
3286.72
3030.04
2779.19
2540.43
2316.77
2109.39
1918.39
1743.38
1583.82
1438.99
1308.26
1191.16
1087.33
997.019
918.044
858.787
0.000934735
0.00511712
0.00775218
0.00994447
0.00774217
0.00483145
0.00261514
0.00139616
0.000828116
0.000495305
0.000308211
0.000186098
0.000114452
7.08861e-05
4.35776e-05
2.69033e-05
1.66453e-05
1.03018e-05
6.45443e-06
4.11238e-06
2.72345e-06
1.88193e-06
1.40349e-06
1.12287e-06
9.91608e-07
1.1843e-06
1.45913e-06
1.3854e-06
1.30416e-06
1.31844e-06
1.35652e-06
1.39502e-06
1.38868e-06
1.39692e-06
1.64969e-06
0.00402069
0.0294971
0.138315
0.62738
2.1642
6.37736
17.4079
42.8415
95.1598
198.174
404.315
809.281
1465.61
2261.1
3049.9
3665.08
4004.93
4104.22
4037.13
3866.25
3637
3381.13
3118.69
2861.67
2616.61
2386.82
2173.56
1977.02
1796.75
1632.13
1482.57
1347.34
1225.92
1117.94
1023.21
942.177
872.761
823.804
0.000831649
0.00480338
0.00772259
0.00977094
0.00758071
0.00468637
0.00257249
0.00139664
0.000830533
0.000496961
0.000309257
0.000186901
0.000115002
7.12163e-05
4.37474e-05
2.69953e-05
1.66957e-05
1.03341e-05
6.47031e-06
4.12335e-06
2.72847e-06
1.88575e-06
1.40798e-06
1.12574e-06
9.79264e-07
1.05836e-06
1.37988e-06
1.40593e-06
1.3135e-06
1.32398e-06
1.36299e-06
1.40329e-06
1.39695e-06
1.40638e-06
1.66675e-06
0.00426112
0.0310057
0.137624
0.616954
2.17296
6.42269
17.544
43.145
95.6798
198.65
403.32
804.625
1461.46
2267.58
3076.56
3721.08
4087.82
4200.4
4139.46
3969.21
3737.27
3476.8
3208.77
2945.61
2694.35
2458.42
2239.3
2037.16
1851.64
1682.02
1527.61
1387.83
1262.03
1149.8
1050.94
965.428
893.888
834.274
795.901
0.000725348
0.00448288
0.00772823
0.00957426
0.00737882
0.00456627
0.00253138
0.00139655
0.000833224
0.000498972
0.000310404
0.000187708
0.000115575
7.15788e-05
4.39384e-05
2.70914e-05
1.6749e-05
1.03707e-05
6.48679e-06
4.13488e-06
2.73434e-06
1.88981e-06
1.41135e-06
1.12998e-06
9.79176e-07
9.77303e-07
1.26823e-06
1.40928e-06
1.3251e-06
1.32888e-06
1.36905e-06
1.41154e-06
1.40534e-06
1.41614e-06
1.68451e-06
0.00452927