/*--------------------------------*- C++ -*----------------------------------*\
| =========                 |                                                 |
| \\      /  F ield         | OpenFOAM: The Open Source CFD Toolbox           |
|  \\    /   O peration     | Version:  v2012                                 |
|   \\  /    A nd           | Website:  www.openfoam.com                      |
|    \\/     M anipulation  |                                                 |
\*---------------------------------------------------------------------------*/
FoamFile
{
    version     2.0;
    format      ascii;
    class       volScalarField;
    location    "12000";
    object      I2_1;
}
// * * * * * * * * * * * * * * * * * * * * * * * * * * * * * * * * * * * * * //

dimensions      [0 0 0 0 0 0 0];


internalField   nonuniform List<scalar> 
27324
(
0.00867614
0.0147159
0.0697255
0.0238683
0.0838199
0.0993924
0.0331565
0.0941961
0.111812
0.113055
0.0435631
0.104198
0.119757
0.123877
0.121512
0.0503125
0.113528
0.127821
0.1308
0.129886
0.124119
0.0549948
0.121183
0.135373
0.137942
0.135988
0.129429
0.114391
0.020831
0.127331
0.141504
0.144918
0.142252
0.136004
0.115231
0.0643042
0.00934159
0.119186
0.149802
0.150619
0.149011
0.142001
0.125516
0.0616958
0.0114121
0.0209813
0.0288212
0.15076
0.160307
0.155339
0.149017
0.132546
0.0849483
0.0106921
1.14152e-06
0.0185723
1.85304e-06
0.0711838
0.158527
0.161793
0.154879
0.142781
0.100443
0.033666
0.000345973
0.00550927
0.00528999
0.00349338
0.00720294
0.0786465
0.148893
0.156382
0.148978
0.122087
0.0549628
0.00387762
0.00957628
0.0127458
0.0364739
0.0167968
0.000457366
0.00995885
0.054186
0.117703
0.147336
0.136648
0.0851619
0.0165694
0.000858096
0.0169657
0.0161661
0.0510227
0.0964109
0.0268189
8.41749e-05
0.00469939
0.0159763
0.0650261
0.121545
0.115895
0.046219
0.00185546
0.00481482
0.0207512
0.0146652
0.0570785
0.104838
0.104442
0.0230128
0.000242152
2.65936e-05
0.00107381
0.0212671
0.0596474
0.0913157
0.034469
5.68848e-05
0.00612929
0.0246925
0.006434
0.0566137
0.107731
0.11123
0.102683
0.0184532
0.00365419
0.0057164
3.38272e-05
0.00573706
0.0138984
0.0654351
0.057561
0.00188678
0.00246615
0.0253436
0.00300972
0.057279
0.106622
0.111145
0.110106
0.103173
0.00574785
0.0145886
0.0119429
0.000498993
0.00145221
0.00264151
0.034963
0.0965988
0.0489289
0.000288522
0.0130046
0.00240867
0.0563039
0.10626
0.109868
0.110093
0.11291
0.102648
0.00820885
0.0214638
0.0153329
0.000813182
0.00032908
0.000610017
0.00745869
0.0535259
0.0823842
0.0895083
0.00322101
0.0474542
0.0549885
0.105027
0.109261
0.109973
0.113454
0.117581
0.0816801
0.0232694
0.0217809
0.0174773
0.000765096
7.16682e-05
0.00033999
0.0021327
0.00746328
0.0321746
0.00856511
0.00711868
0.000120438
0.0549245
0.104007
0.108959
0.110699
0.114652
0.118946
0.118533
0.00641334
0.00860725
0.0183129
0.0198619
0.000477614
1.29345e-05
0.000138993
0.00148294
0.00202518
0.00794319
4.00264e-06
0.00223389
0.00241562
0.0553479
0.103956
0.109647
0.111883
0.115987
0.120179
0.12107
0.109266
0.0256053
0.00182562
0.0113784
0.0212691
0.000145712
5.52318e-05
0.00032732
0.00160931
0.0026156
0.00148454
0.00117635
0.000467702
0.00212298
0.0558186
0.104273
0.111305
0.113796
0.117495
0.120521
0.121019
0.116881
0.07169
0.0154728
0.000106344
0.000756843
0.0208087
7.44517e-06
0.000853114
0.00392573
0.0085053
0.00772492
0.00292626
0.000436852
0.00385602
0.0109047
0.0570884
0.104859
0.112918
0.116161
0.119193
0.121
0.120635
0.116112
0.104978
0.000575721
0.0046328
0.000202341
0.0285932
0.019412
0.00171188
0.0244352
0.0753381
0.101022
0.0637658
0.0217571
0.000191296
0.0693265
0.0018105
0.0597082
0.106146
0.114744
0.118072
0.12079
0.121417
0.120332
0.115685
0.104251
0.0830105
0.0218702
0.000826476
0.000755771
0.139328
0.00980132
0.001306
0.00298065
0.00133766
0.000905244
0.0020976
0.00213851
0.00822912
0.00069315
0.000367149
0.0635804
0.10817
0.116473
0.119559
0.121542
0.121951
0.120634
0.11564
0.101232
0.0828149
0.0500968
0.0023472
9.8378e-05
0.000647428
0.120679
0.000258483
0.00671703
0.012042
0.00938666
0.0106888
0.0109793
0.000151224
0.00630591
0.000615733
0.000366613
0.0672527
0.110305
0.117768
0.120332
0.121621
0.121944
0.121832
0.117171
0.100438
0.0787211
0.0633626
0.00775368
5.99696e-05
6.59129e-06
3.68964e-05
0.056772
0.000682081
0.0113625
0.00897235
0.00773869
0.00854324
0.00356643
0.00991364
0.000300351
1.95447e-07
7.25389e-07
0.0719049
0.11295
0.118998
0.120992
0.121346
0.121817
0.122546
0.120087
0.101784
0.0803612
0.0596495
0.0212025
8.72931e-05
5.03838e-06
1.07285e-05
0.00128973
2.5706e-05
0.0038498
0.00571148
0.00381046
0.00327763
0.00316073
0.000645138
6.49549e-05
1.11952e-05
0.000112111
1.3957e-05
0.0764503
0.115101
0.119931
0.121195
0.121136
0.121829
0.12313
0.121414
0.105903
0.0853537
0.064265
0.0238725
0.000228026
0.000229727
9.61416e-05
0.000390939
0.000137132
1.42828e-05
0.00365201
0.00299894
0.00218354
0.00147706
0.000103439
4.13993e-06
8.03739e-06
6.41243e-05
3.24688e-05
5.40638e-05
0.0797533
0.1168
0.119737
0.120355
0.12061
0.121471
0.123659
0.121844
0.108459
0.0928863
0.0712474
0.0286989
0.00266526
0.0036492
0.000125547
0.000249443
0.00563853
0.0295908
0.00200725
0.00397728
0.0015579
0.000941867
7.52802e-05
5.86166e-05
9.99921e-06
3.39816e-05
4.03785e-06
2.718e-05
0.000142049
0.0812059
0.117632
0.119163
0.119355
0.120186
0.12167
0.124093
0.121811
0.110324
0.098495
0.0778776
0.0364024
0.00603508
5.49259e-05
0.00123541
3.87318e-05
0.00024658
0.0116756
0.000830267
0.00400983
0.0011727
0.000259395
1.73302e-05
4.18381e-05
5.53949e-05
3.7675e-06
8.35041e-06
3.00376e-05
0.000113397
0.000106999
0.0826695
0.117626
0.118503
0.118587
0.120268
0.122015
0.124381
0.12171
0.111068
0.103048
0.0822338
0.0413477
0.0125076
2.38295e-05
0.00255111
0.000139799
3.38524e-05
1.26807e-06
8.76638e-05
0.000438973
0.000500015
1.99551e-05
0.000193544
0.000439043
0.000158772
3.9903e-06
8.07586e-06
9.37685e-06
0.00011264
0.000144577
3.58484e-07
0.0826067
0.116973
0.118096
0.118364
0.120651
0.122439
0.124731
0.120837
0.111013
0.104672
0.086547
0.0445273
0.0166011
0.001742
1.82212e-05
0.000563461
1.64928e-05
5.20361e-05
2.20577e-05
0.000649907
3.54013e-05
4.00511e-05
0.000297109
0.000302118
2.71563e-05
2.26578e-05
1.51007e-06
3.53757e-07
8.50839e-05
0.000152669
3.51652e-06
0.000138376
0.0816986
0.115483
0.117052
0.118555
0.121179
0.122712
0.124705
0.120678
0.111298
0.104461
0.0871627
0.0500902
0.0189448
0.00400323
0.000542013
2.64739e-05
1.63977e-05
4.01343e-07
0.000136274
0.00153029
1.13285e-05
0.000283974
0.000292637
0.000121729
2.04014e-06
4.3896e-05
4.02374e-06
4.87747e-06
5.49019e-05
0.000164876
4.10422e-06
0.000199257
8.60508e-05
0.08112
0.114493
0.117001
0.119584
0.121658
0.122818
0.124457
0.120121
0.110297
0.104119
0.0858064
0.0534965
0.0237324
0.00591367
0.00219729
0.000128037
1.8348e-05
2.91452e-06
1.58273e-05
1.74298e-05
9.38066e-05
0.00101566
0.000219712
6.09717e-06
3.21753e-05
3.41e-05
1.61029e-05
1.41139e-05
2.63222e-05
0.000166124
5.17875e-06
0.000160216
6.2474e-05
0.000913628
0.0823666
0.114369
0.118321
0.121482
0.122606
0.122764
0.124288
0.1194
0.108625
0.101667
0.0813832
0.0527048
0.0281415
0.00866166
0.00399853
0.00102843
0.000269979
4.96713e-05
7.51292e-06
0.000195216
0.00263257
0.000800048
7.34509e-05
1.61843e-05
5.37482e-05
8.86216e-12
7.2819e-06
6.90119e-06
5.82288e-06
0.000144592
5.41454e-06
0.000144503
3.27457e-05
0.00223115
0.002833
0.0858988
0.11561
0.120169
0.123076
0.123114
0.122494
0.124089
0.118718
0.106326
0.0998161
0.0773992
0.0491311
0.0279509
0.0111401
0.00565143
0.00231448
0.000239348
0.000637146
1.76708e-05
1.29516e-05
0.000383435
0.000537119
1.62448e-05
9.36069e-05
6.08828e-05
2.1459e-06
2.78187e-07
1.75789e-06
7.63988e-08
0.000104181
4.75908e-06
0.000112194
4.76649e-06
0.00201136
0.00751583
8.17242e-05
0.0891966
0.11729
0.121854
0.12411
0.122854
0.12196
0.123932
0.117971
0.104388
0.0977492
0.074645
0.0459428
0.0238122
0.0117216
0.00652695
0.00334043
0.00149669
0.000387576
7.40393e-05
2.29695e-05
5.15908e-06
0.00044303
0.000175901
0.000176398
4.35882e-05
1.36393e-05
4.01507e-06
3.11561e-05
3.58621e-06
5.73096e-05
4.61047e-06
7.71751e-05
3.52976e-06
0.00256625
0.00724513
0.00111521
0.00134147
0.0937012
0.119684
0.122989
0.124146
0.122413
0.121595
0.123993
0.117284
0.103319
0.0968712
0.0715188
0.0431521
0.0194523
0.00921954
0.00613249
0.00261447
0.00188984
0.000584047
0.000407544
1.14044e-05
5.71e-05
6.73682e-05
9.58397e-06
0.000245371
2.11206e-05
4.76056e-05
4.67011e-06
5.31508e-05
1.38667e-06
1.76752e-05
4.48538e-06
4.24672e-05
4.09435e-05
0.00310819
0.00784065
0.00333414
0.00134973
0.00436248
0.0989279
0.121797
0.124119
0.124038
0.122081
0.1215
0.124073
0.116392
0.102824
0.0970348
0.0697273
0.0393288
0.0152903
0.00579866
0.00431811
0.00145621
0.000692544
0.00112688
0.000310648
2.20696e-05
5.13052e-06
2.79798e-06
3.01775e-07
0.000326808
2.45175e-06
5.05564e-05
1.69313e-05
4.73164e-05
4.3829e-06
4.54322e-07
3.56185e-06
2.15435e-05
0.000121903
0.00391839
0.00737079
0.00581067
2.67921e-06
0.0077956
0.00690865
0.102
0.123534
0.123615
0.122761
0.121605
0.122029
0.12441
0.115889
0.102801
0.0970588
0.0694154
0.0359803
0.0106159
0.00356079
0.00188691
0.000472216
0.000115033
0.000486413
3.62383e-06
3.05062e-05
2.77999e-06
2.19653e-05
0.000385151
6.43848e-05
1.95523e-05
5.3179e-05
1.58515e-06
3.67047e-05
3.54921e-05
4.31393e-06
2.19799e-06
8.2061e-06
0.000289569
0.00478542
0.00694255
0.00689901
0.000416203
0.00258517
0.0141511
0.00866421
0.103979
0.123826
0.122418
0.120994
0.121411
0.122486
0.124773
0.116124
0.103975
0.0979231
0.0695781
0.0346359
0.00705056
0.00167884
0.000630051
2.44274e-05
3.37714e-05
1.47524e-05
4.58602e-05
3.45444e-05
2.48218e-05
5.21035e-06
9.4862e-05
0.000354109
0.000173829
3.07202e-05
6.71225e-08
2.0524e-08
5.50592e-05
6.2345e-06
3.42578e-07
3.89291e-07
0.000657043
0.00525301
0.00677251
0.0075166
0.00168011
0.00121785
0.00680338
0.0187677
0.0097349
0.104669
0.123658
0.121215
0.120172
0.121599
0.123495
0.125083
0.116769
0.105489
0.0984361
0.0698673
0.0346859
0.00539266
0.00073618
8.34232e-05
2.23415e-05
0.000300229
7.18886e-05
0.00037645
2.80315e-05
7.97374e-05
3.64211e-05
1.72405e-05
5.16297e-05
0.000246754
8.18201e-07
4.48566e-06
2.49377e-06
3.93925e-05
1.42856e-07
8.8319e-07
3.66099e-06
0.00134228
0.0051983
0.00690552
0.00728768
0.0033155
0.000197024
0.00538154
0.0103453
0.0217479
0.0100687
0.104065
0.122869
0.120574
0.120067
0.122073
0.12449
0.124424
0.11705
0.106903
0.0989382
0.0718634
0.0361994
0.00503434
0.000507486
7.51934e-06
5.98454e-05
0.000360434
0.000233814
0.000603088
0.000206966
0.000217068
6.42292e-05
1.0069e-05
1.47735e-05
2.83478e-05
2.15608e-05
1.05955e-05
5.79881e-07
2.54367e-05
3.00555e-05
7.61076e-06
2.09631e-05
0.00266374
0.00481231
0.00734273
0.00667116
0.00479545
4.35026e-05
0.00331165
0.00947455
0.0128673
0.0230396
0.0094911
0.103377
0.121215
0.120316
0.120377
0.12235
0.124789
0.124214
0.116964
0.107182
0.0991186
0.0739652
0.0387919
0.00645359
0.000486658
4.74345e-06
8.61936e-06
0.000119028
0.000255536
0.000652568
0.000288445
1.44284e-05
2.5933e-05
3.3882e-06
4.38107e-06
1.08178e-05
6.87821e-05
1.20107e-05
7.14753e-06
5.10973e-07
9.75111e-05
1.41057e-05
4.87896e-05
0.00497094
0.00415313
0.00794385
0.00600469
0.00574651
0.000689416
0.00164519
0.00737026
0.0126412
0.0142039
0.0224185
0.0060358
0.104717
0.121259
0.121006
0.120962
0.122363
0.124809
0.123552
0.116087
0.106771
0.0988355
0.0766437
0.0429524
0.00906468
0.00098894
2.83454e-06
4.3206e-07
1.57292e-07
7.97454e-05
0.000261557
1.3979e-06
4.86412e-05
6.41288e-06
1.45435e-06
2.69028e-05
7.00507e-06
4.92305e-05
4.01699e-06
3.25642e-06
2.12512e-06
0.0001396
5.80651e-06
7.7945e-05
0.00787464
0.00379031
0.00847928
0.00561689
0.00590493
0.00188688
0.00047026
0.00542023
0.0108623
0.0144968
0.0143016
0.0162919
0.000228109
0.107957
0.122268
0.123027
0.122476
0.122324
0.124737
0.123044
0.114623
0.10454
0.0955978
0.0778896
0.0469381
0.0134226
0.00220416
5.51545e-07
2.18869e-05
1.05874e-05
1.46973e-05
1.635e-06
0.000262798
0.000557982
7.06853e-05
1.05048e-06
1.59192e-05
1.17243e-06
1.38778e-06
3.83604e-08
1.02354e-05
1.03159e-05
0.000151549
2.46667e-06
9.69635e-05
0.0101317
0.00387662
0.00860207
0.00566387
0.0054506
0.00320795
4.30582e-06
0.00348017
0.00916128
0.0131121
0.0150825
0.0109094
0.00288441
0.00514301
0.110639
0.12372
0.123986
0.122561
0.122286
0.124676
0.122782
0.113235
0.102645
0.0926909
0.0776958
0.0481624
0.0173007
0.00465678
2.82434e-05
0.000159255
5.07806e-05
7.97291e-05
0.000214321
0.000837402
0.000758314
2.31986e-06
9.40292e-06
1.94248e-06
1.38539e-05
0.000143206
2.19797e-06
2.54293e-06
4.40142e-06
9.23286e-05
3.86373e-05
0.000108377
0.0100583
0.00636659
0.00811251
0.00621323
0.00477078
0.00420829
0.00029527
0.00179371
0.00724851
0.0117995
0.01422
0.0122199
0.00178204
0.00269484
0.0156926
0.115264
0.12489
0.123886
0.122252
0.121688
0.124754
0.122782
0.112253
0.101331
0.0899312
0.0758709
0.0476759
0.0187713
0.00754824
0.000444702
0.000148451
0.000258899
2.5928e-06
0.00044592
0.00140696
0.000907075
5.68875e-05
6.16657e-05
3.79622e-05
1.5837e-05
0.000133795
9.30739e-06
9.22889e-07
8.05592e-09
2.04989e-06
8.12509e-05
0.000128226
0.00855661
0.0128799
0.0069508
0.00730171
0.00415176
0.00463608
0.00119544
0.000571422
0.00529387
0.0101731
0.0134203
0.0123479
0.00251908
0.0032015
0.0137446
0.0205103
0.117193
0.126002
0.123314
0.121835
0.121954
0.125032
0.122504
0.111826
0.100697
0.0874676
0.0727342
0.044048
0.0186919
0.00867115
0.00171982
1.6138e-05
0.000400692
0.000158057
0.000117086
0.00117854
0.00048304
5.82205e-05
3.86148e-05
6.61528e-05
2.07111e-06
2.97245e-05
7.94589e-07
7.78718e-07
7.3846e-07
7.61844e-06
9.3599e-05
0.000250693
0.00680221
0.0255569
0.00603065
0.0086724
0.0038561
0.004467
0.00235917
1.80903e-05
0.00339891
0.00838665
0.0122527
0.0125091
0.00302387
0.00267688
0.0150358
0.0191861
0.0216209
0.11795
0.125278
0.120927
0.121057
0.122513
0.125573
0.122865
0.111299
0.100551
0.0857544
0.0693222
0.0390315
0.015303
0.00823041
0.00241797
0.000206849
0.000276412
0.000209787
1.41473e-06
0.000336297
7.43647e-05
4.14606e-08
7.52323e-07
0.000122046
2.46999e-05
3.97047e-06
1.03364e-05
8.92995e-06
5.56372e-07
5.04679e-05
0.000118335
0.000651562
0.00587466
0.0428204
0.00477651
0.00990693
0.00403389
0.00392677
0.00335099
0.000240508
0.00174224
0.00647731
0.0108356
0.0123024
0.00365563
0.00231246
0.0150924
0.0212052
0.0202696
0.0217044
0.118303
0.124474
0.119207
0.120897
0.12349
0.126044
0.123135
0.112081
0.100932
0.0852254
0.066469
0.0341229
0.0115955
0.0050851
0.00173204
0.000623481
2.61045e-05
8.74962e-05
1.99441e-05
1.42892e-05
2.11773e-05
4.91414e-05
3.26945e-05
0.000356066
8.98513e-05
2.68284e-05
4.67319e-06
4.20861e-05
3.7804e-07
6.44483e-05
0.000227907
0.00159973
0.00550464
0.0545809
0.00500186
0.0107343
0.00479102
0.0033026
0.00385832
0.00114057
0.000543238
0.00455802
0.00913808
0.0117901
0.00430598
0.00194007
0.0152222
0.0220961
0.0225512
0.020199
0.0213569
0.11768
0.123369
0.118729
0.121326
0.124505
0.126276
0.123516
0.113108
0.101615
0.0852461
0.0651567
0.0310429
0.00821232
0.00259713
0.000326963
0.000211679
1.62268e-05
1.87712e-05
7.41326e-06
6.5495e-07
0.000178563
0.00017177
0.000303915
0.000446745
6.23143e-05
1.99218e-05
4.15164e-06
2.37638e-06
5.66459e-06
2.11916e-05
0.000226063
0.00351098
0.00589443
0.0546689
0.00784163
0.010633
0.00617423
0.00284507
0.00377811
0.00239402
1.13506e-05
0.00277469
0.00722749
0.0109816
0.00486107
0.00159638
0.0152846
0.0230657
0.0237255
0.0225869
0.0197089
0.0206591
0.120052
0.123026
0.118601
0.121793
0.124948
0.12572
0.122525
0.114142
0.102544
0.0865565
0.0655186
0.0303041
0.00694785
0.0012125
5.53139e-06
4.40661e-06
1.78948e-05
0.000186832
0.000164139
7.92315e-05
0.000186871
0.000174683
0.000271213
2.40076e-07
1.98987e-06
1.11864e-06
5.67758e-05
9.7527e-05
8.36083e-06
3.42313e-06
0.000399924
0.00737711
0.00709427
0.0475394
0.0141229
0.0100984
0.0081021
0.00271616
0.00326518
0.00355534
0.000291367
0.00129422
0.00525424
0.00977187
0.00524357
0.00126199
0.0153152
0.0240116
0.0249948
0.0238296
0.0221652
0.0189304
0.0197158
0.12352
0.124831
0.120408
0.122449
0.125009
0.125096
0.121847
0.114112
0.103582
0.0885161
0.0670647
0.0333117
0.00707423
0.000880798
9.06637e-06
8.20226e-05
0.000253708
6.63253e-05
0.000246594
0.000257579
3.19898e-05
5.33695e-05
9.24104e-05
5.88658e-07
4.94764e-05
3.99424e-05
6.24109e-05
0.000141479
1.22099e-06
2.24261e-06
0.00102437
0.0145076
0.00953864
0.0379668
0.0408313
0.00802306
0.010244
0.00303418
0.00260859
0.00420108
0.00133273
0.00029903
0.00336254
0.00820399
0.00546325
0.000961548
0.0153202
0.0249335
0.0262927
0.0251644
0.0234373
0.0214103
0.0179804
0.0186719
0.125969
0.126429
0.121691
0.12323
0.125088
0.124511
0.120793
0.113731
0.102648
0.09031
0.0700529
0.0381843
0.0105041
0.000699168
1.79484e-08
3.47931e-05
0.00029945
2.05944e-05
8.1633e-05
0.000225913
3.10333e-07
3.20906e-06
2.14316e-07
0.000140785
0.000112557
6.90371e-05
3.6155e-05
1.48291e-05
3.1964e-06
1.34917e-05
0.000997704
0.022512
0.0152492
0.0325496
0.073278
0.00642159
0.0120873
0.00393072
0.00205094
0.00417984
0.00282252
8.92243e-06
0.00175163
0.00638408
0.00544823
0.000718195
0.0152881
0.0258348
0.0276146
0.0265352
0.0247872
0.0226832
0.0204506
0.0169949
0.0176559
0.128522
0.127232
0.121852
0.12313
0.124898
0.124301
0.120182
0.112972
0.101063
0.089532
0.0722487
0.0436239
0.0148266
0.00116121
3.72264e-06
8.34562e-06
0.000108476
5.02324e-05
1.19068e-07
6.24682e-06
4.48406e-06
2.43001e-05
2.48449e-05
0.000211508
6.59754e-07
8.01508e-05
4.83034e-07
2.83871e-06
1.95456e-07
4.79009e-05
0.00117782
0.00227615
0.0292439
0.0311761
0.0900146
0.00844226
0.0127208
0.00553303
0.00174507
0.00362816
0.00422957
0.000578046
0.000573678
0.00447136
0.00514671
0.000536712
0.0152354
0.0267231
0.0289656
0.0279356
0.0261835
0.024032
0.0216855
0.019415
0.0160817
0.0167751
0.129121
0.127707
0.122554
0.123211
0.124779
0.123966
0.120001
0.112724
0.0993486
0.0871331
0.0711782
0.0476381
0.0201972
0.00272475
0.000112814
1.14145e-08
3.00917e-07
6.71974e-06
4.35426e-05
6.7947e-05
0.000108519
2.56343e-06
2.41848e-05
0.000138809
1.07949e-05
0.000132391
4.92029e-05
4.7681e-05
9.48696e-05
7.27656e-05
0.00220165
0.0056346
0.0564727
0.0334811
0.0902666
0.0139546
0.0123541
0.00785905
0.00176288
0.00284052
0.00506455
0.00197422
1.69955e-05
0.00268954
0.00453989
0.000415187
0.0151776
0.0276119
0.0303454
0.0293683
0.0276091
0.0254183
0.0230067
0.0205913
0.0184203
0.0153271
0.0161135
0.129662
0.127147
0.122542
0.123769
0.125075
0.124154
0.12012
0.11275
0.0978401
0.0839072
0.0676327
0.0476153
0.0244063
0.00563804
4.90866e-05
0.000167648
3.96225e-07
0.00011778
0.000376492
4.32756e-05
0.000193046
2.4337e-05
2.207e-07
5.59403e-05
7.9933e-06
0.000189627
7.64827e-05
6.28575e-05
1.64775e-05
8.12612e-05
0.00350439
0.012909
0.0825834
0.0386461
0.0816594
0.0273142
0.011309
0.0106148
0.00219155
0.00212442
0.0051001
0.00384759
0.000305284
0.00122676
0.00369211
0.00035366
0.0151442
0.0285043
0.0317525
0.03083
0.0290675
0.0268442
0.0243667
0.0218535
0.0195107
0.0175582
0.0147945
0.0157212
0.131458
0.127026
0.122773
0.124097
0.124766
0.124293
0.120826
0.113731
0.0973352
0.0807509
0.0638964
0.0443513
0.0241024
0.00890407
5.29706e-05
0.000272184
7.1228e-05
5.44253e-05
0.000488949
1.47263e-05
0.000106401
1.77658e-05
2.71947e-06
2.85685e-05
2.88027e-05
4.94856e-05
2.9221e-05
2.39427e-05
1.27599e-05
0.000286283
0.00593397
0.0115672
0.0575271
0.0505245
0.0714461
0.0632053
0.0101452
0.0131623
0.00317974
0.00165801
0.00446494
0.00556828
0.00161759
0.000264273
0.00271567
0.000355067
0.0151629
0.0294123
0.03319
0.0323295
0.0305533
0.028299
0.0257605
0.0231601
0.0207097
0.0185399
0.0168833
0.0145216
0.015622
0.134591
0.127881
0.12329
0.124474
0.124514
0.12386
0.121271
0.114535
0.0971946
0.0792344
0.0608319
0.0409231
0.0204827
0.00850912
0.000659037
0.000129369
8.01437e-05
9.30884e-06
0.000323623
8.49765e-05
1.57368e-05
7.24134e-06
3.41e-10
3.27632e-05
4.26592e-05
2.36777e-06
2.06611e-08
1.28196e-06
0.000105761
0.000793357
0.00935097
0.0130584
0.00418319
0.0737888
0.0666223
0.097929
0.00973636
0.0147808
0.00488464
0.00150667
0.00352225
0.00655176
0.0038789
2.40103e-05
0.00173529
0.000421804
0.0152843
0.0303448
0.0346688
0.0338658
0.0320671
0.0297847
0.0271876
0.0244998
0.0219328
0.0196541
0.0177554
0.0164355
0.0145312
0.0158465
0.138119
0.129195
0.123982
0.124596
0.124233
0.12346
0.121947
0.115238
0.0975345
0.0789773
0.0598403
0.039258
0.0173612
0.00577449
0.000449425
1.80333e-06
5.32068e-08
4.17979e-07
9.44916e-06
1.67008e-05
1.41646e-08
4.84462e-05
1.114e-05
4.93972e-05
2.07969e-05
2.49474e-06
3.44147e-05
4.31449e-05
4.4782e-05
0.00571102
0.0133159
0.0144541
0.00515038
0.10266
0.0677817
0.111408
0.0140271
0.0150885
0.00734197
0.00170966
0.00264103
0.00653246
0.00659502
0.000819847
0.000868787
0.000560597
0.0155608
0.0313105
0.0362003
0.0354482
0.0336139
0.0312948
0.0286431
0.0258781
0.0231986
0.0207849
0.0187607
0.0171873
0.016244
0.0148351
0.0164148
0.141972
0.130556
0.124115
0.124521
0.124061
0.123015
0.122608
0.115695
0.0978894
0.0797217
0.0618974
0.0396585
0.0166935
0.00417261
5.56083e-05
1.11158e-05
5.57585e-05
9.29571e-05
3.0199e-06
1.31865e-05
1.27012e-05
5.77147e-05
3.85683e-08
4.47814e-05
1.57866e-05
4.42376e-05
7.06816e-05
8.83121e-05
1.08326e-07
0.00649885
0.0152032
0.0161187
0.0157301
0.107998
0.0759331
0.109991
0.0257534
0.0142179
0.0103266
0.00235636
0.00204726
0.00567923
0.00895167
0.00291829
0.000221104
0.000764049
0.0160449
0.0323319
0.0377867
0.0370873
0.0351951
0.032831
0.0301283
0.0272833
0.0245009
0.0219628
0.0197882
0.0180781
0.0168767
0.0163246
0.0154362
0.0173237
0.144619
0.132121
0.123782
0.124419
0.123653
0.122628
0.123104
0.115865
0.0962799
0.0801306
0.0641358
0.043004
0.0167797
0.00431387
7.71001e-05
8.35563e-05
3.48434e-05
0.000236708
1.1658e-05
4.2252e-06
2.56031e-05
6.33503e-06
4.74023e-05
4.87185e-07
2.46368e-05
5.02382e-05
2.10155e-05
0.000116824
5.12559e-05
0.00326321
0.012813
0.0181385
0.0204527
0.065438
0.0921514
0.102062
0.0493824
0.013012
0.0132611
0.00362208
0.00180227
0.004485
0.0101655
0.00622806
9.96503e-06
0.00100832
0.0167417
0.0334349
0.0394302
0.0387938
0.0368239
0.0343961
0.0316309
0.0287149
0.0258373
0.0231709
0.0208563
0.0189904
0.0176367
0.0168387
0.0166931
0.0163709
0.0185978
0.147437
0.133183
0.123433
0.123981
0.123435
0.122423
0.123569
0.115799
0.0939872
0.0794457
0.0653469
0.0467025
0.0188725
0.00431053
0.000329756
6.34196e-06
5.7931e-06
0.000123695
1.5179e-05
4.87462e-07
5.0345e-06
6.54175e-10
0.000130449
2.2517e-05
3.36294e-05
0.000106418
3.04901e-05
0.000189662
0.00019861
0.00128699
0.00598283
0.0224092
0.0224002
0.00759149
0.114069
0.0915738
0.0895422
0.012547
0.0153399
0.00567163
0.00193612
0.00338153
0.00999756
0.0100037
0.000619575
0.0013387
0.0175409
0.034664
0.04114
0.040571
0.0385067
0.0359993
0.0331649
0.0301713
0.0272002
0.024414
0.0219593
0.0199403
0.0184255
0.0174654
0.0170706
0.0173762
0.0176372
0.0202734
0.151053
0.134544
0.123447
0.123168
0.123094
0.122522
0.124617
0.115572
0.0916168
0.0787654
0.065316
0.0492825
0.0215172
0.00357255
0.000536434
1.51744e-05
1.55243e-07
1.38524e-06
4.53372e-05
8.55312e-06
2.26765e-05
5.53629e-05
0.000120501
1.43326e-05
3.30809e-05
0.000109093
1.39246e-05
0.000423878
0.000511615
0.00137244
0.0186585
0.0285293
0.0238124
0.00301457
0.127705
0.0868281
0.112396
0.0141888
0.0160462
0.00852546
0.00254109
0.00261792
0.0088006
0.0130321
0.002452
0.00187541
0.0182506
0.0360243
0.0429176
0.0424243
0.0402516
0.0376448
0.0347301
0.0316499
0.0285862
0.0256868
0.0230981
0.0209259
0.0192503
0.018117
0.0175675
0.017611
0.0183795
0.0192563
0.0223492
0.154723
0.136351
0.123659
0.122236
0.12239
0.123221
0.125568
0.115246
0.0891646
0.0782191
0.0649735
0.0502421
0.0235039
0.00346107
0.000232237
4.94877e-05
6.46228e-05
3.29197e-07
8.09476e-05
0.000153978
3.6803e-05
0.000251687
3.99372e-05
1.01683e-07
1.3291e-05
0.000160244
3.15569e-07
0.000776215
0.00105511
0.00215824
0.0778993
0.0304558
0.0250408
0.0127684
0.114359
0.0912956
0.118514
0.0239982
0.0155148
0.0119095
0.00379228
0.00227446
0.00717238
0.0144235
0.00541775
0.00281116
0.018806
0.0374338
0.0447884
0.0443616
0.0420605
0.0393466
0.0363305
0.0331562
0.029993
0.0269841
0.0242627
0.0219453
0.0201122
0.0188107
0.0180798
0.0179522
0.0184716
0.0197237
0.0212499
0.0248632
0.156997
0.137931
0.123564
0.121078
0.121639
0.124497
0.126414
0.114401
0.0872945
0.0779513
0.0646001
0.0501377
0.0237419
0.00376702
0.000153194
1.71992e-06
0.00010801
0.000117028
2.14395e-05
0.00011578
3.26145e-06
0.000258861
3.64555e-06
3.63534e-05
1.90007e-06
0.00026511
5.68713e-07
0.000811844
0.00255177
0.00406468
0.0544555
0.0266769
0.0261591
0.0215577
0.0642406
0.105657
0.113681
0.0441456
0.0143986
0.0152322
0.00589578
0.00237433
0.00568836
0.014076
0.00856383
0.0044306
0.0193416
0.038703
0.0467566
0.046391
0.0439327
0.0411074
0.0379779
0.0346995
0.0314253
0.0283035
0.0254568
0.0229938
0.0210024
0.0195325
0.0186299
0.0183227
0.0186564
0.0196605
0.0214377
0.0236181
0.0278011
0.158341
0.138596
0.122437
0.119951
0.120994
0.125756
0.127335
0.112921
0.0856678
0.0785961
0.0648843
0.0502301
0.0224035
0.00316695
0.00022554
9.91966e-06
1.46829e-05
8.72782e-05
2.45242e-05
4.55589e-05
3.01886e-06
0.000142507
4.33268e-07
7.34562e-05
3.6656e-06
0.000373685
8.71401e-05
1.8527e-07
0.00779917
0.00757616
0.0407693
0.0116751
0.0281871
0.0252717
0.0128316
0.123366
0.103506
0.0745402
0.0138767
0.017738
0.00895152
0.00301456
0.0046281
0.0125713
0.010642
0.00673101
0.0201907
0.0396786
0.0487605
0.0485428
0.045871
0.0429242
0.0396788
0.0362762
0.0328889
0.0296445
0.0266717
0.0240722
0.0219233
0.0202819
0.0192068
0.0187272
0.0188738
0.019691
0.0212153
0.0235532
0.0263801
0.0311137
0.159939
0.138585
0.120717
0.119206
0.120752
0.127302
0.127995
0.111107
0.085254
0.0786856
0.0663072
0.0509739
0.0221171
0.00216209
0.000251069
8.02728e-08
2.56555e-08
8.44095e-06
2.21426e-06
8.68749e-09
1.36961e-05
4.03774e-05
6.45389e-05
3.9791e-05
3.28869e-05
0.000295763
0.000565472
0.00110341
0.0243137
0.0141275
0.0322335
0.00310909
0.0311793
0.0282838
0.000111063
0.132039
0.0924734
0.10405
0.015474
0.0188122
0.0127978
0.00438907
0.00409329
0.0106955
0.0110528
0.00911799
0.0216848
0.0404086
0.0506141
0.0508164
0.0478812
0.0447938
0.0414292
0.0379053
0.0343836
0.0310125
0.0279047
0.0251707
0.02287
0.0210757
0.0198215
0.0191595
0.019118
0.0197422
0.0210692
0.0231532
0.0260622
0.0295102
0.0347481
0.162171
0.13843
0.118842
0.118863
0.12114
0.128808
0.128193
0.109721
0.0859554
0.0784988
0.0662203
0.0522563
0.0232006
0.00192852
0.000167855
8.88491e-07
1.52602e-08
2.7405e-06
1.5085e-05
2.57816e-08
9.70754e-06
8.26631e-06
0.000114913
1.07393e-06
6.77663e-05
3.27588e-05
0.00157556
0.0021033
0.0320622
0.0287546
0.0308769
0.0857789
0.0336022
0.0302487
0.00841956
0.123953
0.0913444
0.115722
0.0216885
0.0186286
0.0169127
0.00675765
0.00415941
0.00900211
0.0101388
0.0106565
0.0236888
0.0412122
0.052116
0.0531204
0.0499897
0.0467061
0.0432229
0.0395786
0.0359211
0.0324159
0.0291709
0.0262913
0.0238463
0.0218892
0.0204705
0.019633
0.0194106
0.0198318
0.0209571
0.0228332
0.0254803
0.0289477
0.0329482
0.0385968
0.164486
0.138916
0.116865
0.119479
0.12211
0.129758
0.127928
0.108257
0.0875975
0.0785325
0.0645436
0.0515716
0.0242283
0.00265353
9.5037e-05
6.27264e-10
5.15033e-08
1.9116e-06
2.70104e-07
6.44658e-06
5.17405e-06
3.49607e-05
0.000101691
1.56718e-05
0.000118584
3.89036e-06
0.0025657
0.00216725
0.00286153
0.0613353
0.0376186
0.133324
0.0303901
0.0319515
0.0197379
0.0846824
0.101851
0.115543
0.0382783
0.0179143
0.0205644
0.0102149
0.00496157
0.00779282
0.00859738
0.0108706
0.025487
0.0424255
0.0532723
0.0552301
0.052185
0.0486602
0.0450401
0.0412828
0.037507
0.0338528
0.0304692
0.0274386
0.0248479
0.0227319
0.0211456
0.0201329
0.0197318
0.0199683
0.0208888
0.0225457
0.024976
0.0281948
0.0322062
0.0366285
0.0425017
0.167398
0.139747
0.115475
0.120956
0.123566
0.13038
0.127607
0.106705
0.0894711
0.0790998
0.0644149
0.0481806
0.0234594
0.00362533
0.000171558
5.97943e-06
1.5015e-06
1.42866e-07
5.36156e-06
5.78024e-05
7.10978e-06
2.02882e-05
3.26145e-05
0.000129932
2.93116e-05
0.000547673
0.00311308
0.00219603
0.000834025
0.104791
0.0513208
0.124318
0.0174763
0.0340027
0.0273661
0.0354964
0.113143
0.102161
0.0643916
0.0176869
0.023066
0.0144646
0.00678408
0.00723695
0.00706851
0.00993261
0.0263452
0.0438609
0.054404
0.0568834
0.0543387
0.0506664
0.0468618
0.0430065
0.0391167
0.0353271
0.0317976
0.0286204
0.0258685
0.0235956
0.0218509
0.0206705
0.0200808
0.0201288
0.0208455
0.0222943
0.0245061
0.0275118
0.0312791
0.0357358
0.0404391
0.0462835
0.171588
0.141546
0.114055
0.122308
0.12515
0.130514
0.126976
0.106103
0.0902782
0.0789923
0.065984
0.0451791
0.0201856
0.00410008
0.000395276
8.36448e-06
3.09082e-09
1.52986e-07
5.92683e-06
7.82334e-06
4.97878e-05
1.54303e-06
3.58813e-06
0.000250952
5.00109e-07
0.00362407
0.002902
0.00200024
0.00280209
0.0902571
0.075519
0.107918
0.000350632
0.0361306
0.0322506
0.00382101
0.12754
0.0864827
0.0886407
0.0195041
0.0240709
0.0188573
0.0100085
0.0075144
0.00590489
0.00827267
0.0260974
0.0448302
0.0557976
0.0581201
0.056161
0.0526975
0.0486992
0.0447378
0.0407508
0.036853
0.0331704
0.0298393
0.02692
0.0244929
0.0225834
0.021234
0.020471
0.0203293
0.0208546
0.0220862
0.0240768
0.0268651
0.0304278
0.0346721
0.0394328
0.0442101
0.049784
0.174856
0.145837
0.113357
0.123034
0.12643
0.12984
0.12656
0.106025
0.0901463
0.077783
0.0668279
0.0472171
0.0155164
0.00376894
0.000552135
1.65117e-07
2.93496e-06
4.78714e-07
2.1702e-05
1.42094e-05
6.34302e-07
6.60475e-08
1.11999e-05
0.000155924
0.000100834
0.00664679
0.00163121
0.00181233
0.00262318
0.029876
0.111002
0.097012
0.0330356
0.0386615
0.036213
0.00177132
0.131108
0.0778647
0.0994445
0.0256095
0.0239431
0.0227151
0.0148169
0.00905212
0.0051087
0.00646482
0.0250051
0.0449379
0.0571639
0.0593604
0.0574152
0.0546042
0.0506181
0.0464219
0.0423222
0.0383162
0.0345222
0.0310575
0.0280031
0.0254196
0.0233401
0.0218302
0.0208854
0.0205665
0.0208933
0.0219269
0.0237059
0.0262634
0.0296063
0.0336698
0.0382721
0.0431691
0.0477874
0.0528623
0.178383
0.149306
0.115024
0.123315
0.127631
0.129105
0.126174
0.106911
0.0901062
0.0749212
0.0666986
0.0491203
0.015998