/*--------------------------------*- C++ -*----------------------------------*\
| =========                 |                                                 |
| \\      /  F ield         | OpenFOAM: The Open Source CFD Toolbox           |
|  \\    /   O peration     | Version:  v2012                                 |
|   \\  /    A nd           | Website:  www.openfoam.com                      |
|    \\/     M anipulation  |                                                 |
\*---------------------------------------------------------------------------*/
FoamFile
{
    version     2.0;
    format      ascii;
    class       volScalarField;
    location    "12000";
    object      I2_2;
}
// * * * * * * * * * * * * * * * * * * * * * * * * * * * * * * * * * * * * * //

dimensions      [0 0 0 0 0 0 0];


internalField   nonuniform List<scalar> 
27324
(
-0.00167773
0.00133455
-0.0164803
0.000498405
-0.0211734
-0.0031188
-0.0056358
-0.00280882
-0.033042
-0.00371763
-0.00841486
-0.00285235
-0.0377266
-0.0042851
-0.0379708
-0.000402064
-0.036477
-0.00316465
-0.0434507
-0.00452063
-0.0387584
0.000770986
-0.0416506
-0.00185905
-0.0478587
-0.00397236
-0.0410472
-0.0042434
-0.0238177
0.000995786
-0.0528814
-0.00199002
-0.049945
-0.00482134
-0.0333635
0.00170357
-0.00780922
0.0240858
-0.0590395
-0.000270924
-0.0551763
-0.00472797
-0.0383083
0.00275902
-0.0035782
0.00505469
-0.0672844
0.0201621
-0.0655558
-0.000200004
-0.0539254
-0.00572697
-0.0222881
0.00429035
-0.00108613
0.00336537
-0.0295091
0.0732177
-0.0842999
0.00220249
-0.0608245
-0.00529994
-0.0276563
0.00410784
-0.00181972
0.000871316
-0.0101445
0.0103539
-0.0507743
0.0764719
-0.0892055
0.00476598
-0.0575367
-0.00500603
-0.013527
0.00296261
0.000340867
0.00162927
-0.0150499
0.044912
-0.0160811
0.0528703
-0.0907889
0.0601022
-0.071251
0.00106238
-0.02228
0.00386785
-0.001243
0.00300756
0.00205415
0.000908209
-0.0392511
0.0471807
-0.0166171
0.0429532
-0.0683896
0.0884088
-0.0828901
0.00400765
-0.0110756
0.00233811
-0.000308289
0.00351077
0.00176978
-0.000505837
-0.0350325
0.00920679
-0.0457106
0.0134843
-0.0229292
0.0422838
-0.0830876
0.0768552
-0.0398038
0.00307301
-0.00153705
0.00125633
0.00383377
0.000787932
-0.0126925
-0.0006821
-0.0379834
0.00943755
-0.0413305
0.00559547
-0.00770025
0.0299773
-0.0610343
0.0733022
-0.0528706
0.000239726
-0.00229618
0.00095919
0.00402233
0.000475609
-0.0127755
-0.00132295
-0.0363738
0.000778941
-0.0428794
0.0305879
0.001463
0.00503819
-0.0231395
0.0450717
-0.0548014
0.0717138
-0.0353558
0.000623681
-0.00142752
0.00174463
0.000118117
-0.000904815
-0.0329775
-0.00137592
-0.0358384
0.000786333
-0.0453171
0.00492716
0.00314297
0.00418997
-0.0188788
0.0339363
-0.041297
0.0635158
-0.0757488
0.0259906
-0.0240865
0.00107147
-0.0103289
-0.000878057
-0.0321591
-0.00167207
-0.0350349
-0.000686018
-0.041402
0.0253944
0.0034022
0.00379511
0.00104691
0.0170298
-0.027175
0.0331828
-0.0461905
0.0607912
-0.0843035
0.0527577
-0.0527795
0.0255403
-0.0120566
-0.00185255
-0.0340474
-0.00167792
-0.0373669
-0.00072541
-0.0430834
0.0284232
-0.00624242
0.00641556
0.00190946
0.0163197
-0.0233485
0.0278558
-0.0380809
0.0453242
-0.0606582
0.0361999
-0.0554863
0.0181941
-0.0124297
-0.00142474
-0.0343677
-0.00187735
-0.0377777
-0.00151736
-0.0412471
0.00640979
0.00408165
0.0197603
-0.0136631
0.00392315
-0.0159228
0.0224302
-0.0278028
0.0369446
-0.0433375
0.0437811
-0.0432445
0.0381777
-0.00699466
-0.000341659
-0.0327076
-0.00145803
-0.0364593
-0.00189673
-0.0400102
-0.00201744
-0.0387482
0.0185683
-0.00174986
0.0320754
-0.0540966
0.00353227
-0.014855
0.0249125
-0.0367517
0.0483522
-0.0500419
0.0402271
-0.0289314
0.0403772
0.00113835
-0.000132081
-0.0334253
-0.000971502
-0.038121
-0.00190491
-0.0400322
-0.0024283
-0.0366553
-0.00099306
-0.0131972
0.0165674
-0.0462571
0.125033
0.00270117
0.0104113
-0.0281215
0.0308755
-0.0620888
0.0394922
-0.032242
0.00497396
0.0102587
0.0251282
-0.0146247
-0.000161407
-0.038323
-0.000947085
-0.0405166
-0.00207495
-0.0390069
-0.0032178
-0.0304996
-0.000366631
0.00301952
0.0285537
-0.0593247
0.0417902
-0.00164277
4.73681e-05
-0.000336463
0.00184917
-0.00169099
0.00092444
9.55676e-05
0.000710721
-0.0975571
0.0715308
-0.0163429
6.60672e-05
-0.0395844
-0.000506625
-0.0414124
-0.00163477
-0.0390864
-0.00343879
-0.028773
-0.00211468
-0.0133986
0.0185551
-0.0368376
0.0678128
-0.0432642
0.000350029
0.000548782
0.00172966
0.000408307
0.00168925
0.00114612
0.000168322
-0.0320684
0.110548
-0.068061
0.000526471
-0.0370286
9.68392e-05
-0.0415598
-0.000541902
-0.041436
-0.00226968
-0.0364105
-0.00316129
-0.0198787
-0.00111211
0.000667392
0.0331449
-0.0442541
0.0633013
-0.0156509
0.000245136
0.00120611
0.0017924
3.56663e-05
0.00118372
0.000212263
0.00438908
-0.0627837
0.0955369
-0.0320973
0.000705823
-0.0385724
0.00039916
-0.0421759
-0.0002623
-0.0418097
-0.00164487
-0.0383256
-0.00325748
-0.0204887
-0.000253494
-0.00322058
0.0164861
-0.0386261
0.0538115
-0.0377428
0.000466236
0.000237287
0.00115854
-0.000808876
0.00132675
7.31706e-05
4.15431e-06
-0.0363981
0.0784088
-0.0655948
0.00741563
-0.0218698
0.000760593
-0.0421522
0.00036592
-0.0422561
-0.000368681
-0.0421996
-0.00250553
-0.0308387
-0.00212583
-0.0152132
0.00135745
-3.39575e-06
0.0334525
-0.0452944
0.0691262
-0.0289751
6.94689e-08
9.98332e-05
0.00154172
-0.0012055
0.000945448
-2.07823e-06
0.00718255
-0.0703564
0.0722723
-0.0287811
0.00126404
-0.0231076
0.000764331
-0.0421409
0.000545105
-0.0421652
6.36078e-05
-0.0430685
-0.00157229
-0.032528
-0.00270183
-0.0174623
0.00128098
-0.000529469
0.00738953
-0.0376971
0.0551692
-0.0861982
-0.000490396
8.96693e-05
0.00111531
-0.00148736
0.00157142
-0.000276719
7.75621e-05
-0.047173
0.0813544
-0.0433564
0.00689786
-0.000337087
0.000368
-0.0408941
0.000707013
-0.0418446
0.000466833
-0.0427761
9.11605e-05
-0.0418582
-0.0021609
-0.0277734
-0.00158866
-0.00751587
0.000847951
4.07045e-07
0.0276233
-0.0414166
0.0623635
-0.0606814
0.000218068
0.0001857
0.00175964
-0.00203663
0.00126048
-3.17618e-07
0.0191367
-0.0783995
0.0629531
-0.0130281
0.00146462
-0.000180174
-0.000102423
-0.0405893
0.000448307
-0.041447
0.000570137
-0.0431992
0.000555645
-0.0426315
-0.000962045
-0.0306331
-0.00202495
-0.00879046
0.00107043
-5.85608e-05
0.000885253
-0.0335186
0.0487493
-0.0571794
0.00716722
9.1487e-06
0.00144842
-0.00242535
0.00218314
-0.00015869
0.00180282
-0.065292
0.0756121
-0.0277807
0.00223278
-0.000558739
0.000127017
-0.0234662
-6.64884e-05
-0.0407491
0.000358252
-0.0425036
0.000758821
-0.0448997
0.000995285
-0.0371086
-0.00107591
-0.0231049
0.000555121
-0.0031887
0.000301199
-8.14037e-09
0.0147856
-0.0382698
0.0582323
-0.0380458
2.00554e-05
-0.000494029
0.00261804
-0.00267747
0.000957314
-5.36726e-07
0.0414071
-0.0813739
0.0452992
-0.00591595
0.000485976
-0.000384494
5.69622e-05
-0.0229265
-0.000331366
-0.0398704
0.000145645
-0.0425695
0.000777626
-0.0450812
0.00159127
-0.038342
0.000294719
-0.0243442
-0.000293849
-0.00368327
0.000639901
-5.68568e-05
6.35049e-05
-0.0265986
0.0460878
-0.0599156
0.0122488
-2.45286e-06
0.00233178
-0.00288051
0.00177348
-8.0535e-06
0.0146176
-0.0777837
0.0620128
-0.0135843
0.000992829
-0.000215155
0.000223982
-1.87033e-05
-0.000473208
-0.0382569
-0.000399349
-0.0411828
0.000182962
-0.0435474
0.00108172
-0.0435071
0.00200007
-0.0353274
-5.55255e-06
-0.01144
0.000998381
-0.00125072
0.00023308
-1.44347e-06
0.00636865
-0.0350787
0.0526339
-0.036313
7.78349e-05
-0.00104027
0.00289016
-0.0021879
0.000246732
-0.00105698
0.0630234
-0.0741713
0.0267227
-0.00220017
0.000277879
-0.0001094
0.000114568
-3.4437e-05
-0.000355688
-0.0381572
-0.000497935
-0.0420004
-4.12849e-05
-0.0431795
0.000702251
-0.0432018
0.00229053
-0.0348632
0.00121819
-0.011957
0.000150814
-0.00166717
0.000509332
-6.58858e-05
7.33189e-06
-0.0204031
0.0453402
-0.0487249
0.00406305
-3.18094e-05
0.00244593
-0.00236586
0.000973251
-2.50975e-08
0.0380774
-0.0801293
0.0431749
-0.00534181
0.000392651
-0.000119346
6.97789e-05
-0.000145411
-5.03125e-06
-0.0250338
-0.000300701
-0.041143
-0.000420892
-0.0429013
-0.00010925
-0.0439663
0.0012535
-0.0369656
0.00274409
-0.023462
0.000691027
-0.00444352
0.000738971
-0.00110158
0.000158409
-6.22846e-06
0.00291114
-0.0341047
0.0531657
-0.0288007
1.31766e-05
-0.00116612
0.00239165
-0.00168167
2.76757e-05
-0.0123804
0.0777821
-0.0592447
0.0120807
-0.000732143
0.000117818
-9.40061e-05
-8.10958e-06
-0.000709916
5.6938e-05
-0.0269431
-1.85085e-05
-0.0422911
-0.000437246
-0.042617
-0.000420791
-0.0434799
0.000443548
-0.0351139
0.00269746
-0.0225052
0.00133591
-0.0037874
0.000222748
-0.00119109
0.000458224
-6.21625e-05
7.67685e-06
-0.0194125
0.0460869
-0.0506795
0.00516995
-6.8743e-05
0.00224365
-0.00217795
0.000435956
-0.000874574
0.0648371
-0.07189
0.0234987
-0.0016351
0.000133107
-9.60933e-05
-2.4212e-05
-0.000694971
0.000254086
2.97685e-05
0.000640616
-0.0417117
7.18027e-06
-0.0434708
-0.000471686
-0.0418133
-0.000527612
-0.0399369
0.000461593
-0.0318441
0.00207694
-0.0102916
0.000286107
-0.000861376
0.000520076
-0.000671936
0.00013744
-2.57731e-05
0.00370208
-0.0356841
0.0533171
-0.0266448
9.95069e-07
-0.00155375
0.00251037
-0.00129068
2.31532e-08
-0.0416154
0.0793219
-0.0383882
0.00387723
-0.00019978
8.51765e-05
-0.000174443
-0.000118232
-0.000447128
0.000215018
0.000280143
0.000743374
-0.0431018
0.00036914
-0.0437031
-0.000377845
-0.0417572
-0.000726463
-0.0388475
-0.000308824
-0.0309106
0.00136831
-0.00893771
0.000221764
-0.000436232
0.000208738
-0.000479541
0.000290318
-5.82834e-05
1.50825e-05
-0.0209114
0.0508256
-0.0458766
0.00126895
-0.000385224
0.00265909
-0.00206803
3.01776e-05
-0.0159394
0.0793899
-0.0537477
0.00880821
-0.000399875
6.24694e-05
-0.000244454
-3.94716e-05
-0.000762352
0.000163253
0.000627886
0.000612971
-0.0333537
0.000690629
-0.0440799
0.000275894
-0.042361
-0.000374735
-0.0430821
-0.00118808
-0.0320239
-0.000201659
-0.0189121
0.000748173
-0.0012118
-2.33944e-06
-0.000127492
0.000216476
-0.000250777
0.000182883
-6.82092e-09
0.00574203
-0.0418513
0.0566797
-0.018899
3.16366e-06
-0.00252786
0.00252558
-0.00041064
0.00193294
-0.0696719
0.0668685
-0.0177392
0.00093167
-5.41648e-05
-0.000100963
-0.000762545
0.000274491
-0.000288689
0.000256241
0.00164435
0.000856549
-0.0340205
0.000584884
-0.0435182
0.00046792
-0.0425078
-3.60907e-05
-0.0435717
-0.00122013
-0.0323272
-0.000880247
-0.0182023
0.000425123
-0.000644081
-7.29828e-07
-2.85877e-05
4.3705e-05
-0.000128549
0.00021586
-1.36865e-07
7.54927e-05
-0.0277212
0.0555571
-0.039672
0.00011389
-0.00168277
0.00277195
-0.00118516
2.78628e-06
-0.0492915
0.0761241
-0.0304031
0.00236727
-7.03549e-05
-0.000108233
-0.000777475
0.000299076
-0.000451531
0.000223257
0.000519794
0.00279604
0.000951043
-8.56058e-05
-0.043752
0.00052573
-0.0422306
0.000452312
-0.043758
-4.40038e-05
-0.0391125
-0.00118404
-0.0296228
-0.000573554
-0.00650124
4.14534e-05
-1.98361e-05
2.87087e-06
-2.8249e-06
3.86046e-05
-0.000192824
1.9055e-05
1.46981e-07
0.0118317
-0.049079
0.0504674
-0.00423993
0.000351152
-0.00276568
0.00187757
-8.70144e-06
0.0235436
-0.0798168
0.0447224
-0.00586958
8.26972e-05
-0.000411298
0.000120517
-0.00106228
0.000501202
-0.000234839
0.000579218
0.001019
0.00347223
0.000996406
-0.000441941
-0.042964
0.000161874
-0.0420887
0.000616226
-0.0445561
0.000537334
-0.0399136
-0.000664478
-0.0298304
-0.000806755
-0.00671789
2.71154e-05
-1.28195e-05
1.11429e-07
4.56791e-07
8.33625e-06
-0.000132525
5.21537e-05
2.47711e-06
0.0011801
-0.0352765
0.0553399
-0.0220895
-5.05188e-08
-0.00235553
0.0023505
-0.000291141
0.00509174
-0.0754676
0.0582026
-0.0128927
0.000202515
-0.000407293
0.000129599
-0.0010077
0.000563986
-0.000357347
0.000410192
0.000863426
0.00163668
0.0034468
0.00102359
-0.0325335
-0.000440378
-0.0415498
0.000180314
-0.0433349
0.000750146
-0.0447586
0.000690607
-0.035129
-0.000790562
-0.0192316
-0.000256589
-0.000543139
9.06937e-06
-1.59588e-08
3.25209e-08
1.27637e-06
7.82512e-05
-4.22335e-05
2.50573e-05
-2.93593e-07
0.0176045
-0.0528951
0.0399247
-0.000378617
0.00127434
-0.00264563
0.00107463
-0.000139461
0.0609652
-0.0691552
0.0239283
-0.00107706
5.87739e-05
-0.00100429
0.000449
-0.00103355
0.000509212
-0.000149173
0.00087504
0.00136693
0.00190005
0.00329656
0.000612516
-0.0331082
-0.000591431
-0.0415698
-0.000101512
-0.0430204
0.000606919
-0.0445919
0.00140782
-0.0360277
-0.000160369
-0.0206667
-0.000289119
-0.000901017
3.58251e-05
-7.34169e-08
-2.12261e-11
-2.7977e-07
2.39602e-05
-8.43489e-05
0.000123343
-1.21421e-06
0.00370639
-0.0432259
0.0508741
-0.00757867
0.000196077
-0.00279114
0.00183235
-7.22339e-08
0.0377897
-0.076352
0.0376328
-0.0035466
0.000112719
-0.00109895
0.000492223
-0.00108896
0.000658701
-0.000317857
0.000687517
0.00105365
0.00201338
0.0016635
0.00245834
-0.000354792
-0.000236366
-0.0421921
-0.000599786
-0.0424705
-0.000103047
-0.0442736
0.000950267
-0.0404045
0.00182439
-0.030348
9.7876e-05
-0.0100434
6.88385e-05
-0.000195732
3.51708e-06
1.02239e-07
5.68063e-08
-3.91989e-06
9.00389e-05
-0.000292497
3.90007e-05
-5.2237e-05
0.0267569
-0.0553877
0.0251957
1.48249e-09
0.00253996
-0.00242725
0.000137734
-0.0145047
0.0777559
-0.0518335
0.00957472
-0.000438309
0.000160743
-0.000967141
0.000700037
-0.000894023
0.000467979
-1.71865e-05
0.00119865
0.00142239
0.0021348
0.00106136
0.000713826
-0.00143206
0.000224886
-0.0433842
-0.00054848
-0.0423776
-0.000423623
-0.0438553
0.000364438
-0.0393561
0.00203798
-0.0297741
0.000742965
-0.0106392
9.92274e-05
-0.000500827
2.359e-05
1.88267e-06
9.51381e-07
-8.88994e-07
4.76191e-05
-0.000394534
0.000174784
3.07644e-09
0.0103013
-0.0528394
0.0422093
-0.000461958
0.00157831
-0.00274145
0.000769424
-0.00214523
0.070801
-0.0647935
0.0216131
-0.000721982
0.000224716
-0.00107834
0.000736447
-0.00106256
0.000636896
-0.000255459
0.000990514
0.0011718
0.00201592
0.00126097
0.000499043
-0.00141946
0.00144561
-0.040016
0.000199861
-0.0434321
-0.000548525
-0.0418638
-0.000495912
-0.0427987
0.000467208
-0.0338122
0.00183421
-0.0222231
0.000287516
-0.00262411
0.000153358
-0.000102695
5.50926e-06
3.84617e-06
1.81478e-06
-1.00522e-05
0.000320085
-0.000349344
1.19565e-06
-0.00127696
0.0418574
-0.0531103
0.0078814
-0.000359706
0.00295382
-0.00152719
9.82181e-06
-0.0543179
0.0749077
-0.0373998
-0.000166157
-0.000986572
0.000629926
-0.000971293
0.000936655
-0.000815613
0.000518785
0.00013616
0.00143671
0.00144649
0.00168909
-0.0002219
0.00128133
-0.00307871
0.00135884
-0.0414189
0.000567329
-0.0435092
-0.000227009
-0.0420169
-0.000664161
-0.0421346
-0.00033122
-0.0326079
0.00135532
-0.0210165
0.000444371
-0.00253073
2.81943e-05
-0.000162407
2.27164e-05
7.55519e-06
2.72135e-06
-6.01511e-06
0.000118272
-0.000356399
2.90471e-05
-5.36878e-06
0.0250981
-0.0581022
0.0240267
-4.28515e-07
0.00283582
-0.00216409
1.54007e-05
-0.031638
0.0814013
-0.0542447
-0.000885826
-0.000931192
0.000667516
-0.000972087
0.000980133
-0.00102107
0.000650667
-0.000159548
0.001239
0.00121144
0.00175053
-0.000170903
0.00128266
-0.00316847
0.00183627
-0.00408895
0.00108497
-0.0449865
0.000478828
-0.0422305
-0.000225459
-0.0438532
-0.00100787
-0.0361555
-0.000329017
-0.0256916
0.000947739
-0.00807274
-4.44635e-05
-0.000729235
1.0034e-05
-3.39837e-05
5.70681e-06
3.03844e-06
6.14649e-07
-1.7605e-05
0.000250671
-8.77352e-05
1.1582e-10
-0.0102818
0.0553838
-0.0397074
9.27437e-05
-0.00211582
0.00258924
-0.00043251
0.0116192
-0.0829868
0.0703446
-0.00994525
0.000596975
-0.00173038
0.000859904
-0.00114747
0.00112844
-0.000844934
0.000666411
0.000222699
0.00162559
0.00123019
0.000688752
-0.00127083
0.00169274
-0.00424358
0.00180382
-0.00401425
0.000498593
-0.0442834
0.000515482
-0.0424213
0.000189256
-0.0444839
-0.000999821
-0.0363161
-0.00106597
-0.0246171
0.000411903
-0.0064655
-3.33361e-05
-0.000396094
2.41821e-05
-1.60817e-05
8.41771e-07
-6.14856e-07
9.00903e-08
-2.59323e-07
9.32148e-05
-0.000119198
2.08955e-06
-0.0020595
0.043202
-0.0511868
0.00454981
-0.00084425
0.00285881
-0.00129024
0.00182428
-0.0780929
0.0828251
-0.0216899
0.000765793
-0.00188979
0.000936517
-0.00111077
0.00122349
-0.00106868
0.000734523
-0.000104926
0.00144484
0.00111187
0.000771712
-0.00124025
0.00169517
-0.00441795
0.00151697
-0.00409478
0.0011281
-0.0401352
5.69991e-05
-0.0412548
0.000491078
-0.0444164
0.000278065
-0.042967
-0.0012242
-0.0310521
-0.000863502
-0.0164935
6.52374e-05
-0.000724599
4.68713e-05
-4.23926e-05
1.6221e-05
-6.65702e-08
6.56123e-06
-1.24548e-06
5.24604e-09
-8.83447e-06
0.000127552
-5.14299e-06
5.75463e-05
-0.0248751
0.0564957
-0.0184662
5.8137e-05
-0.00295754
0.00202976
-3.40926e-06
0.0657062
-0.0914732
0.0301347
-0.00154583
0.000744498
-0.00141035
0.00105242
-0.00137208
0.00131129
-0.000907175
0.000857125
0.000249011
0.00167239
1.71198e-06
0.0012253
-0.00323623
0.00153585
-0.00464828
0.00145911
-0.00396672
0.00107521
-0.0408643
-0.00025375
-0.0408353
0.000375351
-0.0447195
0.000545568
-0.0430736
-0.000431698
-0.0315054
-0.00104052
-0.0161742
-2.05614e-05
-0.00057493
2.14529e-05
-9.08199e-06
1.33079e-05
-1.8725e-07
3.94081e-07
-7.27899e-06
3.61858e-07
2.48259e-06
9.10636e-05
-4.21069e-05
3.10777e-08
-0.00886382
0.0555241
-0.0343367
1.53841e-06
-0.00263404
0.00250655
-1.92806e-05
0.0460788
-0.0972374
0.0571204
-0.00273571
0.00077248
-0.00174446
0.00110791
-0.00135969
0.00148773
-0.00114981
0.000881832
-0.000115837
0.00156837
3.06302e-05
0.00120185
-0.00324356
0.00149509
-0.00487776
0.00141377
-0.00420978
0.00172097
-0.00343307
-0.000792972
-0.0437367
-0.000222722
-0.0429136
0.000335519
-0.0448854
0.000658873
-0.0388614
-0.000629458
-0.0252568
-0.000673192
-0.0059856
5.10591e-05
-2.70521e-05
7.03571e-07
-4.12347e-06
4.23898e-06
-2.98888e-06
3.02172e-06
-4.29529e-06
1.96241e-07
-3.36631e-05
0.000147432
-1.52227e-06
0.00120467
-0.045184
0.048067
-0.00201393
0.00169817
-0.00274242
0.000378724
-0.0246292
0.0988269
-0.0818972
-0.00109584
-0.00159382
0.00122307
-0.00125017
0.00131826
-0.00169126
0.00145977
-0.000979442
0.00105079
0.000363704
0.000981623
-0.00115906
0.00171154
-0.00493611
0.00135628
-0.00481355
0.0013571
-0.00401212
0.00168334
-0.00318319
-0.000492897
-0.0447615
-0.0002809
-0.0431049
4.56017e-05
-0.0442728
0.000795561
-0.0392646
0.000214836
-0.0265747
-0.000641363
-0.00738152
0.000178066
-3.15862e-05
2.88297e-08
-1.09849e-06
5.18483e-06
-2.47022e-07
4.02509e-08
-1.2961e-05
5.27403e-10
-5.84238e-06
0.000225137
-3.27245e-05
1.26891e-05
-0.0287723
0.0561411
-0.012399
0.00055856
-0.0029366
0.000867612
-0.00549832
0.0936871
-0.0942949
-0.00226123
-0.00149863
0.00131443
-0.00143875
0.00132568
-0.0017553
0.00173698
-0.00125064
0.00106595
7.6739e-07
0.00103007
-0.00114564
0.00171695
-0.00510264
0.00128327
-0.00505985
0.00127248
-0.00422498
0.00132312
-0.00337632
0.000908079
-0.0461799
-7.41133e-05
-0.0423675
-0.000216372
-0.0439506
1.40398e-05
-0.0420924
0.00102192
-0.0329589
0.000106852
-0.0189216
-2.06248e-05
-0.0020892
0.00011282
-5.69159e-08
1.71243e-07
1.04758e-06
3.81739e-07
-6.51029e-11
1.02732e-05
3.29037e-09
1.89581e-08
-0.000200349
0.000106915
-3.10222e-08
0.0132219
-0.0581783
0.0277611
-6.87017e-06
0.00295703
-0.00117042
0.000140196
-0.082114
0.100984
-0.0361118
0.0014401
-0.00267433
0.00152078
-0.00133293
0.0017181
-0.00200064
0.0015751
-0.00111403
0.00122191
-0.000103907
0.00116047
-0.00323416
0.00134844
-0.00562851
0.00116937
-0.00489834
0.00121949
-0.0039804
0.00126281
-0.00315999
0.000830536
-0.047058
0.000181391
-0.0428992
-0.000176793
-0.0438279
-0.000267861
-0.0415867
0.000613114
-0.0322674
0.000537305
-0.0186907
-0.000181989
-0.00324851
0.00025482
-3.75817e-07
6.66895e-07
-3.93682e-08
1.94183e-06
-3.09242e-07
1.23815e-06
1.06536e-06
6.42132e-08
-8.16894e-05
0.000199562
-1.27086e-06
0.00387358
-0.0507886
0.0425567
-9.68755e-05
0.00260599
-0.0011252
0.000424139
-0.0621849
0.104319
-0.0574106
0.00179425
-0.00266698
0.00169849
-0.00141008
0.00171987
-0.00219851
0.00192987
-0.00141715
0.00120569
-0.000253271
0.00116345
-0.00322291
0.00128923
-0.00589811
0.00107409
-0.00514998
0.00112411
-0.00418288
0.00120359
-0.00328919
0.00143746
-0.00252844
0.000872486
-0.0455832
0.000189564
-0.0436274
-0.000164262
-0.0433938
-0.000339043
-0.0379069
0.000653091
-0.0248084
-4.02003e-05
-0.00994678
7.04167e-06
-0.000784902
1.10284e-05
1.7566e-06
7.4112e-08
-2.59591e-06
1.4681e-06
2.67066e-07
3.49923e-06
1.20038e-07
8.3644e-06
-0.000234119
1.10816e-05
-0.000466705
0.0356533
-0.0526316
0.00527353
-0.00166605
0.00171925
0.00145123
0.0135504
-0.105473
0.0574173
-0.00593413
0.00157774
-0.00263607
0.00158455
-0.00167824
0.0022117
-0.00224175
0.0017567
-0.00110829
0.00109141
-0.00116481
0.00172198
-0.00559432
0.00101984
-0.00586419
0.000978162
-0.00491293
0.00107183
-0.00390398
0.00112913
-0.00305714
0.00130709
-0.00238107
0.000575126
-0.0455093
0.000253524
-0.0439209
6.68891e-05
-0.0436933
-0.000387588
-0.0380427
0.000134915
-0.0232991
-9.9973e-05
-0.00891338
-0.000158124
-0.000886077
3.7681e-05
4.46642e-06
6.11605e-07
-7.67012e-07
9.99405e-06
-2.9742e-07
1.8352e-06
-6.52009e-07
8.38725e-08
-0.000194735
4.31987e-05
-3.66781e-06
0.0187707
-0.0562918
0.0200018
-0.000532348
0.00203965
0.00119557
-0.00137916
-0.0968406
0.0765218
-0.0153889
0.00172568
-0.00313299
0.00179609
-0.00168806
0.00225283
-0.0025733
0.00216255
-0.00144574
0.00112234
-0.00119903
0.00171718
-0.00576123
0.00091689
-0.00615788
0.000865257
-0.00516615
0.000964992
-0.00410354
0.00104125
-0.00320477
0.000966814
-0.00260399
0.000529114
-0.049409
0.000171942
-0.0435388
0.000261574
-0.0441117
3.49897e-05
-0.0421513
-0.00030456
-0.0301015
7.08099e-05
-0.0149828
-0.000367545
-0.00285639
2.62583e-05
-2.25146e-05
1.48165e-06
3.60558e-07
5.56013e-08
-1.6554e-05
4.51756e-07
3.45191e-08
1.10593e-05
-1.33084e-09
9.59411e-05
-0.000109686
3.73851e-09
-0.00660479
0.0537126
-0.0349257
3.43206e-05
2.65895e-06
0.00178008
-0.00123361
0.0644161
-0.10003
-0.00155189
-0.00260806
0.00209831
-0.0021304
0.00180114
-0.00222727
0.00266568
-0.0025306
0.00178586
-0.000927135
0.00126985
-0.00322015
0.001074
-0.00677378
0.000745141
-0.0059777
0.000787735
-0.00486471
0.000910553
-0.00380438
0.000953291
-0.00297792
0.00083644
-0.00247785
0.000416053
-0.051076
0.000104905
-0.0438202
0.000182556
-0.0440026
0.00017355
-0.0426819
3.08067e-05
-0.0303071
-0.000101523
-0.0147774
-0.000198978
-0.00225242
0.000212828
-2.08846e-05
2.46474e-09
-7.08381e-06
3.40548e-07
-9.09121e-07
5.3858e-06
-1.68515e-12
2.01812e-05
-1.81604e-07
2.22312e-05
-0.000178659
3.31772e-06
-0.00115534
0.0438561
-0.0482035
0.0011817
0.00097899
0.00206081
0.000271209
0.0285261
-0.103687
0.01104
-0.00362946
0.00222461
-0.00258363
0.00193424
-0.00218626
0.00276004
-0.0029967
0.00220073
-0.00118042
0.00134304
-0.00325087
0.00098663
-0.00709627
0.000621712
-0.00628132
0.000663016
-0.0051155
0.000796695
-0.0039945
0.000867244
-0.00311071
0.000801437
-0.00252963
0.000825106
-0.00225289
-0.000193911
-0.0472278
0.000120907
-0.0440543
0.000138957
-0.0433498
0.000215684
-0.0398013
0.00017262
-0.0226261
0.000304425
-0.00804966
-7.45319e-05
-0.000406132
2.65526e-05
3.70571e-08
3.41184e-06
-1.14156e-05
5.36773e-09
-4.93978e-06
5.492e-08
-8.19867e-06
2.199e-06
-1.35569e-06
0.000184203
-3.54017e-05
5.04604e-05
-0.0298214
0.0562683
-0.0226786
0.00255388
0.00198243
0.00202377
-0.0365166
0.0842208
-0.067708
0.00261538
-0.00356437
0.00256347
-0.00208565
0.00225163
-0.00284198
0.00310459
-0.00259329
0.00147156
-0.00140113
0.00165815
-0.00629942
0.000554367
-0.00714105
0.000492064
-0.00600329
0.00060075
-0.00476681
0.0007386
-0.00368819
0.000770465
-0.00289654
0.000668805
-0.00243646
0.000652176
-0.00233918
7.64529e-05
-0.0480375
7.94717e-05
-0.0439581
9.43421e-05
-0.043079
0.000227123
-0.039941
0.000411448
-0.0231541
0.000570671
-0.00950528
8.30785e-05
-0.000309782
2.46558e-05
7.08275e-07
1.24494e-08
-2.5829e-05
-2.34843e-09
-8.08949e-07
1.40316e-06
-2.64099e-07
7.23618e-06
-1.50663e-08
0.000114111
-9.52706e-05
9.98933e-08
-0.0163031
0.0582238
-0.04329
0.00166509
0.00239094
0.00292506
-0.016167
0.0659614
-0.0818433
0.00116452
-0.00346811
0.00274758
-0.00238475
0.00230921
-0.0027561
0.00323389
-0.00313082
0.0017411
-0.00148917
0.0016115
-0.00650497
0.000414544
-0.00751368
0.000355555
-0.00631054
0.000467999
-0.00501148
0.000621885
-0.00386861
0.000683605
-0.00302012
0.000607732
-0.00251528
0.00041705
-0.00239307
8.04128e-05
-0.056941
1.88544e-05
-0.0433844
5.33187e-05
-0.0434306
5.76035e-05
-0.0436092
0.000397927
-0.0290882
0.000576717
-0.0174883
0.000964943
-0.00320179
2.04959e-05
-1.75848e-05
1.7889e-06
1.39433e-08
6.44596e-06
-2.12785e-06
1.65765e-08
-6.97479e-06
4.98456e-13
-5.00728e-06
1.09663e-07
-3.2726e-05
0.000203786
-2.30156e-07
0.0071374
-0.053322
0.0556576
0.000462761
0.0036241
0.00335246
0.00224758
-0.0736266
0.0673404
-0.0251872
0.00276005
-0.00413788
0.00274352
-0.00235956
0.00274443
-0.00369075
0.00332709
-0.00206905
0.00161433
-0.00349161
0.000648576
-0.00818656
0.000203911
-0.00730184
0.000257377
-0.0059464
0.000416833
-0.00463314
0.000560453
-0.00356351
0.000583897
-0.00282686
0.000479767
-0.00245609
0.000281764
-0.0024983
-2.25016e-05
-0.0589504
3.93504e-05
-0.0433951
-3.13474e-06
-0.043214
8.41608e-05
-0.0441766
0.000270389
-0.0277694
0.000288871
-0.017303
0.00101622
-0.0040776
0.000225342
-1.34074e-05
1.54473e-06
-1.04066e-06
1.26747e-07
-1.12859e-06
4.81302e-08
-5.48189e-06
5.73866e-07
2.26927e-07
1.9911e-06
-2.50922e-06
0.000250047
-8.34813e-06
0.0024105
-0.0443599
0.067339
-0.00318837
0.00495258
0.00367421
0.000942278
-0.0556597
0.0748602
-0.0423976
0.00322199
-0.00436208
0.00305148
-0.00255131
0.00272452
-0.00358055
0.0034474
-0.00245373
0.00171882
-0.00357405
0.000502264
-0.00860022
4.96743e-05
-0.00768996
0.000112186
-0.00625361
0.000279993
-0.00486885
0.000444594
-0.00373358
0.000500036
-0.00293895
0.00042648
-0.00251756
0.000268005
-0.00251883
0.000151684
-0.00314982
-3.62258e-05
-0.0504492
5.28962e-05
-0.0427114
-5.85784e-05
-0.0433044
0.0003268
-0.0394704
-9.07999e-05
-0.021834
0.000129516
-0.0119006
0.00074818
-0.000465328
1.91264e-05
-3.57859e-07
4.87898e-06
-3.77174e-09
7.53422e-07
1.89562e-06
6.19623e-07
-1.30045e-05
2.59461e-07
-2.68159e-05
7.01685e-08
-0.000232488
4.62447e-05
-0.000579811
0.0335585
-0.0725904
0.0173088
0.00531416
0.00397659
0.00133831
-0.00300042
-0.0945181
0.0166564
-0.00616155
0.00319123
-0.00390716
0.00289144
-0.0026654
0.00330364
-0.00444405
0.00286295
-0.00183524
0.00143756
-0.00727968
-6.18111e-05
-0.00881377
-8.8908e-05
-0.00735119
4.1361e-05
-0.00582388
0.000237627
-0.00447475
0.000383176
-0.00343948
0.00040362
-0.00277311
0.000308777
-0.00249951
0.000144283
-0.00269917
2.14817e-06
-0.00366062
2.08177e-05
-0.0512832
4.99733e-05
-0.0421448
-0.000125695
-0.0438973
0.000376434
-0.0391925
8.55534e-05
-0.0215876
-0.000228402
-0.0114223
0.000367369
-0.000341244
1.63121e-05
-3.12846e-08
1.90341e-06
-1.36914e-06
2.99903e-07
-3.59765e-07
-4.22409e-10
-1.38243e-05
2.87124e-09
-5.25133e-05
1.16579e-10
-0.000159432
0.000104221
-3.94005e-05
0.0240534
-0.0769032
0.0682208
0.00435659
0.0042461
0.00314141
0.000598843
-0.0856976
0.0344761
-0.0103788
0.00330177
-0.00450263
0.00318865
-0.00274957
0.00325638
-0.00443449
0.00306238
-0.00204652
0.00138258
-0.00753671
-0.000236361
-0.00932359
-0.000244924
-0.00774891
-0.000109223
-0.00612657
0.000100356
-0.00469872
0.000271573
-0.00359671
0.000324959
-0.00287242
0.000259825
-0.00254709
0.000116938
-0.00268489
-7.4416e-05
-0.00340786
-0.000269349
-0.063085
-7.99849e-05
-0.0428489
5.83177e-06
-0.0419908
-0.00012035
-0.0456965
0.000414167
-0.025619
6.84726e-05
-0.0162381
-0.00014872
-0.00348074
3.03132e-05
-1.08435e-05
3.20827e-08
-1.15876e-07
1.5741e-06
-3.5155e-07
1.5931e-06
-4.85294e-09
3.24054e-06
-1.32655e-06
2.79496e-05
-2.32262e-06
7.70343e-05
-0.000108731
8.06014e-06
-0.0179275
0.0765095
-0.0925233
0.00153356
0.00473216
0.00415625
-0.00404239
0.0305837
-0.0814393
-0.00109884
-0.00433925
0.00352338
-0.00370848
0.0029902
-0.00317199
0.00360842
-0.00365197
0.00207679
-0.00378868
9.25699e-05
-0.010065
-0.000445025
-0.00903971
-0.000347751
-0.00729913
-0.000156428
-0.00565363
6.74126e-05
-0.00430203
0.000214578
-0.00332185
0.000237828
-0.00273629
0.000156365
-0.00257615
1.08305e-05
-0.00293211
-0.000170731
-0.00396616
-0.000321418
-0.0643913
-0.000119055
-0.041792
-2.20941e-05
-0.0419455
-4.83963e-05
-0.0458151
4.23517e-05
-0.025609
0.000702004
-0.0170316
-0.000225031
-0.00326258
1.28391e-05
-6.19445e-06
9.8997e-09
-6.50396e-12
3.09291e-07
-5.11807e-07
1.43188e-07
-1.18242e-06
-3.5553e-09
-4.16552e-06
1.98507e-06
-1.67772e-05
2.049e-05
-4.15811e-05
4.03625e-05
-0.0135952
0.07092
-0.0987505
0.00150588
0.00550548
0.00485101
-0.00140208
0.0103223
-0.0885331
-0.0016764
-0.00486053
0.00361202
-0.00430636
0.00320278
-0.00314949
0.00363492
-0.00373523
0.00208695
-0.0039761
-4.96817e-06
-0.0105701
-0.00061895
-0.00956248
-0.000505159
-0.00769792
-0.000310039
-0.00594628
-6.67626e-05
-0.00451138
0.000110206
-0.00346517
0.000166254
-0.00282222
0.000114221
-0.00260555
-7.85077e-06
-0.00289603
-0.000167472
-0.00390042
-0.000338266
-0.00609603
6.03298e-05
-0.0514627
-0.000280891
-0.040809
1.70388e-05
-0.046314
4.07881e-05
-0.0360171
0.000245732
-0.0230911
0.00053411
-0.0118965
-9.44009e-05
-9.11071e-05
1.2478e-06
-5.42624e-09
-7.99231e-13
-4.68379e-09
1.40709e-06
-5.79115e-12
1.39596e-06
2.20358e-08
8.04018e-06
-1.4987e-09
4.17555e-05
-8.7179e-07
9.10492e-05
9.51248e-05
-0.000298049
-0.0652434
0.100259
-0.0237511
0.0062634
0.00525818
0.00172202
-0.0396017
0.0655648
-0.046782
0.00411129
-0.00524878
0.00364662
-0.00349795
0.00327049
-0.0038786
0.00319431
-0.00272808
0.000927894
-0.00802827
-0.000682212
-0.0111759
-0.000723099
-0.00912081
-0.000579421
-0.00715889
-0.000336042
-0.00544783
-8.85458e-05
-0.00412414
6.2266e-05
-0.00321443
9.21621e-05
-0.00272343
2.70234e-05
-0.00268431
-9.59348e-05
-0.00321798
-0.000245905
-0.00456691
-0.000402174
-0.00719487
0.000135006
-0.0518789
-0.000199619
-0.0410153
-7.41362e-05
-0.0468223
0.000199427
-0.0352721
-0.000122725
-0.0224436
0.0012912
-0.0120389
-9.97569e-05
-0.000139747
2.73805e-06
-2.4736e-09
9.39329e-12
-2.63254e-09
9.04213e-07
-4.37031e-08
2.14512e-08
-3.31816e-07
2.39323e-06
-6.47072e-07
2.75758e-05
-7.44147e-09
0.000138011
9.48626e-05
0.00137514
-0.0591942
0.099621
-0.0635709
0.00568513
0.00570923