/*--------------------------------*- C++ -*----------------------------------*\
| =========                 |                                                 |
| \\      /  F ield         | OpenFOAM: The Open Source CFD Toolbox           |
|  \\    /   O peration     | Version:  v2012                                 |
|   \\  /    A nd           | Website:  www.openfoam.com                      |
|    \\/     M anipulation  |                                                 |
\*---------------------------------------------------------------------------*/
FoamFile
{
    version     2.0;
    format      ascii;
    class       volScalarField;
    location    "12000";
    object      I2_3;
}
// * * * * * * * * * * * * * * * * * * * * * * * * * * * * * * * * * * * * * //

dimensions      [0 0 0 0 0 0 0];


internalField   nonuniform List<scalar> 
27324
(
0.0187594
0.025652
0.0784601
0.0305518
0.0908206
0.105561
0.0369389
0.0977507
0.116469
0.11841
0.0434537
0.105941
0.122153
0.127896
0.127048
0.0501188
0.113586
0.128974
0.132991
0.1342
0.132339
0.0550421
0.121059
0.135426
0.139065
0.138549
0.13666
0.135583
0.0576362
0.126927
0.141348
0.14498
0.143694
0.140713
0.137009
0.124776
0.0537869
0.134427
0.149192
0.15041
0.149085
0.14509
0.14003
0.124729
0.0973632
0.0500586
0.129682
0.159181
0.159415
0.154995
0.149411
0.142803
0.126281
0.0992488
0.0660977
0.0474253
0.122221
0.155408
0.166817
0.160165
0.154042
0.144967
0.128588
0.0989277
0.0672064
0.0306614
0.0479126
0.108239
0.144977
0.164669
0.164751
0.15285
0.146521
0.129857
0.100893
0.0613793
0.0323548
0.00636645
0.0502498
0.104433
0.123121
0.152622
0.165064
0.159434
0.142656
0.129639
0.100706
0.0614852
0.0236618
0.00946047
0.0002856
0.0517825
0.105006
0.114739
0.130672
0.154044
0.158379
0.15413
0.128141
0.0975479
0.0585103
0.024852
0.00306964
0.000892893
9.3023e-05
0.0574373
0.105468
0.113112
0.117456
0.136788
0.14791
0.151003
0.140757
0.0946608
0.0518893
0.0220474
0.00366015
1.48864e-07
6.92097e-07
0.00265241
0.0573834
0.107994
0.112056
0.11346
0.122338
0.137275
0.135294
0.145401
0.123605
0.0551841
0.0144106
0.0026748
1.28532e-10
0.000328581
0.000752922
0.0024962
0.0585662
0.107064
0.111498
0.111311
0.116607
0.127823
0.131527
0.115071
0.127434
0.106026
0.0380334
0.00432003
9.8656e-06
0.000612997
0.0022766
2.75445e-05
2.96741e-06
0.0580676
0.106928
0.110369
0.11058
0.114542
0.121828
0.131171
0.12221
0.0747293
0.0893281
0.0848667
0.0426437
0.000612515
4.04795e-09
0.00257337
0.000572612
1.09745e-06
0.000302131
0.0567857
0.105901
0.109955
0.11058
0.114075
0.119895
0.126428
0.130848
0.105012
0.0124511
0.031749
0.0529271
0.0575622
0.018293
0.0060297
0.00544952
0.00635306
0.0287877
0.000800779
0.0557516
0.104848
0.109805
0.111442
0.115342
0.119779
0.12311
0.128406
0.12237
0.0767983
0.00323592
6.20643e-07
0.00206309
0.0309659
0.0458613
0.0361174
0.0231321
0.0110202
0.00822517
0.00618624
0.0556161
0.104292
0.110372
0.112727
0.116754
0.121022
0.122559
0.122567
0.124424
0.101577
0.0479875
0.0153248
0.00629702
0.0180543
0.00766654
3.99883e-13
1.91317e-05
0.000305374
0.0197535
0.0682242
0.0264815
0.0558432
0.104348
0.111541
0.114442
0.118322
0.121423
0.122573
0.120351
0.117284
0.117354
0.069169
0.0106972
0.0024981
0.00654803
0.0240714
0.0265621
0.021972
0.0219887
0.0200664
0.0135736
0.0638319
0.00560866
0.0570513
0.104829
0.112939
0.116323
0.119774
0.121965
0.122348
0.119985
0.112689
0.109035
0.101252
0.0268431
6.0487e-05
8.86624e-09
0.00359536
0.00682884
0.00815096
0.00651371
0.00432191
0.000593945
6.64501e-12
2.38486e-06
0.0083865
0.0596811
0.106107
0.114686
0.118043
0.120877
0.122074
0.122188
0.119926
0.112522
0.0995604
0.101566
0.0471799
0.011073
2.95013e-07
0.000104365
0.000115073
0.000235446
0.000112166
0.000214468
7.87663e-05
6.01738e-07
1.74355e-05
0.0307078
0.00269298
0.0636313
0.108138
0.116416
0.119465
0.121454
0.122
0.121972
0.120227
0.110691
0.0976418
0.0871885
0.0811664
8.74284e-07
0.00551233
0.00176149
6.38575e-05
5.80091e-07
2.62762e-06
3.10108e-06
4.56805e-07
1.17539e-07
7.65046e-07
5.49032e-07
0.0325342
0.000355149
0.0673892
0.110302
0.117718
0.120248
0.121481
0.121786
0.122034
0.120629
0.110362
0.0955073
0.0836937
0.0622415
0.0543051
0.0160693
0.000316369
0.00123392
1.021e-07
4.11022e-09
1.41903e-10
4.91436e-06
1.32589e-05
8.26747e-07
5.16253e-10
7.16732e-05
0.00371681
7.09944e-05
0.0721133
0.112991
0.118971
0.120917
0.121227
0.121613
0.122317
0.121066
0.109478
0.096317
0.0831329
0.0503396
0.0430263
0.0176381
0.0166768
9.60493e-09
3.04557e-06
1.39844e-08
2.3225e-08
2.03466e-06
4.45782e-05
7.20327e-07
1.28192e-06
1.24774e-05
0.000165696
9.89863e-08
1.59531e-05
0.0766573
0.115175
0.11995
0.121139
0.121019
0.121629
0.122749
0.121244
0.108968
0.0968091
0.0843105
0.0527846
0.0242553
0.0323783
0.00013107
0.00204788
3.08155e-08
1.66944e-05
2.89157e-07
3.07201e-06
2.055e-05
1.4461e-05
5.06317e-10
7.03291e-06
0.00229896
5.48157e-05
1.16266e-05
1.99634e-05
0.0798845
0.116892
0.119788
0.120348
0.12051
0.121272
0.123259
0.121075
0.108882
0.0980154
0.08454
0.051372
0.0220633
0.01183
0.0181585
0.00684594
2.61463e-07
1.33735e-05
1.28227e-07
2.14709e-06
1.52693e-05
7.07495e-06
1.30175e-07
2.56079e-07
0.000281043
0.00021951
0.000314086
4.47391e-06
3.47989e-05
0.0812866
0.117699
0.11925
0.119385
0.120147
0.121523
0.123726
0.120931
0.108937
0.0996285
0.084539
0.0497337
0.02107
0.00421397
0.0115924
0.000656798
0.00382027
2.71996e-10
2.10793e-05
2.03817e-06
1.13996e-05
1.81173e-05
3.81408e-07
1.76287e-08
5.00554e-09
0.00231486
0.00017391
9.65587e-05
4.249e-06
2.33094e-05
0.0826991
0.117678
0.118581
0.118673
0.120284
0.121947
0.124126
0.120906
0.109229
0.100745
0.084426
0.0478475
0.0194034
0.00365874
0.00177149
0.0127767
0.00292201
0.00010322
3.13422e-06
2.86042e-06
1.43393e-05
1.54904e-05
8.96977e-06
1.43063e-08
8.18807e-06
0.00239396
3.88472e-07
0.000225117
4.06608e-05
1.13861e-06
1.51651e-06
0.0826341
0.117012
0.11817
0.118456
0.120749
0.122461
0.124618
0.120307
0.109353
0.101505
0.0831685
0.0468427
0.018129
0.00289772
0.000682941
0.00222504
0.00443948
0.00381039
2.32805e-07
1.12e-06
8.64413e-06
1.53105e-05
1.60242e-05
8.7861e-09
1.96131e-10
0.000170306
0.000547884
0.000454309
6.88069e-05
1.8141e-05
4.25359e-09
2.80088e-08
0.0817555
0.115513
0.117117
0.118655
0.1213
0.122859
0.124746
0.120522
0.110239
0.101674
0.0815965
0.0451451
0.0179109
0.00256056
0.000413334
0.000175483
0.00585002
1.26879e-06
0.000353439
7.17562e-08
3.85757e-06
1.44983e-05
2.54014e-05
2.1954e-06
8.73503e-06
6.07043e-07
0.00331595
0.000287533
0.00017703
2.30546e-05
1.1408e-06
7.46438e-06
3.46882e-06
0.0811752
0.114531
0.117056
0.11968
0.121792
0.123012
0.124736
0.120314
0.109978
0.102377
0.0806831
0.0438954
0.0171986
0.00284266
0.000346498
2.69589e-05
0.000313036
0.00690667
0.00118884
1.69803e-05
9.87419e-06
1.71048e-05
2.46373e-05
8.12213e-06
3.29652e-06
5.99297e-06
0.00239986
4.65447e-07
0.000416682
4.50838e-05
1.81747e-06
5.61356e-08
4.69504e-05
2.01508e-07
0.0823763
0.114395
0.118376
0.121556
0.122743
0.122964
0.124661
0.120128
0.10894
0.101098
0.0777257
0.0433655
0.0166254
0.0028075
0.000465076
1.02545e-05
3.79295e-06
0.00266574
0.000863083
0.00119603
0.000225141
2.32314e-05
8.80125e-06
2.16684e-05
3.57419e-08
6.94117e-07
9.48949e-05
0.000571213
0.000712455
9.61911e-05
5.21355e-06
1.81419e-08
1.15811e-05
1.01435e-06
4.10782e-05
0.0858746
0.115595
0.120191
0.123141
0.123217
0.122702
0.124462
0.119604
0.107708
0.100232
0.0758426
0.0426766
0.0160117
0.00281472
0.000543661
9.58592e-06
7.24852e-09
0.000103379
0.00609902
1.74492e-05
0.00053158
0.000154349
1.23482e-06
3.15497e-05
1.36475e-07
1.50861e-05
5.82664e-06
0.00363885
0.000530115
0.00023012
1.2279e-05
6.73536e-14
1.37069e-05
1.91919e-08
1.70251e-06
2.00775e-05
0.0892031
0.117254
0.121816
0.124116
0.12293
0.12213
0.124311
0.118803
0.106175
0.0998627
0.0747615
0.043041
0.015734
0.00282805
0.00058029
1.41792e-05
1.04479e-12
6.83231e-06
0.000648458
0.00449592
0.00141255
0.000102315
3.98434e-07
3.16127e-05
1.91857e-06
3.18062e-06
1.3115e-05
0.00311716
1.79315e-05
0.000529837
2.95239e-05
6.86351e-09
9.71415e-06
3.61149e-07
1.20507e-05
1.76946e-06
8.68342e-07
0.0938002
0.119662
0.122934
0.12409
0.122411
0.121709
0.1243
0.118115
0.105004
0.099787
0.0745987
0.0428533
0.0153657
0.0028144
0.000641385
1.06661e-05
2.32948e-12
6.04834e-06
8.84128e-09
0.0110372
0.000142612
0.000719116
5.23249e-05
7.73704e-06
1.61218e-05
7.29785e-08
1.56464e-06
0.000243481
0.00022165
0.000944772
7.64677e-05
1.08146e-07
5.26428e-06
1.0023e-06
3.9682e-06
1.64409e-05
4.07209e-10
6.8889e-10
0.0990442
0.121822
0.124074
0.123957
0.12199
0.121488
0.124272
0.117094
0.104475
0.0997747
0.0746923
0.043368
0.014246
0.00289908
0.000650128
1.14902e-05
3.91176e-09
4.67441e-06
5.27999e-06
0.00173044
0.00472457
0.00310709
0.00024495
1.71757e-07
3.7281e-05
1.53717e-07
3.24262e-05
2.02906e-06
0.00307558
0.000955054
0.00019966
1.03047e-06
1.67872e-06
2.91493e-06
2.71921e-06
1.15724e-05
6.94965e-07
2.06824e-06
2.48534e-08
0.10212
0.123584
0.123624
0.122675
0.121467
0.121866
0.124386
0.116389
0.104174
0.0996809
0.0744159
0.0432713
0.0138587
0.0028438
0.00060391
1.20753e-05
1.07236e-08
1.08169e-05
2.88701e-06
8.68634e-06
0.0128693
0.000740183
0.000600161
4.06276e-07
4.12058e-05
4.84923e-06
1.47858e-05
2.78327e-05
0.00396248
0.000229846
0.000477907
6.978e-06
6.68095e-07
7.23212e-06
1.26201e-06
1.22266e-05
7.45455e-07
3.3208e-11
2.38591e-06
5.34435e-06
0.104052
0.123878
0.122472
0.120964
0.121285
0.122265
0.124475
0.116114
0.104868
0.100008
0.074281
0.0424824
0.0131389
0.00329815
0.000545685
1.07926e-05
2.91437e-08
5.80061e-06
8.31301e-07
9.78724e-07
0.00205962
0.0020804
0.00226701
0.000153155
6.71066e-06
2.88329e-05
9.14051e-07
1.77693e-08
0.000795312
2.0362e-06
0.000938539
3.17868e-05
2.48213e-07
1.39324e-05
5.55223e-07
1.17568e-05
1.22588e-06
2.37529e-09
9.62257e-10
3.63977e-09
6.80119e-05
0.104695
0.123705
0.121287
0.120213
0.121546
0.123308
0.124673
0.116101
0.105331
0.0997109
0.073427
0.0421099
0.0118893
0.00362357
0.000706978
8.15667e-06
7.34833e-08
1.04498e-05
9.4379e-07
2.14588e-06
1.75512e-08
0.0153181
0.00236714
0.000844842
2.20971e-07
4.60492e-05
2.23887e-09
6.36554e-05
2.15202e-10
0.00144091
0.00126048
0.000111026
1.07575e-08
2.27619e-05
2.57639e-07
1.3027e-05
1.61891e-06
6.9805e-11
4.183e-08
4.53735e-07
2.88792e-06
0.000251388
0.104111
0.122908
0.120651
0.12016
0.122115
0.124411
0.124054
0.116135
0.105564
0.0985113
0.073794
0.0414567
0.0113051
0.00353451
0.000783804
2.32347e-05
2.3106e-07
8.32238e-06
1.51875e-06
8.22002e-06
2.25662e-09
0.00536397
0.000101029
0.00302822
1.01453e-05
1.8002e-05
3.19963e-06
4.00761e-05
7.32287e-05
0.00417514
0.000798497
0.000311358
3.22155e-09
3.16819e-05
5.72819e-08
1.51918e-05
2.02992e-06
2.64002e-12
3.59593e-08
5.62086e-08
2.46939e-05
5.25773e-05
0.00046889
0.103472
0.12126
0.120392
0.120485
0.122473
0.124843
0.124072
0.116169
0.105451
0.0969377
0.0728213
0.0412064
0.0109067
0.00367515
0.000693996
4.44157e-05
1.99508e-07
7.05654e-06
9.65393e-07
2.8724e-06
1.63365e-06
3.58794e-14
0.0142768
0.00419094
0.000234367
1.31374e-07
3.21188e-05
2.50807e-06
3.16728e-06
0.00236785
3.84025e-05
0.000698492
7.77233e-07
3.5199e-05
2.9642e-10
1.85013e-05
2.53886e-06
5.10552e-14
5.56298e-08
3.68928e-08
1.381e-05
0.000157301
0.00015958
0.00160855
0.104809
0.121316
0.121092
0.121073
0.122519
0.124993
0.123685
0.115794
0.105292
0.0959967
0.0726077
0.0405264
0.01109
0.00371439
0.000625888
4.27008e-05
2.47034e-07
7.54521e-06
2.04333e-07
8.29075e-07
2.07293e-06
0.00014125
0.0178836
0.00110185
0.00108007
1.01569e-08
9.21586e-05
3.16882e-09
3.89286e-05
6.07139e-05
0.00012778
0.00116327
8.56942e-06
2.80379e-05
1.35618e-08
2.19938e-05
3.41535e-06
2.09317e-11
7.38038e-08
1.03285e-08
1.18925e-05
0.000126659
0.000328388
0.00068716
0.00918407
0.107933
0.122289
0.123106
0.122582
0.122481
0.124981
0.123429
0.114934
0.103969
0.0928723
0.0729905
0.0403992
0.0109045
0.0039604
0.000763206
7.16658e-05
6.79291e-07
9.55899e-06
1.0791e-08
2.34655e-07
6.24918e-07
1.36091e-05
0.00163442
0.00236266
0.00326584
2.5105e-05
4.97235e-05
2.09591e-06
6.55975e-05
3.15086e-05
0.00241975
0.00116982
5.01372e-05
1.19806e-05
5.66717e-07
2.3409e-05
4.98824e-06
3.94043e-10
1.03452e-07
2.5341e-09
8.70098e-06
0.000126327
0.00029522
0.000836947
0.00663161
0.0231942
0.110624
0.123681
0.123987
0.122636
0.122426
0.124922
0.123282
0.114103
0.103219
0.0914425
0.0732708
0.040575
0.0107999
0.00363019
0.000767909
9.5277e-05
7.72999e-07
7.41681e-06
5.43633e-13
1.01119e-08
4.31924e-07
1.11633e-08
3.29423e-05
0.0189655
0.00342215
0.000451737
7.07016e-07
3.22623e-05
1.03959e-05
8.1284e-05
0.00353288
0.000430755
0.000192116
9.56519e-07
3.29793e-06
2.04731e-05
7.85721e-06
2.32403e-09
1.44558e-07
2.59487e-10
6.40855e-06
0.000115582
0.000312953
0.000657088
0.00634035
0.0210559
0.0329698
0.115358
0.124856
0.12381
0.122231
0.121781
0.124969
0.123273
0.11336
0.102959
0.0906152
0.0736536
0.0406725
0.0111628
0.00338874
0.000660814
0.000127323
6.60006e-07
2.43522e-06
5.03689e-10
1.90587e-08
1.28451e-07
2.3912e-08
0.000145091
0.0132815
1.64687e-05
0.00195384
1.20274e-07
0.000137403
7.47633e-07
7.14982e-11
0.000881021
9.96318e-07
0.000672066
8.88152e-09
1.30322e-05
1.31719e-05
1.26963e-05
1.34678e-08
2.03434e-07
3.54106e-13
4.5585e-06
0.000106359
0.000318075
0.000582557
0.00537415
0.0206702
0.0323781
0.0355293
0.117412
0.125998
0.123242
0.121719
0.121906
0.125165
0.122933
0.112908
0.102807
0.0900059
0.07346
0.0401144
0.011557
0.00358351
0.000538235
0.000146572
4.51742e-07
4.14169e-07
1.40284e-07
1.38896e-08
1.23036e-08
1.69858e-07
3.64958e-06
0.000213588
0.00806633
0.00436537
3.65165e-06
0.000125692
2.0926e-07
6.69715e-05
1.09664e-08
0.000315568
0.00104163
4.15627e-06
2.53387e-05
5.31929e-06
2.00525e-05
6.46761e-08
2.74171e-07
6.62672e-11
3.19771e-06
9.492e-05
0.00032706
0.000519687
0.00459559
0.0196045
0.0326711
0.0359358
0.0346142
0.11813
0.125321
0.120887
0.120944
0.122341
0.125492
0.123148
0.112256
0.1026
0.0893408
0.0730784
0.0395674
0.0113886
0.00369548
0.000508899
0.000160565
5.58746e-07
5.63289e-08
1.50714e-08
4.38471e-09
5.02378e-08
1.76956e-07
2.38032e-12
0.000183838
0.0258954
0.0041416
0.000733687
1.42741e-05
9.90043e-06
3.39843e-05
0.000384634
0.00265501
0.000830904
3.19605e-05
4.80939e-05
1.05234e-06
3.00781e-05
2.64288e-07
3.31276e-07
2.35782e-09
2.19523e-06
8.35793e-05
0.000335742
0.000480936
0.00384609
0.0186053
0.032449
0.0368236
0.0353026
0.0331554
0.11838
0.124517
0.119243
0.120832
0.123337
0.12577
0.123014
0.112681
0.102658
0.0887513
0.0720698
0.0393671
0.012126
0.00327991
0.000437631
0.000197158
1.18647e-06
3.13909e-09
3.35355e-07
1.57467e-11
2.26145e-07
1.44295e-06
6.15014e-08
0.000114094
0.0159803
7.14748e-05
0.00177533
8.35368e-10
7.79939e-05
5.95774e-07
0.000287574
0.00353931
0.000212279
8.0469e-05
2.83771e-05
8.94458e-08
3.91749e-05
8.51816e-07
3.29892e-07
1.63726e-08
1.43938e-06
7.1741e-05
0.000346092
0.000456163
0.00318012
0.0175145
0.0322548
0.0373267
0.0363666
0.0339414
0.0316845
0.11771
0.123408
0.118801
0.121355
0.124421
0.126023
0.122963
0.112808
0.10264
0.0879861
0.0707976
0.0391729
0.0128698
0.00353759
0.000332972
0.000207456
1.36259e-06
4.54401e-12
1.33167e-06
9.44854e-10
5.23283e-07
1.05736e-06
3.04461e-07
8.33529e-07
0.000317444
0.00556746
0.0034577
1.16368e-08
0.000180575
9.2645e-10
6.07681e-07
0.00104805
2.65372e-15
0.000142896
2.8391e-06
8.93309e-14
4.2043e-05
2.2432e-06
2.53073e-07
6.21058e-08
8.72448e-07
6.12877e-05
0.000353711
0.00043687
0.00259629
0.0163787
0.0319626
0.037877
0.0371056
0.0350111
0.0325458
0.0301374
0.120135
0.123074
0.118674
0.121885
0.124986
0.125575
0.121992
0.11293
0.101884
0.08792
0.0696335
0.0385086
0.0138145
0.0038131
0.000307639
0.000191266
1.46309e-06
2.87828e-10
2.13722e-06
1.73093e-08
1.67155e-06
5.49942e-07
3.09734e-08
4.65533e-07
0.000397631
0.0233412
0.00385106
0.000351785
0.000110167
6.46546e-06
4.98803e-08
5.35717e-07
0.000397168
0.000237676
6.96268e-08
1.45625e-08
3.47094e-05
4.81474e-06
1.36117e-07
1.42798e-07
4.40679e-07
5.10936e-05
0.000358207
0.000432415
0.00209551
0.0152013
0.0316067
0.0383697
0.0379313
0.0357783
0.033589
0.0310769
0.0285081
0.123608
0.124873
0.12049
0.122552
0.125128
0.125157
0.121561
0.113027
0.101351
0.087038
0.068756
0.0388374
0.014269
0.00394255
0.000306789
0.000164898
3.93683e-07
2.6189e-08
5.36685e-06
2.40802e-08
1.73577e-06
1.0481e-08
8.10783e-08
2.01499e-10
0.000483609
0.0175614
7.5376e-05
0.00180703
5.2433e-06
2.45945e-05
6.30992e-08
0.000204287
0.00172641
0.000143506
5.36865e-05
2.99866e-07
2.12021e-05
8.7693e-06
4.05648e-08
2.41297e-07
1.70891e-07
4.15334e-05
0.000360293
0.000435289
0.00166988
0.0140203
0.0311697
0.0388235
0.0387474
0.0366363
0.0343652
0.0320678
0.0295291
0.0268502
0.125984
0.126435
0.121734
0.123321
0.12523
0.124709
0.120919
0.113144
0.100613
0.0865258
0.0673131
0.0400019
0.0159742
0.00386006
0.000306332
0.00012094
2.73005e-07
1.92195e-13
5.67272e-06
6.39319e-08
8.02974e-07
9.75085e-16
1.09517e-06
9.64911e-09
3.49739e-05
0.00137175
0.00383579
0.00394206
1.2393e-10
0.000119789
3.1431e-08
0.000585823
0.00216131
1.76351e-05
0.000191493
4.56706e-06
1.079e-05
1.39312e-05
3.80853e-09
2.92908e-07
4.69326e-08
3.2301e-05
0.000361096
0.000447799
0.00131842
0.0128294
0.0306451
0.0392259
0.0395763
0.0374904
0.0352218
0.032846
0.030443
0.0279466
0.0252337
0.128494
0.127207
0.121845
0.12317
0.125013
0.124531
0.120574
0.113225
0.0999018
0.0861967
0.0663189
0.0395161
0.0169376
0.00457463
0.00028769
8.40644e-05
5.00552e-08
3.03541e-08
9.02805e-06
1.41836e-07
4.0305e-07
1.23141e-09
1.2991e-06
2.33364e-10
8.54842e-09
0.000119622
0.0228358
0.00467638
4.4076e-05
0.000282701
1.73293e-06
0.00032647
0.0012707
1.88306e-05
0.000141102
4.54306e-07
2.49827e-06
1.93078e-05
4.28993e-13
2.74231e-07
7.92744e-09
2.3415e-05
0.000359669
0.000468543
0.00102935
0.0116393
0.0300414
0.0395808
0.0404139
0.0383674
0.0360851
0.0336951
0.0312083
0.0287562
0.0263829
0.0237289
0.129144
0.127672
0.122506
0.123192
0.124829
0.124148
0.120439
0.11352
0.0997185
0.0851542
0.0659929
0.0396507
0.0167578
0.00508655
0.000305271
6.58548e-05
8.27055e-11
1.39824e-07
3.54391e-06
2.65953e-07
2.9137e-07
3.52442e-08
1.96754e-08
1.45226e-07
4.41278e-08
0.000621277
0.0244323
0.000864479
0.00209857
0.0003423
2.1175e-06
0.000512564
0.000265529
0.00073033
5.69887e-05
5.25393e-09
1.06711e-06
2.20515e-05
1.43633e-09
2.05814e-07
7.82636e-10
1.55398e-05
0.0003536
0.000497326
0.000798692
0.0104607
0.0293572
0.0398894
0.041258
0.039263
0.0369714
0.0345493
0.0320324
0.0295019
0.0270768
0.0249029
0.0224108
0.129756
0.127126
0.122483
0.123701
0.125039
0.124223
0.120463
0.11361
0.0993201
0.0842963
0.0645188
0.0409777
0.0169881
0.00500841
0.000318081
3.37899e-05
5.28989e-12
1.14845e-07
8.0884e-07
1.45833e-07
9.85599e-07
2.16745e-07
1.50004e-09
5.68953e-07
9.49974e-08
0.000118795
0.00704924
0.000285949
0.00419688
0.000146819
4.79322e-07
0.00121739
2.17663e-06
0.00185042
1.1415e-05
4.05921e-05
7.48346e-07
1.946e-05
2.11246e-08
1.35005e-07
7.45046e-11
9.41801e-06
0.000338993
0.00053796
0.000618283
0.00930724
0.0286029
0.0401491
0.0421003
0.0401752
0.0378768
0.035432
0.0328705
0.0302826
0.0277877
0.0254812
0.0235744
0.0213332
0.131532
0.127029
0.122745
0.124027
0.124662
0.124213
0.120907
0.11436
0.0989347
0.0830374
0.064384
0.0405999
0.0183649
0.00499095
0.000308091
2.15658e-05
1.13293e-08
3.18426e-07
5.3423e-07
3.36824e-07
8.85528e-07
2.91333e-09
8.43944e-09
1.05043e-06
4.65053e-11
9.25169e-07
4.03441e-07
0.0112205
0.00426249
9.12048e-05
6.02158e-06
0.000646902
1.91424e-10
0.00176821
9.98785e-07
0.000356135
7.26201e-07
1.29111e-05
7.79749e-08
8.34121e-08
4.09193e-11
5.37827e-06
0.000314243
0.000587921
0.00048046
0.00818354
0.0277708
0.0403522
0.0429386
0.0411077
0.0388012
0.0363321
0.0337322
0.0310893
0.028525
0.0261387
0.0240305
0.022448
0.0205383
0.134618
0.127911
0.123298
0.124443
0.124418
0.123693
0.121096
0.114622
0.0982932
0.0818587
0.064035
0.0418581
0.0180253
0.00546773
0.00027196
9.39578e-06
1.7188e-09
1.24175e-06
1.80367e-06
8.10745e-07
1.50646e-07
7.41013e-09
6.42225e-09
2.90507e-07
2.4383e-07
2.49561e-07
0.000674444
0.0223199
0.00269538
0.00101748
4.39588e-05
0.000135771
5.20358e-05
0.00106992
0.00018313
0.000661052
4.46956e-08
7.09737e-06
1.53476e-07
5.08021e-08
1.59969e-10
3.14443e-06
0.00027951
0.000642054
0.000382625
0.00709638
0.0268698
0.0404893
0.0437673
0.0420598
0.039748
0.0372572
0.0346141
0.0319137
0.029277
0.0268185
0.0246305
0.0227838
0.0215732
0.0200771
0.138135
0.129229
0.124028
0.124606
0.124192
0.123315
0.121667
0.114876
0.0976277
0.0806947
0.0635064
0.0429523
0.0187761
0.00545138
0.000296536
1.80416e-06
2.5873e-11
1.74212e-07
1.48512e-07
3.77044e-07
1.06794e-07
6.29364e-08
4.09923e-09
5.0401e-09
3.43885e-06
4.61985e-08
0.000693428
0.0152749
7.24178e-06
0.00305125
0.000109121
8.57705e-06
0.000617623
0.000427758
0.00164202
0.000269413
6.61941e-06
4.22247e-06
1.90663e-07
3.19302e-08
7.56573e-10
2.04457e-06
0.000239777
0.000693949
0.000316345
0.00605722
0.0259019
0.0405579
0.0445845
0.0430304
0.040719
0.0382037
0.0355183
0.0327651
0.0300561
0.0275115
0.0252348
0.0233111
0.0217922
0.0209865
0.019988
0.141967
0.130568
0.124168
0.124573
0.124076
0.122956
0.122367
0.115198
0.097179
0.0796888
0.0642132
0.043793
0.019658
0.00547538
0.000261591
9.57021e-07
2.45946e-11
2.50926e-08
6.58167e-07
1.33937e-07
2.51903e-08
3.03816e-07
1.25423e-10
1.67739e-09
7.29996e-06
5.55678e-16
9.92557e-05
0.00204729
0.00292154
0.00317425
0.000215838
1.38868e-06
0.00162616
0.000151067
0.00382529
3.00184e-05
8.4428e-05
4.19042e-06
1.29459e-07
2.46016e-08
2.61145e-09
1.57299e-06
0.000203213
0.000734905
0.000274581
0.00508114
0.0248637
0.0405557
0.0453875
0.0440205
0.0417082
0.039171
0.0364482
0.0336377
0.0308599
0.0282367
0.0258629
0.0238369
0.0222424
0.0210958
0.0207155
0.0202822
0.144602
0.132112
0.123805
0.124478
0.123716
0.12265
0.123009
0.115459
0.0953669
0.0789689
0.0640904
0.0457882
0.0199059
0.00548377
0.000247879
1.16008e-07
5.64674e-14
7.18313e-08
1.39146e-06
3.04178e-07
6.97423e-08
3.50507e-07
3.81782e-08
4.11174e-08
3.06184e-06
7.30503e-14
8.96807e-07
5.3605e-06
0.0132892
0.00279634
0.00146698
2.63394e-07
0.00116653
2.46182e-05
0.00416416
9.69398e-07
0.000632933
7.42843e-06
2.75883e-08
2.622e-08
5.23377e-09
1.43702e-06
0.000175016
0.000764711
0.000247272
0.00419243
0.0237597
0.0404791
0.046167
0.0450307
0.0427215
0.0401596
0.0373944
0.0345315
0.0316876
0.0289792
0.0265164
0.0243901
0.0226764
0.0214632
0.0207288
0.0208179
0.0209998
0.147447
0.133167
0.123418
0.124012
0.123509
0.122506
0.123607
0.11565
0.093289
0.0781703
0.0638675
0.046859
0.0217415
0.00504469
0.00027439
1.30006e-08
1.66716e-08
2.1933e-08
9.095e-07
2.89578e-07
2.07252e-12
1.01653e-06
1.85101e-07
7.90495e-07
8.40661e-08
8.50285e-08
1.66076e-08
0.000691069
0.0161155
0.00101516
0.00738694
1.36312e-11
0.00103573
9.7927e-08
0.0029256
5.21418e-05
0.00156547
1.0708e-05
8.40525e-11
3.75555e-08
8.31869e-09
1.45312e-06
0.000155902
0.000781094
0.000222297
0.00340866
0.0225896
0.040331
0.0469191
0.0460585
0.0437576
0.0411752
0.0383706
0.0354498
0.0325376
0.0297477
0.0271921
0.0249659
0.0231474
0.021803
0.0209905
0.0207327
0.0213102
0.0221827
0.151075
0.134539
0.123416
0.123155
0.123135
0.122618
0.124745
0.115637
0.0913503
0.0778776
0.0638931
0.0480062
0.0223036
0.00479324
0.000319185
2.71032e-11
1.71372e-11
5.30135e-12
3.48178e-06
6.54243e-08
6.87507e-13
5.96826e-08
4.17694e-08
7.17903e-08
1.60534e-11
1.25855e-06
2.0242e-07
0.000723858
0.00822808
1.40103e-07
0.00465621
3.66108e-08
0.000590888
0.000124585
0.00121088
0.000732713
0.0013009
3.55758e-06
1.25572e-09
6.68322e-08
1.09847e-08
1.52882e-06
0.000145701
0.00079457
0.000200348
0.00273334
0.0213758
0.0401084
0.0476314
0.0471057
0.044818
0.0422121
0.0393706
0.0363919
0.0334107
0.0305394
0.0278938
0.0255663
0.0236405
0.0221787
0.0212395
0.0208776
0.021122
0.022225
0.0238344
0.154731
0.136365
0.123649
0.1222
0.122379
0.123279
0.125725
0.115458
0.0892006
0.0779525
0.0642124
0.049215
0.0226798
0.00427386
0.000317038
2.99759e-10
1.24126e-14
3.37709e-08
2.5561e-06
1.00925e-07
2.8725e-08
1.11301e-13
5.56473e-09
1.5502e-08
1.72883e-10
1.68684e-06
1.56094e-12
0.000319995
0.000657694
0.00324514
0.00152018
3.2965e-05
0.000445704
0.000317742
0.000783974
0.00291006
0.000479208
0.000102396
5.07461e-09
1.4218e-07
1.21843e-08
1.62683e-06
0.000139725
0.000817888
0.00017814
0.00215247
0.0201662
0.0398054
0.0483025
0.0481755
0.0459031
0.0432782
0.0403927
0.0373574
0.0343057
0.0313541
0.0286147
0.0261906
0.0241603
0.0225831
0.0215167
0.0210102
0.0211457
0.0219238
0.0235949
0.0259926
0.156992
0.137945
0.123587
0.121062
0.121594
0.124491
0.126528
0.114704
0.0875053
0.0779598
0.0645057
0.0498461
0.0234096
0.00375449
0.000338424
2.00433e-07
3.10846e-10
1.87475e-08
6.1657e-07
5.07679e-07
7.57933e-10
5.49546e-15
1.56272e-09
1.3402e-07
8.78634e-10
1.51227e-06
1.97687e-07
9.54909e-05
6.10222e-06
0.0131714
0.000904009
0.00213466
0.00026971
0.000339358
0.000284687
0.00409299
0.000100268
0.00056803
4.43953e-12
3.89182e-07
1.00205e-08
1.70533e-06
0.000137171
0.000847628
0.000157143
0.00165392
0.018972
0.0394233
0.0489269
0.0492646
0.047011
0.0443707
0.0414421
0.0383512
0.0352257
0.0321933
0.0293637
0.026837
0.024699
0.0230062
0.0218189
0.0211836
0.0211596
0.0218106
0.0231684
0.0254259
0.0286397
0.158328
0.138594
0.122466
0.119973
0.120969
0.125707
0.127358
0.113174
0.0861791
0.0786169
0.0647927
0.0503872
0.0230659
0.00328133
0.000357761
9.82135e-08
5.69803e-10
1.63585e-07
3.60581e-07
8.6628e-07
4.44262e-08
1.87315e-10
1.06082e-16
2.49384e-07
3.41865e-10
1.17218e-06
8.38318e-07
3.80843e-05
0.000334164
0.0142431
0.000203051
0.00747877
0.000149801
0.000137237
4.40554e-05
0.00301002
7.56055e-07
0.00179531
1.20473e-08
1.25854e-06
5.50343e-09
1.77572e-06
0.000136521
0.000879694
0.000142101
0.00122915
0.0178052
0.0389846
0.0495123
0.0503744
0.0481441
0.0454884
0.0425186
0.0393638
0.03617
0.0330533
0.0301338
0.0275108
0.0252619
0.0234482
0.022139
0.0213799
0.0212169
0.0217052
0.0229113
0.024887
0.0277388
0.0317217
0.159958
0.13857
0.120716
0.119238
0.120772
0.12727
0.127933
0.1112
0.0859386
0.0792084
0.0658469
0.0506378
0.0229535
0.00271592
0.000321171
4.67695e-08
1.93589e-11
4.44895e-07
7.58246e-07
2.09603e-07
3.04667e-06
6.53382e-11
3.20287e-08
1.55211e-07
5.7339e-11
1.26429e-06
5.5174e-07
2.67461e-05
0.000355137
0.00620574
4.22387e-09
0.0102638
6.42514e-05
5.8674e-05
3.75668e-08
0.00164758
6.42262e-05
0.00230769
1.13487e-08
3.17909e-06
2.49685e-09
1.79194e-06
0.000137219
0.000905568
0.000131767
0.000882723
0.0166618
0.0385115
0.0500536
0.0514973
0.0493017
0.0466352
0.0436205
0.0404061
0.0371335
0.033935
0.0309219
0.0282043
0.0258474
0.0239284
0.0224909
0.021597
0.0212903
0.0216292
0.0226606
0.0244643
0.0270683
0.0305048
0.0351785
0.16218
0.138426
0.118811
0.118869
0.121184
0.128839
0.128124
0.109639
0.0863377
0.0797743
0.0662862
0.0510967
0.0228708
0.00258871
0.000331049
2.90553e-08
1.00995e-09
1.868e-07
1.61159e-07
9.80566e-07
6.41468e-06
8.00215e-08
2.5308e-07
9.36513e-07
2.09521e-07
2.85926e-06
4.0791e-07
8.4318e-06
0.000277439
0.000529288
0.00198409
0.00696235
8.57332e-07
2.63817e-05
1.76735e-05
0.000561445
0.000894496
0.00163677
8.30452e-08
4.51237e-06
1.43206e-09
1.67624e-06
0.000138133
0.000917219
0.000125851
0.000615229
0.0155268
0.0380229
0.0505514
0.0526175
0.0504876
0.0478057
0.0447494
0.0414723
0.038122
0.0348432
0.0317401
0.0289205
0.0264616
0.0244254
0.0228708
0.0218493
0.021406
0.0215826
0.0224512
0.024067
0.0264726
0.02969
0.0336576
0.0388945
0.164497
0.138922
0.116842
0.11945
0.122134
0.129828
0.127966
0.108079
0.0875262
0.0794446
0.0664899
0.0507548
0.022316
0.00258226
0.000346665
1.48282e-10
3.08993e-09
7.2306e-08
1.10875e-07
7.54027e-08
4.19461e-06
1.36803e-15
9.3135e-08
6.80334e-08
7.40906e-07
1.28444e-05
1.38371e-06
5.26445e-06
0.000528792
1.49551e-08
0.00697006
0.00147575
6.2071e-05
1.47778e-05
3.99581e-05
0.000249335
0.00168635
0.000732952
5.78513e-05
3.08113e-06
8.30819e-10
1.39138e-06
0.000136226
0.000914915
0.000122401
0.00042253
0.0144016
0.0375197
0.0510177
0.0537199
0.0516932
0.0489955
0.0458987
0.0425591
0.0391406
0.0357713
0.0325837
0.0296609
0.027101
0.0249504
0.0232727
0.0221217
0.0215451
0.0215779
0.0222776
0.0237078
0.0259137
0.0289295
0.0327419
0.0371219
0.0427032
0.167487
0.139773
0.11548
0.120922
0.123534
0.13043
0.127735
0.106712
0.0891523
0.079235
0.0664951
0.0501867
0.021447
0.0025591
0.000350453
1.08424e-10
1.65749e-08
1.5757e-07
8.98207e-08
8.73851e-10
1.73666e-06
5.04085e-07
1.70645e-08
1.54863e-08
8.73626e-09
3.98795e-07
6.10972e-06
1.62623e-05
0.00101399
9.56612e-06
0.00967916
8.6694e-06
0.00398997
1.06366e-05
1.71437e-05
0.000164109
0.00186333
0.000123971
0.000470531
9.89704e-07
5.22144e-11
9.3102e-07
0.000127736
0.000905375
0.000120015
0.000288455
0.0133177
0.0369697
0.0514575
0.0547764
0.0529033
0.0502006
0.0470612
0.0436688
0.0401782
0.0367233
0.0334455
0.0304285
0.0277575
0.0254951
0.0237033
0.0224286
0.0217063
0.0215912
0.0221237
0.0233772
0.0253929
0.0282097
0.0318111
0.0361141
0.0407741
0.0464174
0.171604
0.141595
0.114137
0.122313
0.125094
0.130485
0.127084
0.106425
0.0901904
0.0785544
0.0666788
0.0492295
0.0207936
0.00284683
0.000256537
5.64026e-10
1.2751e-09
6.48895e-08
2.44705e-07
3.78332e-08
1.59955e-06
2.01183e-07
2.67174e-09
9.44747e-08
1.02518e-10
2.52797e-09
1.20538e-05
3.02818e-05
0.000640829
4.68515e-05
0.00494098
3.12635e-05
0.0101925
5.93e-06
1.13519e-06
1.97582e-06
0.0008834
4.2204e-12
0.000971924
5.58427e-07
3.32784e-11
4.96085e-07
0.000111968
0.000905309
0.000119053
0.000196742
0.012346
0.0363751
0.0518691
0.055805
0.0540931
0.0514209
0.0482438
0.0448071
0.0412514
0.0377217
0.0343393
0.0312225
0.0284399
0.0260714
0.0241603
0.0227598
0.021905
0.0216395
0.0220173
0.0230857
0.0249067
0.0275288
0.0309364
0.0350488
0.0396946
0.0444329
0.0498715
0.175002
0.145809
0.113469
0.123137
0.126433
0.129742
0.12652
0.106325
0.0907285
0.0773761
0.0662169
0.0491925
0.0202988
0.003233
0.000220298
4.27497e-10
6.68899e-10
2.2616e-07
1.43468e-06
2.1246e-07
2.71589e-06
1.79064e-07
2.80298e-13
2.76323e-07
5.0931e-07
1.46497e-08
2.52933e-05
4.19294e-05
0.000227235
5.71415e-05
0.00143915
0.00102033
0.0130649
4.56728e-07
2.62336e-11
3.84205e-07
0.000306554
8.48477e-05
0.00103517
1.32317e-07