/*--------------------------------*- C++ -*----------------------------------*\
| =========                 |                                                 |
| \\      /  F ield         | OpenFOAM: The Open Source CFD Toolbox           |
|  \\    /   O peration     | Version:  v2012                                 |
|   \\  /    A nd           | Website:  www.openfoam.com                      |
|    \\/     M anipulation  |                                                 |
\*---------------------------------------------------------------------------*/
FoamFile
{
    version     2.0;
    format      ascii;
    class       volScalarField;
    location    "12000";
    object      I2_4;
}
// * * * * * * * * * * * * * * * * * * * * * * * * * * * * * * * * * * * * * //

dimensions      [0 0 0 0 0 0 0];


internalField   nonuniform List<scalar> 
27324
(
0.736984
0.698794
0.84819
0.526295
0.840496
1.14194
0.367137
0.68047
1.2296
1.74332
0.13496
0.52743
1.13341
2.15256
2.94184
0.00288796
0.231845
1.0693
2.43263
4.42088
3.65119
8.81622
0.00947525
0.748305
3.10774
5.93401
5.63524
2.73236
2.94633
16.4086
0.0636701
4.02127
9.27514
5.63807
3.67181
2.46961
1.4535
2.7465
6.80636
0.590176
11.5383
7.0523
3.19618
3.05789
2.65834
0.842471
1.37715
2.19301
0.92241
0.168253
5.70572
3.97083
2.82481
3.27162
2.71707
0.375426
0.762961
1.37122
2.37793
0.87692
1.00982
3.57263
3.7247
2.93454
3.4927
2.60835
0.220509
0.358153
0.7253
1.6588
3.12241
1.27107
0.591019
3.45433
3.86004
2.73658
3.59949
2.64798
0.179894
0.209492
0.378707
0.741151
2.16924
4.04146
1.39925
0.59899
3.54224
3.54207
2.41562
3.77444
2.83471
0.84351
0.139869
0.195377
0.431993
0.751626
2.69513
4.63154
1.72289
0.828952
2.93334
2.96126
2.26239
3.27214
3.35171
0.0261162
0.155198
0.102343
0.184013
0.50864
0.718112
3.10825
5.11115
2.31678
1.221
2.42979
2.40466
2.04992
3.34729
8.60089
0.0883631
0.103438
0.0994462
0.0805788
0.171313
0.596806
0.661156
3.17819
5.2305
3.12769
1.6789
2.33467
2.00417
2.49232
2.71947
8.99468
0.0786203
0.0997561
0.0668462
0.0844144
0.068071
0.159635
0.727632
0.582079
2.76803
4.92386
4.19735
2.73966
2.35345
2.48669
2.1153
5.85612
2.72415
0.0911794
0.0802894
0.0712091
0.0602138
0.0580023
0.0600796
0.163071
0.925389
0.492083
2.19099
4.07477
4.85056
4.08148
3.56044
2.4399
5.99185
3.3198
7.01019
0.0726665
0.0720246
0.0626677
0.0683044
0.128739
0.0455917
0.0572611
0.193665
1.09449
0.402108
1.53553
2.80074
4.27723
4.87791
5.0368
4.5942
4.98828
8.71041
3.13752
0.0459701
0.0558879
0.0625988
0.0812783
0.156669
0.204927
0.0410377
0.0646925
0.258952
1.14959
0.30989
1.02875
1.59305
2.54865
3.4044
3.76073
3.31082
2.83544
2.75456
1.65137
0.0201815
0.0402444
0.0586305
0.0928745
0.2189
0.400438
0.163701
0.0428135
0.0821283
0.369374
0.967767
0.258169
0.689449
0.833653
1.10762
1.36051
1.39451
1.26388
0.896119
0.489835
2.05304
0.00523679
0.0213922
0.0519305
0.107741
0.247635
0.630857
0.229411
0.182107
0.0428607
0.115442
0.519243
0.758338
0.276154
0.442036
0.451063
0.503323
0.552068
0.533826
0.484607
0.444162
0.172578
0.927622
0.000697009
0.00745615
0.0382893
0.136186
0.312886
0.558484
0.263428
0.168085
0.167486
0.0485765
0.181305
0.679049
0.751824
0.896948
0.165365
0.209299
0.287916
0.368092
0.396432
0.433669
0.594786
0.712247
2.75494
5.32969e-06
0.00127236
0.0303228
0.208553
0.440896
0.490969
0.210832
0.314018
0.144399
0.139214
0.0612601
0.305265
0.762071
0.780414
1.0929
14.3492
0.186937
0.569519
0.617542
0.647337
1.56338
1.93941
0.185183
2.55246
0.023951
0.00196455
0.0202929
0.540841
0.697409
0.407354
0.203136
0.235258
0.263928
0.118491
0.0860962
0.0898004
0.513391
0.762254
0.514527
0.436693
1.27709
1.11289
1.18762
1.24017
0.79069
0.902613
0.73325
0.347009
3.01417
3.16521
153.505
0.424393
0.815915
0.720382
0.365235
0.224844
0.262579
0.174502
0.232131
0.121123
0.0644392
0.144667
0.778622
0.70299
0.399957
0.693029
0.934371
1.03915
0.853193
0.761805
0.359307
0.551425
0.691225
0.926311
3.82394
4462.02
0.685668
0.0766323
0.052379
0.361173
0.270018
0.254682
0.259068
0.195193
0.158685
0.252852
0.201714
0.0656505
0.250516
0.994561
0.577326
1.39172
1.46251
1.01992
0.947604
0.654913
0.663825
0.0544911
0.590459
1.00578
2.07729
4.33399
1077.79
0.141886
0.0442475
0.0377018
0.114089
0.365733
0.244434
0.27932
0.202482
0.213903
0.234249
0.191516
0.112823
0.102446
0.427758
1.06101
0.567813
2.06521
0.902665
0.958912
0.793917
0.593106
3.37632
1.01513
0.607465
2.05071
3.03107
4.99762
39.9056
0.11749
0.0737788
0.130913
0.187311
0.154199
0.254506
0.227334
0.224851
0.233671
0.306069
0.192762
0.135428
0.070822
0.175402
0.641002
0.930742
0.829029
0.58974
0.991573
0.881181
0.716491
0.849726
0.897089
0.573693
1.12735
3.87703
2.72249
6.68936
40.1791
0.142244
0.151588
0.345764
0.500309
0.140439
0.225322
0.265527
0.189994
0.296019
0.266662
0.260698
0.166321
0.120546
0.0893656
0.303257
0.868169
0.877571
0.317338
0.926528
0.965073
0.743158
0.761263
7.35215
0.773569
0.717895
2.64211
4.9399
1.94747
7.60604
0.00435306
0.560853
0.426451
0.622211
0.43994
0.07628
0.155816
0.310081
0.228461
0.262333
0.324074
0.229233
0.251574
0.0961184
0.0670789
0.143076
0.519331
1.02583
1.22236
0.795926
0.978
0.811021
0.66367
1.5841
1.80972
0.532128
1.69545
4.44605
4.64985
1.3496
6.32278
0.0349826
0.0188719
0.502054
0.754612
0.196139
0.0344328
0.162769
0.174575
0.275867
0.255515
0.274616
0.298008
0.214164
0.206934
0.0266967
0.094857
0.23732
0.789398
1.10201
1.13783
1.03799
0.868086
0.688822
0.864078
0.688316
0.547651
0.996335
3.81182
4.68333
3.7298
1.01342
6.17008
0.0235116
0.0175503
0.00282653
0.871558
0.072203
0.028906
0.0989859
0.0857841
0.236755
0.269716
0.239106
0.267647
0.289258
0.196498
0.266206
0.0470076
0.138904
0.40363
1.03013
0.993796
1.31708
0.894036
0.71038
0.705704
30.4055
0.871198
0.632692
2.68279
5.14057
3.64605
2.66693
1.29442
8.36871
0.0114998
0.0131748
0.00848691
0.0484047
0.0767095
0.0278303
0.0965718
0.0386991
0.21252
0.171066
0.342262
0.248274
0.278818
0.275477
0.184684
1.29708
0.105852
0.208407
0.707627
1.21913
1.14116
0.797161
0.745131
0.705472
1.76478
2.2276
0.497589
1.6512
4.94211
4.37017
2.47589
2.78711
2.12134
8.93855
0.00245009
0.0146097
0.0339538
1.52791
0.0264537
0.0849147
0.10203
0.0482978
0.167077
0.160407
0.276102
0.28357
0.268548
0.275479
0.248925
0.190677
0.052194
0.149735
0.35179
1.16163
2.2098
0.434771
0.809856
0.717257
0.863073
0.00877488
0.554533
0.965276
4.12325
4.96354
3.0116
2.45106
4.50297
2.54135
4.2354
9.04058e-05
0.0177975
0.205624
21.5238
0.414458
0.179538
0.212654
0.102522
0.247734
0.0816239
0.363356
0.290563
0.246511
0.270984
0.266372
0.242167
0.225704
0.136724
0.199005
0.659487
1.5959
0.0727252
0.89798
0.75476
0.71477
12.6212
1.0031
0.606874
2.90208
5.4237
3.52038
2.75519
3.92478
5.21019
1.96815
3.57995
0.0871319
0.0121649
1.62962
68.3011
82.8672
0.760687
0.314111
0.279733
0.25734
0.192192
0.21905
0.232213
0.286938
0.26458
0.267525
0.273894
0.204118
0.226839
0.161673
0.337784
1.16733
1.95753
0.810875
0.793228
0.700693
1.39908
3.01062
0.467653
1.78291
5.37585
4.12886
2.97797
4.29485
4.54376
3.01823
2.41699
3.56158
2185.04
0.0579915
0.00207181
2.90131
1.88979
0.326665
0.706906
0.307195
0.356053
0.224775
0.272422
0.053973
0.231567
0.240497
0.278876
0.242499
0.232377
0.267903
0.187386
0.198205
0.70489
1.85814
42.6122
0.914351
0.681318
0.841944
0.0164623
0.504785
1.03479
4.62675
4.84058
3.17774
5.03957
4.39305
2.72963
3.16758
2.74935
3.9313
9.42192
0.0288749
0.00559372
0.150122
0.266992
0.396444
1.25423
0.191687
0.362877
0.315921
0.223189
0.193074
0.0447265
0.154773
0.266521
0.254933
0.230676
0.193379
0.245833
0.176293
0.348777
1.50199
10.8771
1.35675
0.688194
0.671911
28.9045
0.870396
0.633117
3.38468
5.45121
3.727
6.69819
3.97541
2.82237
2.97073
3.42723
3.1841
4.35292
0.929831
0.0220762
0.0245735
0.151519
0.156115
0.35319
1.03611
0.0619418
0.337581
0.353718
0.336225
0.208413
0.265899
4.11235e-09
0.188998
0.257236
0.235381
0.238519
0.121683
0.247395
0.202458
0.830334
2.66696
1.17842
0.691522
0.637326
1.99055
2.54202
0.460706
2.14625
5.61165
4.55059
7.48935
3.47932
2.84
2.99196
3.34628
3.89753
3.65962
4.79805
0.956767
0.0295965
0.0806433
0.83945
0.51403
0.0962033
0.324908
0.111515
0.40854
0.247448
0.346597
0.329699
0.19866
0.310839
0.0389978
0.216916
0.242216
0.204811
0.492718
0.55569
0.176543
0.40749
1.86774
106.703
0.791748
0.61492
0.937326
0.456917
0.451305
1.25348
5.1263
5.37444
7.21853
3.11116
2.8993
2.99375
3.40531
3.86122
4.39318
4.1559
5.22768
0.228345
0.0552067
0.396507
0.877327
0.466952
0.0606446
0.399074
0.203932
0.759541
0.106514
0.376061
0.307167
0.322779
0.205841
0.202415
0.0909194
0.248752
0.23469
0.257827
0.50894
0.240027
0.21966
1.16142
9.47435
1.02812
0.624101
0.716589
2007.31
0.682362
0.739293
4.04305
5.9176
7.31367
2.87141
3.01389
3.07467
3.42141
3.9965
4.40635
4.89144
4.63322
5.6234
0.061404
0.0191554
1.5692
0.467132
0.0642238
0.0486421
0.154948
0.272294
0.284801
0.271976
0.139249
0.257889
0.306875
0.333652
0.168835
0.296419
0.254375
0.226768
0.212386
0.314222
0.382837
0.171941
0.553187
3.42523
0.0103543
0.681575
0.644517
3.67171
1.84452
0.489608
2.7501
6.03143
7.31067
2.73865
3.07228
3.19564
3.43623
4.06377
4.59843
4.96028
5.36308
5.05699
5.90572
0.0249428
0.0197194
0.00593445
0.355063
0.0413726
0.0381322
0.0623412
0.307245
0.271679
0.203572
0.184058
0.0440419
0.230533
0.317724
0.27775
0.174202
0.509407
0.226661
0.207946
0.244533
0.109918
0.220758
0.273147
1.77373
97.2242
0.90746
0.602431
1.05548
3.59514
0.407946
1.67007
5.67513
7.00235
2.75898
3.03115
3.36033
3.46052
4.12554
4.7381
5.20866
5.486
5.7801
5.38908
5.92999
0.0141827
0.0254043
0.0286653
0.645256
0.0514821
0.0781502
0.0346236
0.139415
0.254733
0.421264
0.215406
0.339694
0.024731
0.290151
0.276781
0.259821
0.300045
0.268002
0.221444
0.217476
0.593006
0.453989
0.173599
0.912663
8.00636
1.43866
0.568377
0.773574
16.4882
0.480353
0.972628
4.82445
6.4399
2.99048
2.92748
3.52342
3.50834
4.17541
4.88187
5.41351
5.77463
5.9781
6.09324
5.6681
6.29978
0.00523586
0.116687
0.218302
2.94555
0.13673
0.17065
0.0761084
0.162177
0.150042
0.374522
0.339757
0.254531
0.404223
0.0911766
0.204244
0.264048
0.425983
0.632531
0.234297
0.218446
0.218902
0.958342
0.176134
0.410869
3.46469
0.282862
0.597824
0.641749
11.2878
0.904024
0.59856
3.58245
5.94097
3.53646
2.8009
3.65375
3.58742
4.22341
5.00375
5.63313
6.02849
6.3211
6.35604
6.10276
7.14957
6.72319
0.0763843
1.92082
1.00418
1.24571
0.696449
0.391247
0.206849
0.273618
0.106257
0.229562
0.385916
0.325713
0.242188
0.191186
0.128037
0.223838
0.140972
1.38991
0.240114
0.201516
0.219305
2.90426
0.303837
0.215649
1.64382
530.342
0.797394
0.58921
1.4862
2.39328
0.432166
2.36003
5.76302
4.58496
2.69379
3.70463
3.7108
4.27803
5.10943
5.8454
6.30069
6.63724
6.74363
6.4122
6.93602
10.3725
6.08691
1.80494
0.00606653
2.1373
0.191323
0.218042
0.499279
0.291076
0.276271
0.248184
0.395603
0.216366
0.384219
0.334866
0.177677
0.40805
0.24919
0.184978
1.04074
0.220563
0.211244
0.189395
0.444083
1.01344
0.157378
0.752331
14.4328
1.50199
0.537338
0.921288
0.0953126
0.407004
1.46364
5.73875
5.94077
2.55864
3.66586
3.87473
4.35764
5.20147
6.04561
6.57302
6.97484
7.10385
6.78457
7.38507
8.65638
10.8696
5.21631
0.184927
0.0102126
0.11773
0.148168
0.408013
0.546518
0.287283
0.392854
0.292504
0.297384
0.209559
0.143091
0.326916
0.289844
0.224208
0.279065
0.17072
0.282346
0.202335
0.214963
0.179113
0.233832
7.78496
0.18494
0.340613
4.40577
0.0151689
0.537262
0.687066
982.412
0.569726
0.896958
4.68913
6.59361
2.48208
3.54838
4.07398
4.46937
5.28702
6.22915
6.85439
7.313
7.48361
7.20686
7.68629
9.56406
8.61509
8.65302
4.52984
0.937061
0.0443388
0.501463
0.410874
0.164194
1.19301
0.0875099
0.3036
0.419668
0.307188
0.262629
15.0199
0.0879367
0.396244
0.27067
0.229164
0.182216
0.327992
0.0883961
0.200205
0.187585
0.232425
0.00496735
0.33904
0.184393
1.85056
805.556
0.641042
0.631119
3.61099
1.38733
0.58067
3.36401
6.09999
2.45858
3.40056
4.28998
4.61821
5.37655
6.38919
7.14231
7.65502
7.87311
7.67327
8.04378
9.92899
10.0243
6.97119
6.71747
3.91428
0.00266195
1.29111
6.37776
1.04338
0.149922
0.477086
0.224157
0.269583
0.269274
0.400811
0.304415
0.366035
6.76994
0.167114
0.264644
0.425744
0.333348
0.267219
0.514654
0.0545775
0.20489
0.172251
0.286313
0.70772
0.144198
0.79766
35.3701
1.09276
0.572232
1.06458
3.88688
0.434866
2.26639
5.25627
2.79563
3.30272
4.48206
4.80186
5.48788
6.52416
7.41983
8.00912
8.28405
8.15136
8.39463
10.4214
10.7324
8.22746
5.51764
5.27082
3.38694
0.00102022
0.00506114
6.41025
0.170496
0.0184643
0.172326
0.4055
0.533508
0.0984141
0.290531
0.442367
0.30011
0.388472
0.557557
0.122355
0.411753
0.899501
0.297056
0.219245
0.892347
0.216992
0.178559
0.37193
0.496058
0.181381
0.358611
5.75378
0.620979
0.535647
0.788135
0.077681
0.417815
1.46916
4.37557
3.54258
3.26008
4.59727
5.00834
5.63304
6.65156
7.67909
8.3713
8.69772
8.61689
8.78881
10.8833
11.7557
8.90758
6.47992
4.40481
4.21975
2.96821
0.000561303
0.00320167
0.0825022
0.305998
0.0159016
0.0658349
0.488895
0.319213
0.353063
0.0938702
0.234688
0.42146
0.311409
0.231282
0.473508
0.285883
0.658533
0.261305
0.200907
0.259667
0.189822
0.182879
0.263934
0.00174589
0.392931
0.190597
2.28289
9.50767
0.560301
0.632174
6.40439
0.563995
0.965312
3.66451
4.72818
3.31696
4.59227
5.22686
5.82285
6.78967
7.90764
8.74021
9.11386
9.12364
9.23084
11.3644
12.8058
9.87446
6.97603
5.1235
3.58223
3.4871
2.63682
0.000466391
0.0079125
0.153504
0.641249
0.104667
0.0492173
0.253526
0.530611
0.342141
0.356964
0.0141677
0.19958
0.424449
0.28203
0.368078
0.258736
0.231478
0.349708
0.181711
0.245462
0.0622803
0.249356
0.155493
0.606003
1.49912
0.142986
0.905457
375.933
0.75691
0.613046
1.84563
1.14999
0.706451
3.05097
6.50182
3.35347
4.48276
5.44942
6.06348
6.95695
8.10285
9.10988
9.5541
9.64537
9.69259
11.86
13.9359
10.9049
7.69752
5.47194
4.12238
2.99857
2.9715
2.38027
0.0268129
0.330759
0.455665
2.11979
0.596816
0.529055
0.481575
0.200911
0.540645
0.317571
0.317759
0.000155786
0.198166
0.415803
0.281242
0.361601
0.191992
0.128153
0.169459
0.230733
0.117992
0.364577
0.127718
0.235055
13.3674
0.162802
0.405597
13.4127
1.15734
0.552379
1.02287
2.79381
0.573606
2.30493
6.54313
3.32555
4.3409
5.66875
6.34869
7.16986
8.27759
9.44988
10.0023
10.1707
10.1644
12.3533
15.083
12.0838
8.46596
5.98761
4.36239
3.41343
2.58948
2.60601
2.17995
1.1647
0.279472
13.5594
1.3541
0.914477
0.656737
0.652003
0.294355
0.177447
0.534763
0.297728
0.347375
0.00973509
0.25047
0.299584
0.706862
0.249817
0.377249
0.0207182
0.160229
0.203859
0.215231
0.119456
0.269062
0.0423219
0.295028
0.207284
3.68976
0.0228101
0.493721
0.759677
4.20626
0.52291
1.57795
5.28294
3.59802
4.20962
5.86505
6.66508
7.43908
8.45266
9.74165
10.4715
10.7119
10.6484
12.8895
16.2898
13.4016
9.34148
6.52341
4.72621
3.58345
2.91509
2.30052
2.34362
2.02755
0.0854607
0.117517
1.24337
0.18904
0.319936
0.293995
0.827886
0.543543
0.132712
0.255071
0.495619
0.268141
0.288104
0.0924071
0.181677
0.532342
0.831943
0.222182
0.348781
0.110461
0.342272
0.047558
0.159138
0.199277
0.7224
0.758755
0.141949
1.28971
51.1696
0.440411
0.796587
1.79483
0.552062
1.13283
4.12666
4.35503
4.23873
5.99535
6.9889
7.75817
8.66149
9.98622
10.9506
11.2655
11.1402
13.4494
17.5281
14.9111
10.3358
7.1217
5.09152
3.84279
3.04263
2.56753
2.09518
2.15322
1.9092
3.0303
0.220035
0.397315
0.0826078
2.09462
0.0520618
0.455252
0.817104
0.484605
0.3805
0.156941
0.582568
0.205523
0.283777
0.1506
0.294972
1.93667
0.246902
0.139427
0.169771
0.166138
0.120991
0.277039
0.178879
0.513373
1.94638
0.142334
0.5707
100.319
0.430188
0.835814
0.431935
0.65754
0.90657
3.30846
5.75874
4.41195
6.0198
7.30144
8.11747
8.92959
10.1973
11.4049
11.8394
11.6249
14.0261
18.776
16.5931
11.4728
7.79068
5.50011
4.10181
3.23763
2.66368
2.31923
1.94808
2.01273
1.81982
0.00338083
436.432
0.217635
0.100408
0.485316
0.822933
0.0955849
0.658879
0.706586
0.409589
0.22025
0.150793
0.609309
0.178121
0.180182
0.275994
0.44097
0.193101
0.152385
0.568877
0.153352
0.474768
0.517066
0.161823
0.264541
1.43179
0.214851
0.288305
5.92615
0.270671
0.77128
0.590816
0.762483
0.811992
2.65568
7.51869
4.67986
5.93768
7.58769
8.50362
9.27045
10.4061
11.806
12.4306
12.1239
14.6358
20.0452
18.4741
12.7556
8.55135
5.94755
4.38296
3.42354
2.8144
2.39804
2.13953
1.84257
1.91147
1.75175
0.00892249
3.48522
0.0268441
0.043009
0.600905
1.71528
0.384913
1.45082
0.598783
0.754988
0.371268
0.124431
0.298111
0.519302
0.153497
0.303716
0.38236
0.0204401
0.148706
0.713658
0.309172
0.18878
0.0590793
0.17521
0.156055
6.19813
0.500898
0.174888
2.10516
0.136742
0.696786
0.803015
1.19741
0.781768
1.98147
7.45161
4.83784
5.82967
7.83624
8.90796
9.67951
10.6622
12.1323
13.0186
12.6798
15.2167
21.3098
20.5853
14.2337
9.39905
6.43528
4.68204
3.62456
2.95931
2.52009
2.20659
2.01072
1.76795
1.83893
1.70125
0.505117
0.0152431
0.081567
0.283593
0.278056
1.60739
1.66207
0.324519
2.02845
0.351358
0.700021
0.294488
1.13705
0.330614
0.601053
1.1225
0.273128
0.312442
0.0311669
0.453943
0.567088
0.145101
0.158221
0.244559
0.116419
0.896508
1.85755
0.142159
0.856551
822.216
0.654597
1.05639
2.0988
0.807884
1.49946
5.8745
5.17591
5.80701
8.03065
9.3196
10.1385
11
12.4026
13.5641
13.3267
15.7513
22.4969
22.8974
15.9432
10.3566
6.96892
5.00092
3.83475
3.11156
2.63461
2.31043
2.06933
1.91778
1.7184
1.78999
1.66787
2.37928
0.000331342
0.0185179
3.36183
101.935
2.38541
1.33254
0.379561
0.633152
0.0946994
0.412719
0.601991
0.248804
0.694797
0.419427
0.592913
0.305076
0.210115
0.572394
0.231964
0.10264
0.103001
0.251936
0.262963
0.101521
0.295578
9.62048
0.161558
0.423662
7.82272
0.639992
1.15246
1.82294
0.830109
1.20065
4.4955
6.74215
5.97132
8.13946
9.71883
10.6294
11.426
12.67
14.0279
14.06
16.2545
23.5746
25.3893
17.8931
11.439
7.56176
5.34649
4.05503
3.26391
2.75193
2.40482
2.15913
1.97068
1.85281
1.68696
1.76168
1.65321
0.0199609
5.43696e-05
0.000684197
1.85678
1.74945
0.696552
1.97795
0.181618
1.17244
0.332453
0.496537
0.39622
0.422232
0.20491
0.43691
0.34757
0.288818
0.29561
0.253943
0.453631
0.214162
0.0697124
0.150282
0.0393875
0.110519
0.281561
1.47487
0.26416
0.251358
2.8283
0.626409
1.2373
1.31296
0.941856
1.09372
3.77223
8.85134
6.35459
8.12673
10.0908
11.1319
11.9425
12.9906
14.4127
14.8325
16.7457
24.4319
28.0015
20.1409
12.6737
8.21637
5.71785
4.28534
3.42228
2.87154
2.50107
2.23965
2.05093
1.9009
1.80948
1.67227
1.75271
1.6506
2.90257e-05
0.00284439
0.00101395
0.0664647
0.660659
0.363596
61.0815
0.0370115
1.71378
1.15378
0.236544
0.807485
0.122531
0.098974
0.884183
0.564209
0.0193539
0.190601
0.324674
0.685165
0.100169
0.0725373
0.121
0.356397
0.170831
0.198703
1.02111
0.584069
0.181799
1.4614
12.2929
1.29481
1.20361
1.31821
1.08719
2.95658
10.8421
6.76084
8.01107
10.4232
11.6382
12.5215
13.4171
14.7222
15.5072
17.3274
24.9893
30.6933
22.7425
14.0908
8.94087
6.10784
4.52318
3.58441
2.99154
2.59606
2.32169
2.12186
1.97373
1.85511
1.78381
1.67186
1.75984
1.6663
0.58767
0.000787627
0.0385426
1.27316
0.0330451
0.84742
3.55264
0.0196591
8.24852
1.00887
0.558519
0.1646
0.0759191
0.129873
1.84732
0.539149
0.195676
0.0224436
0.220222
0.0459549
0.0974141
0.374197
0.15839
0.668804
0.307425
0.153395
0.812956
1.63672
0.167404
0.756689
17.8477
1.24892
1.25558
1.89909
1.15409
2.34567
9.23317
6.82878
7.93554
10.7215
12.158
13.1441
13.958
15.0367
16.0763
17.9813
25.3494
33.2886
25.6859
15.7227
9.74641
6.52608
4.76953
3.74479
3.11047
2.69159
2.40188
2.19308
2.03748
1.92108
1.82794
1.77484
1.68607
1.78656
1.69934
0.00020477
0.00320291
0.0133278
0.999403
0.0230433
0.757744
0.361234
0.943988
0.0429276
7.78627
1.12068
0.348171
0.0513124
0.174702
0.294461
0.636539
0.198846
0.245755
0.339539
0.272146
0.151547
0.152507
0.361997
0.137151
0.301139
0.145402
0.276946
5.4126
0.200818
0.424659
2.83385
1.3661
1.36334
2.37713
1.23015
1.8521
7.2666
8.25816
8.06791
10.9757
12.6723
13.7956
14.5894
15.4357
16.4835
18.6296
25.7712
35.4181
28.8988
17.601
10.6405
6.96949
5.02114
3.90696
3.2266
2.78446
2.48002
2.2621
2.10138
1.97938
1.88912
1.81663
1.78313
1.71452
1.8339
1.75225
0.00165587
6.59222e-05
1.10963
9.43858e-05
0.00127103
0.00406005
0.00440768
0.870765
0.821858
0.0292758
211.442
0.226102
0.0384019
0.105126
0.54174
0.201103
0.392628
0.263511
0.541423
0.235022
0.00178856
0.194862
0.695103
0.120878
0.17799
0.137869
0.167644
17.1505
0.307689
0.267848
1.84108
2.33583
1.50363
2.04067
1.38998
1.63196
5.92629
10.9149
8.52318
11.1283
13.149
14.4621
15.2956
15.9431
16.8112
19.1608
26.2492
36.9064
32.242
19.7386
11.6442
7.44926
5.27362
4.06709
3.33856
2.87144
2.55416
2.32857
2.16276
2.03799
1.94348
1.87508
1.82293
1.8063
1.76034
1.90577
1.83176
0.475747
0.00223703
0.10423
0.0164015
1.02339e-05
0.0018069
0.000361541
0.434416
4.32451
2.52773
0.484094
0.724473
0.136144
64.0387
7.79147
0.0722458
0.317478
0.39876
0.174457
0.232807
0.746455
0.140753
0.187485
0.0942032
0.229839
0.125912
0.142977
23.6871
0.5255
0.217503
1.31136
6.63248
1.65593
1.90153
1.76126
1.60734
4.83027
14.2512
9.16546
11.1223
13.5692
15.1353
16.0648
16.5359
17.1542
19.4656
26.7182
38.1737
35.5065
22.2033
12.7538
7.95475
5.53291
4.21855
3.44735
2.95457
2.62401
2.39068
2.22026
2.09362
1.99876
1.9268
1.87724
1.84413
1.84784
1.82508
2.00704
1.94127
2.68384
1.66665
0.00121052
0.000624259
0.00256367
0.0105768
0.0642557
0.180476
1.19128
11.329
0.0555061
1.37219
0.00276128
1.20705
13.8549
1.17824
7.89504
0.377179
0.196818
0.380821
0.139166
0.172744
0.120968
0.0978933
0.177238
0.0945671
0.150105
1.53195
0.754672
0.224238
0.933759
9.26714
1.79059
1.90312
2.47339
1.69325
3.85076
14.6302
9.4491
11.0789
13.9636
15.7855
16.8667
17.1513
17.5747
19.5861
26.9566
39.6123
38.462
24.9689
13.9748
8.47605
5.78067
4.36299
3.545
3.03275
2.68856
2.44896
2.27361
2.14528
2.04821
1.97735
1.92627
1.8971
1.8838
1.90925
1.91304
2.14743
2.08978
134.969
0.0394129
0.00188596
2.15773e-05
1.51441
0.261118
0.00154948
0.0417012
0.0900316
0.727473
255.646
0.319885
9.85972
0.0724133
1.55359
7.46427
0.0222554
1.83489
0.225918
0.111291
0.121745
0.00383899
0.065668
0.000343004
0.0952771
0.0130747
0.156346
0.680334
0.946461
0.277753
0.591661
4.6139
1.78492
2.03955
3.31947
1.88603
3.06939
12.1552
10.1728
11.2507
14.3904
16.3865
17.6735
17.7243
18.0834
19.6865
26.7373
40.9361
41.5718
28.0395
15.3686
9.01458
6.02349
4.49742
3.62911
3.09855
2.74584
2.50013
2.32313
2.19168
2.09382
2.02295
1.97366
1.94213
1.93289
1.94208
1.9957
2.03208
2.33822
2.28954
2.80033
2679.16
0.00012301
0.000534819
0.243762
0.0350444
0.00336754
0.00872005
17.5326
0.128945
1.18015
0.00404128
0.583117
0.474384
0.290306
8.71771
0.120957
2.02843
0.288643
0.22074
0.358406
0.241703
0.0748794
0.817595
0.0758549
0.910447
0.141097
0.694332
1.47812
0.355784
0.433892
2.20969
2.21388
2.24933
3.47875
2.08283
2.69076
9.83357
13.2082
11.8428
14.8176
16.8642
18.3944
18.2346
18.6776
19.8587
26.2304
41.313
45.6165
31.4325
16.9287
9.51551
6.2215
4.60078
3.6962
3.1471
2.79266
2.544
2.36604
2.23369
2.13602
2.06518
2.01533
1.98503
1.97483
1.98832
2.02467
2.1138
2.19067
2.59447
2.55639
0.00283069
1.05859
0.00124261
0.000269701
3.09205
0.00088408
0.125732
0.0943058
0.443693
13.7204
0.298221
0.953847
0.126022
0.65948
0.0437303
0.854056
0.0348602
0.70027
1.12338
0.170123
5.13433
0.100852
0.0206608
0.131774
0.114936
0.510389
0.183435
0.829716
1.61463
0.421208
0.360876
1.49367
4.24502
2.51772
3.2728
2.31673
2.4657
7.86782
18.3414
12.8068
15.0947
17.1492
18.8953
18.7466
19.3819
20.2045
25.75
39.6337
50.2518
35.6147
18.7773
10.0266
6.38121
4.66503
3.73389
3.18347
2.82917
2.58006
2.40084
2.27044
2.17377
2.10249
2.05302
2.02521
2.01628
2.0285
2.06837
2.13708
2.27056
2.39951
2.94421
2.90877
0.00411852
0.0474314
0.483941
0.00827499
0.0143946
0.771277
0.0446951
1.06788
0.084307
1.24948
0.00108257
0.396585
6.45467
0.397833
2.13073
0.291785
171.587
0.168485
2.4435
0.394101
0.00156492
0.164045
0.484514
0.119359
0.158606
0.212765
0.462154
0.821825
1.09426
0.487908
0.377169
1.19982
8.01421
2.83027
3.18229
3.08424
2.54047
6.14488
21.0347
13.4353
15.188
17.2739
19.1078
19.335
20.1657
20.6805
25.6258
36.342
50.5179
42.068
21.26
10.7038
6.53208
4.69814
3.73467
3.19606
2.84228
2.5985
2.42434
2.29986
2.20454
2.13474
2.08675
2.06039
2.05242
2.06471
2.10345
2.17569
2.28576
2.48166
2.67825
3.41873
3.37553
0.0294496
0.142408
0.205417
1.04201
0.00105715
0.414965
0.00715347
0.174804
0.34317
0.00332332
1.17148
0.0258685
0.834805
0.00923277
0.771363
0.031506
0.784476
0.00112864
0.521753
0.551998
0.00732776
0.370613
0.312273
0.116464
0.00791348
0.333327
0.712078
0.726205
0.652101
0.553168
0.4189
0.960873
8.9185
3.12312
3.28167
4.35893
2.64915
4.91184
19.9851
14.2767
15.317
17.3676
19.1063
20.1606
21.1926
20.9159
26.6297
33.4117
41.1271
51.7955
25.4431
11.7474
6.56468
4.50687
3.5499
3.06173
2.75877
2.56496
2.4286
2.31878
2.22706
2.16208
2.1161
2.09021
2.08256
2.09726
2.13597
2.20538
2.31884
2.48489
2.76218
3.05249
4.06421
3.98809
0.0275851
0.202633
2.59427
0.488096
0.137977
0.000131142
0.0272277
2.06059
0.0985145
0.934235
0.0828273
4.17873
0.244153
0.705175
0.178133
5.83057
0.209336
14.2354
0.0819254
0.653463
0.00973228
1.83706
0.211999
0.0392687
0.0395363
0.392273
0.716717
0.56863
0.492223
0.668712
0.453958
0.771884
4.99918
3.48283
3.54109
5.49609
2.8338
4.12686
17.344
17.7274
15.7631
17.5247
19.0764
21.2683
22.5741
21.2789
25.7332
31.2801
31.5012
55.8798
32.6297
12.3587
5.96137
3.97122
3.30503
2.95225
2.71712
2.5518
2.42431
2.31921
2.23924
2.18206
2.13829
2.11441
2.10936
2.12564
2.16431
2.23333
2.34373
2.51026
2.75174
3.14163
3.55476
4.94814
4.7884
0.0862183
3.49938
0.00134334
4.61987
0.145325
0.065415
1.97726e-05
0.387366
3.30364
0.176787
1.19174
0.435733
0.743675
0.460239
28.8671
0.389798
0.0128027
0.326398
0.00631003
1.43345
3.82137e-05
0.00394129
0.406931
0.0699168
0.0712114
0.62492
0.544997
0.459719
0.410867
0.711088
0.506982
0.684354
3.0538
4.86437
3.94103
5.92913
2.83594
3.68036
14.4508
24.6943
16.454
17.7157
19.2781
22.3652
24.4408
21.2111
27.9192
19.5356
12.5984
39.5718
41.0983
11.5062
5.21346
3.59815
3.13629
2.85793
2.6671
2.52901
2.41281
2.3164
2.24516
2.18972
2.15253
2.13263
2.12991
2.14626
2.18731
2.25745
2.36572
2.52628
2.76565
3.10625
3.65204
4.22846
6.14738
5.82851
0.156133
0.180879
1.11795
0.000184824
1.48493
0.131802
0.22905
1.47442e-06
0.169048
0.539539
0.532199
2.66536
0.837029
0.0173719
0.565129
0.0902361
2.88113
0.179376
8.01604
0.236911
0.00208257
0.223198
0.143205
0.125389
0.253335
0.962378
0.457889
0.38963
0.369766
0.613491
0.568684
0.675943
2.35107
8.99703
4.43784
5.41257
2.86117
3.6286
10.725
28.3775
16.4426
17.7521
19.5932
22.7106
26.7566
21.2985
25.4003
13.4954
3.09819
5.29379
34.0369
10.4815
4.49844
3.34736
2.87106
2.61913
2.46956
2.38655
2.32902
2.28103
2.23678
2.1942
2.16177
2.14584
2.14432
2.16269
2.20453
2.2744
2.38052
2.53879
2.76693
3.10307
3.58278
4.33911
5.12854
7.77793
7.16137
0.00166627
0.169203
0.387553
1.89103
0.0646585
1.70902
0.205936
0.265023
0.000164921
0.206036
0.0476731
0.707749
0.0356669
1.19206
0.298607
1.35802
0.309815
0.035325
0.404904
0.108378
2656.67
0.163952
0.0260764
0.23196
0.457611
1.07387
0.377056
0.353501
0.361633
0.566352
0.712712
0.717702
2.01203
16.3491
5.07433
5.16644
3.61116
3.72629
8.04261
27.9092
16.8252
17.3468
19.4052
22.2148
25.7801
24.2243
22.0953
5.00147
0.943033
1.25858
1.39318
10.6949
3.9749
2.70698
2.31605
2.17279
2.19581
2.2031
2.2095
2.20666
2.19421
2.17823
2.16242
2.15128
2.15339
2.17374
2.21643
2.28545
2.3903
2.54381
2.76642
3.08851
3.55739
4.22551
5.26886
6.32023
9.97447
8.87019
1.07607
0.0594429
0.0884651
0.425669
2.03729
0.0142096
1.53674
0.213974
0.167457
0.0132289
0.861586
0.00723162
0.53174
0.284995
0.0493649
0.302552
0.0374026
0.769276
0.153218
0.0396959
0.295742
0.0739743
0.25359
1.47285
0.298306
0.869125
0.339796
0.341837
0.373889
0.572795
0.9346
0.800239
1.7646
14.8827
5.76386
5.30066
5.49155
3.9683
6.47444
26.5534
19.992
17.831
18.154
21.5736
27.1279
23.7683
5.09952
1.16157
0.407454
0.297968
2.26112
3.16989
3.93873
1.71382
1.49811
1.62412
1.81652
1.94764
2.02667
2.08052
2.11504
2.13187
2.13837
2.14243
2.15298
2.17746
2.22084
2.28977
2.39418
2.54457
2.76043
3.06977
3.51691
4.16911
5.0911
6.52641
7.88032
12.9228
11.0097
2.19167
9.54068
0.0500294
0.0736005
0.325943
1.84749
0.0258056
0.30063
0.27731
0.135017
0.0359878
1.3589
0.280785
8.96132
0.710863
0.0913885
1.29224
0.199717
0.0384568
0.490304
0.0812839
0.0758634
2.87598
2.43751
0.311813
0.618722
0.316823
0.349072
0.405447
0.60895
1.10563
0.924677
1.48391
9.06809
6.62905
5.75304
7.73109
4.00178
5.22201
24.7092
26.6418
18.8103
20.2733
24.955
26.7023
20.1507
3.48988
0.327563
0.26762
0.154511
0.497354
11.1953
2.66958
1.14642
0.948999
0.919257
1.2636
1.58906
1.77823
1.90357
1.99294
2.05216
2.08922
2.11472
2.13943
2.17139
2.21772
2.28903
2.39118
2.53955
2.74878
3.04801
3.47616
4.0942
4.9976
6.25808
8.20228
9.89702
16.8496
13.6972
0.000603023
1.87208
1.13095
0.113617
0.0331959
0.0470279
0.78953
0.138475
0.136495
0.287431
0.197498
0.0795943
28.6565
0.447716
0.00692536
2.27723
0.308189
0.0553314
1.25351
0.105097
0.0141651
1.61547
0.285136
1.07562
0.295153
0.46722
0.31811
0.373214
0.454171
0.661443
1.2468
1.05073
1.27601
6.13791
9.00091
5.99655
7.32126
3.35385
4.43312
19.9498
31.2357
23.6011
24.62
23.9697
25.9223
21.5272
3.11588
0.302892
0.219134
0.274353
0.416003
4.99905
73.2311
0.335715
0.570201
0.647475
0.604564
1.03405
1.43407
1.6645
1.82161
1.93136
2.01088
2.0661
2.10997
2.15393
2.20582
2.27958
2.38119
2.52564
2.72939
3.01744
3.42852
4.02082
4.87631
6.10943
7.8259
10.4259
12.4715
22.0855
17.0922
57.4461
2.12004e-05
1.7066
2.96593
0.22337
0.0307882
0.0654573
0.1232
0.595119
0.121123
0.0365269
0.538088
0.181918
0.000173578
0.627856
0.393231
0.0801562
0.337278
0.168193
0.0745442
8.21236
0.138567
0.28245
0.679303
0.292598
0.39695
0.336137
0.413445
0.519315
0.727728
1.25578
1.19166
1.28531
4.742
17.5036
6.06646
6.63145
2.53805
3.98289
16.1702
35.6082
22.4065
24.5492
24.1762
24.4404
20.4278
4.2479
0.308115
0.177385
0.207165
0.486755
2.79471
26.1159
1.2742
0.086789
0.449875
0.519589
0.430197
0.901317
1.3352
1.59325
1.76446
1.89227
1.98971
2.05986
2.12026
2.18306
2.26065
2.36339
2.50441
2.70216
2.97946
3.37457
3.93917
4.75325
5.93046
7.61666
9.90409
13.3346
15.7284
29.1237
21.3543
0.490595
8.96833
0.0119188
1.10405
3.89371
0.47505
0.052245
0.0664796
0.049769
1.50243
0.288765
0.0101282
1.33574
0.476231
0.429587