/*--------------------------------*- C++ -*----------------------------------*\
| =========                 |                                                 |
| \\      /  F ield         | OpenFOAM: The Open Source CFD Toolbox           |
|  \\    /   O peration     | Version:  v2012                                 |
|   \\  /    A nd           | Website:  www.openfoam.com                      |
|    \\/     M anipulation  |                                                 |
\*---------------------------------------------------------------------------*/
FoamFile
{
    version     2.0;
    format      ascii;
    class       volScalarField;
    location    "12000";
    object      k;
}
// * * * * * * * * * * * * * * * * * * * * * * * * * * * * * * * * * * * * * //

dimensions      [0 2 -2 0 0 0 0];


internalField   nonuniform List<scalar> 
27324
(
33.503
32.2887
37.9718
30.9029
37.3839
44.0583
29.1568
36.486
43.9254
45.4293
27.2045
35.1438
43.1405
44.5058
35.6688
25.0944
33.4022
41.6214
42.4895
32.4871
15.8664
22.9678
31.2409
39.2564
39.3297
28.4093
12.4191
3.48382
20.9036
28.744
35.9445
34.9323
23.6707
9.33649
2.24951
0.501421
18.4177
25.9694
31.8568
29.4278
18.6944
6.70163
1.41741
0.276185
0.0676629
14.4212
22.2202
26.463
23.315
14.0771
4.67233
0.872257
0.153314
0.0360709
0.0119916
8.79003
17.5916
21.2453
18.0408
10.4944
3.3768
0.544599
0.0880236
0.0213549
0.00780481
0.00371966
4.86092
12.0213
17.0718
14.2562
7.97772
2.60515
0.402948
0.0547491
0.0147075
0.00599865
0.00308053
0.00178472
4.09473
7.68604
13.5114
12.5171
6.60875
2.11196
0.347394
0.0435458
0.0116313
0.0052174
0.00277156
0.00163859
0.00100373
3.80785
6.68376
10.0728
11.7507
6.65228
1.93378
0.310667
0.0415085
0.0106218
0.00482123
0.00261302
0.00154401
0.000947576
0.000593599
3.58865
6.3401
8.93197
10.4856
7.6183
2.25218
0.312928
0.0396901
0.01048
0.00465698
0.00251112
0.00148643
0.000900891
0.000565567
0.000352454
3.38098
6.08666
8.43491
9.59473
8.52586
3.09307
0.400674
0.0419825
0.0101584
0.00462671
0.00245668
0.00144542
0.000869827
0.000539843
0.000336247
0.000210134
3.18197
5.83231
8.03992
9.08848
8.30593
4.26402
0.604721
0.0544438
0.010674
0.0044969
0.00243156
0.00141978
0.000847748
0.000520659
0.000320576
0.000201091
0.000125755
2.99127
5.58877
7.68443
8.67737
7.95232
4.44714
0.92516
0.0816883
0.0130573
0.00471409
0.00237426
0.00137615
0.000829199
0.00050765
0.000307391
0.000191895
0.000120537
7.55497e-05
2.8147
5.35459
7.36982
8.3284
7.58182
4.26287
1.00362
0.126339
0.017855
0.00558152
0.00250395
0.00135603
0.000800757
0.000482964
0.000296465
0.000181871
0.00011402
7.25628e-05
4.40254e-05
2.65344
5.14373
7.08835
8.02923
7.24579
3.9906
0.973119
0.139645
0.0253329
0.00719887
0.00292296
0.00144747
0.000802375
0.000468398
0.000279682
0.000169881
0.000104494
6.65097e-05
4.01097e-05
2.45194e-05
2.50585
4.95932
6.8406
7.75661
6.9286
3.71692
0.912812
0.140817
0.0282207
0.00957808
0.00364647
0.00168272
0.000871754
0.000480618
0.000275718
0.000162843
9.79624e-05
5.97815e-05
3.61786e-05
2.21738e-05
1.32794e-05
2.36984
4.79585
6.61261
7.4982
6.61359
3.44346
0.84057
0.137396
0.0285324
0.0106705
0.00465072
0.00205573
0.00101583
0.000532281
0.000290809
0.000165151
9.64535e-05
5.77517e-05
3.47979e-05
2.09734e-05
1.30428e-05
8.28124e-06
2.24388
4.64985
6.38609
7.23305
6.29128
3.1773
0.760844
0.129434
0.0284544
0.010555
0.00521876
0.00253966
0.00122576
0.000621048
0.000326761
0.000179059
0.000101161
5.90865e-05
3.51152e-05
2.10641e-05
1.28313e-05
8.3045e-06
5.89397e-06
2.12389
4.51908
6.15102
6.94394
5.95451
2.91829
0.681195
0.117976
0.027648
0.0105726
0.00519133
0.00287303
0.00147854
0.000751201
0.000383916
0.000204399
0.000111912
6.34323e-05
3.70413e-05
2.20921e-05
1.34405e-05
8.44613e-06
5.9045e-06
4.56012e-06
2.00651
4.39677
5.8985
6.62487
5.60797
2.67234
0.603896
0.10558
0.0261952
0.0104797
0.00516898
0.00288783
0.00167853
0.000892238
0.000456408
0.000237535
0.000127023
7.03089e-05
4.02349e-05
2.36711e-05
1.42327e-05
8.82984e-06
5.80799e-06
4.5162e-06
3.74999e-06
1.88683
4.27095
5.62225
6.27847
5.26108
2.45433
0.533008
0.0931266
0.0245803
0.0102774
0.00515522
0.00280747
0.00171615
0.00101545
0.000536146
0.000276333
0.000144891
7.84872e-05
4.3925e-05
2.54289e-05
1.51135e-05
9.26403e-06
5.94796e-06
4.36408e-06
3.72304e-06
3.25673e-06
1.76412
4.13201
5.32192
5.91646
4.92554
2.26266
0.478234
0.0817733
0.0229539
0.0100455
0.00510982
0.00279776
0.00166595
0.00106915
0.000607143
0.000321124
0.000165572
8.80066e-05
4.82013e-05
2.73786e-05
1.6056e-05
9.73494e-06
6.1591e-06
4.27636e-06
3.58672e-06
3.246e-06
3.15526e-06
1.638
3.97129
4.99851
5.54788
4.60853
2.09407
0.436143
0.0738398
0.0215007
0.00980414
0.0050503
0.0027828
0.00164587
0.00104756
0.000655072
0.000361554
0.000189084
9.89273e-05
5.31859e-05
2.95739e-05
1.7084e-05
1.02358e-05
6.40244e-06
4.28949e-06
3.44882e-06
3.17259e-06
3.02263e-06
3.91777e-06
1.51075
3.78789
4.65974
5.18471
4.31182
1.94308
0.403328
0.0684606
0.0205417
0.00957805
0.00498132
0.00276015
0.00163795
0.00101376
0.000657037
0.0003957
0.000214691
0.000111343
5.89072e-05
3.21131e-05
1.82185e-05
1.07797e-05
6.6655e-06
4.38591e-06
3.32081e-06
3.05003e-06
2.93355e-06
3.40759e-06
7.19189e-06
1.38678
3.58737
4.32672
4.84895
4.04293
1.80864
0.376694
0.0648922
0.0199395
0.00942623
0.00490878
0.0027324
0.00162752
0.00100607
0.000634459
0.000409196
0.000236482
0.00012537
6.53778e-05
3.50533e-05
1.94952e-05
1.13721e-05
6.94993e-06
4.51754e-06
3.24383e-06
2.90449e-06
2.86196e-06
3.07758e-06
5.50697e-06
1.87821e-05
1.26975
3.38132
4.01486
4.55135
3.80235
1.68806
0.35445
0.0624861
0.0195824
0.00933264
0.00485527
0.00270246
0.00161523
0.0010004
0.000618522
0.000399175
0.000250663
0.000139174
7.26388e-05
3.83809e-05
2.09563e-05
1.20205e-05
7.25842e-06
4.66497e-06
3.25989e-06
2.75819e-06
2.76119e-06
2.86815e-06
4.37957e-06
1.32978e-05
5.88375e-05
1.16375
3.18279
3.73303
4.29189
3.58372
1.57918
0.334742
0.0607896
0.0193752
0.00928199
0.00482121
0.00268021
0.00160205
0.000994152
0.00061415
0.000384676
0.000251564
0.000149477
8.04415e-05
4.20807e-05
2.26283e-05
1.27416e-05
7.5921e-06
4.82478e-06
3.32121e-06
2.63664e-06
2.61972e-06
2.72837e-06
3.63507e-06
9.54494e-06
4.08739e-05
0.000196516
1.06883
3.0037
3.48218
4.06324
3.38059
1.47928
0.317038
0.0593347
0.0192554
0.00925833
0.00480566
0.00266665
0.00159218
0.000987548
0.00061027
0.000378573
0.000242869
0.000154744
8.74169e-05
4.61285e-05
2.45043e-05
1.35591e-05
7.95493e-06
4.99851e-06
3.40102e-06
2.581e-06
2.46923e-06
2.61705e-06
3.14872e-06
7.00147e-06
2.83269e-05
0.000137668
0.000663576
0.985427
2.85585
3.26765
3.85684
3.18623
1.38667
0.300937
0.058014
0.0191504
0.00925146
0.00480419
0.00266217
0.00158636
0.00098249
0.000606329
0.000376053
0.000233501
0.000152752
9.23106e-05
5.04821e-05
2.6568e-05
1.44913e-05
8.35367e-06
5.18696e-06
3.49034e-06
2.58808e-06
2.32584e-06
2.49521e-06
2.83284e-06
5.29573e-06
1.96474e-05
9.56504e-05
0.000472901
0.00221718
0.911786
2.73708
3.08001
3.66006
2.99845
1.29859
0.28606
0.0567811
0.0190566
0.00924833
0.00481124
0.00266478
0.00158506
0.000979433
0.000603086
0.000373746
0.000230545
0.000146964
9.40944e-05
5.4073e-05
2.88152e-05
1.55333e-05
8.80201e-06
5.39058e-06
3.58785e-06
2.62484e-06
2.20905e-06
2.34449e-06
2.62318e-06
4.16425e-06
1.37041e-05
6.5966e-05
0.000333706
0.00161133
0.00730708
0.844763
2.6371
2.90119
3.45708
2.81032
1.21457
0.271667
0.055602
0.0189761
0.0092525
0.00482391
0.00267169
0.00158758
0.000978802
0.000600854
0.000371749
0.000229085
0.000141403
9.21665e-05
5.63966e-05
3.11503e-05
1.66732e-05
9.31174e-06
5.61188e-06
3.69361e-06
2.67305e-06
2.1554e-06
2.19341e-06
2.46908e-06
3.42266e-06
9.67566e-06
4.52156e-05
0.000233192
0.00115929
0.00542754
0.0235267
0.780227
2.54052
2.71846
3.24216
2.62382
1.1339
0.257662
0.0544023
0.0189097
0.00926189
0.00484074
0.00268054
0.00159248
0.000980442
0.000600008
0.000370215
0.000227887
0.000139824
8.86508e-05
5.7036e-05
3.31312e-05
1.79025e-05
9.88254e-06
5.85597e-06
3.80779e-06
2.72697e-06
2.15089e-06
2.0527e-06
2.32876e-06
2.94013e-06
6.97675e-06
3.08633e-05
0.000161394
0.000825416
0.00399055
0.0178929
0.0741228
0.715701
2.4361
2.52716
3.02014
2.44462
1.0567
0.243378
0.0531992
0.0188404
0.00927478
0.00485999
0.00269067
0.00159841
0.000983646
0.000600613
0.000369392
0.000226881
0.000139039
8.54445e-05
5.57563e-05
3.43104e-05
1.92079e-05
1.05033e-05
6.13077e-06
3.92975e-06
2.78631e-06
2.17031e-06
1.93756e-06
2.17259e-06
2.62453e-06
5.18767e-06
2.1053e-05
0.000110646
0.000581855
0.00290099
0.0134863
0.05773
0.228998
0.65118
2.31393
2.3311
2.80254
2.27609
0.983949
0.228471
0.0518278
0.0187641
0.00928013
0.00488034
0.00270153
0.00160507
0.000987359
0.00060239
0.000369438
0.000226236
0.000138441
8.45554e-05
5.36342e-05
3.45938e-05
2.0358e-05
1.11725e-05
6.43823e-06
4.06133e-06
2.85064e-06
2.199e-06
1.87795e-06
2.02103e-06
2.4077e-06
4.01699e-06
1.44134e-05
7.52183e-05
0.000406006
0.00208721
0.0100474
0.0446436
0.182503
0.694639
0.587724
2.17322
2.13208
2.59581
2.12048
0.916439
0.213877
0.0502005
0.018647
0.0092742
0.00489645
0.00271265
0.00161207
0.000991388
0.000604448
0.000370229
0.000226075
0.000137987
8.42098e-05
5.17244e-05
3.38717e-05
2.098e-05
1.1874e-05
6.77295e-06
4.20588e-06
2.91988e-06
2.2323e-06
1.86291e-06
1.88131e-06
2.23815e-06
3.25846e-06
9.9747e-06
5.07687e-05
0.000280448
0.00148628
0.00740786
0.0341406
0.14469
0.565932
2.06684
0.52777
2.02008
1.9459
2.41272
1.97957
0.855218
0.200278
0.0485392
0.0184708
0.00925026
0.00490684
0.00272177
0.00161909
0.000995475
0.000606719
0.000371287
0.000226354
0.000137745
8.39784e-05
5.10986e-05
3.26119e-05
2.11649e-05
1.255e-05
7.12952e-06
4.36719e-06
2.9933e-06
2.26965e-06
1.87102e-06
1.76375e-06
2.07861e-06
2.7694e-06
7.04148e-06
3.40767e-05
0.000191674
0.00104805
0.00540397
0.0258611
0.11354
0.459424
1.72005
6.00869
0.473452
1.8696
1.783
2.26039
1.85437
0.800672
0.18888
0.0469568
0.0182558
0.00920177
0.00490838
0.00272849
0.00162492
0.00099943
0.00060899
0.000372428
0.00022699
0.000137739
8.38255e-05
5.0922e-05
3.14345e-05
2.07937e-05
1.2936e-05
7.50564e-06
4.54426e-06
3.07229e-06
2.3107e-06
1.88864e-06
1.69083e-06
1.92179e-06
2.44935e-06
5.12874e-06
2.28026e-05
0.000129712
0.000731717
0.00390229
0.0193912
0.0883737
0.369504
1.42815
5.10678
16.9248
0.427007
1.73043
1.64545
2.13286
1.74196
0.750608
0.179637
0.0457108
0.0180198
0.00913569
0.00489984
0.0027313
0.00162935
0.0010026
0.000611159
0.000373554
0.00022763
0.00013794
8.37658e-05
5.07945e-05
3.08186e-05
2.00405e-05
1.3063e-05
7.88248e-06
4.73323e-06
3.15933e-06
2.35495e-06
1.91032e-06
1.6623e-06
1.77957e-06
2.2262e-06
3.89783e-06
1.52847e-05
8.69124e-05
0.000505925
0.00278957
0.0143958
0.0681743
0.29519
1.17572
4.33379
14.7006
45.4722
0.387206
1.6086
1.5295
2.02195
1.63751
0.703795
0.17177
0.0447971
0.0178162
0.00905947
0.00488349
0.00272959
0.0016315
0.00100489
0.00061291
0.000374585
0.000228229
0.000138288
8.37988e-05
5.06902e-05
3.06926e-05
1.92704e-05
1.28945e-05
8.18838e-06
4.9329e-06
3.25612e-06
2.40196e-06
1.93526e-06
1.65977e-06
1.65656e-06
2.04872e-06
3.11387e-06
1.0338e-05
5.77028e-05
0.000346219
0.00197512
0.0105797
0.0521284
0.234066
0.962527
3.64862
12.7542
40.4434
113.547
0.353031
1.50916
1.43022
1.92104
1.53869
0.659654
0.164643
0.0440048
0.0176597
0.00899221
0.00486259
0.00272473
0.00163133
0.00100584
0.000614175
0.000375401
0.000228771
0.000138645
8.39202e-05
5.0616e-05
3.06176e-05
1.8614e-05
1.2467e-05
8.27387e-06
5.1401e-06
3.36051e-06
2.45202e-06
1.96316e-06
1.66937e-06
1.56403e-06
1.88434e-06
2.61704e-06
7.12479e-06
3.80205e-05
0.000234415
0.00138503
0.00770052
0.0394952
0.184241
0.783106
3.05711
10.981
35.9323
103.641
256.177
0.322301
1.42084
1.34041
1.826
1.44379
0.617584
0.158036
0.043263
0.0175168
0.00893661
0.00484535
0.00271812
0.00162961
0.00100541
0.000614747
0.000375981
0.000229215
0.000138923
8.41016e-05
5.05765e-05
3.05406e-05
1.84281e-05
1.1954e-05
8.21523e-06
5.3371e-06
3.46963e-06
2.50654e-06
1.99336e-06
1.68374e-06
1.51658e-06
1.73591e-06
2.29651e-06
5.0694e-06
2.49224e-05
0.000156956
0.000961988
0.0055515
0.0296564
0.143917
0.633348
2.5478
9.41284
31.6856
94.5266
240.065
508.002
0.293168
1.3341
1.25074
1.73022
1.35338
0.576696
0.151695
0.0425673
0.0173901
0.0088942
0.00483322
0.00271398
0.00162705
0.0010041
0.000614503
0.00037627
0.00022955
0.000139148
8.43018e-05
5.05807e-05
3.04758e-05
1.83588e-05
1.1504e-05
7.98865e-06
5.46625e-06
3.58358e-06
2.56606e-06
2.02544e-06
1.70121e-06
1.50049e-06
1.60541e-06
2.07614e-06
3.77242e-06
1.6338e-05
0.000103832
0.000661659
0.00396594
0.0220681
0.111575
0.509116
2.1128
8.02891
27.822
85.5964
224.982
488.037
864.309
0.264985
1.24358
1.16315
1.63852
1.26731
0.537187
0.145343
0.041882
0.0172722
0.00885891
0.00482421
0.00271322
0.00162576
0.00100235
0.000613788
0.000376115
0.000229754
0.000139316
8.446e-05
5.06311e-05
3.04423e-05
1.83089e-05
1.12259e-05
7.65815e-06
5.4511e-06
3.69921e-06
2.62923e-06
2.05925e-06
1.72151e-06
1.50132e-06
1.49604e-06
1.90353e-06
2.96764e-06
1.0789e-05
6.78687e-05
0.000450216
0.00280858
0.0162794
0.0858363
0.406855
1.74342
6.81751
24.312
77.198
209.468
469.567
848.427
1250.61
0.237067
1.15127
1.08269
1.55358
1.18762
0.498702
0.138715
0.0411525
0.017146
0.00882539
0.00481668
0.00271465
0.00162616
0.00100131
0.000612875
0.000375684
0.000229848
0.000139437
8.45962e-05
5.07137e-05
3.04481e-05
1.82679e-05
1.11578e-05
7.33043e-06
5.3444e-06
3.80411e-06
2.694e-06
2.09596e-06
1.74397e-06
1.50959e-06
1.42218e-06
1.74887e-06
2.47286e-06
7.25523e-06
4.38443e-05
0.000302833
0.00197114
0.0119108
0.0655401
0.323207
1.43206
5.76339
21.1497
69.3015
194.353
449.253
835.19
1247.56
1580.95
0.211036
1.05938
1.01118
1.47504
1.11202
0.462024
0.131629
0.0402829
0.0169919
0.00878635
0.00480914
0.00271759
0.00162776
0.00100121
0.000612383
0.000375183
0.00022987
0.000139522
8.47167e-05
5.07817e-05
3.04913e-05
1.82446e-05
1.11324e-05
7.0614e-06
5.14384e-06
3.85927e-06
2.76075e-06
2.13594e-06
1.76792e-06
1.5215e-06
1.38454e-06
1.61341e-06
2.16274e-06
5.03803e-06
2.80695e-05
0.000201048
0.00137082
0.00864423
0.0496839
0.25529
1.17112
4.85302
18.3179
61.9369
179.598
428.777
818.422
1249.31
1593.55
1815.27
0.188444
0.97794
0.953431
1.4043
1.03962
0.427614
0.124568
0.0392133
0.016789
0.00873323
0.00479862
0.00272097
0.00163025
0.00100185
0.000612404
0.0003749
0.000229844
0.000139586
8.48309e-05
5.08528e-05
3.05658e-05
1.82431e-05
1.11131e-05
6.9269e-06
4.90212e-06
3.80917e-06
2.82821e-06
2.17805e-06
1.79316e-06
1.53609e-06
1.37097e-06
1.49638e-06
1.95521e-06
3.67772e-06
1.78972e-05
0.000131612
0.000943564
0.00622567
0.0373992
0.200548
0.953912
4.07157
15.802
55.1059
165.322
407.986
800.865
1246.57
1613.5
1841.52
1954.89
0.169483
0.908745
0.90798
1.33912
0.968704
0.397346
0.11796
0.0380521
0.0165191
0.00865938
0.00478164
0.00272306
0.00163285
0.00100301
0.000612784
0.00037488
0.000229856
0.000139627
8.49377e-05
5.0921e-05
3.06325e-05
1.82638e-05
1.11023e-05
6.89388e-06
4.68129e-06
3.69912e-06
2.88789e-06
2.22051e-06
1.82019e-06
1.55295e-06
1.37051e-06
1.39896e-06
1.79862e-06
2.85646e-06
1.1472e-05
8.48388e-05
0.000642078
0.00444825
0.0279721
0.156706
0.774251
3.40556
13.5815
48.8221
151.584
387.041
782.159
1243
1628.94
1877.34
1991.15
2016.86
0.15366
0.851355
0.87022
1.27441
0.898923
0.369931
0.112628
0.0368993
0.0162124
0.00856157
0.00475525
0.00272216
0.00163465
0.00100423
0.000613408
0.000375026
0.000229884
0.000139648
8.5021e-05
5.09839e-05
3.06911e-05
1.83018e-05
1.11011e-05
6.88051e-06
4.50479e-06
3.53219e-06
2.91608e-06
2.26341e-06
1.84988e-06
1.57156e-06
1.37566e-06
1.3361e-06
1.66412e-06
2.36478e-06
7.49181e-06
5.38529e-05
0.000431008
0.00315233
0.0207918
0.121866
0.62639
2.84183
11.6367
43.0797
138.439
366.01
762.48
1238.01
1644.2
1909.16
2038.48
2059.66
2020.82
0.139326
0.802542
0.836931
1.20738
0.830478
0.345288
0.108255
0.036013
0.0158951
0.00844877
0.00471814
0.0027165
0.0016349
0.00100506
0.000614002
0.00037527
0.00023
0.000139638
8.50728e-05
5.10322e-05
3.07426e-05
1.83426e-05
1.11068e-05
6.86866e-06
4.41242e-06
3.34341e-06
2.86306e-06
2.30706e-06
1.88177e-06
1.59126e-06
1.38493e-06
1.30362e-06
1.54546e-06
2.06682e-06
5.07983e-06
3.36946e-05
0.000284878
0.00221292
0.0153661
0.094354
0.505444
2.3673
9.94679
37.8731
125.929
345.018
741.865
1231.71
1658.58
1941.69
2082.41
2114.32
2067.35
1984.21
0.125539
0.753689
0.801427
1.13663
0.763756
0.32292
0.104324
0.0352752
0.0156403
0.00832925
0.00467554
0.0027053
0.00163265
0.0010051
0.000614372
0.000375468
0.000230167
0.000139629
8.50845e-05
5.10617e-05
3.07825e-05
1.83728e-05
1.11223e-05
6.85713e-06
4.38576e-06
3.17498e-06
2.76591e-06
2.34687e-06
1.91434e-06
1.61182e-06
1.39722e-06
1.2912e-06
1.44331e-06
1.87749e-06
3.64147e-06
2.08778e-05
0.00018495
0.00153681
0.0112879
0.0727866
0.406959
1.97037
8.48855
33.1909
114.111
324.17
720.318
1224.05
1672.15
1974.25
2127.77
2166.12
2125.97
2032.4
1920.93
0.112546
0.703322
0.762229
1.06255
0.699539
0.302185
0.100773
0.0345833
0.015424
0.00823025
0.0046311
0.00269139
0.00162759
0.00100385
0.000614357
0.000375581
0.000230299
0.000139606
8.50476e-05
5.10609e-05
3.08107e-05
1.83925e-05
1.1145e-05
6.84871e-06
4.37543e-06
3.04408e-06
2.62941e-06
2.369e-06
1.94667e-06
1.63418e-06
1.41086e-06
1.2893e-06
1.36185e-06
1.74004e-06
2.79244e-06
1.29388e-05
0.00011776
0.00105331
0.00823905
0.055965
0.327227
1.6398
7.24041
29.0128
103.031
303.593
697.81
1215.05
1684.79
2006.95
2173.91
2219.85
2182.18
2092.53
1969.32
1841.28
0.100395
0.653633
0.721444
0.989094
0.639535
0.282811
0.0973303
0.0339133
0.0152217
0.00814532
0.00459793
0.00267671
0.00162134
0.00100113
0.000613694
0.000375537
0.000230364
0.000139552
8.49763e-05
5.10108e-05
3.08212e-05
1.84062e-05
1.11702e-05
6.84599e-06
4.36901e-06
2.96288e-06
2.47452e-06
2.34553e-06
1.97936e-06
1.65875e-06
1.42536e-06
1.29286e-06
1.30845e-06
1.62435e-06
2.30279e-06
8.15267e-06
7.34956e-05
0.000710709
0.00596699
0.0429127
0.262948
1.36591
6.17887
25.3197
92.7176
283.415
674.457
1204.71
1696.55
2039.74
2220.98
2274.92
2240.62
2150.56
2029.27
1888.91
1752.55
0.0896168
0.606152
0.678421
0.916102
0.58422
0.264696
0.0939197
0.0331976
0.0150209
0.00806845
0.00457348
0.00266766
0.00161483
0.000997866
0.000612239
0.000375251
0.000230335
0.000139509
8.48881e-05
5.09389e-05
3.08159e-05
1.84153e-05
1.11892e-05
6.85131e-06
4.36499e-06
2.93851e-06
2.33313e-06
2.26432e-06
2.01146e-06
1.68503e-06
1.44051e-06
1.30142e-06
1.27982e-06
1.52103e-06
2.01673e-06
5.34847e-06
4.49882e-05
0.000470803
0.00428089
0.0328073
0.211386
1.13978
5.28234
22.0829
83.2029
263.745
650.4
1193.01
1707.49
2072.56
2268.95
2331.48
2300.74
2210.98
2087.33
1947.55
1798.8
1659.79
0.0803305
0.564081
0.634388
0.842895
0.533375
0.247958
0.0903763
0.0324248
0.0148009
0.00799528
0.00455479
0.00266298
0.00161103
0.000994685
0.000610515
0.00037465
0.00023022
0.000139469
8.48227e-05
5.08654e-05
3.07951e-05
1.84229e-05
1.12037e-05
6.86369e-06
4.36379e-06
2.93238e-06
2.22225e-06
2.15195e-06
2.0352e-06
1.71181e-06
1.45661e-06
1.313e-06
1.2671e-06
1.4322e-06
1.83803e-06
3.74334e-06
2.71248e-05
0.000305216
0.00303581
0.0249967
0.170133
0.953989
4.52886
19.2739
74.4997
244.712
625.772
1179.96
1717.52
2105.38
2317.78
2389.54
2362.72
2273.28
2147.84
2004.47
1855.45
1704.25
1566.39
0.0721264
0.526335
0.589917
0.770971
0.487683
0.233035
0.0868417
0.0315211
0.0145572
0.00791724
0.00453886
0.00266117
0.00160936
0.000992862
0.000608864
0.00037391
0.000230041
0.00013943
8.48039e-05
5.08151e-05
3.07634e-05
1.84275e-05
1.12163e-05
6.87805e-06
4.36553e-06
2.92993e-06
2.13929e-06
2.02032e-06
2.03289e-06
1.7388e-06
1.47457e-06
1.32492e-06
1.26261e-06
1.3641e-06
1.71155e-06
2.84252e-06
1.62575e-05
0.000193234
0.00212176
0.0189629
0.137191
0.801857
3.89924
16.8559
66.6229
226.42
600.746
1165.58
1726.55
2138.12
2367.48
2449.09
2426.6
2337.64
2210.33
2063.83
1910.48
1758.5
1608.83
1474.59
0.0645332
0.490134
0.544865
0.70076
0.446887
0.220073
0.0836409
0.0305663
0.0142765
0.00783124
0.00452133
0.00266034
0.00160911
0.000992343
0.000607845
0.00037315
0.00022985
0.00013939
8.47944e-05
5.0796e-05
3.07339e-05
1.84269e-05
1.12273e-05
6.88948e-06
4.37111e-06
2.92815e-06
2.1054e-06
1.89152e-06
1.97894e-06
1.76694e-06
1.49486e-06
1.33649e-06
1.26518e-06
1.31893e-06
1.6065e-06
2.33339e-06
9.87087e-06
0.000119277
0.00145745
0.0142979
0.110881
0.6778
3.37541
14.7929
59.5654
208.999
575.474
1149.92
1734.46
2170.67
2418.01
2510.17
2492.36
2404.11
2274.95
2125.17
1967.91
1811.21
1660.44
1514.86
1385.85
0.0571815
0.453807
0.499365
0.633427
0.410335
0.208658
0.0807126
0.0296918
0.0139832
0.00773516
0.00450061
0.00265855
0.00160918
0.000992348
0.000607462
0.000372647
0.000229577
0.000139354
8.47919e-05
5.08056e-05
3.07133e-05
1.84212e-05
1.12347e-05
6.89743e-06
4.38022e-06
2.92698e-06
2.09465e-06
1.78386e-06
1.89238e-06
1.79294e-06
1.51731e-06
1.34748e-06
1.27309e-06
1.29311e-06
1.51218e-06
2.04454e-06
6.24282e-06
7.18568e-05
0.000980496
0.0106958
0.0897994
0.576952
2.9422
13.045
53.3152
192.561
550.151
1133.05
1741.14
2202.97
2469.31
2572.77
2560.07
2472.68
2341.76
2188.66
2027.28
1866.24
1710.58
1563.72
1423.88
1301.13
0.0499594
0.417035
0.454879
0.570497
0.377298
0.198415
0.0778699
0.0288867
0.0137156
0.00763819
0.00447439
0.00265477
0.00160865
0.00099246
0.00060748
0.000372377
0.000229237
0.000139276
8.47849e-05
5.08196e-05
3.0704e-05
1.84076e-05
1.12375e-05
6.90399e-06
4.3911e-06
2.9273e-06
2.09136e-06
1.70243e-06
1.78579e-06
1.80738e-06
1.54094e-06
1.35833e-06
1.28289e-06
1.28002e-06
1.43113e-06
1.86993e-06
4.24841e-06
4.24052e-05
0.00064411
0.00791871
0.0728538
0.495011
2.58629
11.5761
47.8356
177.245
524.954
1115.1
1746.52
2234.87
2521.36
2636.86
2629.75
2543.44
2410.78
2254.36
2088.77
1923.15
1762.95
1611.18
1469.96
1336.87
1221.05
0.0431121
0.379095
0.412498
0.512895
0.347894
0.188918
0.0750345
0.0281022
0.0134828
0.00755415
0.00444779
0.00264777
0.00160709
0.000992346
0.00060744
0.000372266
0.000228916
0.000139116
8.47576e-05
5.0831e-05
3.07061e-05
1.8395e-05
1.12349e-05
6.90878e-06
4.40072e-06
2.92979e-06
2.09034e-06
1.6501e-06
1.67214e-06
1.79539e-06
1.56487e-06
1.36946e-06
1.29323e-06
1.27496e-06
1.36808e-06
1.74682e-06
3.17167e-06
2.47717e-05
0.000411866
0.00578921
0.0591661
0.428428
2.29569
10.3527
43.089
163.156
500.115
1096.19
1750.5
2266.24
2574.05
2702.46
2701.37
2616.4
2482.09
2322.27
2152.42
1982.11
1817.13
1660.77
1514.69
1380.17
1254.48
1146.04
0.0366752
0.341305
0.372973
0.461596
0.321761
0.180037
0.0721009
0.0273255
0.0132748
0.00748623
0.0044276
0.00264023
0.00160398
0.000991762
0.000607355
0.000372264
0.000228597
0.000138907
8.46833e-05
5.08327e-05
3.07095e-05
1.83833e-05
1.1225e-05
6.91215e-06
4.40812e-06
2.93477e-06
2.08985e-06
1.63016e-06
1.56818e-06
1.73624e-06
1.58828e-06
1.38214e-06
1.30283e-06
1.27732e-06
1.32594e-06
1.64334e-06
2.58526e-06
1.46187e-05
0.000255996
0.00416752
0.0480799
0.374165
2.06015
9.34411
39.0245
150.365
475.877
1076.51
1753.03
2296.92
2627.32
2769.51
2775
2691.57
2555.71
2392.49
2218.25
2043.16
1873.28
1712.09
1561.46
1422.19
1295.03
1177.11
1076.38
0.030756
0.303787
0.336357
0.417427
0.29873
0.171556
0.0690511
0.0265434
0.0130863
0.00742861
0.00441465
0.00263524
0.00160073
0.000990782
0.000607156
0.00037223
0.000228373
0.000138701
8.45211e-05
5.08143e-05
3.07084e-05
1.83755e-05
1.12127e-05
6.91419e-06
4.41415e-06
2.94163e-06
2.09076e-06
1.62433e-06
1.48299e-06
1.6577e-06
1.60829e-06
1.39749e-06
1.31164e-06
1.28473e-06
1.30005e-06
1.54863e-06
2.26056e-06
9.02705e-06
0.000154727
0.00294658
0.0390803
0.329863
1.87028
8.52471
35.5867
138.91
452.561
1056.17
1754.07
2326.74
2681.02
2837.96
2850.58
2769.01
2631.64
2465.02
2286.34
2106.34
1931.43
1765.28
1609.87
1466.14
1334.35
1214.95
1105.07
1012.35
0.025797
0.266544
0.302826
0.380058
0.27872
0.16322
0.0659464
0.0257777
0.0129119
0.00737812
0.0044059
0.00263305
0.00159915
0.000989933
0.000606893
0.00037221
0.000228293
0.000138517
8.43298e-05
5.07799e-05
3.0705e-05
1.83778e-05
1.12015e-05
6.91395e-06
4.41941e-06
2.9486e-06
2.0934e-06
1.62347e-06
1.41786e-06
1.56756e-06
1.61467e-06
1.41462e-06
1.31985e-06
1.29418e-06
1.28571e-06
1.46767e-06
2.06521e-06
6.07262e-06
9.14212e-05
0.00203944
0.0317877
0.293629
1.71822
7.86971
32.7311
128.79
430.508
1035.17
1753.64
2355.49
2735.04
2907.69
2928.09
2848.67
2709.95
2539.9
2356.73
2171.7
1991.62
1820.39
1660.06
1511.65
1375.51
1251.6
1140.22
1038.59
954.195
0.0216569
0.230981
0.272841
0.349182
0.261265
0.154727
0.0628611
0.0250641
0.0127561
0.00733109
0.00439906
0.00263243
0.00159876
0.000989893
0.00060673
0.000372232
0.000228243
0.000138433
8.41563e-05
5.07317e-05
3.06987e-05
1.83798e-05
1.11956e-05
6.91189e-06
4.42408e-06
2.95451e-06
2.09729e-06
1.624e-06
1.38177e-06
1.47496e-06
1.59721e-06
1.43307e-06
1.32768e-06
1.30398e-06
1.27927e-06
1.40226e-06
1.92773e-06
4.54411e-06
5.3517e-05
0.0013772
0.0259046
0.264081
1.59732
7.35694
30.4151
120.004
409.987
1013.85
1751.82
2383.07
2789.21
2978.59
3007.43
2930.57
2790.61
2617.17
2429.41
2239.29
2053.92
1877.45
1712.09
1558.85
1418.16
1290.02
1174.24
1071.06
977.893
902.174
0.0182272
0.199046
0.247364
0.323865
0.245982
0.14601
0.0598324
0.0244358
0.0126248
0.00728813
0.00439222
0.00263225
0.00159931
0.000990475
0.000606774
0.000372332
0.000228239
0.000138436
8.40485e-05
5.06739e-05
3.0686e-05
1.83825e-05
1.11999e-05
6.90825e-06
4.4266e-06
2.95902e-06
2.10255e-06
1.62576e-06
1.36839e-06
1.39152e-06
1.54773e-06
1.45004e-06
1.33577e-06
1.31302e-06
1.2793e-06
1.35736e-06
1.81045e-06
3.74058e-06
3.19342e-05
0.000903967
0.0212125
0.240164
1.50257
6.96552
28.5997
112.545
391.204
992.682
1748.7
2409.61
2843.39
3050.47
3088.49
3014.59
2873.64
2696.82
2504.46
2309.1
2118.36
1936.52
1765.96
1607.79
1462.41
1329.85
1209.94
1102.45
1007.68
923.207
856.585
0.015304
0.171807
0.226719
0.302868
0.232226
0.137051
0.0568867
0.0239003
0.0125196
0.00725182
0.00438529
0.00263189
0.00160023
0.000991527
0.00060708
0.000372448
0.000228272
0.00013849
8.40063e-05
5.0637e-05
3.06616e-05
1.83847e-05
1.12084e-05
6.90541e-06
4.42653e-06
2.96294e-06
2.10892e-06
1.6295e-06
1.36501e-06
1.32396e-06
1.48717e-06
1.46122e-06
1.34492e-06
1.32128e-06
1.28415e-06
1.32939e-06
1.70196e-06
3.2954e-06
2.04566e-05
0.000574157
0.0175455
0.221147
1.43013
6.67826
27.239
106.434
374.276
972.189
1744.61
2434.97
2897.35
3123.13
3171.07
3100.66
2958.94
2778.88
2581.85
2381.22
2184.94
1997.64
1821.75
1658.49
1508.32
1371.2
1246.99
1135.47
1036.43
950.285
874.795
817.741
0.0128055
0.149225
0.210401
0.285081
0.219279
0.127985
0.0540773
0.0234407
0.0124327
0.00722331
0.00437987
0.00263156
0.00160139
0.000992805
0.000607594
0.000372662
0.00022832
0.000138558
8.40119e-05
5.06227e-05
3.06257e-05
1.83838e-05
1.12165e-05
6.90469e-06
4.42432e-06
2.96654e-06
2.11586e-06
1.63419e-06
1.36556e-06
1.27278e-06
1.4176e-06
1.45863e-06
1.35632e-06
1.3288e-06
1.29172e-06
1.31339e-06
1.61178e-06
3.02395e-06
1.48754e-05
0.000351347
0.0147751
0.206547
1.37742
6.48125
26.2857
101.668
359.369
952.657
1740.05
2459.03
2950.74
3196.28
3254.97
3188.56
3046.45
2863.25
2661.62
2455.63
2253.74
2060.81
1879.48
1711.02
1555.89
1414.12
1285.5
1169.77
1066.76
976.364
899.107
832.943
785.935
0.0106885
0.130421
0.197599
0.269092
0.20673
0.119116
0.0515034
0.0230503
0.0123582
0.00720093
0.0043767
0.00263229
0.00160298
0.000994281
0.00060826
0.00037299
0.000228377
0.000138632
8.40152e-05
5.06217e-05
3.05837e-05
1.83783e-05
1.12231e-05
6.90641e-06
4.42087e-06
2.9692e-06
2.12324e-06
1.63907e-06
1.36943e-06
1.24498e-06
1.34745e-06
1.43378e-06
1.36916e-06
1.33591e-06
1.30091e-06
1.30517e-06
1.54816e-06
2.83852e-06
1.24363e-05
0.000206555
0.0128095
0.196093
1.34279
6.3644
25.6914
98.2054
346.685
934.19
1735.54
2481.94
3002.61
3269.15
3339.78
3278.19
3136.05
2949.9
2743.69
2532.35
2324.75
2126.1
1939.18
1765.39
1605.2
1458.63
1325.5
1205.47
1098.33
1003.98
922.447
854.412
797.935
761.385
0.00896388
0.114579
0.18719
0.253523
0.194142
0.110707
0.0491481
0.0227246
0.01229
0.00718282
0.00437495
0.0026346
0.00160549
0.000996048
0.000609091
0.0003734
0.000228503
0.000138728
8.40266e-05
5.06416e-05
3.05509e-05
1.83695e-05
1.12277e-05
6.91082e-06
4.41832e-06
2.97076e-06
2.13084e-06
1.64424e-06
1.3757e-06
1.23147e-06
1.28312e-06
1.38774e-06
1.38149e-06
1.3436e-06
1.31041e-06
1.3018e-06
1.49653e-06
2.69432e-06
1.14543e-05
0.000119459
0.0115871
0.189737
1.32525
6.32031
25.4111
95.9443
336.415
916.926
1730.42
2502.11
3051.59
3341.39
3425.38
3369.38
3227.7
3038.83
2828.12
2611.32
2398
2193.51
2000.91
1821.63
1656.26
1504.79
1367.01
1242.6
1131.25
1032.81
947.311
874.922
816.473
770.004
744.157
0.00749438
0.10096
0.178631
0.237904
0.181444
0.102914
0.0469869
0.0224389
0.0122299
0.00716978
0.00437363
0.002638
0.00160899
0.000998264
0.000610112
0.000373876
0.000228714
0.000138861
8.40512e-05
5.06721e-05
3.05384e-05
1.8357e-05
1.12283e-05
6.91565e-06
4.41802e-06
2.97131e-06
2.13844e-06
1.64953e-06
1.38222e-06
1.22495e-06
1.23089e-06
1.33751e-06
1.38905e-06
1.35217e-06
1.31984e-06
1.30356e-06
1.46054e-06
2.5936e-06
1.10645e-05
7.87208e-05
0.0110839
0.187592
1.32448
6.3429
25.3561
94.5992
328.456
900.129
1722.39
2520.21
3099.6
3413.01
3511.65
3461.9
3321.11
3129.82
2914.78
2692.65
2473.44
2263.08
2064.66
1879.8
1709.1
1552.62
1410.08
1281.17
1165.53
1062.94
973.355
896.954
834.043
785.531
749.268
734.088
0.00605508
0.0876457
0.171673
0.222329
0.168807
0.0960534
0.0449515
0.0221559
0.0121792
0.0071633
0.00437404
0.00264175
0.00161311
0.00100104
0.000611497
0.000374445
0.00022899
0.00013906
8.40851e-05
5.07135e-05
3.05437e-05
1.83509e-05
1.1225e-05
6.91925e-06
4.42196e-06
2.9711e-06
2.14571e-06
1.65488e-06
1.38779e-06
1.22215e-06
1.19066e-06
1.28245e-06
1.38518e-06
1.36264e-06
1.32924e-06
1.30933e-06
1.44102e-06
2.49743e-06
1.09652e-05
7.93585e-05
0.0111489
0.188608
1.3318
6.36837
25.3073
93.3747
320.844
882.512
1712.04
2537.65
3147.67
3484.12
3598.09
3555.58
3416.01
3222.58
3003.4
2776.03
2551.11
2334.76
2130.48
1939.9
1763.77
1602.13
1454.75
1321.23
1201.2
1094.4
1000.67
920.15
853.146
800.05
761.735
735.65
730.734
0.00504062
0.0743739
0.164726
0.207223
0.156037
0.0900717
0.0430808
0.021851
0.0121279
0.00716473
0.00437729
0.00264652
0.00161727
0.00100393
0.000613164
0.000375174
0.000229309
0.000139297
8.41589e-05
5.07604e-05
3.05512e-05
1.83535e-05