/*--------------------------------*- C++ -*----------------------------------*\
| =========                 |                                                 |
| \\      /  F ield         | OpenFOAM: The Open Source CFD Toolbox           |
|  \\    /   O peration     | Version:  v2012                                 |
|   \\  /    A nd           | Website:  www.openfoam.com                      |
|    \\/     M anipulation  |                                                 |
\*---------------------------------------------------------------------------*/
FoamFile
{
    version     2.0;
    format      ascii;
    class       volScalarField;
    location    "12000";
    object      lambda2;
}
// * * * * * * * * * * * * * * * * * * * * * * * * * * * * * * * * * * * * * //

dimensions      [0 0 0 0 0 0 0];


internalField   nonuniform List<scalar> 
27324
(
-0.27393
-0.320325
-0.560215
-0.349581
-0.602729
-0.649802
-0.38439
-0.625302
-0.682551
-0.688214
-0.416911
-0.650972
-0.699008
-0.715251
-0.712875
-0.447745
-0.674051
-0.71826
-0.729359
-0.732665
-0.727569
-0.469221
-0.69587
-0.736006
-0.745829
-0.744443
-0.73935
-0.736431
-0.480151
-0.712535
-0.751926
-0.761525
-0.758139
-0.750235
-0.740296
-0.706473
-0.46384
-0.733286
-0.772507
-0.775654
-0.772231
-0.761814
-0.748412
-0.70634
-0.624061
-0.447476
-0.720228
-0.79795
-0.798535
-0.787387
-0.773076
-0.755785
-0.710722
-0.630076
-0.51419
-0.435547
-0.699203
-0.788436
-0.816865
-0.800413
-0.784964
-0.761491
-0.717183
-0.629055
-0.518484
-0.350208
-0.437779
-0.657995
-0.761517
-0.811589
-0.811791
-0.781921
-0.765562
-0.720713
-0.635273
-0.495497
-0.359749
-0.15958
-0.44833
-0.646321
-0.701772
-0.781337
-0.812561
-0.798584
-0.755397
-0.720107
-0.634683
-0.495924
-0.307648
-0.19453
-0.0337994
-0.455115
-0.648094
-0.677463
-0.722971
-0.784968
-0.795938
-0.785189
-0.715937
-0.624653
-0.483778
-0.31529
-0.110809
-0.0597626
-0.0192897
-0.479322
-0.649516
-0.672642
-0.685437
-0.739698
-0.769181
-0.777183
-0.750352
-0.61534
-0.455584
-0.296968
-0.120998
-0.000771658
-0.00166385
-0.103003
-0.479097
-0.657248
-0.669496
-0.673677
-0.699538
-0.741013
-0.735646
-0.762631
-0.70315
-0.469826
-0.240088
-0.103437
-2.26744e-05
-0.0362536
-0.0548789
-0.099924
-0.484009
-0.654412
-0.667825
-0.667267
-0.682956
-0.715046
-0.725332
-0.678444
-0.713959
-0.651233
-0.390043
-0.131454
-0.00628191
-0.0495175
-0.0954274
-0.0104966
-0.00344524
-0.481944
-0.653995
-0.664435
-0.665071
-0.676882
-0.698077
-0.72435
-0.699172
-0.546733
-0.597756
-0.582638
-0.413007
-0.0494981
-0.000127247
-0.101457
-0.0478586
-0.00209519
-0.0347638
-0.476595
-0.650848
-0.663189
-0.665073
-0.6755
-0.692518
-0.711134
-0.723458
-0.64811
-0.223169
-0.356365
-0.460118
-0.479842
-0.270503
-0.155302
-0.147642
-0.159412
-0.339339
-0.0565961
-0.472236
-0.647605
-0.662738
-0.667658
-0.679242
-0.692181
-0.70174
-0.716677
-0.699629
-0.55425
-0.11377
-0.00157562
-0.0908424
-0.351942
-0.428305
-0.380092
-0.304185
-0.209954
-0.181385
-0.157305
-0.471661
-0.645885
-0.664445
-0.671496
-0.683385
-0.695765
-0.700169
-0.700192
-0.705475
-0.637423
-0.438121
-0.247587
-0.158708
-0.268733
-0.175118
-1.26473e-06
-0.00874796
-0.0349499
-0.281094
-0.522395
-0.325463
-0.472623
-0.646059
-0.667954
-0.676585
-0.687959
-0.696917
-0.700208
-0.693834
-0.684934
-0.685139
-0.526
-0.206855
-0.0999619
-0.16184
-0.310299
-0.325958
-0.296459
-0.296571
-0.283312
-0.233011
-0.5053
-0.149782
-0.477708
-0.647546
-0.672127
-0.682123
-0.692167
-0.69847
-0.699565
-0.692776
-0.671384
-0.660408
-0.636401
-0.327677
-0.0155547
-0.000188321
-0.119923
-0.165274
-0.180565
-0.161415
-0.131482
-0.048742
-5.15558e-06
-0.0030886
-0.183156
-0.488594
-0.651481
-0.677307
-0.687149
-0.695348
-0.698781
-0.699109
-0.692605
-0.670886
-0.631064
-0.637388
-0.434419
-0.210457
-0.0010863
-0.0204319
-0.0214544
-0.0306885
-0.0211817
-0.0292895
-0.0177501
-0.00155144
-0.00835116
-0.350473
-0.103788
-0.504505
-0.657687
-0.682395
-0.691274
-0.697005
-0.698569
-0.698489
-0.693474
-0.665405
-0.624954
-0.590554
-0.569794
-0.00187006
-0.14849
-0.0839401
-0.0159822
-0.00152327
-0.00324199
-0.00352198
-0.00135175
-0.000685678
-0.00174934
-0.00148193
-0.360745
-0.0376908
-0.519189
-0.664235
-0.6862
-0.693535
-0.697082
-0.697958
-0.698667
-0.694633
-0.664414
-0.618085
-0.578597
-0.498965
-0.466069
-0.25353
-0.0355735
-0.0702544
-0.000639063
-0.000128222
-2.38246e-05
-0.00443367
-0.00728255
-0.00181851
-4.54424e-05
-0.016932
-0.121931
-0.0168516
-0.537078
-0.672284
-0.689844
-0.695462
-0.696352
-0.697462
-0.699476
-0.69589
-0.661749
-0.6207
-0.576656
-0.44873
-0.414856
-0.265617
-0.258277
-0.00019601
-0.00349031
-0.000236511
-0.000304795
-0.00285283
-0.0133534
-0.00169744
-0.00226444
-0.00706466
-0.0257446
-0.000629242
-0.00798827
-0.553741
-0.678749
-0.692676
-0.696102
-0.695755
-0.697508
-0.70071
-0.696402
-0.660207
-0.622283
-0.580725
-0.459498
-0.311482
-0.359879
-0.0228972
-0.0905071
-0.000351087
-0.00817175
-0.00107547
-0.00350543
-0.00906643
-0.00760552
-4.5003e-05
-0.00530393
-0.095895
-0.0148075
-0.00681956
-0.00893609
-0.565277
-0.683788
-0.692208
-0.693824
-0.694291
-0.696483
-0.702164
-0.695917
-0.659944
-0.626148
-0.581515
-0.453308
-0.297074
-0.217532
-0.269507
-0.16548
-0.00102267
-0.00731396
-0.000716175
-0.00293059
-0.00781519
-0.00531975
-0.000721595
-0.00101209
-0.0335287
-0.0296317
-0.0354449
-0.00423032
-0.0117981
-0.570216
-0.686146
-0.690651
-0.691042
-0.693244
-0.697202
-0.703495
-0.695503
-0.660112
-0.63128
-0.581512
-0.446021
-0.29031
-0.12983
-0.215336
-0.0512561
-0.123617
-3.29846e-05
-0.00918245
-0.00285529
-0.00675267
-0.00851288
-0.00123516
-0.000265546
-0.0001415
-0.096226
-0.026375
-0.0196529
-0.00412262
-0.00965596
-0.575149
-0.686084
-0.688713
-0.688979
-0.693639
-0.698419
-0.704631
-0.695431
-0.660996
-0.634806
-0.581123
-0.437481
-0.278592
-0.120975
-0.0841781
-0.226068
-0.108111
-0.0203194
-0.00354075
-0.00338256
-0.00757346
-0.00787157
-0.00598991
-0.000239218
-0.00572296
-0.0978562
-0.00124655
-0.0300078
-0.0127532
-0.00213411
-0.00246293
-0.574923
-0.68414
-0.687517
-0.68835
-0.69498
-0.699888
-0.706026
-0.693706
-0.661372
-0.637196
-0.576779
-0.432863
-0.269288
-0.107661
-0.0522663
-0.0943407
-0.133259
-0.123457
-0.000964996
-0.00211661
-0.00588018
-0.00782573
-0.00800605
-0.000187468
-2.80094e-05
-0.0261003
-0.0468139
-0.0426291
-0.01659
-0.00851846
-0.000130439
-0.000334716
-0.571858
-0.679745
-0.684447
-0.688928
-0.696563
-0.701024
-0.706387
-0.694327
-0.664046
-0.637728
-0.571302
-0.424948
-0.267663
-0.101204
-0.0406612
-0.026494
-0.152971
-0.00225281
-0.0375999
-0.000535747
-0.00392814
-0.00761534
-0.01008
-0.00296337
-0.00591102
-0.00155826
-0.115169
-0.0339136
-0.0266105
-0.00960304
-0.00213616
-0.0054642
-0.00372495
-0.569825
-0.676848
-0.684269
-0.691896
-0.697974
-0.701462
-0.706359
-0.693726
-0.663258
-0.639928
-0.568095
-0.419025
-0.262287
-0.106633
-0.0372289
-0.0103844
-0.0353857
-0.166213
-0.0689591
-0.00824144
-0.00628465
-0.00827159
-0.0099272
-0.00569987
-0.00363126
-0.00489611
-0.0979767
-0.00136447
-0.0408256
-0.0134289
-0.00269627
-0.000473859
-0.0137041
-0.000897793
-0.574026
-0.676446
-0.688115
-0.697298
-0.700693
-0.701324
-0.706147
-0.693189
-0.660121
-0.635918
-0.557586
-0.416488
-0.257879
-0.105972
-0.0431313
-0.00640452
-0.0038951
-0.103262
-0.0587565
-0.0691673
-0.0300094
-0.0096398
-0.00593338
-0.00930987
-0.000378111
-0.00166627
-0.0194828
-0.0478001
-0.0533837
-0.0196154
-0.00456664
-0.000269384
-0.00680621
-0.0020143
-0.0128185
-0.586087
-0.679985
-0.693371
-0.701828
-0.702046
-0.700577
-0.705583
-0.691675
-0.656377
-0.633187
-0.550791
-0.413166
-0.253075
-0.106108
-0.0466331
-0.00619223
-0.000170276
-0.0203351
-0.156192
-0.00835445
-0.0461121
-0.0248474
-0.00222245
-0.0112338
-0.000738852
-0.00776816
-0.00482769
-0.120646
-0.0460485
-0.0303394
-0.00700828
-5.19052e-07
-0.00740457
-0.00027707
-0.00260961
-0.00896159
-0.597338
-0.684848
-0.698044
-0.704601
-0.701226
-0.698943
-0.705156
-0.689357
-0.651689
-0.632021
-0.546851
-0.414927
-0.250871
-0.106359
-0.0481784
-0.00753105
-2.0443e-06
-0.00522774
-0.0509297
-0.134103
-0.0751677
-0.0202301
-0.00126243
-0.011245
-0.00277025
-0.00356686
-0.00724293
-0.111663
-0.00846913
-0.0460364
-0.0108672
-0.000165693
-0.00623351
-0.00120191
-0.00694284
-0.00266042
-0.0018637
-0.612536
-0.691843
-0.701238
-0.704529
-0.699745
-0.697736
-0.705124
-0.687356
-0.648088
-0.631782
-0.546255
-0.414021
-0.247917
-0.106102
-0.0506512
-0.00653179
-3.05253e-06
-0.00491867
-0.000188056
-0.210116
-0.023884
-0.0536327
-0.0144672
-0.00556311
-0.0080304
-0.00054029
-0.00250172
-0.0312077
-0.0297758
-0.0614743
-0.0174892
-0.000657712
-0.0045888
-0.0020023
-0.00398407
-0.00810948
-4.03588e-05
-5.24934e-05
-0.629426
-0.698061
-0.704484
-0.70415
-0.698541
-0.697103
-0.705046
-0.68438
-0.646451
-0.631743
-0.546598
-0.4165
-0.238713
-0.107686
-0.0509952
-0.00677943
-0.000125088
-0.00432408
-0.00459565
-0.0831971
-0.137471
-0.111483
-0.0313017
-0.000828872
-0.0122116
-0.000784135
-0.0113888
-0.0028489
-0.110916
-0.0618079
-0.0282602
-0.00203024
-0.00259131
-0.00341463
-0.00329801
-0.00680365
-0.00166729
-0.00287628
-0.000315299
-0.639126
-0.703091
-0.703203
-0.7005
-0.697042
-0.698185
-0.705368
-0.682316
-0.64552
-0.631446
-0.545586
-0.416035
-0.235446
-0.106655
-0.0491492
-0.00694992
-0.000207109
-0.00657782
-0.00339824
-0.00589452
-0.226886
-0.0544126
-0.0489964
-0.0012748
-0.0128383
-0.00440419
-0.00769046
-0.0105513
-0.125897
-0.0303213
-0.0437222
-0.00528318
-0.00163474
-0.00537852
-0.00224679
-0.0069933
-0.0017268
-1.15253e-05
-0.00308928
-0.00462357
-0.645141
-0.703926
-0.69992
-0.695598
-0.69652
-0.699328
-0.705619
-0.681511
-0.647666
-0.63248
-0.545091
-0.412225
-0.22925
-0.114859
-0.0467198
-0.00657041
-0.00034143
-0.00481689
-0.00182351
-0.00197861
-0.0907662
-0.0912228
-0.0952263
-0.0247512
-0.00518099
-0.0107393
-0.00191212
-0.000266603
-0.0564026
-0.00285391
-0.0612712
-0.011276
-0.000996421
-0.00746523
-0.00149027
-0.00685763
-0.00221439
-9.74739e-05
-6.20405e-05
-0.000120661
-0.0164939
-0.647132
-0.703434
-0.696525
-0.693434
-0.697268
-0.702305
-0.706182
-0.681472
-0.649096
-0.631541
-0.541948
-0.410414
-0.218076
-0.120392
-0.0531781
-0.00571198
-0.000542156
-0.00646523
-0.00194298
-0.00292977
-0.000264962
-0.247533
-0.0973065
-0.0581323
-0.000940152
-0.0135719
-9.46335e-05
-0.0159569
-2.93395e-05
-0.0759188
-0.0710066
-0.0210738
-0.000207437
-0.00954189
-0.00101516
-0.00721858
-0.00254473
-1.67099e-05
-0.000409048
-0.0013472
-0.00339878
-0.0317104
-0.645324
-0.701165
-0.694696
-0.693281
-0.698898
-0.70544
-0.704426
-0.681571
-0.649811
-0.62773
-0.543301
-0.407219
-0.212651
-0.118904
-0.055993
-0.00964048
-0.000961373
-0.00576971
-0.00246475
-0.00573411
-9.50077e-05
-0.146478
-0.0201026
-0.110058
-0.00637033
-0.00848575
-0.0035775
-0.0126611
-0.0171148
-0.129231
-0.0565154
-0.0352907
-0.000113517
-0.0112573
-0.000478673
-0.00779532
-0.00284951
-3.24963e-06
-0.000379259
-0.000474167
-0.00993859
-0.014502
-0.0433078
-0.643342
-0.696447
-0.69395
-0.69422
-0.699923
-0.706662
-0.704476
-0.681671
-0.649466
-0.622696
-0.539708
-0.405987
-0.20887
-0.121246
-0.0526876
-0.013329
-0.000893326
-0.00531283
-0.00196509
-0.00338963
-0.00255628
-3.78837e-07
-0.238971
-0.129475
-0.0306181
-0.00072491
-0.0113347
-0.00316738
-0.00355937
-0.0973212
-0.0123939
-0.052858
-0.00176322
-0.0118658
-3.44337e-05
-0.00860263
-0.00318676
-4.51908e-07
-0.000471719
-0.00038415
-0.00743237
-0.0250839
-0.025265
-0.0802134
-0.647485
-0.69661
-0.695966
-0.695911
-0.700055
-0.707087
-0.703376
-0.680571
-0.648975
-0.619667
-0.538916
-0.402624
-0.210618
-0.121892
-0.0500355
-0.0130692
-0.00099405
-0.00549371
-0.000904063
-0.00182107
-0.00287953
-0.0237697
-0.267459
-0.0663884
-0.0657289
-0.000201563
-0.0191999
-0.000112585
-0.0124786
-0.0155838
-0.022608
-0.0682134
-0.00585471
-0.0105902
-0.00023291
-0.00937951
-0.00369613
-9.15022e-06
-0.000543337
-0.000203258
-0.0068971
-0.0225085
-0.036243
-0.0524275
-0.191667
-0.657064
-0.699396
-0.701729
-0.700235
-0.699946
-0.707054
-0.70265
-0.678038
-0.644885
-0.609499
-0.540335
-0.401991
-0.208849
-0.125863
-0.0552524
-0.0169311
-0.00164838
-0.00618352
-0.00020776
-0.000968823
-0.00158104
-0.00737809
-0.0808559
-0.0972144
-0.114295
-0.010021
-0.014103
-0.00289545
-0.0161985
-0.0112265
-0.0983819
-0.0684053
-0.0141615
-0.00692261
-0.00150561
-0.00967658
-0.00446687
-3.9701e-05
-0.00064328
-0.00010068
-0.00589949
-0.0224791
-0.0343639
-0.0578601
-0.162869
-0.304593
-0.665204
-0.703366
-0.704236
-0.700388
-0.699788
-0.706886
-0.70223
-0.675583
-0.642555
-0.604789
-0.541371
-0.402865
-0.207845
-0.120502
-0.0554223
-0.019522
-0.00175841
-0.00544677
-1.47463e-06
-0.000201116
-0.00131442
-0.000211313
-0.0114791
-0.275431
-0.116998
-0.0425082
-0.00168168
-0.01136
-0.00644853
-0.0180315
-0.118876
-0.0415093
-0.0277212
-0.00195604
-0.00363204
-0.00904944
-0.00560614
-9.64165e-05
-0.000760415
-3.22172e-05
-0.00506302
-0.0215018
-0.035381
-0.0512675
-0.159253
-0.290213
-0.363152
-0.679288
-0.706698
-0.703733
-0.69923
-0.697942
-0.70702
-0.702206
-0.673378
-0.641746
-0.602047
-0.542784
-0.403348
-0.211308
-0.116426
-0.0514126
-0.0225675
-0.00162481
-0.00312104
-4.4886e-05
-0.000276107
-0.000716802
-0.00030927
-0.0240907
-0.230491
-0.00811633
-0.0884044
-0.000693611
-0.0234438
-0.00172932
-1.69113e-05
-0.059364
-0.00199631
-0.0518485
-0.000188484
-0.00722004
-0.00725863
-0.00712638
-0.000232101
-0.000902074
-1.19014e-06
-0.00427013
-0.0206261
-0.0356693
-0.0482724
-0.146617
-0.287542
-0.359878
-0.376984
-0.685308
-0.709923
-0.702118
-0.697764
-0.6983
-0.707573
-0.701235
-0.672037
-0.641269
-0.60002
-0.54207
-0.400571
-0.215007
-0.119725
-0.0463998
-0.0242134
-0.00134424
-0.00128712
-0.00074909
-0.000235709
-0.000221843
-0.000824275
-0.00382078
-0.0292293
-0.179625
-0.132142
-0.00382186
-0.0224225
-0.000914898
-0.0163672
-0.000209441
-0.0355285
-0.0645487
-0.00407739
-0.0100675
-0.00461272
-0.008956
-0.00050863
-0.00104723
-1.62809e-05
-0.00357643
-0.0194854
-0.0361696
-0.0455933
-0.135581
-0.280032
-0.361503
-0.379135
-0.372098
-0.687402
-0.708015
-0.695376
-0.69554
-0.699546
-0.708498
-0.701848
-0.670093
-0.640624
-0.597799
-0.54066
-0.397831
-0.213435
-0.121581
-0.0451176
-0.0253429
-0.00149499
-0.000474674
-0.000245531
-0.000132434
-0.000448276
-0.000841323
-3.08565e-06
-0.0271174
-0.321841
-0.128711
-0.0541733
-0.00755622
-0.00629299
-0.0116592
-0.0392242
-0.103054
-0.0576508
-0.0113067
-0.01387
-0.00205168
-0.0109687
-0.00102818
-0.00115113
-9.71147e-05
-0.00296326
-0.0182843
-0.0366465
-0.0438605
-0.124034
-0.272802
-0.360272
-0.38379
-0.37578
-0.364173
-0.688128
-0.705739
-0.690632
-0.695219
-0.702386
-0.709281
-0.701468
-0.671361
-0.640805
-0.595823
-0.536916
-0.396823
-0.220236
-0.114541
-0.0418393
-0.0280826
-0.0021785
-0.000112055
-0.0011582
-7.93641e-06
-0.000951094
-0.00240246
-0.000495989
-0.021363
-0.252827
-0.0169085
-0.0842694
-5.78055e-05
-0.0176628
-0.00154373
-0.033916
-0.118984
-0.0291396
-0.0179409
-0.010654
-0.00059815
-0.012518
-0.00184588
-0.00114872
-0.000255911
-0.00239948
-0.01694
-0.0372071
-0.0427159
-0.112785
-0.264685
-0.359192
-0.386402
-0.381401
-0.368464
-0.356003
-0.686179
-0.70259
-0.689351
-0.696722
-0.705468
-0.709994
-0.701321
-0.671737
-0.640748
-0.593249
-0.532156
-0.395843
-0.22689
-0.118955
-0.036495
-0.0288067
-0.0023346
-4.26333e-06
-0.00230796
-6.14769e-05
-0.00144677
-0.00205656
-0.00110356
-0.00182596
-0.0356339
-0.149231
-0.117604
-0.000215748
-0.0268756
-6.08753e-05
-0.00155908
-0.0647471
-1.03029e-07
-0.0239078
-0.00336993
-5.97766e-07
-0.0129681
-0.00299546
-0.00100613
-0.000498421
-0.0018681
-0.0156573
-0.0376144
-0.0418029
-0.101908
-0.255959
-0.357562
-0.38924
-0.385256
-0.374225
-0.360809
-0.347202
-0.693209
-0.701638
-0.688983
-0.698242
-0.707067
-0.708732
-0.698546
-0.672101
-0.638385
-0.593026
-0.527763
-0.392472
-0.23507
-0.123501
-0.0350793
-0.0276598
-0.00241917
-3.3931e-05
-0.00292385
-0.000263129
-0.00258577
-0.00148316
-0.000351985
-0.0013646
-0.0398814
-0.305557
-0.124114
-0.0375119
-0.0209921
-0.00508546
-0.000446678
-0.00146385
-0.0398582
-0.0308335
-0.000527738
-0.00024135
-0.0117829
-0.0043885
-0.000737879
-0.000755773
-0.00132767
-0.014296
-0.0378527
-0.0415892
-0.0915535
-0.246587
-0.355566
-0.391764
-0.389519
-0.378303
-0.366546
-0.352573
-0.337687
-0.70316
-0.706748
-0.694234
-0.70015
-0.707468
-0.707551
-0.697311
-0.672388
-0.636713
-0.590044
-0.524427
-0.394144
-0.238906
-0.125579
-0.0350308
-0.0256825
-0.00125488
-0.00032366
-0.00463329
-0.000310356
-0.00263497
-0.000204753
-0.000569485
-2.83901e-05
-0.0439822
-0.265039
-0.0173639
-0.0850183
-0.00457965
-0.00991857
-0.000502391
-0.0285858
-0.0831002
-0.0239588
-0.0146542
-0.0010952
-0.00920916
-0.0059226
-0.000402814
-0.00098244
-0.000826779
-0.0128893
-0.0379628
-0.0417272
-0.0817282
-0.236815
-0.353099
-0.394074
-0.393687
-0.382812
-0.370757
-0.358149
-0.343681
-0.32772
-0.709885
-0.711153
-0.697808
-0.702342
-0.707756
-0.706284
-0.695469
-0.672738
-0.63439
-0.588305
-0.518896
-0.40001
-0.252778
-0.124259
-0.0350047
-0.0219945
-0.001045
-8.76802e-07
-0.00476349
-0.000505695
-0.00179218
-6.24527e-08
-0.00209301
-0.00019646
-0.0118277
-0.0740743
-0.123868
-0.125572
-2.22648e-05
-0.0218896
-0.000354576
-0.0484075
-0.0929798
-0.00839884
-0.0276762
-0.00427414
-0.00656963
-0.0074649
-0.000123427
-0.00108242
-0.000433279
-0.0113668
-0.038005
-0.0423225
-0.0726201
-0.226534
-0.350115
-0.396111
-0.397876
-0.387249
-0.37535
-0.362469
-0.348958
-0.334345
-0.317703
-0.716921
-0.713322
-0.698125
-0.701912
-0.707145
-0.70578
-0.694475
-0.672978
-0.632145
-0.587186
-0.515049
-0.397573
-0.260289
-0.135272
-0.0339229
-0.0183373
-0.00044746
-0.000348449
-0.00600934
-0.000753222
-0.00126972
-7.0183e-05
-0.00227956
-3.05525e-05
-0.000184915
-0.0218744
-0.302231
-0.136768
-0.0132779
-0.0336274
-0.00263282
-0.036137
-0.0712939
-0.00867886
-0.0237572
-0.00134804
-0.00316119
-0.00878814
-1.30995e-06
-0.00104734
-0.000178072
-0.0096778
-0.0379299
-0.0432917
-0.0641668
-0.215771
-0.346649
-0.397899
-0.402064
-0.391752
-0.379921
-0.367125
-0.353318
-0.339153
-0.324856
-0.308084
-0.718733
-0.714624
-0.700018
-0.701974
-0.706623
-0.704692
-0.694085
-0.673854
-0.631565
-0.583624
-0.513782
-0.39825
-0.258904
-0.14264
-0.034944
-0.0162302
-1.81885e-05
-0.00074786
-0.00376506
-0.00103141
-0.00107957
-0.000375469
-0.000280538
-0.000762171
-0.000420132
-0.0498509
-0.312617
-0.0588041
-0.0916203
-0.0370027
-0.00291032
-0.0452798
-0.0325901
-0.0540492
-0.0150982
-0.000144968
-0.00206602
-0.0093918
-7.57979e-05
-0.000907334
-5.59513e-05
-0.00788412
-0.0376085
-0.0446016
-0.0565223
-0.204555
-0.342679
-0.399446
-0.406241
-0.396298
-0.384559
-0.371749
-0.357952
-0.343522
-0.3291
-0.315613
-0.299405
-0.720433
-0.713095
-0.699952
-0.703423
-0.707216
-0.704907
-0.694155
-0.674122
-0.630302
-0.580676
-0.508011
-0.404859
-0.260677
-0.14154
-0.0356696
-0.0116258
-4.59995e-06
-0.000677775
-0.00179871
-0.000763762
-0.00198555
-0.000931117
-7.74608e-05
-0.00150858
-0.000616433
-0.0217986
-0.167919
-0.03382
-0.129567
-0.0242338
-0.00138466
-0.0697822
-0.00295068
-0.0860331
-0.00675723
-0.0127424
-0.00173014
-0.00882269
-0.000290686
-0.00073486
-1.72632e-05
-0.00613775
-0.0368235
-0.046388
-0.0497306
-0.192948
-0.338248
-0.400745
-0.410367
-0.400875
-0.389239
-0.376468
-0.362605
-0.348038
-0.333393
-0.319257
-0.307079
-0.292118
-0.725347
-0.712824
-0.700698
-0.70435
-0.70615
-0.704878
-0.695435
-0.676344
-0.629078
-0.576324
-0.50748
-0.402988
-0.271034
-0.141293
-0.035105
-0.0092878
-0.000212878
-0.00112858
-0.00146182
-0.00116073
-0.00188205
-0.000107951
-0.000183733
-0.00204981
-1.3639e-05
-0.00192371
-0.00127034
-0.211854
-0.130576
-0.0191002
-0.00490778
-0.0508685
-2.76712e-05
-0.0841002
-0.00199878
-0.0377431
-0.00170435
-0.0071864
-0.00055848
-0.000577623
-1.27936e-05
-0.00463822
-0.0354538
-0.0484942
-0.0438388
-0.180926
-0.333292
-0.401757
-0.414433
-0.405501
-0.39396
-0.38122
-0.367326
-0.352643
-0.337787
-0.323349
-0.310035
-0.299653
-0.286624
-0.733806
-0.715293
-0.702277
-0.705529
-0.705457
-0.7034
-0.695977
-0.677118
-0.627035
-0.572219
-0.506103
-0.409185
-0.268516
-0.147888
-0.0329824
-0.00613051
-8.29169e-05
-0.00222868
-0.00268602
-0.00180083
-0.000776262
-0.000172164
-0.000160278
-0.00107797
-0.000987584
-0.000999121
-0.0519401
-0.298797
-0.103834
-0.0637959
-0.0132603
-0.0233042
-0.0144272
-0.0654193
-0.0270651
-0.0514219
-0.000422827
-0.00532818
-0.00078352
-0.000450786
-2.52958e-05
-0.00354651
-0.0334371
-0.0506776
-0.0391216
-0.16848
-0.32784
-0.402439
-0.418413
-0.41017
-0.398738
-0.386043
-0.372097
-0.357288
-0.34221
-0.327527
-0.313882
-0.301886
-0.293756
-0.283387
-0.743329
-0.718969
-0.704353
-0.705991
-0.704819
-0.702323
-0.697615
-0.677867
-0.624909
-0.568136
-0.504009
-0.414499
-0.274051
-0.147667
-0.0344404
-0.00268638
-1.01731e-05
-0.000834774
-0.000770745
-0.00122808
-0.000653586
-0.000501743
-0.00012805
-0.000141987
-0.00370883
-0.000429877
-0.0526661
-0.247183
-0.00538211
-0.110476
-0.0208922
-0.00585732
-0.049704
-0.0413646
-0.0810438
-0.0328276
-0.00514564
-0.00410973
-0.000873299
-0.000357381
-5.50118e-05
-0.00285977
-0.0309695
-0.0526858
-0.0355722
-0.155656
-0.321881
-0.40278
-0.422301
-0.414875
-0.403579
-0.390915
-0.376926
-0.362023
-0.346734
-0.331732
-0.317709
-0.305359
-0.295243
-0.289735
-0.282758
-0.75357
-0.722683
-0.70475
-0.705898
-0.704488
-0.701301
-0.699621
-0.678815
-0.623471
-0.564584
-0.506806
-0.418536
-0.280414
-0.147992
-0.0323476
-0.00195655
-9.91859e-06
-0.000316813
-0.00162255
-0.000731948
-0.000317429
-0.00110239
-2.23985e-05
-8.19118e-05
-0.00540369
-4.71456e-08
-0.0199254
-0.0904939
-0.108103
-0.112681
-0.0293828
-0.00235684
-0.0806513
-0.0245819
-0.123698
-0.0109578
-0.0183769
-0.0040941
-0.000719607
-0.000313698
-0.000102205
-0.00250838
-0.0285105
-0.0542183
-0.033141
-0.142564
-0.315364
-0.402769
-0.426087
-0.419621
-0.408452
-0.395833
-0.381828
-0.366811
-0.35134
-0.336076
-0.321639
-0.308784
-0.298278
-0.290488
-0.287858
-0.284831
-0.760532
-0.726945
-0.703719
-0.705628
-0.703465
-0.700429
-0.701453
-0.679586
-0.617631
-0.562028
-0.506322
-0.427963
-0.282176
-0.148105
-0.0314884
-0.000681199
-4.75257e-07
-0.000536027
-0.0023592
-0.00110305
-0.000528175
-0.00118407
-0.000390785
-0.000405549
-0.00349962
-5.40556e-07
-0.001894
-0.00463055
-0.230558
-0.105761
-0.0766023
-0.00102644
-0.0683089
-0.00992335
-0.129061
-0.00196916
-0.0503163
-0.00545103
-0.000332195
-0.000323852
-0.00014469
-0.00239752
-0.0264587
-0.0553068
-0.0314498
-0.129498
-0.308284
-0.402389
-0.42973
-0.424409
-0.413384
-0.400797
-0.386752
-0.371653
-0.35602
-0.340466
-0.325677
-0.312346
-0.301174
-0.293007
-0.28795
-0.288568
-0.289826
-0.767977
-0.72984
-0.702618
-0.704306
-0.702876
-0.700018
-0.703156
-0.680148
-0.610865
-0.559179
-0.50544
-0.432939
-0.2949
-0.142052
-0.0331294
-0.000228041
-0.000258237
-0.000296196
-0.00190735
-0.00107625
-2.87925e-06
-0.00201646
-0.000860468
-0.0017782
-0.000579883
-0.000583193
-0.000257741
-0.0525764
-0.253894
-0.0637232
-0.171895
-7.3841e-06
-0.0643654
-0.000625866
-0.108178
-0.0144419
-0.0791321
-0.00654461
-1.8336e-05
-0.000387585
-0.000182414
-0.00241091
-0.0249721
-0.0558961
-0.0298193
-0.116768
-0.300597
-0.401652
-0.433216
-0.429225
-0.418366
-0.405833
-0.391768
-0.376562
-0.360763
-0.344951
-0.3298
-0.316012
-0.304286
-0.295317
-0.289762
-0.287977
-0.29196
-0.297877
-0.777368
-0.73359
-0.702613
-0.701868
-0.701812
-0.700338
-0.706386
-0.680109
-0.604484
-0.558131
-0.505542
-0.438206
-0.298688
-0.138467
-0.0357315
-1.04122e-05
-8.27941e-06
-4.60493e-06
-0.00373191
-0.000511564
-1.65832e-06
-0.000488601
-0.000408751
-0.000535874
-8.01334e-06
-0.0022437
-0.000899821
-0.0538092
-0.181418
-0.000748607
-0.136473
-0.000382679
-0.0486164
-0.0223235
-0.0695954
-0.0541373
-0.0721361
-0.00377231
-7.08723e-05
-0.000517038
-0.000209615
-0.00247291
-0.0241414
-0.0563762
-0.0283089
-0.104563
-0.292409
-0.400542
-0.436492
-0.434077
-0.423405
-0.410912
-0.39684
-0.381533
-0.365572
-0.34951
-0.334029
-0.319789
-0.307509
-0.29785
-0.291476
-0.288982
-0.290668
-0.298161
-0.308768
-0.786718
-0.738553
-0.703274
-0.699142
-0.699653
-0.702222
-0.709155
-0.679581
-0.597329
-0.558399
-0.506803
-0.443689
-0.301197
-0.13075
-0.0356111
-3.46271e-05
-2.22823e-07
-0.000367537
-0.00319756
-0.000635374
-0.000338969
-6.67237e-07
-0.000149194
-0.000249014
-2.6297e-05
-0.00259757
-2.49875e-06
-0.0357768
-0.0512911
-0.113932
-0.077979
-0.011483
-0.0422234
-0.0356507
-0.0559991
-0.10789
-0.0437816
-0.0202382
-0.000142473
-0.000754135
-0.000220765
-0.00255094
-0.0236411
-0.0571975
-0.0266938
-0.0927894
-0.284016
-0.399026
-0.439557
-0.438978
-0.4285
-0.416068
-0.401959
-0.386561
-0.370436
-0.354142
-0.338318
-0.32367
-0.310871
-0.300553
-0.293372
-0.289898
-0.290831
-0.296133
-0.307213
-0.322444
-0.792444
-0.742818
-0.703099
-0.695878
-0.697407
-0.705667
-0.711414
-0.677359
-0.591626
-0.558425
-0.50796
-0.446525
-0.306004
-0.122548
-0.0367926
-0.000895394
-3.52617e-05
-0.000273843
-0.00157044
-0.00142503
-5.50612e-05
-1.48263e-07
-7.90625e-05
-0.000732176
-5.92835e-05
-0.00245949
-0.000889239
-0.0195439
-0.00494053
-0.229533
-0.0601335
-0.0924047
-0.0328457
-0.0368433
-0.0337453
-0.127953
-0.0200268
-0.0476668
-4.21404e-06
-0.00124769
-0.000200205
-0.00261177
-0.023424
-0.0582281
-0.0250713
-0.0813368
-0.275478
-0.397106
-0.442388
-0.443913
-0.43364
-0.421287
-0.407147
-0.391669
-0.37537
-0.35885
-0.342717
-0.32764
-0.314318
-0.303356
-0.295424
-0.291092
-0.290927
-0.295368
-0.304423
-0.31891
-0.338465
-0.795808
-0.744565
-0.699903
-0.692741
-0.695611
-0.709103
-0.713745
-0.672826
-0.587126
-0.560774
-0.509088
-0.448942
-0.303749
-0.114566
-0.0378291
-0.000626781
-4.77411e-05
-0.000808914
-0.00120097
-0.00186148
-0.00042155
-2.73726e-05
-2.05993e-08
-0.000998766
-3.69792e-05
-0.00216534
-0.00183119
-0.0123425
-0.0365603
-0.238689
-0.0284992
-0.17296
-0.0244786
-0.0234297
-0.0132748
-0.109727
-0.00173903
-0.0847422
-0.00021952
-0.00224369
-0.00014837
-0.00266512
-0.0233684
-0.0593193
-0.0238413
-0.0701184
-0.266872
-0.39489
-0.445027
-0.448885
-0.438835
-0.42656
-0.412401
-0.396806
-0.380368
-0.363611
-0.347182
-0.331727
-0.31788
-0.306256
-0.297584
-0.292438
-0.291321
-0.294654
-0.302729
-0.315512
-0.333099
-0.356212
-0.799894
-0.744499
-0.694886
-0.690617
-0.695044
-0.713499
-0.715354
-0.666934
-0.586306
-0.56288
-0.513213
-0.450057
-0.303008
-0.104229
-0.0358425
-0.000432525
-8.79975e-06
-0.00133401
-0.00174155
-0.000915649
-0.00349094
-1.61664e-05
-0.000357931
-0.000787937
-1.51445e-05
-0.00224881
-0.00148558
-0.0103433
-0.0376901
-0.157553
-0.000129983
-0.202621
-0.0160314
-0.0153198
-0.000387643
-0.0811807
-0.0160283
-0.0960769
-0.000213061
-0.003566
-9.9937e-05
-0.00267727
-0.0234281
-0.0601853
-0.0229579
-0.0594213
-0.258161
-0.392487
-0.447453
-0.45386
-0.44408
-0.431904
-0.417711
-0.402025
-0.385401
-0.368429
-0.351692
-0.335882
-0.321542
-0.309376
-0.299939
-0.293919
-0.291824
-0.294138
-0.301069
-0.312821
-0.329049
-0.349313
-0.375119
-0.805432
-0.744113
-0.68938
-0.689548
-0.696231
-0.717884
-0.715888
-0.662235
-0.587666
-0.564887
-0.514922
-0.452091
-0.302462
-0.101759
-0.0363895
-0.000340912
-6.35594e-05
-0.000864406
-0.000802893
-0.00198047
-0.00506544
-0.000565761
-0.00100614
-0.00193547
-0.000915469
-0.00338187
-0.00127736
-0.00580751
-0.033313
-0.0460125
-0.0890862
-0.166881
-0.00185184
-0.0102726
-0.00840798
-0.0473897
-0.0598163
-0.0809141
-0.000576351
-0.00424847
-7.56852e-05
-0.00258939
-0.023506
-0.0605712
-0.0224366
-0.0496076
-0.249213
-0.389989
-0.449673
-0.45877
-0.449389
-0.43729
-0.423081
-0.407295
-0.390497
-0.373327
-0.356315
-0.34012
-0.325341
-0.312572
-0.302462
-0.29563
-0.292616
-0.293821
-0.299674
-0.310271
-0.325408
-0.344616
-0.36692
-0.394434
-0.811164
-0.745445
-0.683642
-0.69123
-0.698955
-0.720633
-0.715446
-0.657506
-0.591697
-0.563718
-0.515713
-0.450577
-0.298771
-0.101632
-0.0372379
-2.43542e-05
-0.000111174
-0.000537796
-0.000665957
-0.000549191
-0.00409615
-7.39738e-08
-0.000610361
-0.000521664
-0.00172152
-0.00716782
-0.00235262
-0.00458888
-0.045991
-0.000244582
-0.166974
-0.076831
-0.015757
-0.00768838
-0.0126425
-0.0315807
-0.0821305
-0.0541462
-0.015212
-0.00351063
-5.76479e-05
-0.00235914
-0.0233431
-0.0604951
-0.022127
-0.0411111
-0.240013
-0.3874
-0.451742
-0.463551
-0.454723
-0.442699
-0.42848
-0.412597
-0.395679
-0.378266
-0.361019
-0.344447
-0.329248
-0.315914
-0.305108
-0.297467
-0.293565
-0.293788
-0.298514
-0.307947
-0.321954
-0.340173
-0.361894
-0.385341
-0.413295
-0.818504
-0.747725
-0.679646
-0.695477
-0.702947
-0.722302
-0.714802
-0.653336
-0.597167
-0.562974
-0.515733
-0.448048
-0.292896
-0.101175
-0.0374408
-2.08254e-05
-0.000257487
-0.000793901
-0.000599402
-5.91219e-05
-0.00263565
-0.00141998
-0.000261262
-0.000248888
-0.000186936
-0.001263
-0.00494357
-0.00806531
-0.0636865
-0.00618583
-0.196765
-0.00588877
-0.126332
-0.00652277
-0.00828099
-0.025621
-0.0863327
-0.0222684
-0.0433834
-0.00198968
-1.44519e-05
-0.00192979
-0.0226041
-0.0601789
-0.0219102
-0.0339679
-0.230805
-0.38455
-0.453685
-0.468087
-0.460014
-0.44811
-0.433872
-0.417942
-0.40089
-0.383266
-0.365762
-0.348875
-0.333212
-0.319343
-0.307917
-0.299524
-0.294661
-0.293879
-0.297481
-0.305792
-0.318703
-0.335915
-0.356713
-0.380074
-0.403852
-0.430894
-0.828503
-0.752582
-0.675683
-0.699465
-0.707372
-0.722454
-0.712976
-0.652457
-0.600634
-0.560551
-0.516445
-0.443755
-0.2884
-0.106711
-0.0320336
-4.74984e-05
-7.1417e-05
-0.000509469
-0.000989353
-0.000389015
-0.00252947
-0.000897069
-0.000103378
-0.000614735
-2.02502e-05
-0.000100558
-0.00694371
-0.0110058
-0.0506292
-0.0136896
-0.140584
-0.0111828
-0.201916
-0.00487032
-0.00213091
-0.00281128
-0.0594441
-4.10872e-06
-0.0623514
-0.00149456
-1.15375e-05
-0.00140867
-0.021163
-0.0601767
-0.0218223
-0.0280529
-0.222225
-0.381445
-0.455496
-0.472462
-0.465159
-0.453523
-0.439289
-0.423354
-0.406209
-0.388442
-0.370617
-0.353398
-0.337283
-0.322933
-0.310872
-0.301727
-0.296007
-0.294208
-0.296764
-0.303879
-0.315637
-0.331836
-0.351775
-0.374426
-0.39847
-0.421582
-0.446639
-0.836664
-0.7637
-0.673703
-0.701819