/*--------------------------------*- C++ -*----------------------------------*\
| =========                 |                                                 |
| \\      /  F ield         | OpenFOAM: The Open Source CFD Toolbox           |
|  \\    /   O peration     | Version:  v2012                                 |
|   \\  /    A nd           | Website:  www.openfoam.com                      |
|    \\/     M anipulation  |                                                 |
\*---------------------------------------------------------------------------*/
FoamFile
{
    version     2.0;
    format      ascii;
    class       volScalarField;
    location    "12000";
    object      lambda1;
}
// * * * * * * * * * * * * * * * * * * * * * * * * * * * * * * * * * * * * * //

dimensions      [0 0 0 0 0 0 0];


internalField   nonuniform List<scalar> 
27324
(
0.311157
0.343579
0.566733
0.361256
0.606515
0.653188
0.390242
0.627278
0.684708
0.691012
0.418631
0.652403
0.700289
0.717232
0.715749
0.448611
0.674684
0.71942
0.73065
0.734987
0.731691
0.473349
0.696228
0.7367
0.747128
0.746095
0.743273
0.746107
0.534819
0.714343
0.752344
0.762459
0.759977
0.753216
0.750853
0.741058
0.708197
0.742585
0.77435
0.776229
0.773702
0.765356
0.756522
0.743359
0.727473
0.80626
0.773688
0.804659
0.800927
0.78832
0.776285
0.765001
0.737673
0.732451
0.720034
0.831306
0.818449
0.818249
0.825534
0.804831
0.787116
0.770348
0.743626
0.704664
0.730857
0.708562
0.626379
0.828413
0.837367
0.84186
0.828657
0.793177
0.771959
0.7456
0.702625
0.674559
0.736514
0.685936
0.460417
0.685722
0.830124
0.852917
0.85864
0.8374
0.786618
0.739649
0.700934
0.652237
0.6621
0.742412
0.658147
0.454685
0.645021
0.694096
0.83697
0.869995
0.881126
0.866531
0.793585
0.685258
0.647092
0.615
0.6678
0.744055
0.621472
0.479152
0.648148
0.665668
0.691621
0.849345
0.89229
0.913057
0.899016
0.809731
0.640391
0.603842
0.589277
0.690837
0.712083
0.589808
0.479706
0.65676
0.667318
0.661834
0.695923
0.869766
0.919795
0.93741
0.924758
0.855464
0.676673
0.571661
0.546609
0.713464
0.632903
0.537385
0.485193
0.65436
0.667041
0.663871
0.665844
0.710921
0.901388
0.939273
0.94909
0.942834
0.904913
0.78837
0.630948
0.529217
0.710361
0.411366
0.397899
0.483816
0.654105
0.664206
0.663889
0.672255
0.674108
0.759774
0.929165
0.945595
0.95369
0.954525
0.938361
0.886664
0.788335
0.689444
0.711576
0.621309
0.537759
0.478789
0.651161
0.663181
0.664631
0.673944
0.686169
0.671415
0.853677
0.940209
0.943111
0.953012
0.960155
0.956879
0.940813
0.913001
0.882059
0.874396
0.866531
0.856294
0.473385
0.648193
0.662969
0.667525
0.678576
0.690094
0.690062
0.665364
0.912109
0.939582
0.931359
0.944971
0.959048
0.963635
0.961287
0.955084
0.948113
0.946495
0.944652
0.937707
0.472141
0.646392
0.665063
0.671661
0.68313
0.694789
0.696394
0.671454
0.751325
0.937986
0.929596
0.905591
0.923478
0.946301
0.957304
0.960649
0.959982
0.957352
0.954036
0.950397
0.93941
0.472822
0.646382
0.668596
0.677275
0.688049
0.696501
0.698453
0.684778
0.615214
0.85408
0.949628
0.905604
0.843639
0.861228
0.897644
0.919813
0.929998
0.932093
0.927624
0.912927
0.888533
0.905762
0.477864
0.64776
0.672564
0.68293
0.692925
0.69851
0.698851
0.688953
0.649285
0.549947
0.912963
0.951874
0.857998
0.613061
0.577653
0.662403
0.73682
0.772937
0.764794
0.713809
0.590443
0.667685
0.875817
0.488782
0.651604
0.677604
0.68772
0.696347
0.699799
0.6992
0.691385
0.662769
0.576926
0.682669
0.941704
0.945627
0.7943
0.477871
0.408422
0.535217
0.664483
0.675753
0.539902
0.310034
0.205699
0.827302
0.855433
0.504783
0.657797
0.682572
0.691677
0.697768
0.700031
0.700383
0.694022
0.663639
0.607388
0.454718
0.838442
0.953706
0.928221
0.709295
0.629496
0.562159
0.644789
0.716305
0.678272
0.524421
0.278101
0.650139
0.878156
0.77977
0.519506
0.664354
0.686353
0.693795
0.697642
0.699123
0.701413
0.698894
0.666402
0.615904
0.540301
0.279482
0.910742
0.955578
0.891795
0.476994
0.488121
0.555081
0.682052
0.69806
0.585541
0.326579
0.323654
0.835344
0.86076
0.620618
0.537383
0.672365
0.68999
0.69568
0.696737
0.6983
0.701668
0.70185
0.671499
0.625354
0.572669
0.338822
0.664989
0.942226
0.948073
0.817859
0.179977
0.300881
0.576126
0.694835
0.639767
0.394425
0.0658853
0.738868
0.867211
0.774445
0.39328
0.553934
0.678798
0.692769
0.696309
0.696093
0.698148
0.702311
0.701245
0.673698
0.639891
0.588221
0.450974
0.040742
0.84821
0.954249
0.923199
0.634141
0.0545992
0.394639
0.654072
0.673323
0.520416
0.0989775
0.510438
0.85432
0.824353
0.590736
0.213436
0.565355
0.68378
0.692261
0.693966
0.694613
0.697055
0.703384
0.699524
0.671144
0.650241
0.608452
0.473415
0.268862
0.398283
0.921113
0.953259
0.858664
0.34972
0.261492
0.54963
0.677815
0.604441
0.279767
0.164534
0.799777
0.85519
0.691013
0.358699
0.133637
0.57017
0.686087
0.690613
0.691123
0.693456
0.697666
0.704538
0.698235
0.668433
0.651742
0.621327
0.501645
0.329058
0.072563
0.752914
0.947953
0.937405
0.705033
0.219478
0.360031
0.639524
0.650587
0.438589
0.0141043
0.664702
0.859081
0.776125
0.460715
0.20604
0.108707
0.575053
0.685964
0.688578
0.688905
0.693737
0.698736
0.705462
0.69775
0.667118
0.650138
0.618931
0.523523
0.370515
0.167689
0.198305
0.893014
0.953249
0.89174
0.404178
0.0711394
0.525248
0.661505
0.556827
0.156631
0.382718
0.835732
0.825956
0.590845
0.250007
0.146097
0.10842
0.574904
0.684027
0.687321
0.688144
0.694847
0.700026
0.706601
0.695593
0.666386
0.648146
0.607958
0.522421
0.416992
0.220224
0.0466657
0.652529
0.939803
0.941138
0.768919
0.113099
0.287657
0.630412
0.624014
0.35257
0.0424638
0.767464
0.849849
0.696891
0.347672
0.146122
0.136611
0.109014
0.571866
0.679698
0.684264
0.688651
0.696272
0.700812
0.706656
0.695628
0.667931
0.646429
0.594012
0.504369
0.433034
0.294949
0.110587
0.113555
0.866143
0.951017
0.897823
0.464694
0.0287299
0.531489
0.653364
0.502351
0.0811319
0.608488
0.850311
0.773204
0.463214
0.185584
0.12083
0.134959
0.0734126
0.56989
0.676832
0.684166
0.691629
0.6976
0.70099
0.705978
0.694362
0.665944
0.646708
0.585855
0.477444
0.420716
0.341324
0.198676
0.0226333
0.586867
0.932733
0.940862
0.775786
0.101476
0.320001
0.642203
0.596237
0.259876
0.305925
0.823899
0.820162
0.582938
0.245366
0.130512
0.120681
0.0996513
0.0618175
0.574085
0.676488
0.688065
0.697143
0.700307
0.70076
0.705258
0.692393
0.661526
0.640663
0.572221
0.459219
0.381574
0.353646
0.269554
0.0997129
0.140215
0.850572
0.948057
0.895865
0.504051
0.066458
0.575337
0.645115
0.429336
0.00844019
0.753776
0.843116
0.685252
0.333599
0.147433
0.120295
0.0884094
0.0981053
0.198889
0.586172
0.680064
0.693437
0.701739
0.701815
0.699993
0.704544
0.689665
0.654783
0.635673
0.560702
0.445431
0.338653
0.318679
0.323402
0.16632
0.0378836
0.566062
0.929435
0.936228
0.759462
0.127682
0.419421
0.656506
0.544639
0.119607
0.599238
0.844341
0.760503
0.44263
0.18159
0.11739
0.0911797
0.0897813
0.241522
0.358925
0.597481
0.684951
0.698181
0.704687
0.701128
0.698552
0.704097
0.687009
0.647319
0.6293
0.551726
0.435303
0.309309
0.258082
0.317383
0.257283
0.0834941
0.152722
0.852007
0.944747
0.881226
0.399022
0.177064
0.621821
0.616565
0.294197
0.318281
0.820932
0.808917
0.557038
0.236832
0.119778
0.0878123
0.101624
0.251859
0.382161
0.478938
0.612662
0.691945
0.701397
0.704728
0.69987
0.697586
0.704406
0.68497
0.643014
0.624349
0.540366
0.423038
0.283072
0.196914
0.270355
0.301275
0.163332
0.0607916
0.594063
0.929497
0.927516
0.707964
0.0286687
0.518191
0.649581
0.447405
0.0131396
0.759265
0.834858
0.659019
0.314844
0.132774
0.0810463
0.11387
0.27151
0.391018
0.488633
0.551183
0.629507
0.698113
0.704647
0.70438
0.69887
0.697321
0.704759
0.682737
0.641395
0.623346
0.531009
0.403852
0.251748
0.152435
0.19374
0.290684
0.264125
0.0874626
0.139095
0.86647
0.940292
0.851499
0.270801
0.311695
0.645428
0.555213
0.126951
0.626718
0.840649
0.737641
0.413013
0.161025
0.0712791
0.131361
0.289248
0.407062
0.487661
0.556331
0.593276
0.639181
0.703105
0.703305
0.700772
0.697438
0.698724
0.705771
0.681671
0.642022
0.623142
0.527681
0.383629
0.20985
0.119481
0.118694
0.236159
0.309438
0.200559
0.00531031
0.65499
0.931186
0.911801
0.602007
0.054715
0.591124
0.620533
0.303984
0.379861
0.824991
0.791277
0.520408
0.206086
0.0671666
0.151289
0.307786
0.421474
0.493428
0.551072
0.597642
0.615891
0.645093
0.703898
0.699945
0.695783
0.696904
0.699963
0.706589
0.682449
0.646293
0.626705
0.527632
0.374098
0.170507
0.082428
0.0724614
0.153664
0.308731
0.297379
0.0890041
0.166283
0.887488
0.933243
0.796325
0.127795
0.459458
0.648852
0.452493
0.0516849
0.779122
0.823168
0.621321
0.273226
0.0736262
0.172021
0.326098
0.435208
0.499342
0.550988
0.591211
0.620768
0.624028
0.647054
0.703328
0.69644
0.693468
0.697509
0.702876
0.707345
0.683766
0.650977
0.629266
0.529724
0.372491
0.1498
0.0543082
0.0414523
0.0887003
0.254288
0.344123
0.214145
0.0327201
0.747662
0.932417
0.884503
0.4605
0.233054
0.639439
0.560407
0.100271
0.680677
0.836334
0.704282
0.361659
0.0908641
0.192852
0.343669
0.447988
0.50661
0.550831
0.589352
0.614301
0.630215
0.616955
0.645296
0.701056
0.69449
0.693121
0.698924
0.705796
0.705564
0.684258
0.65431
0.630963
0.538258
0.381279
0.143694
0.0466387
0.0130686
0.0638501
0.169221
0.338575
0.302573
0.119371
0.374917
0.907654
0.920258
0.703534
0.0109363
0.580997
0.622536
0.283412
0.492066
0.830955
0.765135
0.463031
0.124305
0.214602
0.359969
0.459952
0.514598
0.551976
0.58673
0.612344
0.624273
0.625407
0.585897
0.643356
0.696389
0.693739
0.69392
0.699677
0.706699
0.705198
0.684206
0.654778
0.630237
0.546156
0.395364
0.161694
0.0553014
0.00527232
0.0218997
0.0994901
0.274974
0.337405
0.205504
0.0194974
0.830592
0.93012
0.833869
0.22435
0.451222
0.650802
0.433549
0.191918
0.802717
0.805218
0.563885
0.18013
0.236393
0.375573
0.471585
0.522955
0.554194
0.584558
0.609273
0.622988
0.620905
0.598427
0.522858
0.647577
0.696585
0.695827
0.695599
0.699622
0.706695
0.703458
0.682232
0.654092
0.628774
0.554305
0.415795
0.191385
0.082637
0.0264239
0.00131545
0.0279365
0.165859
0.31892
0.260491
0.0283535
0.620257
0.920607
0.894743
0.527453
0.239308
0.642124
0.546392
0.0268423
0.738845
0.827493
0.652442
0.260872
0.257484
0.390492
0.482994
0.531425
0.557441
0.582798
0.606226
0.620353
0.621378
0.596768
0.536566
0.456627
0.65715
0.699479
0.701671
0.700015
0.699505
0.706378
0.701864
0.678231
0.648312
0.618959
0.558203
0.433445
0.232683
0.116775
0.0651481
0.0342254
0.00904682
0.0499576
0.242583
0.296972
0.104227
0.238319
0.882856
0.919592
0.731476
0.00264736
0.589023
0.613672
0.232417
0.613818
0.833176
0.722526
0.363431
0.276592
0.404902
0.494046
0.539775
0.56152
0.581745
0.603084
0.617523
0.62031
0.600553
0.536278
0.463384
0.435991
0.665297
0.703485
0.704378
0.700317
0.699481
0.706205
0.700848
0.673755
0.642951
0.610862
0.558292
0.438959
0.26409
0.1565
0.0947687
0.0918844
0.0541922
0.0204288
0.127876
0.290631
0.192337
0.0105283
0.780179
0.923673
0.840662
0.240057
0.470653
0.649041
0.397062
0.39637
0.820998
0.773479
0.468521
0.294328
0.419689
0.504867
0.547757
0.566024
0.58154
0.600096
0.614317
0.618868
0.60258
0.542249
0.461794
0.438227
0.440756
0.679422
0.706805
0.703965
0.699433
0.697846
0.706532
0.700837
0.670197
0.638089
0.602447
0.553202
0.437242
0.274293
0.181543
0.119846
0.125223
0.108879
0.0596619
0.0446577
0.241509
0.262898
0.0354519
0.53209
0.909097
0.892737
0.532437
0.272832
0.650319
0.516712
0.0715129
0.785465
0.806314
0.567523
0.315373
0.434744
0.515463
0.555149
0.570741
0.582218
0.597456
0.61091
0.616831
0.60396
0.547057
0.465501
0.435599
0.44581
0.435405
0.685452
0.710036
0.702334
0.698117
0.698606
0.707412
0.700283
0.668878
0.634937
0.593157
0.542189
0.421189
0.273522
0.186661
0.112402
0.127454
0.137957
0.0951735
0.0420374
0.158079
0.297068
0.12679
0.159245
0.863912
0.914203
0.726481
0.0169392
0.613583
0.599404
0.115747
0.71275
0.822972
0.653521
0.351385
0.45252
0.525663
0.561667
0.57549
0.583705
0.595374
0.607408
0.61432
0.604389
0.551853
0.469157
0.435787
0.444462
0.443815
0.4212
0.687453
0.708048
0.695595
0.695874
0.700062
0.708936
0.701541
0.667893
0.634305
0.586039
0.528177
0.396565
0.24813
0.185597
0.0997576
0.0796321
0.120364
0.107902
0.0426411
0.0721733
0.288521
0.219948
0.00344637
0.749504
0.91671
0.832905
0.207932
0.525814
0.643445
0.322902
0.577236
0.824376
0.720255
0.414064
0.469975
0.535029
0.567298
0.5802
0.585823
0.594017
0.603969
0.611405
0.604068
0.556287
0.473626
0.435567
0.445256
0.444
0.431103
0.406747
0.688074
0.705679
0.690665
0.695478
0.702831
0.710099
0.702324
0.670641
0.636538
0.583979
0.516034
0.370027
0.216761
0.160069
0.10039
0.0501573
0.0501176
0.092764
0.0396525
0.0226167
0.238781
0.282711
0.0861242
0.486956
0.901692
0.883946
0.49908
0.370445
0.65868
0.466252
0.335625
0.808799
0.766493
0.494763
0.484693
0.542691
0.572143
0.58479
0.588347
0.59347
0.600781
0.608204
0.603173
0.560374
0.478477
0.435284
0.445255
0.446777
0.431568
0.417574
0.393632
0.686094
0.702486
0.689213
0.696743
0.705783
0.710726
0.702984
0.673767
0.63935
0.585283
0.510568
0.35261
0.183317
0.127286
0.1067
0.0766792
0.00805885
0.0575499
0.0367139
0.0115198
0.159265
0.3112
0.17941
0.117856
0.858622
0.906702
0.696247
0.144711
0.642248
0.566303
0.0302523
0.769907
0.795329
0.582138
0.493166
0.547833
0.576796
0.589169
0.591069
0.593637
0.598045
0.604875
0.601738
0.563818
0.483251
0.434666
0.444916
0.448859
0.435133
0.417755
0.405408
0.380996
0.69315
0.701514
0.68877
0.698036
0.707065
0.709239
0.700085
0.675823
0.642264
0.590362
0.513162
0.348164
0.166736
0.0905142
0.0989678
0.119616
0.0505063
0.0284205
0.0443668
0.0232965
0.086773
0.281501
0.257065
0.017857
0.759333
0.910927
0.808774
0.089388
0.589475
0.624542
0.261895
0.693211
0.809358
0.659511
0.498863
0.553125
0.581952
0.593156
0.593791
0.594374
0.595946
0.601526
0.599897
0.566509
0.487645
0.433804
0.444198
0.450858
0.438201
0.42141
0.405279
0.393826
0.368358
0.703174
0.706678
0.694016
0.699854
0.707171
0.707532
0.698318
0.675647
0.644007
0.596952
0.519507
0.365152
0.170533
0.0618375
0.0625446
0.130592
0.10265
0.0410632
0.039296
0.0322421
0.0283143
0.201941
0.295927
0.0642025
0.551258
0.899243
0.867206
0.401702
0.4881
0.656987
0.441128
0.554635
0.809285
0.713952
0.512795
0.559208
0.587965
0.596527
0.596323
0.595441
0.594615
0.598302
0.597749
0.568468
0.491754
0.43299
0.443225
0.45264
0.441414
0.424622
0.409013
0.393377
0.382327
0.355673
0.709953
0.711154
0.697723
0.702096
0.707356
0.70577
0.69539
0.674875
0.640805
0.601441
0.530592
0.390865
0.211142
0.0638443
0.012849
0.0768468
0.116927
0.0585248
0.018679
0.049379
0.00167923
0.0849512
0.305254
0.131174
0.240631
0.864471
0.895147
0.631977
0.328833
0.661299
0.548491
0.326582
0.792545
0.755217
0.55109
0.566039
0.594371
0.599126
0.598482
0.596714
0.594049
0.595385
0.595415
0.569778
0.495374
0.432147
0.441962
0.454208
0.444604
0.428004
0.412277
0.397185
0.381517
0.370759
0.343135
0.717001
0.713396
0.698163
0.701822
0.706835
0.705129
0.693436
0.672758
0.63626
0.598448
0.53815
0.417727
0.250247
0.112741
0.0196073
0.0141556
0.0651118
0.0661096
0.00078107
0.0654379
0.0275204
0.0114527
0.268999
0.202037
0.0184435
0.787475
0.90404
0.765385
0.0502306
0.642432
0.622648
0.318006
0.755941
0.782473
0.60707
0.577897
0.599192
0.601053
0.600156
0.598092
0.594084
0.592944
0.592936
0.57051
0.498331
0.431121
0.440362
0.455526
0.44779
0.431394
0.415745
0.400515
0.385343
0.369506
0.35914
0.331052
0.71883
0.714732
0.700156
0.702049
0.706509
0.704201
0.692826
0.671694
0.631022
0.590675
0.533768
0.436766
0.289944
0.150353
0.0872951
0.0335914
0.00853723
0.0536184
0.0136378
0.0622526
0.0786053
0.018452
0.195101
0.261163
0.0391915
0.628576
0.897774
0.841057
0.22245
0.598886
0.657645
0.490282
0.693235
0.795058
0.666972
0.584386
0.602236
0.602686
0.601371
0.599516
0.594454
0.591069
0.59035
0.570713
0.50054
0.429849
0.438428
0.456622
0.450936
0.434821
0.419231
0.404034
0.388691
0.373329
0.357429
0.347671
0.319896
0.720503
0.713178
0.700133
0.703616
0.707337
0.704762
0.693212
0.671567
0.625909
0.579674
0.520126
0.438698
0.312452
0.183738
0.111225
0.096256
0.0260488
0.0326819
0.0425125
0.0412389
0.109885
0.0338205
0.1033
0.28703
0.115113
0.350175
0.874357
0.877611
0.529176
0.521318
0.678425
0.60045
0.608787
0.793801
0.717849
0.588409
0.602414
0.604642
0.602222
0.600837
0.594921
0.5897
0.587753
0.570387
0.501998
0.428294
0.436209
0.457518
0.454029
0.438268
0.422768
0.407603
0.392257
0.376634
0.361194
0.345546
0.336696
0.3101
0.725319
0.71284
0.700808
0.704561
0.706446
0.705111
0.695271
0.67453
0.623988
0.568546
0.505565
0.423982
0.318973
0.18971
0.0989684
0.127133
0.0696302
0.0186677
0.0612098
0.0142887
0.0881873
0.053437
0.0328546
0.268386
0.190956
0.061504
0.823722
0.893525
0.705476
0.406608
0.686014
0.661663
0.540314
0.778503
0.752349
0.600226
0.60332
0.607417
0.602858
0.601833
0.595302
0.5886
0.58527
0.569439
0.502752
0.426447
0.433719
0.458227
0.457096
0.441775
0.426354
0.411234
0.39587
0.380203
0.364463
0.349166
0.334155
0.326554
0.302097
0.733736
0.715221
0.70228
0.705644
0.705742
0.703876
0.696482
0.676916
0.623554
0.563006
0.493286
0.407624
0.305527
0.198607
0.05535
0.0832668
0.0990023
0.0216051
0.0627615
0.0264339
0.0364237
0.0708183
0.00396424
0.205664
0.259401
0.0153255
0.726371
0.89453
0.800125
0.164015
0.68148
0.698946
0.567079
0.748741
0.775685
0.632022
0.605118
0.610683
0.60336
0.602275
0.595448
0.587428
0.582965
0.567808
0.502906
0.42443
0.431051
0.458757
0.460151
0.445367
0.430028
0.414959
0.399569
0.3838
0.36793
0.352328
0.337608
0.323656
0.317684
0.296394
0.74331
0.718877
0.704232
0.705977
0.704953
0.70275
0.69842
0.678936
0.624629
0.562058
0.48939
0.39687
0.282306
0.207897
0.0695592
0.00564606
0.0878897
0.0288197
0.0307991
0.0674385
0.000834061
0.0744125
0.0163111
0.118815
0.285467
0.0801412
0.552874
0.881831
0.851173
0.229019
0.664665
0.721725
0.634399
0.706107
0.787766
0.676552
0.612294
0.612953
0.603745
0.602049
0.595207
0.585887
0.580697
0.565595
0.502533
0.422429
0.428293
0.459122
0.463209
0.449056
0.433806
0.418773
0.403361
0.387529
0.371489
0.355672
0.340552
0.326843
0.31449
0.3105
0.293405
0.753597
0.72265
0.704602
0.705759
0.704456
0.701489
0.700328
0.680335
0.625768
0.564749
0.498038
0.398661
0.264015
0.183068
0.129424
0.0200352
0.0418208
0.056817
0.00857713
0.0866777
0.0204683
0.0515936
0.0523917
0.0329793
0.284531
0.150523
0.310474
0.850885
0.876141
0.569403
0.637536
0.735371
0.687071
0.657945
0.788371
0.719586
0.616298
0.612932
0.604213
0.601222
0.594396
0.583822
0.578139
0.56308
0.501743
0.420591
0.425489
0.459329
0.466272
0.45286
0.43767
0.422673
0.407265
0.391357
0.375179
0.359149
0.343733
0.329524
0.317355
0.307103
0.305392
0.293306
0.760579
0.726971
0.703653
0.705463
0.703294
0.700379
0.701748
0.680848
0.620711
0.566526
0.507566
0.417406
0.25955
0.146797
0.122934
0.0687131
0.0120776
0.0693435
0.0074068
0.0565048
0.0612562
0.0174474
0.0918045
0.00579091
0.245986
0.209793
0.0722907
0.792734
0.885363
0.726171
0.588347
0.742662
0.724131
0.634325
0.777373
0.752635
0.61997
0.610673
0.605102
0.599975
0.592768
0.581111
0.574899
0.560668
0.500716
0.41891
0.422647
0.459372
0.469312
0.456793
0.441658
0.426667
0.411235
0.395278
0.378982
0.362725
0.347024
0.332462
0.31966
0.309566
0.301913
0.30292
0.296381
0.767992
0.729885
0.702662
0.70422
0.702671
0.699787
0.703064
0.680628
0.613212
0.564224
0.512853
0.436873
0.286158
0.132449
0.0693181
0.0823492
0.00848676
0.0462211
0.0448903
0.00791764
0.0869417
0.000146645
0.114533
0.0310974
0.179914
0.260184
0.0140436
0.691193
0.881503
0.806594
0.495088
0.745505
0.747795
0.651092
0.755475
0.773614
0.635603
0.610433
0.606569
0.598406
0.59014
0.57764
0.570701
0.558247
0.499413
0.417069
0.419642
0.459305
0.472334
0.46086
0.44578
0.430794
0.415339
0.399307
0.382893
0.366437
0.350444
0.335506
0.322277
0.311428
0.303778
0.299371
0.303335
0.302794
0.777329
0.733606
0.702699
0.701907
0.701696
0.700069
0.706039
0.679939
0.605368
0.561421
0.512092
0.448484
0.309866
0.149619
0.0469367
0.0471571
0.0411442
0.0177928
0.0906578
0.017501
0.0556591
0.0245289
0.0922124
0.0658341
0.103365
0.274395
0.0886104
0.523374
0.864795
0.846284
0.438894
0.746175
0.76309
0.686713
0.726129
0.786396
0.670697
0.613424
0.607756
0.59635
0.586372
0.573252
0.565606
0.555442
0.498224
0.414921
0.416364
0.459211
0.475352
0.465097
0.45007
0.435049
0.419559
0.403443
0.386909
0.370264
0.354009
0.338703
0.325009
0.313601
0.305171
0.300514
0.299683
0.306875
0.312351
0.786699
0.738516
0.703304
0.699246
0.699685
0.702061
0.708744
0.679011
0.597211
0.559358
0.509835
0.4502
0.316897
0.15834
0.0633873
0.0148592
0.0505732
0.00389147
0.087961
0.0664817
0.0216974
0.0634706
0.051075
0.0991821
0.0385198
0.256246
0.170301
0.290204
0.830337
0.865455
0.601297
0.743407
0.77179
0.719076
0.691547
0.789924
0.709966
0.621039
0.606175
0.593533
0.581576
0.56786
0.559787
0.551924
0.497559
0.412778
0.412967
0.459116
0.478444
0.469552
0.454555
0.439495
0.423911
0.407692
0.391024
0.3742
0.357675
0.342038
0.327913
0.315939
0.306828
0.301231
0.300037
0.303043
0.313659
0.324981
0.792459
0.74278
0.703034
0.695926
0.697538
0.705681
0.711123
0.676592
0.590951
0.558441
0.50854
0.447973
0.311764
0.138682
0.0691914
0.00875929
0.0361292
0.0229464
0.0616277
0.0967836
0.00436196
0.0668377
0.00476087
0.101043
0.00281447
0.209896
0.236126
0.0704862
0.766576
0.871182
0.724632
0.720355
0.776754
0.746314
0.676862
0.784348
0.743247
0.621696
0.600171
0.590092
0.576091
0.561486
0.553521
0.547594
0.497032
0.410824
0.40949
0.458829
0.481623
0.474234
0.459233
0.444138
0.428445
0.412103
0.395267
0.378257
0.361485
0.345498
0.330934
0.318408
0.308637
0.302287
0.30003
0.302494
0.309547
0.32352
0.340216
0.795841
0.744575
0.699819
0.692678
0.695683
0.709245
0.713689
0.67217
0.58584
0.56072
0.509747
0.448528
0.300038
0.11725
0.0515691
0.0122991
0.0120027
0.0364341
0.0188031
0.0761186
0.0289765
0.0471515
0.0355752
0.077761
0.0493215
0.155457
0.279339
0.113185
0.656703
0.865616
0.793376
0.684747
0.780276
0.765239
0.685583
0.76902
0.768011
0.628572
0.594343
0.586629
0.570294
0.554305
0.547005
0.542714
0.495785
0.409048
0.406083
0.458014
0.484783
0.479127
0.464081
0.448954
0.433165
0.416652
0.399649
0.382421
0.365402
0.349108
0.334103
0.321001
0.310574
0.303491
0.300371
0.301747
0.308071
0.319189
0.336288
0.357394
0.799895
0.744545
0.694893
0.690526
0.694987
0.713588
0.715529
0.666657
0.58458
0.561795
0.515004
0.452165
0.297602
0.0956675
0.0400128
0.0092935
0.00159599
0.0360132
0.0204592
0.0227936
0.0668293
0.0154227
0.0800777
0.0298211
0.111814
0.0958746
0.299882
0.248004
0.491151
0.845621
0.832727
0.647611
0.782848
0.778571
0.704656
0.742694
0.782949
0.651618
0.593463
0.583098
0.564187
0.546649
0.54039
0.537451
0.492791
0.406652
0.402888
0.456487
0.487542
0.484128
0.469038
0.453903
0.438032
0.421384
0.404165
0.386711
0.369416
0.352821
0.337403
0.323835
0.312729
0.304848
0.300817
0.301237
0.306426
0.3167
0.331606
0.351452
0.375903
0.80541
0.744125
0.689485
0.689537
0.696103
0.7178
0.716082
0.662522
0.586419
0.561953
0.515431
0.45725
0.306006
0.0888373
0.0335764
0.00857743
0.000317934
0.0202727
0.0573207
0.000378457
0.0864426
0.0082199
0.101504
0.00387176
0.149425
0.0351749
0.326035
0.344904
0.369314
0.809122
0.851768
0.671454
0.781071
0.786935
0.727049
0.71044
0.790736
0.688466
0.594021
0.576775
0.557303
0.538999
0.533707
0.531535
0.487217
0.401803
0.399409
0.454393
0.489399
0.488976
0.474054
0.458864
0.442973
0.426231
0.408831
0.391164
0.373604
0.356667
0.340866
0.326777
0.315074
0.306451
0.30156
0.300923
0.305075
0.314191
0.328139
0.346342
0.368318
0.394948
0.811142
0.745433
0.683713
0.691333
0.698887
0.720441
0.715351
0.658089
0.591966
0.560721
0.511515
0.454698
0.312346
0.10305
0.0359619
0.0154089
0.00140857
0.0045718
0.0448103
0.00970712
0.0634713
0.042578
0.0729104
0.0422021
0.15647
0.00430303
0.349126
0.407955
0.436616
0.752693
0.857223
0.739444
0.773323
0.791348
0.746259
0.687366
0.790204
0.724175
0.592596
0.564934
0.549679
0.532075
0.526776
0.524035
0.477922
0.392399
0.394157
0.451984
0.490099
0.493158
0.478997
0.463718
0.447843
0.431093
0.413619
0.395734
0.377947
0.360662
0.344481
0.329889
0.317561
0.308198
0.302476
0.300902
0.303956
0.311929
0.324737
0.342041
0.363027
0.386234
0.41363
0.818508
0.747656
0.679639
0.695576
0.703053
0.722164
0.714449
0.653316
0.598319
0.562546
0.509075
0.443124
0.306413
0.122577
0.0371299
0.0361569
0.00837299
0.00100872
0.0221883
0.0218491
0.0390874
0.0716293
0.0339023
0.0890004
0.0991621
0.0559354
0.374227
0.456623
0.532853
0.684524
0.852287
0.793198
0.753976
0.790976
0.761701
0.679889
0.777768
0.752634
0.588797
0.551064
0.54253
0.526223
0.518871
0.513166
0.463122
0.376359
0.385202
0.448949
0.489933
0.495964
0.483515
0.468389
0.45252
0.43589
0.418414
0.400407
0.382406
0.364826
0.34821
0.333128
0.320234
0.31018
0.303555
0.301013
0.302972
0.309836
0.321551
0.337833
0.357957
0.3808
0.404414
0.431113
0.828571
0.75254
0.675442
0.69946
0.707535
0.72255
0.712685
0.6515
0.600927
0.562556
0.513757
0.43109
0.28577
0.134447
0.040499
0.0399742
0.0250531
0.00100727
0.0149221
0.0152192
0.0141641
0.0588229
0.00381373
0.104195
0.0216143
0.124825
0.405094
0.506583
0.604378
0.650135
0.837611
0.826219
0.726392
0.78992
0.773211
0.691114
0.7574
0.773056
0.602598
0.543895
0.536734
0.520357
0.5083
0.496513
0.440524
0.351871
0.37145
0.444318
0.489526
0.497359
0.487038
0.472928
0.457123
0.440649
0.423248
0.405238
0.387011
0.369132
0.352097
0.336568
0.323085
0.312331
0.304896
0.301375
0.30231
0.307991
0.318553
0.333815
0.353062
0.375235
0.398927
0.421933
0.446783
0.836673
0.763872
0.673506
0.701525
0.71115
0.720672
0.711559
0.65126
0.600624
0.557807
0.517772
0.434855
0.265105
0.122976
0.071162
0.0067893
0.0548183
0.00346053
0.0237235
0.0141135
0.0122537
0.0213508
0.0344192
0.0757225
0.0329772
0.163362
0.427608
0.558183
0.656299
0.674025
0.813699
0.845384
0.712525
0.786974
0.781577
0.70672
0.726968
0.786237
0.640093
0.544413
0.529945
0.511452
0.492418
0.471433
0.407977
0.31789
0.35341
0.437986
0.489056
0.498447
0.48925
0.477301
0.461863
0.444957
0.427384
0.409331
0.391126
0.37319
0.356015
0.340141
0.326091
0.314689
0.306395
0.301974
0.30183
0.306431
0.315875
0.32999
0.348284
0.369801
0.393114
0.416682
0.438091
0.460179
0.844801
0.772924
0.678506
0.702383
0.714511
0.718632
0.710449
0.654031
0.600359
0.547571
0.516804
0.444133
0.261272
0.109751
0.067703
0.023149
0.0548832
0.028547
0.0348414
0.0222969
0.00934018
0.00134903
0.0540286
0.0370807
0.147161
0.216982
0.468381
0.607676
0.695391
0.7167
0.786949
0.853452
0.740312
0.781293
0.785946
0.722219
0.689187
0.790365
0.681173
0.540634
0.516762
0.495617
0.4684
0.436629
0.363968
0.27356
0.324921
0.43265
0.487961
0.500431
0.491123
0.480491
0.465796
0.448315
0.430888
0.413004
0.394943
0.377009
0.359711
0.343584
0.329225
0.31721
0.308148
0.302747
0.301598
0.305072
0.313293
0.326308
0.343671
0.364384
0.387336
0.410795
0.433201
0.45233
0.471151
0.855508
0.78486
0.678605
0.702109
0.716291
0.716935
0.707597
0.659937
0.600649
0.542735
0.507659
0.448159
0.286616
0.11151
0.02479
0.0779379
0.00654345
0.09469
0.0242976
0.0524095
0.00149842
0.00478636
0.0419879
0.0260745
0.234508
0.287717
0.521524
0.656266
0.726748
0.749571
0.765221
0.853212
0.783857
0.768485
0.785925
0.734911
0.656154
0.783679
0.719322
0.533129
0.496765
0.47008
0.434459
0.393952
0.30851
0.2187
0.295685
0.414796
0.485634
0.502528
0.49383
0.481504
0.468593
0.451927
0.433981
0.416536
0.398885
0.381111
0.36373
0.347281
0.332409
0.319814
0.310134
0.303851
0.301681
0.30396
0.31105
0.322861
0.339146
0.359094
0.381599
0.404999
0.427612
0.448009
0.464319
0.479685
0.859309
0.802296
0.679801
0.699937
0.718072
0.717063
0.703244
0.660301
0.59741
0.545914
0.504077
0.433259
0.30717
0.111228
0.0625679
0.0392367
0.0449753
0.111283
0.0151964
0.0922922
0.00576937
0.0043841
0.00580202
0.060049
0.305853
0.387624
0.582584
0.698969
0.753173
0.773281
0.756553
0.846227
0.816765
0.74317
0.78163
0.744832
0.635428
0.765573
0.751737
0.542701
0.47761
0.434147
0.392049
0.350702
0.244296
0.153664
0.259004
0.399543
0.478796
0.500805
0.495075
0.481674
0.468804
0.455289
0.437876
0.420266
0.402468
0.384847
0.367513
0.350948
0.335793
0.322664
0.312191
0.30511
0.301937
0.303139
0.309035
0.319706
0.334881
0.353963
0.375834
0.3991
0.422038
0.4429
0.460701
0.473964
0.486033
0.839456
0.805022
0.689179
0.691913
0.715651
0.721213
0.701067
0.657239
0.589946
0.550103
0.512692
0.422837
0.299293
0.156302
0.0593863
0.0361004
0.117829
0.0277081
0.102394
0.0856725
0.0508641
0.0368093
0.0282832
0.126215
0.380295
0.495377
0.644455
0.735644
0.774608
0.789699
0.765762
0.835261
0.836883
0.71245
0.775494
0.751576
0.636994
0.735058
0.774694
0.579983
0.458144
0.389021
0.349176
0.316336
0.187219
0.0879323
0.225034
0.385795
0.470336
0.502567
0.493876
0.482823
0.467534
0.456101
0.441817
0.423553
0.4058
0.388126
0.370949
0.354489
0.339145
0.32564
0.314545
0.306582
0.302434
0.302519
0.307261
0.316743
0.330845
0.348954
0.370174
0.393156
0.416216
0.437767
0.456211
0.471031
0.481356
0.490547
0.980338
0.789495
0.683094
0.69068
0.707238
0.721167
0.700571
0.655771
0.580958
0.551178
0.522769
0.42914
0.278938
0.176492
0.0264166
0.161
0.0559425
0.0937908
0.155384
0.00370376
0.154048
0.0721215
0.0491217
0.216079
0.455977
0.593823
0.700343
0.765733
0.791812
0.801067
0.778504
0.819895
0.84856
0.703351
0.766812
0.755048
0.645162
0.691786
0.787733
0.626748
0.429877
0.336538
0.307111
0.287908
0.156217
0.0374291
0.194057
0.371475
0.46474
0.498403
0.499219
0.483144
0.471345
0.453636
0.443078
0.426955
0.408739
0.391286
0.374033
0.357623
0.342322
0.328552
0.317043
0.308383
0.303265
0.302257
0.30584
0.314096
0.327002
0.344089
0.364596
0.387175
0.410317
0.432314
0.451638
0.467298
0.479099
0.486851
0.493615
0.912029
0.874116
0.625991
0.694814
0.70722
0.716308
0.70069
0.658555
0.578955
0.549244
0.522204
0.442883
0.272374
0.115916
0.110456
0.0793335
0.055444
0.205924
0.0419027
0.178448
0.20105
0.0421864
0.0991827
0.362831
0.549884
0.667878
0.746698
0.789941
0.805442
0.809007
0.790448
0.800821
0.853965
0.732391
0.752712
0.754083
0.656987
0.63266
0.787181
0.677582
0.41002
0.275991
0.266534
0.268687
0.155027
0.0386845
0.16687
0.357373
0.458722
0.495171
0.498977
0.489679
0.471136
0.459556
0.438823
0.428875
0.411464
0.394019
0.376904
0.360461
0.345143
0.3313
0.319475
0.31025
0.30435
0.302343
0.304645
0.311707
0.323356
0.339389
0.359009