/*--------------------------------*- C++ -*----------------------------------*\
| =========                 |                                                 |
| \\      /  F ield         | OpenFOAM: The Open Source CFD Toolbox           |
|  \\    /   O peration     | Version:  v2012                                 |
|   \\  /    A nd           | Website:  www.openfoam.com                      |
|    \\/     M anipulation  |                                                 |
\*---------------------------------------------------------------------------*/
FoamFile
{
    version     2.0;
    format      ascii;
    class       volScalarField;
    location    "12000";
    object      Mg;
}
// * * * * * * * * * * * * * * * * * * * * * * * * * * * * * * * * * * * * * //

dimensions      [0 0 0 0 0 0 0];


internalField   nonuniform List<scalar> 
27324
(
0.00340477
0.00379895
0.00931481
0.00404369
0.0106434
0.014023
0.00438003
0.0113739
0.0158561
0.0167816
0.00469404
0.0122894
0.0167776
0.0185617
0.0167353
0.00498034
0.0130981
0.0179104
0.0192715
0.0173978
0.0121263
0.0051666
0.0138568
0.0188304
0.0200378
0.017153
0.0112992
0.00608903
0.00560261
0.0143884
0.0194352
0.020386
0.0167691
0.0102883
0.00498034
0.00217752
0.0086203
0.0154271
0.0205075
0.0201186
0.016012
0.00926647
0.00407942
0.00161979
0.000695231
0.0127393
0.0155506
0.022099
0.0206206
0.0150608
0.00820245
0.00334364
0.00119705
0.000515264
0.000264373
0.0123171
0.0168474
0.020752
0.0210822
0.0143447
0.00740592
0.00272593
0.000941562
0.000365833
0.000220273
0.000132558
0.00356844
0.0149383
0.0199079
0.0202458
0.0144237
0.00673786
0.00237056
0.000759402
0.000308754
0.00015899
0.0001343
8.04503e-05
0.00231954
0.00662556
0.016503
0.019443
0.0154863
0.00781139
0.00237698
0.000664243
0.000280341
0.000141442
9.61861e-05
9.83779e-05
5.28878e-05
0.00225887
0.00587807
0.00805406
0.0163808
0.0161914
0.00974331
0.00361605
0.000844636
0.000257172
0.000140269
8.20369e-05
7.12141e-05
7.46525e-05
3.52052e-05
0.00238269
0.00583739
0.00742736
0.00812575
0.014517
0.0112531
0.00528322
0.00167422
0.000445975
0.000140991
8.51171e-05
5.4773e-05
5.96425e-05
4.88422e-05
2.49642e-05
0.00231305
0.005919
0.00730942
0.00762405
0.00744827
0.0107164
0.00631913
0.0027061
0.0011268
0.000380958
0.000114872
5.99129e-05
3.7167e-05
5.22836e-05
2.65876e-05
1.62873e-05
0.00228147
0.00573209
0.00712814
0.00753014
0.00726433
0.00546777
0.00625009
0.00308639
0.00169162
0.000988429
0.000423363
0.000141597
5.86923e-05
3.10427e-05
4.1738e-05
9.28475e-06
7.7403e-06
0.00219694
0.00559864
0.00688152
0.00735917
0.00735003
0.00554256
0.00289645
0.00323987
0.00169086
0.00124632
0.000909347
0.000500273
0.000208295
8.68779e-05
4.37654e-05
3.82996e-05
1.67877e-05
1.22323e-05
0.00209183
0.00540891
0.0067038
0.00722442
0.00722847
0.00576396
0.00258701
0.00185722
0.00181518
0.00105437
0.000902772
0.000792228
0.000556784
0.000312916
0.000166394
9.82192e-05
6.99941e-05
5.18107e-05
3.54488e-05
0.00199533
0.00523253
0.00656105
0.0071711
0.00719807
0.00567215
0.00283
0.000840455
0.00152218
0.00114874
0.000624768
0.00058903
0.000598338
0.000513325
0.000373695
0.000249796
0.00017257
0.000127632
9.86827e-05
6.44585e-05
0.00193127
0.00509785
0.00649319
0.00716175
0.00716916
0.00558208
0.00281802
0.00100117
0.000467314
0.00139285
0.000706915
0.000336479
0.000327119
0.000354568
0.000340704
0.000286823
0.000219674
0.000160069
0.000115534
8.16599e-05
5.01675e-05
0.00188213
0.00501046
0.00647279
0.00720063
0.00714565
0.00540912
0.00272613
0.00104829
0.000355955
0.000561666
0.00122149
0.000405216
0.000149162
0.000135172
0.000141998
0.000141384
0.000126743
0.000101364
7.26177e-05
4.56901e-05
2.63645e-05
2.4257e-05
0.00186245
0.00495855
0.00646296
0.00723798
0.00711096
0.00523729
0.00259555
0.00103357
0.000414567
0.000146171
0.000719691
0.000951718
0.000221181
3.60863e-05
2.70329e-05
2.96746e-05
3.26441e-05
3.04926e-05
2.19571e-05
1.2689e-05
5.43063e-06
4.62588e-06
1.56124e-05
0.00187984
0.00496221
0.00647491
0.00723462
0.0070181
0.00504401
0.00245725
0.000995566
0.000429512
0.000193178
0.000147487
0.000831692
0.000638735
0.000124565
2.19961e-05
1.10219e-05
1.24699e-05
1.56279e-05
1.26403e-05
5.75174e-06
1.96522e-06
1.33793e-06
1.14042e-05
1.18263e-05
0.00192912
0.00501662
0.00647267
0.0071853
0.00685116
0.00483012
0.00232367
0.000951182
0.000418167
0.000213141
8.85761e-05
0.000275579
0.000809774
0.000367603
6.34321e-05
2.73182e-05
1.42257e-05
1.42117e-05
1.48932e-05
9.63106e-06
4.0917e-06
1.56539e-06
4.8988e-06
1.45411e-05
6.49443e-06
0.00196746
0.0050769
0.00642056
0.00705793
0.00663096
0.00460971
0.00219264
0.0009116
0.000408814
0.000216417
0.000117474
2.39999e-05
0.000418392
0.00065248
0.000180556
2.06769e-05
1.23552e-05
1.05992e-05
1.33238e-05
1.09913e-05
5.35932e-06
1.69379e-06
1.69813e-06
1.02524e-05
1.10203e-05
2.91637e-06
0.00202398
0.0051605
0.00634402
0.00690683
0.00639022
0.0044097
0.00207913
0.000865835
0.000403026
0.000221449
0.000129282
4.29933e-05
8.74393e-05
0.000522874
0.000425082
7.55993e-05
4.25023e-06
4.61977e-06
9.28792e-06
1.14464e-05
7.02731e-06
2.24992e-06
4.65461e-07
5.85555e-06
1.15085e-05
5.75537e-06
1.29077e-06
0.00206705
0.00519709
0.00622295
0.00670715
0.00616462
0.00423955
0.00199105
0.000820995
0.00039438
0.000231497
0.000136097
6.09599e-05
5.8688e-06
0.000185626
0.000517672
0.000217107
2.47175e-05
1.33064e-06
5.15973e-06
1.00425e-05
8.36247e-06
3.67265e-06
5.07586e-07
2.38492e-06
1.02983e-05
7.72055e-06
2.50233e-06
7.48995e-07
0.00206757
0.00518403
0.00599634
0.00641982
0.00592567
0.00406483
0.0019237
0.000784862
0.000382201
0.000239149
0.000145942
6.58284e-05
2.32463e-05
2.85756e-05
0.000298453
0.000388681
8.82399e-05
8.48371e-06
3.32477e-06
6.95678e-06
8.82432e-06
5.13752e-06
1.31609e-06
6.43943e-07
7.06054e-06
9.5481e-06
3.68082e-06
1.2048e-06
6.97573e-07
0.00201538
0.00509522
0.00573853
0.00613427
0.0057106
0.0039328
0.00186858
0.000759939
0.000373013
0.000239569
0.000152531
7.26488e-05
2.94659e-05
5.41728e-06
8.25592e-05
0.000359972
0.00021833
2.86618e-05
3.44502e-06
3.66504e-06
7.81902e-06
6.36839e-06
2.39313e-06
1.59636e-07
3.64292e-06
9.74321e-06
5.48981e-06
1.62029e-06
8.66188e-07
9.63449e-07
0.00196223
0.00494416
0.00548111
0.00588849
0.00554639
0.00381802
0.00182019
0.000744142
0.000367929
0.000237739
0.000150968
7.80718e-05
3.48169e-05
1.08745e-05
1.09353e-05
0.000168221
0.000309729
9.16656e-05
6.8359e-06
8.59843e-07
5.36514e-06
6.88326e-06
3.68944e-06
6.95058e-07
1.32926e-06
8.08507e-06
7.31959e-06
2.45734e-06
9.25935e-07
1.01459e-06
1.6285e-06
0.00187693
0.00475742
0.00525769
0.00570141
0.00541216
0.00371478
0.00177811
0.000727137
0.000364914
0.000235603
0.000145302
7.78428e-05
4.0726e-05
1.4856e-05
3.18224e-06
4.10117e-05
0.000243237
0.000185008
2.90154e-05
1.3141e-06
2.4743e-06
6.30352e-06
4.82169e-06
1.51663e-06
2.04527e-07
5.29219e-06
8.53604e-06
3.64996e-06
1.20412e-06
8.61054e-07
1.62896e-06
2.8126e-06
0.00177848
0.00453738
0.00501236
0.00556072
0.0052907
0.0036088
0.00173125
0.000718571
0.000366036
0.000233753
0.000138339
7.39703e-05
4.29863e-05
2.01046e-05
6.61988e-06
4.94407e-06
0.00010222
0.000232154
7.78913e-05
6.88548e-06
4.85042e-07
4.57782e-06
5.51517e-06
2.53341e-06
3.42059e-07
2.64231e-06
8.427e-06
5.17275e-06
1.65592e-06
8.9616e-07
1.23474e-06
2.78032e-06
3.85591e-06
0.00169492
0.00437023
0.00485253
0.0054868
0.00516717
0.00349772
0.00168208
0.00070678
0.000362061
0.00023388
0.000134375
6.8363e-05
4.18863e-05
2.38006e-05
1.07595e-05
2.05666e-06
2.43729e-05
0.000168512
0.000144077
2.38444e-05
1.14544e-06
2.36241e-06
5.38394e-06
3.55546e-06
8.86724e-07
9.27972e-07
6.86858e-06
6.69801e-06
2.3766e-06
1.0037e-06
1.09251e-06
2.12494e-06
4.14996e-06
8.19089e-06
0.00165448
0.00427094
0.00478858
0.00547328
0.00507248
0.00338203
0.00163526
0.000693492
0.00035475
0.000228299
0.000127956
6.46381e-05
3.76097e-05
2.5181e-05
1.43967e-05
5.01551e-06
4.17655e-06
6.98719e-05
0.000170217
5.92069e-05
5.65905e-06
7.42475e-07
4.27439e-06
4.33059e-06
1.64554e-06
7.56649e-08
4.51158e-06
7.67757e-06
3.40799e-06
1.23139e-06
1.00523e-06
1.76603e-06
3.2242e-06
9.60369e-06
3.32865e-05
0.0016633
0.00425454
0.00475462
0.00542651
0.00494338
0.00326001
0.00158887
0.000678567
0.000344565
0.00022395
0.000122877
6.17339e-05
3.30225e-05
2.28225e-05
1.75246e-05
7.37136e-06
2.12324e-06
1.72682e-05
0.000124309
0.000104061
1.70187e-05
9.33086e-07
2.537e-06
4.58952e-06
2.47389e-06
4.01543e-07
2.3205e-06
7.59336e-06
4.70311e-06
1.61511e-06
1.00503e-06
1.44345e-06
2.81578e-06
7.68979e-06
3.5668e-05
9.93423e-05
0.00166597
0.00426252
0.00469748
0.00532276
0.00476159
0.00313013
0.00154439
0.000663822
0.000334087
0.000218649
0.000119222
5.96618e-05
2.9823e-05
1.87838e-05
1.7283e-05
1.07134e-05
3.62963e-06
3.46337e-06
5.48141e-05
0.000123985
4.03561e-05
3.38488e-06
9.9774e-07
4.06865e-06
3.25853e-06
9.08963e-07
8.74101e-07
6.3329e-06
6.0275e-06
2.21018e-06
1.08876e-06
1.22276e-06
2.33373e-06
7.09666e-06
3.16427e-05
9.66091e-05
0.000250603
0.00168826
0.00430042
0.00459249
0.00513695
0.00457032
0.00300858
0.00150289
0.000650819
0.000327982
0.000214851
0.000114796
5.73319e-05
2.70555e-05
1.48785e-05
1.47128e-05
1.23578e-05
5.6224e-06
2.23185e-06
1.49376e-05
9.67147e-05
7.05836e-05
1.0644e-05
3.15787e-07
2.84871e-06
3.75702e-06
1.56659e-06
8.05409e-08
4.35715e-06
6.96284e-06
3.05961e-06
1.26587e-06
1.10861e-06
1.87761e-06
6.46697e-06
2.90121e-05
8.87878e-05
0.000228353
0.000549133
0.00171689
0.00430521
0.00447471
0.00494031
0.0043901
0.00289953
0.00145818
0.000636277
0.000325269
0.000214202
0.000111452
5.38406e-05
2.40022e-05
1.20159e-05
1.08961e-05
1.16811e-05
8.1537e-06
2.84385e-06
2.50058e-06
4.79471e-05
8.87913e-05
2.46329e-05
1.6486e-06
1.41348e-06
3.75411e-06
2.28628e-06
3.85292e-07
2.41642e-06
7.08355e-06
4.14136e-06
1.56734e-06
1.08434e-06
1.46627e-06
6.0044e-06
2.60311e-05
8.23077e-05
0.000207603
0.000486883
0.00109489
0.00169364
0.00426555
0.00425498
0.00468033
0.00421105
0.00281529
0.00141692
0.000623225
0.000324964
0.00021399
0.000110438
5.04208e-05
2.01922e-05
9.9301e-06
7.3682e-06
9.28031e-06
9.36987e-06
4.91012e-06
4.11342e-07
1.48673e-05
7.72611e-05
4.48762e-05
5.51314e-06
3.33186e-07
3.11628e-06
2.92873e-06
8.49562e-07
1.02118e-06
6.21393e-06
5.30802e-06
2.03432e-06
1.12823e-06
1.20569e-06
5.55262e-06
2.32857e-05
7.45e-05
0.000189097
0.000441451
0.000966337
0.00203248
0.0016427
0.00412785
0.00400658
0.00441569
0.00405962
0.00273436
0.00137598
0.000614729
0.000328812
0.000216589
0.000110564
4.89338e-05
1.68463e-05
7.58e-06
5.1357e-06
6.16007e-06
9.10178e-06
6.92741e-06
1.83248e-06
2.45083e-06
4.53385e-05
6.14771e-05
1.34749e-05
7.22242e-07
2.02582e-06
3.29425e-06
1.42854e-06
1.85756e-07
4.61128e-06
6.26706e-06
2.70058e-06
1.25705e-06
1.09085e-06
5.04834e-06
2.07383e-05
6.66992e-05
0.000171062
0.000396566
0.000879901
0.00180357
0.00354447
0.00156777
0.00396179
0.00377798
0.00423262
0.00393978
0.00268024
0.00134068
0.000607981
0.000332978
0.000218062
0.000111349
4.87674e-05
1.51396e-05
5.73518e-06
3.3996e-06
3.88624e-06
7.22247e-06
8.03828e-06
3.67841e-06
7.0596e-07
1.76193e-05
6.13974e-05
2.60395e-05
2.60586e-06
9.32991e-07
3.19456e-06
2.08029e-06
2.96644e-07
2.84201e-06
6.665e-06
3.5705e-06
1.4851e-06
1.05524e-06
4.51176e-06
1.83623e-05
5.89498e-05
0.000153954
0.000356219
0.000789137
0.00165627
0.00318009
0.00575209
0.00147814
0.00377374
0.00359959
0.00410662
0.00384319
0.00262919
0.00129732
0.000601112
0.000335287
0.000218662
0.000114561
5.02722e-05
1.46753e-05
5.17844e-06
1.71194e-06
2.98899e-06
4.84817e-06
7.80004e-06
5.2437e-06
1.72621e-06
4.37392e-06
4.39069e-05
3.9547e-05
6.6263e-06
1.40607e-07
2.58224e-06
2.62876e-06
7.27959e-07
1.40759e-06
6.26299e-06
4.57216e-06
1.83447e-06
1.09533e-06
3.99529e-06
1.61374e-05
5.15971e-05
0.000137528
0.000319734
0.000707865
0.00149448
0.00295349
0.00524447
0.00835319
0.00139621
0.00356451
0.0034595
0.00401318
0.00373951
0.00255679
0.00126672
0.00059491
0.000334013
0.000217184
0.000117564
5.27181e-05
1.61947e-05
5.62082e-06
1.1239e-06
1.52599e-06
3.20438e-06
6.14173e-06
5.95926e-06
2.76564e-06
4.8097e-07
2.20967e-05
4.60132e-05
1.373e-05
9.13684e-07
1.66124e-06
2.9538e-06
1.24171e-06
4.65378e-07
5.10651e-06
5.52677e-06
2.32913e-06
1.20999e-06
3.50012e-06
1.40834e-05
4.48868e-05
0.000121827
0.00028636
0.000634204
0.00134829
0.00269247
0.00494913
0.00779085
0.0106341
0.00135488
0.00345422
0.00337465
0.00394044
0.00362466
0.00247587
0.00123099
0.000584758
0.000331637
0.00021518
0.000120781
5.64571e-05
1.87298e-05
7.33089e-06
2.27049e-06
4.35583e-07
1.49115e-06
3.83955e-06
5.65447e-06
3.61729e-06
6.12023e-07
7.80629e-06
4.02608e-05
2.31079e-05
2.73878e-06
7.84721e-07
2.87736e-06
1.83297e-06
1.20227e-07
3.55482e-06
6.16589e-06
2.98617e-06
1.39666e-06
3.05141e-06
1.21874e-05
3.88994e-05
0.000106949
0.000255525
0.000567787
0.00121355
0.00245299
0.00458389
0.00751965
0.0100405
0.013511
0.0013446
0.00339317
0.0033504
0.00391579
0.00350951
0.00239266
0.00119799
0.000570234
0.000322746
0.000206601
0.000122266
5.98816e-05
2.2435e-05
9.50492e-06
4.1217e-06
1.99493e-06
9.05128e-07
1.71735e-06
4.33246e-06
4.27354e-06
1.42799e-06
1.96758e-06
2.61867e-05
3.1212e-05
6.20808e-06
3.41429e-08
2.37681e-06
2.35317e-06
5.62431e-07
2.07989e-06
6.22672e-06
3.7893e-06
1.67377e-06
2.64478e-06
1.04441e-05
3.36027e-05
9.31051e-05
0.000226806
0.000507828
0.00109102
0.0022278
0.00424059
0.00712371
0.00982297
0.0127518
0.0192641
0.00132528
0.00334583
0.00327445
0.00381595
0.00339743
0.00231041
0.00116881
0.000555353
0.000314869
0.000199861
0.000122131
6.09616e-05
2.54328e-05
1.21222e-05
5.52834e-06
3.82363e-06
2.08998e-06
1.1503e-06
2.63256e-06
4.26012e-06
2.25591e-06
2.21693e-07
1.2523e-05
3.31848e-05
1.17692e-05
8.45134e-07
1.59149e-06
2.70674e-06
1.02957e-06
9.74887e-07
5.58973e-06
4.6645e-06
2.01517e-06
2.33099e-06
8.87718e-06
2.89492e-05
8.04841e-05
0.000199859
0.000453547
0.000980124
0.00201933
0.00390741
0.00673632
0.00946507
0.0124209
0.0185981
0.0263678
0.00133552
0.00327799
0.00315115
0.00369811
0.0032635
0.00223299
0.00114412
0.000542988
0.000308006
0.000193294
0.000119803
6.05886e-05
2.64571e-05
1.39409e-05
6.9422e-06
4.92488e-06
3.36227e-06
1.83553e-06
1.45799e-06
3.6078e-06
2.99798e-06
5.34804e-07
4.38938e-06
2.74438e-05
1.8419e-05
2.38187e-06
8.0859e-07
2.7322e-06
1.5478e-06
2.09061e-07
4.40085e-06
5.42613e-06
2.46806e-06
2.11629e-06
7.47838e-06
2.48532e-05
6.9149e-05
0.000174776
0.000403999
0.000880302
0.00182754
0.00359047
0.00633732
0.00912188
0.0119974
0.0181442
0.0262962
0.03113
0.00129579
0.00320026
0.00301845
0.00357958
0.00316918
0.00215945
0.00111498
0.000535364
0.000303268
0.00018651
0.000115165
5.73867e-05
2.63857e-05
1.43756e-05
7.1304e-06
5.16996e-06
4.04262e-06
2.39455e-06
1.29781e-06
2.53059e-06
3.34935e-06
1.1906e-06
1.06477e-06
1.74523e-05
2.35663e-05
5.13922e-06
1.14237e-07
2.38392e-06
2.08657e-06
2.96693e-07
3.00333e-06
5.84184e-06
3.07209e-06
2.04026e-06
6.32579e-06
2.12043e-05
5.90826e-05
0.000151702
0.000358451
0.00079053
0.00165273
0.00329068
0.00593705
0.00876929
0.0116108
0.0176386
0.0260681
0.0317078
0.0330829
0.00123311
0.00304351
0.00283289
0.00345409
0.00308595
0.0020924
0.00109182
0.000527414
0.000301181
0.000181405
0.00010965
5.28158e-05
2.38868e-05
1.42548e-05
6.81352e-06
4.03985e-06
3.6505e-06
2.62362e-06
1.15236e-06
1.43042e-06
3.17782e-06
1.84581e-06
1.14007e-07
8.43551e-06
2.43441e-05
9.36499e-06
6.36292e-07
1.75539e-06
2.4765e-06
7.59266e-07
1.73806e-06
5.74855e-06
3.80077e-06
2.14167e-06
5.30956e-06
1.7905e-05
5.02525e-05
0.000130832
0.000316375
0.000709584
0.00149442
0.00301044
0.00554149
0.0084164
0.0112366
0.0171232
0.0258361
0.0318911
0.03401
0.0334597
0.00116842
0.00289404
0.00269339
0.00336451
0.0030204
0.00202329
0.00106559
0.000526135
0.000301873
0.000179529
0.00010508
4.8274e-05
2.09691e-05
1.23791e-05
6.66316e-06
3.3394e-06
2.02357e-06
2.39494e-06
1.05279e-06
6.65387e-07
2.55551e-06
2.34101e-06
6.55201e-07
3.03039e-06
2.02284e-05
1.40958e-05
1.83974e-06
1.04963e-06
2.63805e-06
1.24374e-06
7.63522e-07
5.10328e-06
4.53571e-06
2.38459e-06
4.45037e-06
1.49014e-05
4.25508e-05
0.000112268
0.000277537
0.000636066
0.00135187
0.00275077
0.00516
0.0080618
0.0108724
0.0165857
0.0255313
0.0321603
0.0344395
0.0345713
0.0329356
0.00109856
0.00275105
0.00261272
0.00330415
0.00295439
0.00195623
0.00103989
0.00052493
0.000302614
0.000179548
0.000102959
4.54673e-05
1.8021e-05
1.01385e-05
6.33764e-06
3.9492e-06
8.9426e-07
1.8879e-06
1.10501e-06
4.33084e-07
1.7177e-06
2.57804e-06
1.13886e-06
7.29304e-07
1.33663e-05
1.78459e-05
3.88525e-06
4.16785e-07
2.4775e-06
1.75531e-06
1.39734e-07
4.03395e-06
5.13299e-06
2.78837e-06
3.71752e-06
1.21608e-05
3.58996e-05
9.59642e-05
0.000241941
0.000568545
0.0012241
0.00251263
0.00479539
0.00769943
0.0105102
0.0160213
0.0251724
0.0323568
0.0350334
0.0351043
0.0341653
0.0318002
0.00107759
0.00265095
0.00255309
0.00324214
0.00286288
0.00187531
0.00100327
0.000521398
0.000303178
0.000181827
0.000103548
4.47626e-05
1.66507e-05
7.82557e-06
5.61217e-06
4.95457e-06
2.05451e-06
1.42361e-06
1.36342e-06
7.37721e-07
1.03646e-06
2.30452e-06
1.62223e-06
1.95204e-07
7.03805e-06
1.86759e-05
6.92611e-06
3.06358e-07
2.03851e-06
2.17678e-06
5.47449e-07
2.81029e-06
5.42882e-06
3.32785e-06
3.13574e-06
9.83773e-06
3.01793e-05
8.17631e-05
0.000209659
0.00050617
0.00110933
0.00229585
0.00445057
0.00733428
0.010144
0.0154322
0.0247634
0.032523
0.0355852
0.0358485
0.0347409
0.0331138
0.0302757
0.00107157
0.00263262
0.00256037
0.00318102
0.00275362
0.00179844
0.000976098
0.000514741
0.000302336
0.000185039
0.000105396
4.74359e-05
1.69352e-05
6.22465e-06
3.9331e-06
5.16146e-06
3.20834e-06
1.60492e-06
1.31701e-06
9.33533e-07
4.89734e-07
1.67451e-06
1.91254e-06
4.37702e-07
2.94576e-06
1.61881e-05
1.04857e-05
1.20861e-06
1.44038e-06
2.47235e-06
1.0376e-06
1.69835e-06
5.31093e-06
3.85123e-06
2.87115e-06
7.873e-06
2.5243e-05
6.94055e-05
0.000180787
0.000448248
0.00100566
0.00210022
0.00412794
0.00697096
0.00977542
0.0148403
0.0243155
0.0326468
0.036149
0.0365648
0.0355644
0.0336919
0.0316505
0.0285482
0.00104816
0.00260249
0.00254583
0.00311694
0.00264315
0.00172598
0.000946244
0.000507831
0.000296184
0.000186868
0.000109022
5.17094e-05
2.04005e-05
6.21584e-06
1.55374e-06
3.48449e-06
3.55172e-06
1.76784e-06
8.68331e-07
1.13765e-06
1.3351e-07
8.69223e-07
2.01095e-06
7.59495e-07
9.65505e-07
1.15173e-05
1.35346e-05
2.70286e-06
8.44685e-07
2.51853e-06
1.51462e-06
8.46711e-07
4.75395e-06
4.42879e-06
2.87487e-06
6.29197e-06
2.09158e-05
5.8641e-05
0.000155233
0.0003949
0.000910901
0.0019248
0.00382799
0.00661442
0.009404
0.0142497
0.023826
0.0327278
0.0367073
0.0373083
0.0363615
0.0345472
0.032204
0.0299613
0.026762
0.00102446
0.00253938
0.00248725
0.00300991
0.00252375
0.00166507
0.000922352
0.000498473
0.000288969
0.000183732
0.000111407
5.65037e-05
2.39941e-05
8.91393e-06
1.86916e-06
1.40118e-06
2.32519e-06
1.8858e-06
1.55422e-07
1.22127e-06
5.17601e-07
2.99861e-07
1.7733e-06
1.08188e-06
1.57416e-07
6.75207e-06
1.47961e-05
4.89013e-06
1.81654e-07
2.33768e-06
1.99246e-06
7.28447e-07
3.92781e-06
4.92533e-06
3.08925e-06
5.20176e-06
1.69954e-05
4.9247e-05
0.000132855
0.000346327
0.000823147
0.00176759
0.0035518
0.00626793
0.00903014
0.0136595
0.0232933
0.0327627
0.037261
0.0380615
0.0371966
0.0353791
0.0330525
0.0304678
0.0281826
0.025022
0.000975745
0.00246309
0.0024409
0.00290673
0.00240934
0.00160412
0.000904203
0.000491543
0.000281338
0.000177635
0.00010933
6.00871e-05
2.79479e-05
1.13454e-05
4.74999e-06
2.11838e-06
7.77724e-07
1.77851e-06
7.24809e-07
1.07943e-06
9.83251e-07
3.14404e-07
1.30722e-06
1.3666e-06
2.63085e-07
3.25168e-06
1.36494e-05
7.72056e-06
5.80832e-07
1.98598e-06
2.26993e-06
1.13041e-06
3.01953e-06
5.15206e-06
3.49768e-06
4.2992e-06
1.35435e-05
4.10627e-05
0.000113393
0.00030275
0.000741179
0.00162586
0.00329969
0.00593282
0.00865649
0.0130733
0.022722
0.0327552
0.0378068
0.0388283
0.0380493
0.0362493
0.0338817
0.031288
0.0286335
0.0264187
0.0234083
0.000929011
0.00235562
0.00236692
0.00281723
0.00231109
0.00155554
0.000889623
0.000486113
0.000274106
0.00016987
0.00010401
6.03282e-05
3.04025e-05
1.37225e-05
5.84847e-06
3.9558e-06
1.40777e-06
1.46781e-06
1.40985e-06
8.1389e-07
1.25603e-06
4.36038e-07
7.75113e-07
1.49491e-06
5.18894e-07
1.23972e-06
1.07058e-05
1.0261e-05
1.72078e-06
1.51324e-06
2.4552e-06
1.63155e-06
2.23521e-06
5.01665e-06
4.01314e-06
3.64291e-06
1.05554e-05
3.39608e-05
9.65392e-05
0.000264081
0.000664771
0.00149581
0.0030716
0.00561068
0.00828536
0.0124973
0.0221216
0.0327073
0.0383433
0.0396064
0.038924
0.0371448
0.0347528
0.0320874
0.029408
0.026814
0.0247473
0.0219685
0.00089933
0.0022693
0.00229573
0.00271386
0.00219973
0.00150781
0.000880402
0.000486302
0.000270153
0.000162478
9.87297e-05
5.73339e-05
3.09528e-05
1.45306e-05
5.7354e-06
4.88395e-06
2.48807e-06
1.07705e-06
1.72435e-06
5.32398e-07
1.07567e-06
6.04364e-07
3.52494e-07
1.38873e-06
7.82535e-07
2.91771e-07
7.16169e-06
1.18235e-05
3.38822e-06
1.01919e-06
2.50417e-06
2.10441e-06
1.72218e-06
4.56728e-06
4.46479e-06
3.3461e-06
8.18027e-06
2.78102e-05
8.19426e-05
0.000229986
0.0005942
0.00137406
0.00286616
0.00530328
0.00791891
0.0119388
0.0214982
0.0326211
0.038873
0.0404014
0.0398205
0.038067
0.0356497
0.0329326
0.0301681
0.0275295
0.0250843
0.0232172
0.0207305
0.000886545
0.0022159
0.00222838
0.00260812
0.00209701
0.00145382
0.000867524
0.00048423
0.000267488
0.000158532
9.45067e-05
5.42144e-05
2.92773e-05
1.49573e-05
4.48359e-06
3.55807e-06
3.24124e-06
9.2005e-07
1.70424e-06
7.84672e-07
6.03176e-07
7.73947e-07
1.09577e-07
1.07682e-06
1.0478e-06
1.12257e-07
4.12684e-06
1.17798e-05
5.4742e-06
3.69105e-07
2.42015e-06
2.463e-06
1.65952e-06
3.94377e-06
4.84533e-06
3.37807e-06
6.3559e-06
2.24675e-05
6.92105e-05
0.000199976
0.000529957
0.00125852
0.00267931
0.0050139
0.00756173
0.0114045
0.0208657
0.0324982
0.0393974
0.0412168
0.0407444
0.0390205
0.0365776
0.0338015
0.030964
0.0282376
0.0257395
0.0234988
0.0218643
0.0197161
0.00087811
0.00217448
0.00216009
0.00249023
0.00200053
0.00140589
0.000858592
0.000480879
0.00026599
0.000157127
9.30742e-05
5.23083e-05
2.68357e-05
1.50503e-05
4.92493e-06
6.6902e-07
3.11465e-06
1.16474e-06
1.00322e-06
1.25692e-06
8.60869e-08
8.2188e-07
2.62799e-07
6.9326e-07
1.16363e-06
3.33907e-07
2.04929e-06
1.02253e-05
7.66941e-06
6.35648e-07
2.22147e-06
2.72479e-06
1.89907e-06
3.28858e-06
5.03979e-06
3.66054e-06
5.1447e-06
1.77894e-05
5.80141e-05
0.000173519
0.000472293
0.00114887
0.00250498
0.00474696
0.0072185
0.0109
0.0202361
0.0323413
0.0399176
0.0420543
0.0416992
0.0400053
0.0375378
0.0347064
0.0317895
0.0289771
0.0263841
0.024088
0.0220946
0.0207081
0.0189333
0.000869658
0.00212922
0.00207135
0.00236517
0.00191293
0.00136148
0.000850485
0.000476806
0.0002644
0.000157652
9.56248e-05
5.26142e-05
2.52083e-05
1.33648e-05
6.95176e-06
1.41899e-06
2.06458e-06
1.94992e-06
4.09591e-07
1.42076e-06
4.10704e-07
6.59566e-07
4.84713e-07
3.11818e-07
1.16119e-06
5.42221e-07
8.80077e-07
7.74796e-06
9.338e-06
1.9889e-06
1.97756e-06
2.8944e-06
2.25726e-06
2.7017e-06
4.96738e-06
4.09717e-06
4.26107e-06
1.37537e-05
4.81341e-05
0.000150176
0.00042099
0.00104622
0.0023376
0.00450406
0.00690049
0.010424
0.0196178
0.0321533
0.0404331
0.0429183
0.0426833
0.0410228
0.0385341
0.0356437
0.0326491
0.029749
0.0270629
0.0246683
0.022619
0.0208934
0.0197573
0.0183715
0.000842111
0.00208268
0.00196885
0.00224157
0.00182496
0.00132132
0.000840588
0.000471413
0.00025687
0.000157641
9.84813e-05
5.59793e-05
2.4848e-05
1.14807e-05
6.72195e-06
3.11615e-06
1.1137e-06
2.27595e-06
5.11478e-07
1.0648e-06
8.52514e-07
3.41e-07
6.84225e-07
1.11761e-07
9.96945e-07
7.19097e-07
2.52186e-07
5.20271e-06
1.00437e-05
3.64882e-06
1.65251e-06
2.98139e-06
2.63611e-06
2.36931e-06
4.63616e-06
4.54501e-06
3.69517e-06
1.04271e-05
3.94494e-05
0.000129538
0.00037543
0.000952087
0.00217378
0.00428462
0.00661964
0.00997129
0.0190131
0.0319372
0.0409396
0.0438109
0.0437039
0.0420748
0.0395611
0.0366144
0.0335421
0.0305494
0.0277693
0.0252816
0.0231297
0.021354
0.0199077
0.0190301
0.0180305
0.000812914
0.00201307
0.00186697
0.0021137
0.00174763
0.00128588
0.000829918
0.000464633
0.000247583
0.000155488
9.99709e-05
5.96675e-05
2.73352e-05
1.07496e-05
4.82771e-06
3.73169e-06
6.3444e-07
1.75621e-06
1.2592e-06
3.54416e-07
1.11671e-06
2.7816e-08
7.94476e-07
2.52749e-07
7.42164e-07
8.88378e-07
1.12418e-07
3.12776e-06
9.52759e-06
5.49894e-06
1.22519e-06
2.98567e-06
2.94619e-06
2.2696e-06
4.13493e-06
4.85635e-06
3.5239e-06
7.93858e-06
3.18535e-05
0.000111184
0.000334898
0.00086743
0.00201415
0.00407791
0.00637653
0.00954141
0.0184098
0.0317024
0.041437
0.0447337
0.044764
0.0431689
0.0406297
0.0376211
0.0344685
0.0313833
0.0285054
0.0259199
0.0236758
0.0217968
0.0202966
0.0191471
0.0185201
0.0179076
0.000788097
0.00194405
0.00177566
0.00198495
0.00167348
0.00125681
0.00082426
0.000456923
0.000238567
0.000153274
9.95081e-05
6.19753e-05
2.97462e-05
1.1462e-05
4.06382e-06
2.71767e-06
1.88722e-06
9.1434e-07
1.8619e-06
4.83993e-07
8.70315e-07
4.43774e-07
6.69885e-07
4.29842e-07
4.7189e-07
9.38194e-07
3.065e-07
1.66677e-06
8.09835e-06
7.10375e-06
1.27155e-06
2.94618e-06
3.17569e-06
2.36093e-06
3.58998e-06
5.04379e-06
3.70093e-06
6.18378e-06
2.52288e-05
9.46494e-05
0.000298769
0.000792335
0.00186323
0.00387284
0.00617386
0.00914565
0.0177948
0.0314599
0.0419266
0.0456921
0.0458704
0.0443063
0.0417391
0.0386647
0.0354292
0.0322497
0.0292733
0.0265875
0.0242453
0.0222717
0.0206768
0.019464
0.0186039
0.0182242
0.0179819
0.000760046
0.00187777
0.00169076
0.0018657
0.00159819
0.00123758
0.00081643
0.000448633
0.000229811
0.000151575
9.8629e-05
6.2341e-05
3.05949e-05
1.18842e-05
4.50582e-06
1.58644e-06
2.30411e-06
4.09718e-07
1.79313e-06
1.08992e-06
5.28586e-07
7.87913e-07
4.47177e-07
5.90881e-07
2.3824e-07
8.79557e-07
4.96861e-07
7.62968e-07
6.1757e-06
8.18064e-06
2.37958e-06
2.89103e-06
3.31263e-06
2.60482e-06
3.04412e-06
5.03188e-06
4.07902e-06
5.10505e-06
1.94428e-05
7.96133e-05
0.000266614
0.000726591
0.00172525
0.00366649
0.00600098
0.00880573
0.0171806
0.0312075
0.0424197
0.0466941
0.0470282
0.0454983
0.0428936
0.0397485
0.0364243
0.0331486
0.0300698
0.0272838
0.0248433
0.022772
0.0210825
0.0197728
0.0188519
0.018273
0.0181375
0.0182503
0.000719274
0.00179576
0.00160235
0.00175469
0.00152907
0.00122652
0.000806556
0.000437715
0.000223067
0.000150562
9.80889e-05
6.1894e-05
3.01256e-05
1.0939e-05
4.65907e-06
8.96448e-07
1.96406e-06
1.24415e-06
1.42414e-06
1.4808e-06
2.27447e-07
8.12657e-07
1.43469e-07
6.15746e-07
7.01525e-08
7.35613e-07
6.68626e-07
2.67249e-07
4.21093e-06
8.51894e-06
3.76606e-06
2.60881e-06
3.38801e-06
2.89068e-06
2.73333e-06
4.82026e-06
4.51395e-06
4.33584e-06
1.45573e-05
6.59907e-05
0.000238199
0.000669738
0.00160412
0.00346328
0.00583097
0.00853306
0.0165851
0.0309155
0.0429189
0.047742
0.0482391
0.0467479
0.0441025
0.0408803
0.0374589
0.0340821
0.0309003
0.0280087
0.0254654
0.0232946
0.0215101
0.020111
0.0190937
0.0184509
0.0181484
0.0182434
0.0186907
0.000672026
0.00168644
0.00149958
0.0016585
0.00146823
0.00121314
0.000796848
0.000423812
0.000217587
0.000151294
9.8413e-05
6.20015e-05
2.89043e-05
9.72347e-06
4.01364e-06
1.01305e-06
1.0421e-06
1.51865e-06
8.00277e-07
1.26479e-06
5.37929e-07
6.49691e-07
3.76518e-07
5.23025e-07
2.98672e-07
5.78872e-07
7.81123e-07
3.15776e-07
2.61102e-06
8.07001e-06
5.21938e-06
2.33344e-06
3.42995e-06
3.15558e-06
2.59987e-06
4.41076e-06
4.89566e-06
3.98188e-06
1.08743e-05
5.38564e-05
0.000213231
0.000621527
0.0015011
0.00327333
0.00564039
0.00830922
0.0160393
0.0305495
0.043407
0.0488376
0.0495014
0.0480536
0.0453687
0.0420589
0.0385365
0.0350503
0.0317612
0.0287652
0.0261155
0.0238395
0.0219576
0.0204683
0.0193633
0.0186308
0.0182594
0.0182235
0.0185341
0.0192762
0.000631313
0.00156508
0.00139745
0.00158243
0.00142015
0.00120161
0.000784042
0.000409124
0.000215471
0.000151394
0.000100134
6.27579e-05
2.86591e-05
8.38169e-06
3.55208e-06
9.89382e-07
3.21879e-07
1.39829e-06
7.73969e-07
6.19321e-07
9.16387e-07
3.52552e-07
6.12007e-07
2.94885e-07
5.02537e-07
4.08749e-07
8.23771e-07
5.76197e-07
1.53604e-06
6.88769e-06
6.51007e-06
2.2843e-06
3.44634e-06
3.36319e-06
2.58923e-06
3.84323e-06
5.10448e-06
4.03343e-06
8.39694e-06
4.31522e-05
0.000191256
0.000581687
0.00141632
0.00310394
0.00541816
0.00808328
0.0155684
0.0301047
0.0438209
0.04997
0.0508083
0.0494111
0.0466885
0.0432932
0.039658
0.0360569
0.0326527
0.0295492
0.0267926
0.0244179
0.0224325
0.020845
0.0196468
0.0188293
0.0183715
0.0182643
0.0184763
0.0189876
0.0199882
0.000597851
0.00145086
0.00130673
0.00152359
0.00138656
0.00118664
0.000766535
0.000397822
0.000216066
0.000151077
0.000100178
6.38563e-05
2.95475e-05
7.97388e-06
3.17615e-06
1.01291e-06
1.57761e-07
9.91725e-07
1.36021e-06
8.22677e-08
1.10552e-06
1.68243e-07
7.22996e-07
9.58643e-08
6.29292e-07
2.09013e-07
8.85359e-07
8.27279e-07
1.0772e-06
5.44879e-06
7.34966e-06
2.90025e-06
3.38315e-06
3.50148e-06
2.69437e-06
3.28033e-06
5.18022e-06
4.40744e-06
6.82619e-06
3.35792e-05
0.000171779
0.000550028
0.00134907
0.00295528
0.00516686
0.00779104
0.0151405
0.0296241
0.0440817
0.0510925
0.052155
0.0508021
0.0480525
0.0445758
0.0408278
0.0371081
0.0335849
0.0303649
0.0275005
0.0250185
0.0229335
0.0212489
0.0199584
0.0190463
0.0185051
0.0183145
0.0184492
0.0188861
0.0195766
0.0207979
0.00056641
0.00136078
0.00122789
0.00148917
0.00136384
0.00116076
0.000745012
0.00038692
0.000219721
0.000150198
9.87018e-05
6.32949e-05
3.02543e-05
8.90097e-06
3.1743e-06
1.33436e-06
3.09897e-07
4.75484e-07
1.20857e-06
4.26451e-07
8.93757e-07
5.04911e-07
5.61477e-07
3.46953e-07
6.48638e-07
7.12294e-08
9.48648e-07
1.03955e-06
1.17724e-06
4.11126e-06
7.60762e-06
4.00592e-06
3.25579e-06
3.56693e-06
2.84238e-06
2.87241e-06
5.08403e-06
4.90941e-06
5.96672e-06
2.51394e-05
0.000154929
0.000526408
0.00129769
0.00282005
0.00488523
0.00739124
0.0146613
0.0291562
0.0441598
0.0521042
0.0535184
0.052207
0.0494377
0.0458919
0.0420447
0.0382001
0.0345576
0.0312151
0.0282391
0.0256476
0.0234574
0.0216728
0.0202891
0.0192886
0.0186582
0.018382
0.018436
0.0187979
0.0194448
0.0202808
0.0216674
0.000541951
0.00128622
0.00116941
0.00147314
0.00134874
0.0011289
0.000724184
0.000376362
0.000224235
0.000150955