/*--------------------------------*- C++ -*----------------------------------*\
| =========                 |                                                 |
| \\      /  F ield         | OpenFOAM: The Open Source CFD Toolbox           |
|  \\    /   O peration     | Version:  v2012                                 |
|   \\  /    A nd           | Website:  www.openfoam.com                      |
|    \\/     M anipulation  |                                                 |
\*---------------------------------------------------------------------------*/
FoamFile
{
    version     2.0;
    format      ascii;
    class       volScalarField;
    location    "12000";
    object      nk;
}
// * * * * * * * * * * * * * * * * * * * * * * * * * * * * * * * * * * * * * //

dimensions      [0 0 0 0 0 0 0];


internalField   nonuniform List<scalar> 
27324
(
0.000255375
0.000251181
0.000288029
0.000243035
0.000289098
0.00033074
0.000231843
0.000285027
0.000335477
0.00033579
0.000218268
0.000277315
0.000332374
0.000333775
0.000258323
0.000202553
0.000265689
0.000323353
0.000320877
0.000237998
0.000112203
0.000185953
0.000249749
0.000306893
0.000298848
0.000209195
8.87138e-05
2.41657e-05
0.000169539
0.000230312
0.000281903
0.000266545
0.000175036
6.70146e-05
1.57807e-05
3.44106e-06
0.000142316
0.000208356
0.000249995
0.000224904
0.000138604
4.83058e-05
1.00008e-05
1.91853e-06
4.6158e-07
0.000103083
0.000170005
0.00020732
0.000177732
0.00010445
3.37846e-05
6.18583e-06
1.07161e-06
2.49058e-07
8.14813e-08
5.76798e-05
0.00012468
0.000159112
0.000136844
7.75562e-05
2.44472e-05
3.87737e-06
6.18468e-07
1.48369e-07
5.36638e-08
2.5204e-08
3.02302e-05
7.8357e-05
0.000118942
0.00010375
5.86274e-05
1.88137e-05
2.87397e-06
3.86221e-07
1.02695e-07
4.15116e-08
2.1115e-08
1.20752e-08
2.52051e-05
4.75387e-05
8.7091e-05
8.53255e-05
4.66906e-05
1.51584e-05
2.4742e-06
3.07783e-07
8.15306e-08
3.6282e-08
1.91267e-08
1.12075e-08
6.78481e-09
2.33994e-05
4.09137e-05
6.17656e-05
7.4692e-05
4.42731e-05
1.33391e-05
2.1912e-06
2.92744e-07
7.46085e-08
3.36527e-08
1.81197e-08
1.06354e-08
6.46847e-09
4.01252e-09
2.20613e-05
3.87386e-05
5.4208e-05
6.36336e-05
4.76257e-05
1.46738e-05
2.12149e-06
2.76229e-07
7.33562e-08
3.25771e-08
1.74741e-08
1.02872e-08
6.19484e-09
3.85607e-09
2.38472e-09
2.08073e-05
3.71862e-05
5.10928e-05
5.76351e-05
5.11234e-05
1.9008e-05
2.57039e-06
2.80335e-07
6.98332e-08
3.21798e-08
1.71271e-08
1.00328e-08
6.00982e-09
3.7062e-09
2.2905e-09
1.4245e-09
1.96123e-05
3.56707e-05
4.86941e-05
5.44949e-05
4.93071e-05
2.52072e-05
3.6691e-06
3.45297e-07
7.02163e-08
3.04934e-08
1.67832e-08
9.86144e-09
5.86907e-09
3.59179e-09
2.19495e-09
1.37035e-09
8.53609e-10
1.8468e-05
3.4229e-05
4.65953e-05
5.20257e-05
4.71229e-05
2.60168e-05
5.39864e-06
4.92319e-07
8.2027e-08
3.05525e-08
1.58412e-08
9.39202e-09
5.71845e-09
3.49996e-09
2.11443e-09
1.30993e-09
8.20158e-10
5.12174e-10
1.74108e-05
3.2851e-05
4.47528e-05
4.99946e-05
4.49215e-05
2.4888e-05
5.78417e-06
7.32617e-07
1.07232e-07
3.47912e-08
1.59877e-08
8.87074e-09
5.36671e-09
3.29125e-09
2.02545e-09
1.24324e-09
7.69766e-10
4.93292e-10
2.95841e-10
1.64441e-05
3.16203e-05
4.31199e-05
4.82638e-05
4.29711e-05
2.32924e-05
5.59369e-06
7.97181e-07
1.46705e-07
4.32262e-08
1.81066e-08
9.11306e-09
5.1341e-09
3.05476e-09
1.85396e-09
1.13342e-09
6.95858e-10
4.41057e-10
2.633e-10
1.62391e-10
1.5552e-05
3.0546e-05
4.16941e-05
4.66983e-05
4.113e-05
2.17064e-05
5.24504e-06
8.01246e-07
1.60246e-07
5.56436e-08
2.19364e-08
1.03804e-08
5.42421e-09
3.01353e-09
1.74472e-09
1.03778e-09
6.2512e-10
3.79945e-10
2.28139e-10
1.38437e-10
8.40891e-11
1.47244e-05
2.95817e-05
4.03778e-05
4.52165e-05
3.93043e-05
2.01213e-05
4.8319e-06
7.81464e-07
1.61248e-07
6.04551e-08
2.72033e-08
1.24191e-08
6.24836e-09
3.28533e-09
1.79848e-09
1.02241e-09
5.95946e-10
3.55007e-10
2.12615e-10
1.27427e-10
7.89619e-11
5.12015e-11
1.39542e-05
2.87123e-05
3.90444e-05
4.36798e-05
3.74312e-05
1.85797e-05
4.37726e-06
7.36632e-07
1.60699e-07
5.93842e-08
2.95853e-08
1.50118e-08
7.45079e-09
3.81386e-09
2.00999e-09
1.10132e-09
6.20218e-10
3.59916e-10
2.12457e-10
1.26948e-10
7.72656e-11
5.01314e-11
3.68018e-11
1.32175e-05
2.79259e-05
3.76397e-05
4.19703e-05
3.54611e-05
1.70794e-05
3.92276e-06
6.71959e-07
1.56199e-07
5.94233e-08
2.91184e-08
1.63724e-08
8.84942e-09
4.59864e-09
2.35994e-09
1.25771e-09
6.87764e-10
3.88017e-10
2.24851e-10
1.33324e-10
8.08893e-11
5.09126e-11
3.59114e-11
2.92591e-11
1.24937e-05
2.71824e-05
3.61108e-05
4.00587e-05
3.3414e-05
1.56526e-05
3.48152e-06
6.0194e-07
1.48124e-07
5.89234e-08
2.89406e-08
1.61864e-08
9.67529e-09
5.40242e-09
2.81034e-09
1.46303e-09
7.8228e-10
4.31913e-10
2.45553e-10
1.43378e-10
8.5868e-11
5.32306e-11
3.51413e-11
2.8098e-11
2.46473e-11
1.1752e-05
2.64082e-05
3.44238e-05
3.79685e-05
3.13542e-05
1.43836e-05
3.07607e-06
5.31485e-07
1.39131e-07
5.78424e-08
2.88641e-08
1.56798e-08
9.65126e-09
5.94751e-09
3.27654e-09
1.70664e-09
8.94583e-10
4.83861e-10
2.69553e-10
1.54843e-10
9.14476e-11
5.59241e-11
3.59341e-11
2.67419e-11
2.39084e-11
2.17022e-11
1.09886e-05
2.55469e-05
3.25821e-05
3.57779e-05
2.93569e-05
1.32651e-05
2.7619e-06
4.67141e-07
1.30067e-07
5.65932e-08
2.86361e-08
1.5622e-08
9.30017e-09
6.06308e-09
3.62086e-09
1.97399e-09
1.02346e-09
5.43603e-10
2.96981e-10
1.67556e-10
9.74878e-11
5.8846e-11
3.72061e-11
2.59499e-11
2.25935e-11
2.13635e-11
2.11628e-11
1.0203e-05
2.45432e-05
3.05882e-05
3.35385e-05
2.74623e-05
1.2279e-05
2.51985e-06
4.22112e-07
1.21964e-07
5.52893e-08
2.83244e-08
1.55493e-08
9.17891e-09
5.85641e-09
3.77433e-09
2.19045e-09
1.16544e-09
6.11386e-10
3.2842e-10
1.81846e-10
1.04177e-10
6.19903e-11
3.86826e-11
2.59362e-11
2.13011e-11
2.06103e-11
2.01563e-11
2.63782e-11
9.40952e-06
2.33987e-05
2.85e-05
3.13313e-05
2.56897e-05
1.13941e-05
2.33067e-06
3.91537e-07
1.16625e-07
5.40652e-08
2.79592e-08
1.54338e-08
9.13675e-09
5.65073e-09
3.6962e-09
2.32985e-09
1.31572e-09
6.87987e-10
3.64128e-10
1.98185e-10
1.11625e-10
6.54906e-11
4.02942e-11
2.64962e-11
2.02364e-11
1.94509e-11
1.94446e-11
2.28748e-11
4.85785e-11
8.63681e-06
2.21506e-05
2.64508e-05
2.92925e-05
2.40833e-05
1.06041e-05
2.17683e-06
3.71205e-07
1.13273e-07
5.32474e-08
2.75728e-08
1.52891e-08
9.08407e-09
5.60748e-09
3.54089e-09
2.33306e-09
1.42355e-09
7.73756e-10
4.0448e-10
2.16809e-10
1.2e-10
6.93685e-11
4.20759e-11
2.72881e-11
1.96351e-11
1.81571e-11
1.87792e-11
2.06045e-11
3.7122e-11
1.27257e-10
7.90905e-06
2.08742e-05
2.45363e-05
2.74871e-05
2.26452e-05
9.89418e-06
2.04788e-06
3.57458e-07
1.11279e-07
5.27431e-08
2.72906e-08
1.51322e-08
9.02023e-09
5.57803e-09
3.44763e-09
2.23656e-09
1.46225e-09
8.50912e-10
4.49675e-10
2.37609e-10
1.29449e-10
7.36614e-11
4.40502e-11
2.81818e-11
1.9688e-11
1.69468e-11
1.78624e-11
1.9117e-11
2.9479e-11
8.99436e-11
3.99729e-10
7.25074e-06
1.96487e-05
2.28116e-05
2.59147e-05
2.1337e-05
9.25154e-06
1.93347e-06
3.47704e-07
1.10111e-07
5.24657e-08
2.71127e-08
1.50185e-08
8.95178e-09
5.54543e-09
3.42361e-09
2.145e-09
1.42651e-09
8.94596e-10
4.95669e-10
2.60553e-10
1.40037e-10
7.84316e-11
4.62338e-11
2.9175e-11
2.00488e-11
1.60193e-11
1.66447e-11
1.80649e-11
2.44151e-11
6.44929e-11
2.77264e-10
1.33711e-09
6.6628e-06
1.85485e-05
2.12843e-05
2.45318e-05
2.01204e-05
8.66139e-06
1.83055e-06
3.39259e-07
1.09425e-07
5.23326e-08
2.70324e-08
1.49517e-08
8.90251e-09
5.51105e-09
3.40259e-09
2.10958e-09
1.35895e-09
8.97575e-10
5.33657e-10
2.85211e-10
1.51733e-10
8.37593e-11
4.86507e-11
3.02825e-11
2.05297e-11
1.56011e-11
1.53927e-11
1.71554e-11
2.10865e-11
4.72446e-11
1.91983e-10
9.35469e-10
4.51583e-09
6.1468e-06
1.76465e-05
1.99838e-05
2.32911e-05
1.89575e-05
8.11479e-06
1.73692e-06
3.31558e-07
1.08795e-07
5.22774e-08
2.70264e-08
1.49324e-08
8.87546e-09
5.48606e-09
3.38142e-09
2.09549e-09
1.30201e-09
8.63564e-10
5.51013e-10
3.11257e-10
1.64522e-10
8.96924e-11
5.13219e-11
3.15195e-11
2.10808e-11
1.5621e-11
1.4267e-11
1.61298e-11
1.88893e-11
3.56789e-11
1.33024e-10
6.49428e-10
3.21479e-09
1.50956e-08
5.69177e-06
1.69243e-05
1.88472e-05
2.21064e-05
1.7835e-05
7.59639e-06
1.65044e-06
3.24351e-07
1.08231e-07
5.2242e-08
2.70635e-08
1.49492e-08
8.87221e-09
5.47233e-09
3.36453e-09
2.08278e-09
1.28479e-09
8.21448e-10
5.44888e-10
3.297e-10
1.78295e-10
9.61841e-11
5.42938e-11
3.28914e-11
2.17006e-11
1.584e-11
1.34097e-11
1.48936e-11
1.73795e-11
2.79986e-11
9.2688e-11
4.47471e-10
2.26704e-09
1.09614e-08
5.00142e-08
5.27702e-06
1.63159e-05
1.77606e-05
2.08822e-05
1.6711e-05
7.10337e-06
1.56699e-06
3.17471e-07
1.07743e-07
5.22487e-08
2.71317e-08
1.49877e-08
8.88826e-09
5.47178e-09
3.35361e-09
2.07209e-09
1.27651e-09
7.8803e-10
5.20862e-10
3.36727e-10
1.91902e-10
1.03234e-10
5.75937e-11
3.44058e-11
2.23967e-11
1.6131e-11
1.302e-11
1.36784e-11
1.62057e-11
2.29483e-11
6.53636e-11
3.06443e-10
1.58299e-09
7.88266e-09
3.71323e-08
1.62266e-07
4.8758e-06
1.57224e-05
1.66452e-05
1.95843e-05
1.56005e-05
6.63119e-06
1.48598e-06
3.1054e-07
1.07342e-07
5.22859e-08
2.72219e-08
1.50352e-08
8.91601e-09
5.48295e-09
3.35061e-09
2.06415e-09
1.26988e-09
7.78799e-10
4.9542e-10
3.30893e-10
2.02311e-10
1.10718e-10
6.11964e-11
3.60733e-11
2.31723e-11
1.64696e-11
1.29732e-11
1.25978e-11
1.50874e-11
1.96347e-11
4.70627e-11
2.08988e-10
1.09477e-09
5.60977e-09
2.72911e-08
1.23569e-07
5.15739e-07
4.47305e-06
1.50757e-05
1.54743e-05
1.82439e-05
1.45353e-05
6.1809e-06
1.40354e-06
3.0365e-07
1.06939e-07
5.23458e-08
2.73255e-08
1.5089e-08
8.94888e-09
5.50181e-09
3.3554e-09
2.06062e-09
1.26432e-09
7.74333e-10
4.76028e-10
3.15689e-10
2.0553e-10
1.18577e-10
6.50576e-11
3.79057e-11
2.40246e-11
1.68526e-11
1.30871e-11
1.17635e-11
1.38474e-11
1.74261e-11
3.49286e-11
1.42431e-10
7.49985e-10
3.95269e-09
1.98321e-08
9.3199e-08
4.03031e-07
1.60776e-06
4.06969e-06
1.43129e-05
1.4267e-05
1.69277e-05
1.35362e-05
5.75657e-06
1.31767e-06
2.95838e-07
1.06504e-07
5.23683e-08
2.74353e-08
1.51469e-08
8.98562e-09
5.52272e-09
3.36632e-09
2.06203e-09
1.2612e-09
7.71007e-10
4.70765e-10
2.99998e-10
2.01726e-10
1.24702e-10
6.92096e-11
3.98872e-11
2.49537e-11
1.72884e-11
1.32598e-11
1.13402e-11
1.26526e-11
1.58538e-11
2.69783e-11
9.74139e-11
5.09501e-10
2.75689e-09
1.42653e-08
6.94557e-08
3.12208e-07
1.28791e-06
4.92116e-06
3.6721e-06
1.34331e-05
1.30407e-05
1.56743e-05
1.26125e-05
5.36247e-06
1.23365e-06
2.86647e-07
1.05854e-07
5.2332e-08
2.75229e-08
1.52065e-08
9.02439e-09
5.54531e-09
3.37843e-09
2.0675e-09
1.26102e-09
7.68723e-10
4.6876e-10
2.88276e-10
1.92557e-10
1.26633e-10
7.33796e-11
4.19903e-11
2.59604e-11
1.77743e-11
1.34705e-11
1.12292e-11
1.15856e-11
1.45683e-11
2.18075e-11
6.73322e-11
3.43683e-10
1.90345e-09
1.01575e-08
5.12305e-08
2.39167e-07
1.02394e-06
4.03522e-06
1.47773e-05
3.2969e-06
1.24783e-05
1.18951e-05
1.45662e-05
1.1775e-05
5.0045e-06
1.15534e-06
2.77244e-07
1.04871e-07
5.21971e-08
2.75801e-08
1.52555e-08
9.06345e-09
5.5683e-09
3.39149e-09
2.07421e-09
1.26339e-09
7.67793e-10
4.6746e-10
2.84622e-10
1.82657e-10
1.24777e-10
7.7227e-11
4.42054e-11
2.70397e-11
1.83068e-11
1.37174e-11
1.12744e-11
1.073e-11
1.33305e-11
1.84428e-11
4.74572e-11
2.30553e-10
1.30036e-09
7.16288e-09
3.73873e-08
1.81436e-07
8.0591e-07
3.2878e-06
1.2389e-05
4.33607e-05
2.95745e-06
1.15443e-05
1.08954e-05
1.36437e-05
1.103e-05
4.68382e-06
1.08962e-06
2.68275e-07
1.03661e-07
5.19327e-08
2.75895e-08
1.52919e-08
9.09591e-09
5.59056e-09
3.40452e-09
2.08115e-09
1.26772e-09
7.68341e-10
4.66792e-10
2.83673e-10
1.7513e-10
1.19454e-10
7.87052e-11
4.65125e-11
2.81737e-11
1.88855e-11
1.4004e-11
1.13803e-11
1.02152e-11
1.2116e-11
1.61975e-11
3.44927e-11
1.54184e-10
8.79778e-10
5.0017e-09
2.70111e-08
1.36228e-07
6.28994e-07
2.65491e-06
1.03307e-05
3.71517e-05
0.000123267
2.66797e-06
1.06842e-05
1.00535e-05
1.2871e-05
1.03573e-05
4.38927e-06
1.03603e-06
2.61185e-07
1.02327e-07
5.15674e-08
2.75442e-08
1.53075e-08
9.12043e-09
5.60833e-09
3.41696e-09
2.08786e-09
1.27188e-09
7.70104e-10
4.66707e-10
2.83014e-10
1.71508e-10
1.1298e-10
7.79803e-11
4.86951e-11
2.93517e-11
1.95109e-11
1.43284e-11
1.1517e-11
1.00143e-11
1.10303e-11
1.45802e-11
2.61373e-11
1.03281e-10
5.89444e-10
3.4589e-09
1.93207e-08
1.01261e-07
4.86468e-07
2.12896e-06
8.54535e-06
3.16788e-05
0.000107996
0.000334152
2.42088e-06
9.93571e-06
9.34655e-06
1.21992e-05
9.73164e-06
4.1134e-06
9.90287e-07
2.5596e-07
1.0117e-07
5.11454e-08
2.74557e-08
1.52986e-08
9.13228e-09
5.62094e-09
3.42686e-09
2.09396e-09
1.27558e-09
7.72634e-10
4.67249e-10
2.82554e-10
1.70796e-10
1.07695e-10
7.50771e-11
5.02444e-11
3.05896e-11
2.01732e-11
1.46867e-11
1.16842e-11
9.99174e-12
1.01243e-11
1.32485e-11
2.07948e-11
6.97942e-11
3.91396e-10
2.36747e-09
1.36899e-08
7.45097e-08
3.72857e-07
1.69429e-06
7.02778e-06
2.68131e-05
9.41787e-05
0.000299916
0.00084146
2.20889e-06
9.32879e-06
8.74528e-06
1.15897e-05
9.14071e-06
3.85374e-06
9.48738e-07
2.51358e-07
1.00249e-07
5.07705e-08
2.73416e-08
1.52724e-08
9.13127e-09
5.62576e-09
3.43373e-09
2.09866e-09
1.27882e-09
7.75048e-10
4.68293e-10
2.82294e-10
1.70384e-10
1.03752e-10
7.09248e-11
5.01021e-11
3.18344e-11
2.08504e-11
1.50736e-11
1.18827e-11
1.00482e-11
9.4696e-12
1.19991e-11
1.73778e-11
4.80397e-11
2.57983e-10
1.60327e-09
9.60827e-09
5.43004e-08
2.83127e-07
1.33826e-06
5.74349e-06
2.25826e-05
8.15544e-05
0.000267928
0.000775242
0.00192105
2.01806e-06
8.78798e-06
8.19983e-06
1.10168e-05
8.575e-06
3.60697e-06
9.10254e-07
2.47044e-07
9.94092e-08
5.04583e-08
2.7246e-08
1.52359e-08
9.12142e-09
5.62266e-09
3.43641e-09
2.10191e-09
1.28135e-09
7.76828e-10
4.69598e-10
2.82241e-10
1.6997e-10
1.02658e-10
6.7032e-11
4.87262e-11
3.29481e-11
2.15352e-11
1.54837e-11
1.21113e-11
1.01368e-11
9.13895e-12
1.08704e-11
1.51322e-11
3.4115e-11
1.6918e-10
1.07374e-09
6.68013e-09
3.92014e-08
2.13049e-07
1.04881e-06
4.66543e-06
1.89177e-05
7.03025e-05
0.000237724
0.000711134
0.00181521
0.0039032
1.83609e-06
8.25381e-06
7.65348e-06
1.04399e-05
8.03743e-06
3.36784e-06
8.73459e-07
2.43007e-07
9.86599e-08
5.02149e-08
2.71776e-08
1.52127e-08
9.10682e-09
5.61454e-09
3.43435e-09
2.10296e-09
1.28301e-09
7.78156e-10
4.70889e-10
2.82437e-10
1.69651e-10
1.02258e-10
6.41232e-11
4.62504e-11
3.34758e-11
2.22431e-11
1.59056e-11
1.23654e-11
1.02532e-11
9.02683e-12
9.89613e-12
1.35414e-11
2.5312e-11
1.10973e-10
7.10542e-10
4.59954e-09
2.80491e-08
1.58866e-07
8.15659e-07
3.76616e-06
1.57676e-05
6.03062e-05
0.000210007
0.000648113
0.0017102
0.00377447
0.00691133
1.65964e-06
7.69284e-06
7.11875e-06
9.88956e-06
7.52869e-06
3.13711e-06
8.36796e-07
2.39056e-07
9.7964e-08
5.00078e-08
2.71241e-08
1.52084e-08
9.09945e-09
5.60397e-09
3.42962e-09
2.1015e-09
1.28378e-09
7.79098e-10
4.71832e-10
2.82865e-10
1.69547e-10
1.01978e-10
6.24683e-11
4.3438e-11
3.29176e-11
2.29364e-11
1.63234e-11
1.26414e-11
1.03977e-11
9.02823e-12
9.10796e-12
1.22569e-11
1.98305e-11
7.32796e-11
4.6467e-10
3.13322e-09
1.98989e-08
1.17442e-07
6.29366e-07
3.02192e-06
1.3076e-05
5.14953e-05
0.000184638
0.000588268
0.0016018
0.00364734
0.0068257
0.0104655
1.48424e-06
7.11723e-06
6.62507e-06
9.38029e-06
7.0573e-06
2.91311e-06
7.98652e-07
2.34883e-07
9.72305e-08
4.98099e-08
2.70776e-08
1.52158e-08
9.10157e-09
5.59765e-09
3.42393e-09
2.0984e-09
1.28382e-09
7.79537e-10
4.72558e-10
2.83418e-10
1.69674e-10
1.01757e-10
6.20681e-11
4.10832e-11
3.16101e-11
2.35108e-11
1.67325e-11
1.29356e-11
1.0569e-11
9.0776e-12
8.58917e-12
1.10936e-11
1.643e-11
4.92647e-11
3.00417e-10
2.10991e-09
1.39928e-08
8.61164e-08
4.81927e-07
2.40996e-06
1.07932e-05
4.37758e-05
0.000161608
0.000531532
0.00149522
0.00350655
0.00674591
0.0105152
0.0138295
1.32091e-06
6.54529e-06
6.1857e-06
8.90691e-06
6.60931e-06
2.69919e-06
7.5814e-07
2.29954e-07
9.63508e-08
4.95837e-08
2.70318e-08
1.52319e-08
9.11086e-09
5.59696e-09
3.42092e-09
2.09506e-09
1.28343e-09
7.79809e-10
4.73179e-10
2.83834e-10
1.70032e-10
1.01671e-10
6.19231e-11
3.93845e-11
2.97236e-11
2.36763e-11
1.7148e-11
1.32373e-11
1.07625e-11
9.15472e-12
8.32795e-12
1.0076e-11
1.42591e-11
3.41644e-11
1.92536e-10
1.40237e-09
9.75149e-09
6.26475e-08
3.66361e-07
1.91061e-06
8.86847e-06
3.70638e-05
0.000140824
0.000478158
0.00139037
0.0033634
0.00663899
0.0105798
0.0140616
0.0165533
1.17945e-06
6.04062e-06
5.83172e-06
8.48026e-06
6.1785e-06
2.4984e-06
7.17683e-07
2.23897e-07
9.52077e-08
4.92816e-08
2.69709e-08
1.52507e-08
9.12513e-09
5.6011e-09
3.421e-09
2.09326e-09
1.28291e-09
7.7994e-10
4.73755e-10
2.84236e-10
1.70556e-10
1.01721e-10
6.18156e-11
3.85844e-11
2.7783e-11
2.30557e-11
1.7554e-11
1.35296e-11
1.09753e-11
9.25652e-12
8.23367e-12
9.21338e-12
1.27636e-11
2.48881e-11
1.22981e-10
9.19118e-10
6.72654e-09
4.52359e-08
2.76558e-07
1.50624e-06
7.2568e-06
3.12637e-05
0.00012222
0.00042822
0.00128813
0.00321689
0.00652469
0.0106098
0.0143212
0.016967
0.0185205
1.06126e-06
5.61341e-06
5.55342e-06
8.08494e-06
5.7543e-06
2.32069e-06
6.79774e-07
2.17304e-07
9.37011e-08
4.88685e-08
2.68748e-08
1.52631e-08
9.14014e-09
5.60817e-09
3.42397e-09
2.09324e-09
1.28283e-09
7.80005e-10
4.74301e-10
2.84617e-10
1.71014e-10
1.01913e-10
6.17842e-11
3.83939e-11
2.62244e-11
2.19582e-11
1.7874e-11
1.3804e-11
1.12045e-11
9.38413e-12
8.22747e-12
8.51907e-12
1.16024e-11
1.92639e-11
7.89642e-11
5.93196e-10
4.58706e-09
3.24118e-08
2.07456e-07
1.18098e-06
5.91611e-06
2.6288e-05
0.000105675
0.000381895
0.00118896
0.00306807
0.00640032
0.0106321
0.0145477
0.0174194
0.019091
0.0197781
9.6304e-07
5.2624e-06
5.32346e-06
7.69209e-06
5.33716e-06
2.15982e-06
6.49071e-07
2.10749e-07
9.19793e-08
4.83227e-08
2.67286e-08
1.52589e-08
9.15053e-09
5.61566e-09
3.42818e-09
2.09465e-09
1.28299e-09
7.8005e-10
4.74733e-10
2.84968e-10
1.71402e-10
1.02204e-10
6.18088e-11
3.83218e-11
2.51097e-11
2.05012e-11
1.79319e-11
1.40736e-11
1.14461e-11
9.53516e-12
8.25774e-12
8.07949e-12
1.05935e-11
1.58655e-11
5.16545e-11
3.77026e-10
3.08562e-09
2.30382e-08
1.54686e-07
9.21494e-07
4.80657e-06
2.20497e-05
9.10776e-05
0.000339201
0.00109321
0.00291733
0.00626715
0.0106422
0.0147743
0.0178467
0.019707
0.0204729
0.0204355
8.73832e-07
4.96351e-06
5.12163e-06
7.2865e-06
4.92885e-06
2.01522e-06
6.23793e-07
2.05672e-07
9.01944e-08
4.76926e-08
2.65246e-08
1.52284e-08
9.15199e-09
5.62074e-09
3.43221e-09
2.09668e-09
1.28406e-09
7.80014e-10
4.74994e-10
2.85241e-10
1.71732e-10
1.02491e-10
6.18865e-11
3.82589e-11
2.45555e-11
1.9028e-11
1.7397e-11
1.43449e-11
1.1686e-11
9.70364e-12
8.32514e-12
7.85669e-12
9.70527e-12
1.37686e-11
3.50848e-11
2.36221e-10
2.04367e-09
1.62239e-08
1.14703e-07
7.15853e-07
3.89428e-06
1.84598e-05
7.83014e-05
0.000300159
0.00100123
0.00276565
0.00612535
0.0106406
0.0149953
0.0182859
0.0203076
0.0212152
0.0212222
0.0206186
7.87579e-07
4.66232e-06
4.90503e-06
6.85901e-06
4.53206e-06
1.88426e-06
6.01042e-07
2.01417e-07
8.87516e-08
4.70231e-08
2.62884e-08
1.51666e-08
9.13872e-09
5.62106e-09
3.43467e-09
2.09843e-09
1.28541e-09
7.80087e-10
4.75051e-10
2.85373e-10
1.71977e-10
1.0269e-10
6.20224e-11
3.82009e-11
2.43964e-11
1.78376e-11
1.65146e-11
1.45629e-11
1.19112e-11
9.8858e-12
8.41575e-12
7.7718e-12
8.95266e-12
1.24027e-11
2.50994e-11
1.46691e-10
1.32955e-09
1.13037e-08
8.45642e-08
5.54128e-07
3.14778e-06
1.54389e-05
6.71996e-05
0.000264752
0.00091353
0.00261378
0.00597487
0.0106268
0.0152111
0.0187317
0.020932
0.0219522
0.0220541
0.0214684
0.0204467
7.06084e-07
4.3506e-06
4.6655e-06
6.41228e-06
4.15102e-06
1.76319e-06
5.80528e-07
1.97436e-07
8.75132e-08
4.64655e-08
2.60414e-08
1.50894e-08
9.10972e-09
5.61294e-09
3.43468e-09
2.09939e-09
1.28658e-09
7.80096e-10
4.74877e-10
2.85316e-10
1.72138e-10
1.02808e-10
6.21964e-11
3.81632e-11
2.43356e-11
1.69956e-11
1.53679e-11
1.46324e-11
1.21203e-11
1.00812e-11
8.52721e-12
7.75798e-12
8.36897e-12
1.13767e-11
1.92011e-11
9.11334e-11
8.48366e-10
7.77254e-09
6.196e-08
4.27607e-07
2.54077e-06
1.29085e-05
5.76346e-05
0.000232896
0.000830531
0.00246259
0.00581532
0.0106007
0.0154203
0.0191851
0.0215754
0.022723
0.0228897
0.0223577
0.0213351
0.0200206
6.29698e-07
4.04205e-06
4.41553e-06
5.96939e-06
3.79559e-06
1.65043e-06
5.60686e-07
1.93586e-07
8.63529e-08
4.59823e-08
2.58572e-08
1.50077e-08
9.07395e-09
5.59664e-09
3.42995e-09
2.09919e-09
1.28719e-09
7.79915e-10
4.74506e-10
2.84961e-10
1.72166e-10
1.02872e-10
6.23729e-11
3.81667e-11
2.42995e-11
1.65047e-11
1.41736e-11
1.4353e-11
1.23256e-11
1.0287e-11
8.65335e-12
7.78117e-12
7.9966e-12
1.05014e-11
1.57675e-11
5.75927e-11
5.30699e-10
5.26104e-09
4.50539e-08
3.29144e-07
2.0495e-06
1.08006e-05
4.94474e-05
0.000204514
0.000752535
0.00231302
0.00564747
0.010562
0.015623
0.0196455
0.0222395
0.0235244
0.0237676
0.0232583
0.0222555
0.0209283
0.019421
5.62027e-07
3.74769e-06
4.15148e-06
5.52708e-06
3.46749e-06
1.54513e-06
5.41157e-07
1.89494e-07
8.52023e-08
4.5546e-08
2.5721e-08
1.4958e-08
9.03682e-09
5.57737e-09
3.42073e-09
2.097e-09
1.28708e-09
7.79737e-10
4.74048e-10
2.84495e-10
1.72086e-10
1.0291e-10
6.24988e-11
3.82214e-11
2.42831e-11
1.63595e-11
1.31654e-11
1.36501e-11
1.25173e-11
1.04903e-11
8.79119e-12
7.86154e-12
7.80376e-12
9.72284e-12
1.37277e-11
3.78834e-11
3.25658e-10
3.49577e-09
3.24573e-08
2.52674e-07
1.65407e-06
9.05142e-06
4.24908e-05
0.000179451
0.000679897
0.00216588
0.00547231
0.0105102
0.0158195
0.0201123
0.0229244
0.0243584
0.0246851
0.0242072
0.0231934
0.0218593
0.0203328
0.0187099
5.03916e-07
3.48736e-06
3.88157e-06
5.0838e-06
3.16501e-06
1.44761e-06
5.2083e-07
1.85101e-07
8.39493e-08
4.51324e-08
2.56173e-08
1.49336e-08
9.01562e-09
5.55887e-09
3.41005e-09
2.09298e-09
1.2862e-09
7.79529e-10
4.73732e-10
2.84043e-10
1.71916e-10
1.02935e-10
6.25879e-11
3.83186e-11
2.42855e-11
1.63241e-11
1.24314e-11
1.27279e-11
1.26229e-11
1.06797e-11
8.94383e-12
7.96114e-12
7.7194e-12
9.06249e-12
1.24167e-11
2.65784e-11
1.96884e-10
2.27299e-09
2.31144e-08
1.93364e-07
1.33673e-06
7.60787e-06
3.66099e-05
0.000157546
0.000612838
0.00202213
0.00529078
0.0104452
0.0160086
0.0205851
0.02363
0.025226
0.0256454
0.0252032
0.0241837
0.0228126
0.0212592
0.0196139
0.0179337
4.52587e-07
3.25427e-06
3.60886e-06
4.64881e-06
2.8933e-06
1.36047e-06
5.00505e-07
1.79957e-07
8.2569e-08
4.46923e-08
2.55297e-08
1.49249e-08
9.00784e-09
5.54857e-09
3.40013e-09
2.08816e-09
1.28495e-09
7.79191e-10
4.73711e-10
2.83749e-10
1.71705e-10
1.02941e-10
6.26625e-11
3.84218e-11
2.43095e-11
1.63113e-11
1.19195e-11
1.17109e-11
1.25196e-11
1.08588e-11
9.11436e-12
8.0729e-12
7.69312e-12
8.56936e-12
1.14631e-11
2.0142e-11
1.18379e-10
1.44335e-09
1.6223e-08
1.47368e-07
1.08259e-06
6.42147e-06
3.16689e-05
0.000138564
0.000551609
0.00188261
0.00510412
0.0103666
0.0161889
0.0210628
0.0243567
0.026128
0.0266502
0.0262496
0.0252265
0.0238211
0.0222113
0.0205246
0.0188211
0.0171267
4.04981e-07
3.0301e-06
3.33289e-06
4.22484e-06
2.65093e-06
1.28471e-06
4.82044e-07
1.74508e-07
8.09823e-08
4.42135e-08
2.54326e-08
1.49218e-08
9.00756e-09
5.54702e-09
3.39427e-09
2.08358e-09
1.28359e-09
7.78879e-10
4.7372e-10
2.83644e-10
1.71529e-10
1.02913e-10
6.27261e-11
3.84991e-11
2.43595e-11
1.63027e-11
1.17128e-11
1.07773e-11
1.20426e-11
1.10375e-11
9.30163e-12
8.18887e-12
7.72983e-12
8.25281e-12
1.06548e-11
1.64873e-11
7.21418e-11
8.93703e-10
1.11899e-08
1.11646e-07
8.79014e-07
5.45113e-06
2.75381e-05
0.000122266
0.000496293
0.00174844
0.00491343
0.0102746
0.0163588
0.0215442
0.0251045
0.0270658
0.027701
0.027349
0.0263251
0.0248853
0.0232202
0.0214635
0.0197081
0.0179906
0.016314
3.58851e-07
2.80442e-06
3.05413e-06
3.81893e-06
2.43398e-06
1.21802e-06
4.65133e-07
1.69477e-07
7.93192e-08
4.36753e-08
2.53177e-08
1.49125e-08
9.00876e-09
5.54816e-09
3.39289e-09
2.08074e-09
1.28191e-09
7.78579e-10
4.73755e-10
2.83791e-10
1.71431e-10
1.02859e-10
6.27637e-11
3.85479e-11
2.44304e-11
1.62998e-11
1.16469e-11
1.00425e-11
1.13341e-11
1.11867e-11
9.49916e-12
8.30919e-12
7.8138e-12
8.07943e-12
9.93174e-12
1.43816e-11
4.58065e-11
5.40183e-10
7.55843e-09
8.3927e-08
7.15364e-07
4.66062e-06
2.41082e-05
0.000108375
0.000446931
0.00162066
0.00472017
0.0101695
0.0165166
0.0220281
0.0258728
0.0280402
0.0288
0.0285034
0.0274829
0.0260092
0.0242867
0.0224596
0.0206248
0.0188482
0.0171494
0.0155143
3.13516e-07
2.57588e-06
2.78125e-06
3.43966e-06
2.23827e-06
1.15822e-06
4.48732e-07
1.64827e-07
7.77952e-08
4.31285e-08
2.51717e-08
1.48914e-08
9.00571e-09
5.54957e-09
3.39388e-09
2.07977e-09
1.27997e-09
7.78013e-10
4.73754e-10
2.83927e-10
1.71411e-10
1.02773e-10
6.2763e-11
3.8584e-11
2.45101e-11
1.63076e-11
1.16265e-11
9.51874e-12
1.05013e-11
1.12256e-11
9.69371e-12
8.43407e-12
7.92142e-12
7.99559e-12
9.32132e-12
1.30772e-11
3.12731e-11
3.19916e-10
4.98489e-09
6.24411e-08
5.83329e-07
4.01731e-06
2.12826e-05
9.66363e-05
0.000403347
0.00150062
0.0045256
0.0100522
0.016661
0.0225127
0.0266616
0.0290517
0.0299493
0.0297164
0.0287027
0.0271967
0.0254155
0.0235143
0.0215986
0.0197369
0.0179739
0.0163172
0.0147414
2.70571e-07
2.34096e-06
2.52121e-06
3.0922e-06
2.06403e-06
1.10304e-06
4.32387e-07
1.60306e-07
7.64683e-08
4.26534e-08
2.50222e-08
1.48517e-08
8.99523e-09
5.54919e-09
3.39423e-09
2.07957e-09
1.27837e-09
7.7701e-10
4.73617e-10
2.8402e-10
1.71472e-10
1.02698e-10
6.27269e-11
3.86049e-11
2.45779e-11
1.63306e-11
1.16204e-11
9.19591e-12
9.66037e-12
1.10641e-11
9.87355e-12
8.56667e-12
8.04169e-12
7.96647e-12
8.86346e-12
1.21314e-11
2.34015e-11
1.87608e-10
3.20002e-09
4.58715e-08
4.76219e-07
3.49395e-06
1.89729e-05
8.68154e-05
0.000365354
0.00138941
0.00433161
0.00992325
0.0167902
0.0229956
0.0274695
0.0301014
0.03115
0.0309901
0.0299884
0.0284507
0.0266101
0.0246322
0.0226311
0.0206816
0.0188301
0.0171062
0.0155092
0.0140065
2.30212e-07
2.10739e-06
2.27923e-06
2.78252e-06
1.90917e-06
1.05136e-06
4.15502e-07
1.55842e-07
7.52871e-08
4.22671e-08
2.4908e-08
1.48086e-08
8.97629e-09
5.54478e-09
3.39393e-09
2.07986e-09
1.27673e-09
7.75796e-10
4.7311e-10
2.84033e-10
1.71539e-10
1.0263e-10
6.26488e-11
3.86179e-11
2.46276e-11
1.637e-11
1.16175e-11
9.07287e-12
8.92968e-12
1.05647e-11
1.00296e-11
8.71804e-12
8.16553e-12
8.02539e-12
8.57068e-12
1.13153e-11
1.90176e-11
1.11207e-10
1.99701e-09
3.31792e-08
3.89043e-07
3.067e-06
1.71018e-05
7.86949e-05
0.000332626
0.00128774
0.00414036
0.00978389
0.0169028
0.0234744
0.0282954
0.0311895
0.0324051
0.0323274
0.0313432
0.0297761
0.0278745
0.0258173
0.023727
0.0216845
0.019741
0.017927
0.0162611
0.0147365
0.0133181
1.93045e-07
1.87546e-06
2.05534e-06
2.51629e-06
1.77278e-06
1.00192e-06
3.97896e-07
1.51365e-07
7.42213e-08
4.19402e-08
2.48339e-08
1.47802e-08
8.95654e-09
5.53824e-09
3.39216e-09
2.07973e-09
1.27573e-09
7.74599e-10
4.721e-10
2.83845e-10
1.71556e-10
1.02595e-10
6.25663e-11
3.86194e-11
2.46654e-11
1.64202e-11
1.16275e-11
9.03695e-12
8.35959e-12
9.93688e-12
1.01488e-11
8.89643e-12
8.29173e-12
8.11738e-12
8.3967e-12
1.05665e-11
1.65888e-11
6.90186e-11
1.21214e-09
2.35669e-08
3.17889e-07
2.71807e-06
1.55974e-05
7.20955e-05
0.000304805
0.00119613
0.00395495
0.00963484
0.0169974
0.0239461
0.0291373
0.0323156
0.0337151
0.0337318
0.0327705
0.0311762
0.0292134
0.027074
0.0248904
0.0227501
0.0207091
0.018801
0.0170444
0.0154505
0.0140089
0.0126846
1.61856e-07
1.64501e-06
1.8504e-06
2.29123e-06
1.65457e-06
9.53324e-07
3.79893e-07
1.46983e-07
7.32418e-08
4.16563e-08
2.47842e-08
1.47666e-08
8.94659e-09
5.53276e-09
3.39023e-09
2.07923e-09
1.27541e-09
7.73546e-10
4.70956e-10
2.83574e-10
1.71548e-10
1.02621e-10
6.24969e-11
3.86032e-11
2.46968e-11
1.64692e-11
1.1648e-11
9.03125e-12
7.94494e-12
9.24622e-12
1.01381e-11
9.08378e-12
8.41983e-12
8.24211e-12
8.30445e-12
9.93777e-12
1.50926e-11
4.66396e-11
7.1937e-10
1.63839e-08
2.59901e-07
2.43241e-06
1.43982e-05
6.68366e-05
0.000281624
0.00111471
0.00377863
0.00947602
0.0170731
0.0244075
0.0299932
0.0334788
0.0350816
0.0352052
0.0342748
0.0326555
0.0306312
0.0284069
0.0261257
0.023883
0.0217389
0.0197307
0.0178791
0.016195
0.0146841
0.0133343
0.0121135
1.35845e-07
1.42504e-06
1.66713e-06
2.10537e-06
1.55164e-06
9.03901e-07
3.61957e-07
1.42904e-07
7.23655e-08
4.13934e-08
2.47465e-08
1.47621e-08
8.94372e-09
5.53231e-09
3.38899e-09
2.079e-09
1.27515e-09
7.73105e-10
4.6993e-10
2.83222e-10
1.71519e-10
1.02639e-10
6.24724e-11
3.8579e-11
2.47238e-11
1.65087e-11
1.16781e-11
9.03442e-12
7.72082e-12
8.56777e-12
9.95588e-12
9.26716e-12
8.55124e-12
8.37808e-12
8.28689e-12
9.44999e-12
1.40154e-11
3.50083e-11
4.23044e-10
1.11115e-08
2.1285e-07
2.19926e-06
1.34516e-05
6.2753e-05
0.000262833
0.00104365
0.0036139
0.00931108
0.0171294
0.024856
0.0308601
0.0346776
0.0365047
0.0367505
0.0358592
0.034219
0.0321325
0.0298211
0.0274382
0.0250875
0.022835
0.0207207
0.0187682
0.0169892
0.0153889
0.0139702
0.0127203
0.0116127
1.14335e-07
1.22801e-06
1.51156e-06
1.95318e-06
1.46141e-06
8.53123e-07
3.44434e-07
1.39316e-07
7.16202e-08
4.11518e-08
2.4709e-08
1.47606e-08
8.94626e-09
5.53553e-09
3.38922e-09
2.07929e-09
1.27512e-09
7.73143e-10
4.69392e-10
2.82858e-10
1.71418e-10
1.02655e-10
6.25181e-11
3.85509e-11
2.47306e-11
1.65368e-11
1.17166e-11
9.04837e-12
7.63858e-12
7.98513e-12
9.56132e-12
9.42007e-12
8.69285e-12
8.52091e-12
8.32682e-12
9.1307e-12
1.30655e-11
2.88622e-11
2.53688e-10
7.32478e-09
1.75118e-07
2.01051e-06
1.27181e-05
5.96836e-05
0.000248202
0.000983111
0.00346245
0.00914492
0.0171662
0.0252901
0.031735
0.0359095
0.0379839
0.038369
0.0375276
0.0358708
0.033723
0.0313213
0.028833
0.0263689
0.0240014
0.0217753
0.0197158
0.017836
0.0161416
0.0146345
0.0133166
0.0121748
0.0111905
9.60076e-08
1.06016e-06
1.38604e-06
1.8271e-06
1.37985e-06
8.00781e-07
3.27413e-07
1.36284e-07
7.10141e-08
4.09435e-08
2.46709e-08
1.47574e-08
8.95114e-09
5.54109e-09
3.39122e-09
2.07993e-09
1.27528e-09
7.73452e-10
4.69267e-10
2.82648e-10
1.71253e-10
1.02649e-10
6.25916e-11
3.85329e-11
2.47204e-11
1.65593e-11
1.17627e-11
9.07769e-12
7.61866e-12
7.53687e-12
9.07769e-12
9.51054e-12
8.85164e-12
8.66838e-12
8.41663e-12
8.93493e-12
1.21736e-11
2.53847e-11
1.63399e-10
4.67278e-09
1.45489e-07
1.86061e-06
1.21674e-05
5.74929e-05
0.000237414
0.000933547
0.00332508
0.00898252
0.0171868
0.0257053
0.0326126
0.0371708
0.0395172
0.0400613
0.0392826
0.0376159
0.0354075
0.0329139
0.0303151
0.0277324
0.0252442
0.0228992
0.0207263
0.0187393
0.016945
0.0153451
0.0139396
0.0127307
0.0117058
0.0108561
8.03267e-08
9.20911e-07
1.28725e-06
1.72079e-06
1.30291e-06
7.47715e-07
3.11185e-07
1.33699e-07
7.05188e-08
4.07772e-08
2.46389e-08
1.4755e-08
8.95724e-09
5.54769e-09
3.39404e-09
2.08117e-09