/*--------------------------------*- C++ -*----------------------------------*\
| =========                 |                                                 |
| \\      /  F ield         | OpenFOAM: The Open Source CFD Toolbox           |
|  \\    /   O peration     | Version:  v2012                                 |
|   \\  /    A nd           | Website:  www.openfoam.com                      |
|    \\/     M anipulation  |                                                 |
\*---------------------------------------------------------------------------*/
FoamFile
{
    version     2.0;
    format      ascii;
    class       volScalarField;
    location    "12000";
    object      nut;
}
// * * * * * * * * * * * * * * * * * * * * * * * * * * * * * * * * * * * * * //

dimensions      [0 2 -1 0 0 0 0];


internalField   nonuniform List<scalar> 
27324
(
0.000818055
0.000778067
0.000887369
0.000735063
0.000853996
0.00097258
0.000687479
0.000815268
0.000942622
0.000975969
0.000637752
0.000770974
0.00090301
0.000933841
0.000797106
0.000586774
0.000722257
0.000854559
0.000877298
0.000725438
0.000443745
0.000536902
0.000669168
0.000796466
0.000807522
0.000643061
0.000366556
0.000167432
0.000490141
0.000613005
0.000727778
0.000723723
0.000553387
0.000295
0.000119525
4.43404e-05
0.00043922
0.000554798
0.000650767
0.000627308
0.000461151
0.000230225
8.26775e-05
2.62323e-05
8.58118e-06
0.000364513
0.00048761
0.000557842
0.000523248
0.000374274
0.000176147
5.54168e-05
1.53284e-05
4.70577e-06
1.81942e-06
0.000252975
0.000412171
0.000470827
0.000429985
0.000302945
0.000139217
3.7179e-05
9.1414e-06
2.83375e-06
1.19615e-06
6.23748e-07
0.000164277
0.000313689
0.000405604
0.000360553
0.000248879
0.000115782
2.88694e-05
5.84673e-06
1.97409e-06
9.236e-07
5.17899e-07
3.16221e-07
0.000143595
0.000228903
0.000344101
0.000328435
0.000216659
9.97918e-05
2.56835e-05
4.71787e-06
1.57371e-06
8.05151e-07
4.65693e-07
2.89707e-07
1.84187e-07
0.000133927
0.000204556
0.000284647
0.000310993
0.000213023
9.30153e-05
2.36099e-05
4.52056e-06
1.44099e-06
7.44601e-07
4.38264e-07
2.71956e-07
1.73184e-07
1.10995e-07
0.000125987
0.000193509
0.00025927
0.000293091
0.000225567
9.97189e-05
2.35996e-05
4.38177e-06
1.42005e-06
7.18031e-07
4.20236e-07
2.60645e-07
1.63874e-07
1.05191e-07
6.66927e-08
0.000118461
0.000184553
0.000245017
0.00027462
0.000242831
0.000116187
2.74079e-05
4.6062e-06
1.39423e-06
7.11986e-07
4.0973e-07
2.52393e-07
1.57467e-07
9.97632e-08
6.32881e-08
3.9698e-08
0.000111292
0.000175817
0.000232801
0.000260289
0.000237978
0.000136431
3.43502e-05
5.60677e-06
1.47125e-06
7.02514e-07
4.05808e-07
2.4683e-07
1.52665e-07
9.57823e-08
5.99345e-08
3.77633e-08
2.35374e-08
0.000104485
0.000167487
0.00022152
0.000247409
0.000227109
0.00013754
4.22565e-05
7.38923e-06
1.74789e-06
7.46611e-07
4.0403e-07
2.41987e-07
1.49033e-07
9.28298e-08
5.71884e-08
3.57631e-08
2.243e-08
1.3874e-08
9.81698e-05
0.000159536
0.000211178
0.000235796
0.000215263
0.00013083
4.31662e-05
9.62935e-06
2.22286e-06
8.77578e-07
4.35362e-07
2.44487e-07
1.46603e-07
8.92955e-08
5.5125e-08
3.38352e-08
2.11483e-08
1.32361e-08
7.96865e-09
9.23573e-05
0.00015221
0.000201618
0.00022524
0.000204087
0.000122396
4.13924e-05
1.01663e-05
2.84005e-06
1.08898e-06
5.11102e-07
2.68024e-07
1.51483e-07
8.88748e-08
5.30818e-08
3.2089e-08
1.96421e-08
1.23018e-08
7.36095e-09
4.43589e-09
8.69932e-05
0.000145536
0.000192814
0.000215331
0.000193427
0.000113969
3.89805e-05
1.01074e-05
3.06013e-06
1.36134e-06
6.27743e-07
3.14703e-07
1.69036e-07
9.44928e-08
5.41842e-08
3.17865e-08
1.89301e-08
1.14157e-08
6.84936e-09
4.12723e-09
2.45514e-09
8.20153e-05
0.000139393
0.000184496
0.000205832
0.00018303
0.000105636
3.61406e-05
9.84488e-06
3.07838e-06
1.48154e-06
7.78695e-07
3.82537e-07
1.98521e-07
1.06961e-07
5.9027e-08
3.34562e-08
1.93832e-08
1.14759e-08
6.84486e-09
4.08514e-09
2.48187e-09
1.52438e-09
7.73708e-05
0.000133705
0.000176323
0.000196391
0.000172741
9.75883e-05
3.29861e-05
9.30612e-06
3.05587e-06
1.47721e-06
8.67741e-07
4.68509e-07
2.38603e-07
1.25463e-07
6.72654e-08
3.70141e-08
2.0818e-08
1.2039e-08
7.08193e-09
4.2009e-09
2.51816e-09
1.57162e-09
1.0326e-09
7.29376e-05
0.000128412
0.000168133
0.000186736
0.000162476
8.98352e-05
2.98133e-05
8.54367e-06
2.9671e-06
1.47419e-06
8.74868e-07
5.33983e-07
2.87224e-07
1.50142e-07
7.88572e-08
4.23602e-08
2.31784e-08
1.30457e-08
7.53874e-09
4.43756e-09
2.6511e-09
1.62435e-09
1.06655e-09
7.49659e-10
6.86298e-05
0.000123365
0.000159791
0.000176798
0.000152374
8.25287e-05
2.67064e-05
7.7199e-06
2.81872e-06
1.45713e-06
8.7306e-07
5.4885e-07
3.30438e-07
1.77929e-07
9.30067e-08
4.90383e-08
2.6254e-08
1.44352e-08
8.17191e-09
4.74503e-09
2.80606e-09
1.70227e-09
1.08152e-09
7.64609e-10
5.85414e-10
6.43286e-05
0.000118357
0.000151215
0.000166649
0.000142587
7.60654e-05
2.38298e-05
6.88797e-06
2.65588e-06
1.42727e-06
8.68357e-07
5.42034e-07
3.48113e-07
2.05377e-07
1.08841e-07
5.68112e-08
2.98758e-08
1.60783e-08
8.90015e-09
5.08237e-09
2.97302e-09
1.78626e-09
1.11777e-09
7.67088e-10
5.9113e-10
4.95696e-10
6.00216e-05
0.000113213
0.000142414
0.000156498
0.000133292
7.0372e-05
2.15827e-05
6.12345e-06
2.49283e-06
1.3942e-06
8.5896e-07
5.39875e-07
3.4533e-07
2.23019e-07
1.25017e-07
6.56834e-08
3.41071e-08
1.80036e-08
9.74666e-09
5.45793e-09
3.15058e-09
1.87576e-09
1.16061e-09
7.73086e-10
5.87695e-10
4.9511e-10
4.78342e-10
5.57013e-05
0.000107802
0.000133416
0.000146504
0.000124581
6.53421e-05
1.98399e-05
5.58272e-06
2.34707e-06
1.36046e-06
8.47661e-07
5.35888e-07
3.42906e-07
2.24717e-07
1.38852e-07
7.47455e-08
3.88979e-08
2.02403e-08
1.07396e-08
5.88326e-09
3.34375e-09
1.96971e-09
1.20717e-09
7.87001e-10
5.84107e-10
4.90595e-10
4.57007e-10
5.98411e-10
5.14286e-05
0.000102115
0.000124358
0.000136871
0.000116455
6.0819e-05
1.84697e-05
5.21091e-06
2.24844e-06
1.32905e-06
8.35204e-07
5.30577e-07
3.40829e-07
2.20853e-07
1.44109e-07
8.38442e-08
4.42208e-08
2.27916e-08
1.18911e-08
6.37665e-09
3.55732e-09
2.06998e-09
1.25626e-09
8.08851e-10
5.80345e-10
4.82923e-10
4.43594e-10
5.17955e-10
1.11416e-09
4.73126e-05
9.62553e-05
0.000115584
0.000127943
0.000109021
5.67403e-05
1.73484e-05
4.95925e-06
2.18333e-06
1.30648e-06
8.22487e-07
5.24466e-07
3.37994e-07
2.19279e-07
1.42394e-07
8.98364e-08
4.94818e-08
2.565e-08
1.32025e-08
6.95128e-09
3.79853e-09
2.17819e-09
1.30875e-09
8.34002e-10
5.80116e-10
4.73788e-10
4.3445e-10
4.66058e-10
8.48615e-10
2.95793e-09
4.34332e-05
9.0422e-05
0.000107348
0.000119871
0.000102256
5.3025e-05
1.63993e-05
4.78461e-06
2.14102e-06
1.29067e-06
8.12504e-07
5.18041e-07
3.34766e-07
2.17645e-07
1.39865e-07
9.06219e-08
5.40593e-08
2.86413e-08
1.46797e-08
7.61236e-09
4.07573e-09
2.29673e-09
1.36449e-09
8.61084e-10
5.88454e-10
4.64492e-10
4.24602e-10
4.33054e-10
6.71594e-10
2.08347e-09
9.42576e-09
3.989e-05
8.48318e-05
9.97945e-05
0.000112631
9.6031e-05
4.96264e-05
1.5539e-05
4.65631e-06
2.11263e-06
1.27984e-06
8.05213e-07
5.12885e-07
3.31334e-07
2.15823e-07
1.38776e-07
8.89233e-08
5.64362e-08
3.14576e-08
1.62786e-08
8.36006e-09
4.39636e-09
2.42924e-09
1.42389e-09
8.89698e-10
6.01023e-10
4.56905e-10
4.1231e-10
4.11601e-10
5.54746e-10
1.48822e-09
6.5131e-09
3.20073e-08
3.66714e-05
7.96893e-05
9.29347e-05
0.000106072
9.02201e-05
4.64872e-05
1.47536e-05
4.54134e-06
2.0922e-06
1.27218e-06
8.0045e-07
5.09135e-07
3.28487e-07
2.13882e-07
1.37657e-07
8.77562e-08
5.61494e-08
3.36964e-08
1.788e-08
9.18005e-09
4.76391e-09
2.58044e-09
1.48822e-09
9.2035e-10
6.15515e-10
4.55148e-10
3.99827e-10
3.96186e-10
4.78524e-10
1.08618e-09
4.49042e-09
2.23066e-08
1.09918e-07
3.37838e-05
7.51759e-05
8.68503e-05
0.000100037
8.46922e-05
4.35716e-05
1.40313e-05
4.43474e-06
2.07318e-06
1.26645e-06
7.97589e-07
5.06858e-07
3.26372e-07
2.12205e-07
1.36482e-07
8.7071e-08
5.47976e-08
3.4635e-08
1.93541e-08
1.00653e-08
5.17421e-09
2.7549e-09
1.55917e-09
9.52882e-10
6.31001e-10
4.59362e-10
3.88087e-10
3.82162e-10
4.29129e-10
8.17565e-10
3.09865e-09
1.54221e-08
7.79293e-08
3.74029e-07
3.11817e-05
7.12461e-05
8.13679e-05
9.42988e-05
7.94083e-05
4.08233e-05
1.33613e-05
4.33422e-06
2.05525e-06
1.26119e-06
7.95891e-07
5.05745e-07
3.25106e-07
2.109e-07
1.35416e-07
8.63841e-08
5.41578e-08
3.42678e-08
2.04508e-08
1.09109e-08
5.61865e-09
2.95406e-09
1.63936e-09
9.87625e-10
6.47462e-10
4.66311e-10
3.78615e-10
3.67018e-10
3.96819e-10
6.39904e-10
2.15095e-09
1.05818e-08
5.4722e-08
2.70379e-07
1.25519e-06
2.87883e-05
6.77136e-05
7.61815e-05
8.86161e-05
7.42511e-05
3.8228e-05
1.27229e-05
4.23814e-06
2.03846e-06
1.25661e-06
7.94862e-07
5.05343e-07
3.24584e-07
2.10085e-07
1.34528e-07
8.57391e-08
5.37362e-08
3.34231e-08
2.08576e-08
1.16788e-08
6.08806e-09
3.17483e-09
1.7315e-09
1.02526e-09
6.64983e-10
4.74505e-10
3.75064e-10
3.52662e-10
3.74421e-10
5.2378e-10
1.51137e-09
7.21623e-09
3.80473e-08
1.93502e-07
9.26842e-07
4.10542e-06
2.65064e-05
6.43198e-05
7.10761e-05
8.2896e-05
6.92502e-05
3.57566e-05
1.21113e-05
4.14312e-06
2.02282e-06
1.25244e-06
7.94275e-07
5.05264e-07
3.24549e-07
2.09757e-07
1.33919e-07
8.51691e-08
5.33545e-08
3.3064e-08
2.06197e-08
1.2244e-08
6.54195e-09
3.41415e-09
1.83664e-09
1.06694e-09
6.8353e-10
4.83206e-10
3.76346e-10
3.39594e-10
3.56445e-10
4.48482e-10
1.0847e-09
4.90039e-09
2.62011e-08
1.37046e-07
6.77351e-07
3.10039e-06
1.31489e-05
2.42776e-05
6.0886e-05
6.59724e-05
7.72092e-05
6.44936e-05
3.33909e-05
1.14939e-05
4.04967e-06
2.00714e-06
1.24851e-06
7.93902e-07
5.0539e-07
3.2474e-07
2.09795e-07
1.33621e-07
8.47316e-08
5.30037e-08
3.28269e-08
2.01417e-08
1.24738e-08
6.93378e-09
3.66784e-09
1.9528e-09
1.11432e-09
7.03185e-10
4.92523e-10
3.79852e-10
3.28995e-10
3.39056e-10
3.99623e-10
8.0295e-10
3.32659e-09
1.78726e-08
9.60971e-08
4.89509e-07
2.31954e-06
1.01596e-05
4.13571e-05
2.21039e-05
5.72609e-05
6.09259e-05
7.17343e-05
6.00282e-05
3.11572e-05
1.08506e-05
3.94604e-06
1.99107e-06
1.24385e-06
7.93587e-07
5.05608e-07
3.25094e-07
2.09979e-07
1.33598e-07
8.44734e-08
5.27113e-08
3.26227e-08
1.99412e-08
1.23563e-08
7.23183e-09
3.91431e-09
2.07906e-09
1.16828e-09
7.2447e-10
5.02457e-10
3.84377e-10
3.23764e-10
3.23279e-10
3.67063e-10
6.19239e-10
2.26693e-09
1.2089e-08
6.66988e-08
3.50111e-07
1.71593e-06
7.78819e-06
3.26971e-05
0.000127333
2.00146e-05
5.34434e-05
5.59583e-05
6.65668e-05
5.58929e-05
2.90765e-05
1.02186e-05
3.82552e-06
1.9717e-06
1.23812e-06
7.92717e-07
5.05849e-07
3.2552e-07
2.10257e-07
1.3367e-07
8.43831e-08
5.2507e-08
3.24404e-08
1.98286e-08
1.20949e-08
7.3695e-09
4.11698e-09
2.21211e-09
1.22795e-09
7.48072e-10
5.12908e-10
3.89275e-10
3.22993e-10
3.09224e-10
3.43507e-10
5.00672e-10
1.56166e-09
8.11835e-09
4.58266e-08
2.47821e-07
1.2563e-06
5.90764e-06
2.56843e-05
0.000103003
0.000380607
1.80642e-05
4.95328e-05
5.13258e-05
6.1921e-05
5.21118e-05
2.71835e-05
9.6263e-06
3.70276e-06
1.94741e-06
1.23063e-06
7.91115e-07
5.05763e-07
3.25971e-07
2.10564e-07
1.33817e-07
8.43689e-08
5.23932e-08
3.22896e-08
1.97336e-08
1.19659e-08
7.32902e-09
4.28114e-09
2.34614e-09
1.29276e-09
7.7484e-10
5.23928e-10
3.9459e-10
3.24457e-10
2.97554e-10
3.23848e-10
4.24574e-10
1.09758e-09
5.4216e-09
3.11527e-08
1.73692e-07
9.10117e-07
4.43887e-06
1.9984e-05
8.28902e-05
0.000315013
0.00109069
1.62982e-05
4.57688e-05
4.71967e-05
5.79048e-05
4.86972e-05
2.54867e-05
9.12446e-06
3.58565e-06
1.92027e-06
1.22072e-06
7.88383e-07
5.05267e-07
3.26224e-07
2.10865e-07
1.33982e-07
8.4397e-08
5.23605e-08
3.21808e-08
1.96453e-08
1.19069e-08
7.19398e-09
4.3678e-09
2.45519e-09
1.36206e-09
8.04829e-10
5.3583e-10
4.00321e-10
3.26947e-10
2.90346e-10
3.06244e-10
3.75522e-10
7.96155e-10
3.61066e-09
2.0967e-08
1.20523e-07
6.52675e-07
3.30191e-06
1.54218e-05
6.61389e-05
0.000259604
0.000924695
0.00291894
1.47705e-05
4.22852e-05
4.36059e-05
5.4406e-05
4.55965e-05
2.39204e-05
8.7121e-06
3.4909e-06
1.89192e-06
1.20916e-06
7.84347e-07
5.0412e-07
3.26229e-07
2.11034e-07
1.34138e-07
8.44386e-08
5.23397e-08
3.21134e-08
1.95683e-08
1.18519e-08
7.08814e-09
4.36657e-09
2.54396e-09
1.43261e-09
8.37712e-10
5.49096e-10
4.06329e-10
3.29763e-10
2.87634e-10
2.91012e-10
3.42708e-10
6.02944e-10
2.4088e-09
1.39701e-08
8.28171e-08
4.63345e-07
2.43202e-06
1.17963e-05
5.24094e-05
0.000212294
0.000780852
0.00254561
0.00689072
1.34386e-05
3.91767e-05
4.04865e-05
5.12815e-05
4.27197e-05
2.24575e-05
8.35108e-06
3.41811e-06
1.86674e-06
1.19669e-06
7.79324e-07
5.0222e-07
3.25811e-07
2.11047e-07
1.34215e-07
8.44712e-08
5.23263e-08
3.20819e-08
1.95056e-08
1.17972e-08
7.05063e-09
4.3014e-09
2.59776e-09
1.49805e-09
8.7285e-10
5.64137e-10
4.12656e-10
3.32869e-10
2.87565e-10
2.78149e-10
3.18718e-10
4.80403e-10
1.62169e-09
9.22157e-09
5.63226e-08
3.25792e-07
1.77342e-06
8.94413e-06
4.12212e-05
0.000172584
0.000654524
0.00221078
0.0062201
0.0134193
1.22732e-05
3.65053e-05
3.77491e-05
4.84104e-05
4.00199e-05
2.10834e-05
8.0179e-06
3.3527e-06
1.84569e-06
1.18516e-06
7.73709e-07
4.99785e-07
3.24942e-07
2.10799e-07
1.342e-07
8.44701e-08
5.23156e-08
3.20621e-08
1.94615e-08
1.17447e-08
7.0188e-09
4.20909e-09
2.61058e-09
1.54367e-09
9.09914e-10
5.80699e-10
4.19417e-10
3.36283e-10
2.88765e-10
2.68525e-10
2.9876e-10
4.03259e-10
1.11277e-09
6.03997e-09
3.78977e-08
2.26865e-07
1.28079e-06
6.7201e-06
3.21843e-05
0.000139419
0.00054565
0.00190558
0.00559144
0.0125436
0.0215683
1.12201e-05
3.40879e-05
3.52586e-05
4.57212e-05
3.7458e-05
1.97832e-05
7.70523e-06
3.28992e-06
1.8256e-06
1.1748e-06
7.68524e-07
4.97028e-07
3.23754e-07
2.10265e-07
1.34049e-07
8.44292e-08
5.22978e-08
3.20405e-08
1.94347e-08
1.16982e-08
6.98569e-09
4.1715e-09
2.58448e-09
1.57688e-09
9.46518e-10
5.98626e-10
4.26884e-10
3.39872e-10
2.90406e-10
2.63527e-10
2.8194e-10
3.54396e-10
7.88667e-10
3.93653e-09
2.52179e-08
1.56468e-07
9.16196e-07
5.0043e-06
2.49379e-05
0.000111949
0.000452285
0.00163335
0.00498882
0.0116935
0.0206492
0.0312848
1.02343e-05
3.17702e-05
3.28578e-05
4.31117e-05
3.50369e-05
1.85364e-05
7.40509e-06
3.22932e-06
1.80636e-06
1.16552e-06
7.63962e-07
4.94599e-07
3.22368e-07
2.09543e-07
1.33724e-07
8.43287e-08
5.22651e-08
3.20227e-08
1.94206e-08
1.16613e-08
6.95515e-09
4.14942e-09
2.53624e-09
1.58865e-09
9.77474e-10
6.17555e-10
4.35275e-10
3.43621e-10
2.92274e-10
2.61836e-10
2.67714e-10
3.22297e-10
5.85033e-10
2.56688e-09
1.65794e-08
1.06864e-07
6.49432e-07
3.69316e-06
1.91789e-05
8.93413e-05
0.000372899
0.00139186
0.00442551
0.0108352
0.0197581
0.0303191
0.0439006
9.29439e-06
2.9466e-05
3.05733e-05
4.06518e-05
3.27457e-05
1.73386e-05
7.10921e-06
3.16922e-06
1.78744e-06
1.15671e-06
7.5975e-07
4.92658e-07
3.21162e-07
2.08708e-07
1.33295e-07
8.41294e-08
5.22057e-08
3.2e-08
1.94077e-08
1.16364e-08
6.93019e-09
4.13028e-09
2.4951e-09
1.5817e-09
9.95237e-10
6.37303e-10
4.44417e-10
3.4757e-10
2.94426e-10
2.61826e-10
2.56001e-10
2.99208e-10
4.59167e-10
1.68664e-09
1.07697e-08
7.22038e-08
4.56312e-07
2.70201e-06
1.46371e-05
7.08817e-05
0.00030584
0.00117966
0.00390177
0.00999379
0.0188297
0.0294047
0.0430044
0.0572009
8.38265e-06
2.72024e-05
2.84793e-05
3.83728e-05
3.06129e-05
1.61719e-05
6.80412e-06
3.10715e-06
1.76778e-06
1.14794e-06
7.55699e-07
4.91033e-07
3.20228e-07
2.07981e-07
1.32816e-07
8.38687e-08
5.2122e-08
3.19681e-08
1.93973e-08
1.16225e-08
6.91233e-09
4.11232e-09
2.47947e-09
1.55856e-09
1.00452e-09
6.56222e-10
4.54187e-10
3.51903e-10
2.96773e-10
2.62653e-10
2.48023e-10
2.80501e-10
3.82288e-10
1.12911e-09
6.9136e-09
4.82285e-08
3.17729e-07
1.96063e-06
1.10875e-05
5.59047e-05
0.000249641
0.000994603
0.00341974
0.00917029
0.0179001
0.0284299
0.0421704
0.0566799
0.0673651
7.53582e-06
2.50122e-05
2.66032e-05
3.62563e-05
2.85993e-05
1.50585e-05
6.47919e-06
3.03701e-06
1.74618e-06
1.13862e-06
7.51632e-07
4.89643e-07
3.19485e-07
2.0742e-07
1.32419e-07
8.35917e-08
5.20213e-08
3.19283e-08
1.93864e-08
1.16102e-08
6.90221e-09
4.09724e-09
2.46949e-09
1.52806e-09
1.00191e-09
6.70696e-10
4.64467e-10
3.56755e-10
2.99191e-10
2.63761e-10
2.43864e-10
2.65122e-10
3.35009e-10
7.80976e-10
4.39907e-09
3.17977e-08
2.19214e-07
1.41111e-06
8.33855e-06
4.38427e-05
0.000202839
0.000834667
0.00297983
0.00837069
0.0169661
0.0274536
0.0412408
0.0562336
0.0673003
0.0734928
6.79265e-06
2.30454e-05
2.50153e-05
3.43199e-05
2.66938e-05
1.40133e-05
6.15583e-06
2.95476e-06
1.72096e-06
1.12806e-06
7.47217e-07
4.88324e-07
3.18899e-07
2.06972e-07
1.3212e-07
8.33647e-08
5.19117e-08
3.18834e-08
1.93754e-08
1.16028e-08
6.8997e-09
4.08645e-09
2.4603e-09
1.50796e-09
9.90931e-10
6.75466e-10
4.75089e-10
3.62038e-10
3.01713e-10
2.65115e-10
2.42285e-10
2.52312e-10
3.04819e-10
5.68109e-10
2.78844e-09
2.06741e-08
1.49695e-07
1.00778e-06
6.22703e-06
3.41985e-05
0.000164137
0.00069746
0.0025825
0.00759909
0.0160324
0.0264691
0.0402927
0.0556733
0.0673545
0.0737637
0.0763221
6.15788e-06
2.13279e-05
2.36826e-05
3.25216e-05
2.48603e-05
1.30883e-05
5.85171e-06
2.86762e-06
1.69059e-06
1.11558e-06
7.42081e-07
4.86827e-07
3.1835e-07
2.06615e-07
1.31874e-07
8.31925e-08
5.18129e-08
3.1833e-08
1.93631e-08
1.15961e-08
6.89699e-09
4.08013e-09
2.45208e-09
1.49965e-09
9.7357e-10
6.74577e-10
4.85131e-10
3.67519e-10
3.04425e-10
2.66694e-10
2.42028e-10
2.4179e-10
2.83888e-10
4.40122e-10
1.7775e-09
1.32375e-08
1.01064e-07
7.1395e-07
4.62022e-06
2.65355e-05
0.000132345
0.000580721
0.00222684
0.00686136
0.0151016
0.0254814
0.0393174
0.055076
0.0673114
0.074189
0.0768298
0.0765586
5.61423e-06
1.98473e-05
2.25233e-05
3.07717e-05
2.30889e-05
1.22447e-05
5.60065e-06
2.78179e-06
1.65761e-06
1.10083e-06
7.35861e-07
4.84913e-07
3.17691e-07
2.0628e-07
1.31654e-07
8.30341e-08
5.17173e-08
3.17768e-08
1.93453e-08
1.15885e-08
6.89354e-09
4.07742e-09
2.4452e-09
1.49389e-09
9.53778e-10
6.66621e-10
4.92263e-10
3.73351e-10
3.07461e-10
2.68386e-10
2.4243e-10
2.34886e-10
2.67618e-10
3.64134e-10
1.15494e-09
8.34725e-09
6.73141e-08
5.01611e-07
3.40649e-06
2.04929e-05
0.000106363
0.000482175
0.00191167
0.00616169
0.0141769
0.0244914
0.0383215
0.0544296
0.0672478
0.0745321
0.0775129
0.0772362
0.0747436
5.1192e-06
1.85433e-05
2.14749e-05
2.90182e-05
2.13781e-05
1.14736e-05
5.38642e-06
2.71226e-06
1.62407e-06
1.08473e-06
7.28363e-07
4.82321e-07
3.16789e-07
2.05886e-07
1.31425e-07
8.28728e-08
5.16263e-08
3.17126e-08
1.93197e-08
1.15775e-08
6.88939e-09
4.07561e-09
2.43971e-09
1.48818e-09
9.40662e-10
6.54535e-10
4.91886e-10
3.79289e-10
3.10859e-10
2.70134e-10
2.43162e-10
2.31188e-10
2.5424e-10
3.18995e-10
7.79458e-10
5.18944e-09
4.41523e-08
3.49081e-07
2.49689e-06
1.57568e-05
8.52599e-05
0.000399511
0.0016352
0.00550454
0.0132612
0.0235023
0.0373073
0.053737
0.0671519
0.0748693
0.0781251
0.0780989
0.0755404
0.0713313
4.64836e-06
1.72839e-05
2.04221e-05
2.72349e-05
1.97299e-05
1.07642e-05
5.18735e-06
2.65132e-06
1.59547e-06
1.06808e-06
7.20227e-07
4.78912e-07
3.15483e-07
2.05376e-07
1.31163e-07
8.26971e-08
5.15322e-08
3.16435e-08
1.92847e-08
1.15627e-08
6.88402e-09
4.07216e-09
2.43614e-09
1.48243e-09
9.34847e-10
6.40484e-10
4.87618e-10
3.8497e-10
3.14383e-10
2.71946e-10
2.44195e-10
2.29665e-10
2.43119e-10
2.9155e-10
5.56577e-10
3.19658e-09
2.84503e-08
2.40324e-07
1.81884e-06
1.20709e-05
6.81967e-05
0.000330652
0.00139486
0.00489378
0.0123591
0.0225159
0.0362777
0.0529972
0.0670254
0.0751902
0.0787401
0.0789004
0.0765236
0.0722044
0.0667327
4.20706e-06
1.60465e-05
1.93399e-05
2.5433e-05
1.81552e-05
1.01032e-05
5.00171e-06
2.59242e-06
1.56975e-06
1.05344e-06
7.119e-07
4.75104e-07
3.13695e-07
2.04663e-07
1.30855e-07
8.25173e-08
5.14294e-08
3.15682e-08
1.92388e-08
1.15421e-08
6.87692e-09
4.06783e-09
2.43423e-09
1.47713e-09
9.31126e-10
6.26621e-10
4.78641e-10
3.89028e-10
3.18009e-10
2.73934e-10
2.45342e-10
2.29207e-10
2.34301e-10
2.7323e-10
4.25809e-10
1.97003e-09
1.79818e-08
1.6329e-07
1.31625e-06
9.21633e-06
5.44775e-05
0.000273571
0.00118802
0.00433189
0.0114762
0.0215314
0.0352334
0.0522195
0.0668662
0.0754967
0.0793483
0.0797104
0.077454
0.073259
0.0676446
0.0613267
3.79606e-06
1.48623e-05
1.8256e-05
2.36708e-05
1.66786e-05
9.48452e-06
4.82208e-06
2.53459e-06
1.54487e-06
1.04013e-06
7.0491e-07
4.71184e-07
3.11692e-07
2.03678e-07
1.30459e-07
8.23309e-08
5.1322e-08
3.14875e-08
1.91861e-08
1.15109e-08
6.86732e-09
4.06324e-09
2.43305e-09
1.47275e-09
9.27932e-10
6.16288e-10
4.66889e-10
3.88852e-10
3.21749e-10
2.76169e-10
2.46511e-10
2.29323e-10
2.28379e-10
2.59317e-10
3.51001e-10
1.23485e-09
1.11417e-08
1.09236e-07
9.45005e-07
7.01672e-06
4.34907e-05
0.000226515
0.00101142
0.0038212
0.0106174
0.0205524
0.0341782
0.0514136
0.0666743
0.0757877
0.0799517
0.0805203
0.0783973
0.0742684
0.0687287
0.0622452
0.0554546
3.42804e-06
1.37529e-05
1.71585e-05
2.19434e-05
1.53083e-05
8.89988e-06
4.64609e-06
2.47512e-06
1.52011e-06
1.02751e-06
6.98935e-07
4.68052e-07
3.09634e-07
2.02579e-07
1.29916e-07
8.21209e-08
5.121e-08
3.14123e-08
1.91297e-08
1.14748e-08
6.85523e-09
4.05811e-09
2.43103e-09
1.46989e-09
9.25054e-10
6.11927e-10
4.5468e-10
3.83407e-10
3.25489e-10
2.78662e-10
2.47709e-10
2.29953e-10
2.24974e-10
2.47791e-10
3.08136e-10
8.06331e-10
6.77133e-09
7.17539e-08
6.72022e-07
5.32552e-06
3.47337e-05
0.000187867
0.000861917
0.00336225
0.00978898
0.0195822
0.0331163
0.0505811
0.0664497
0.0760626
0.0805492
0.0813316
0.0793455
0.075294
0.0697741
0.0633235
0.0563532
0.0494101
3.10675e-06
1.27621e-05
1.60648e-05
2.02418e-05
1.40441e-05
8.35494e-06
4.46562e-06
2.41356e-06
1.4943e-06
1.01525e-06
6.93588e-07
4.65523e-07
3.08015e-07
2.01477e-07
1.2931e-07
8.18539e-08
5.10935e-08
3.13417e-08
1.90779e-08
1.14384e-08
6.84013e-09
4.05285e-09
2.42884e-09
1.46841e-09
9.22486e-10
6.09696e-10
4.43568e-10
3.74699e-10
3.28427e-10
2.81224e-10
2.48978e-10
2.30796e-10
2.23198e-10
2.38193e-10
2.82635e-10
5.62117e-10
4.05567e-09
4.61337e-08
4.72362e-07
4.02767e-06
2.77701e-05
0.000156275
0.000736134
0.00295498
0.00899675
0.0186253
0.0320516
0.0497231
0.0661907
0.0763207
0.0811399
0.0821436
0.0803
0.0763282
0.0708379
0.0643686
0.0573974
0.0502684
0.0434323
2.82129e-06
1.18708e-05
1.49822e-05
1.85883e-05
1.28967e-05
7.86176e-06
4.28727e-06
2.34544e-06
1.46722e-06
1.00267e-06
6.88535e-07
4.63383e-07
3.06735e-07
2.0062e-07
1.28713e-07
8.15569e-08
5.09705e-08
3.12755e-08
1.90356e-08
1.14069e-08
6.82223e-09
4.04714e-09
2.42665e-09
1.46734e-09
9.20316e-10
6.07946e-10
4.3392e-10
3.63482e-10
3.28954e-10
2.83814e-10
2.50409e-10
2.31621e-10
2.22387e-10
2.30801e-10
2.66039e-10
4.2553e-10
2.41589e-09
2.89716e-08
3.27226e-07
3.03246e-06
2.22421e-05
0.000130536
0.000631015
0.00259749
0.00824744
0.0176855
0.0309894
0.0488408
0.0658953
0.0765609
0.0817233
0.0829552
0.0812601
0.0773725
0.0719133
0.0654335
0.0584132
0.0512573
0.0442358
0.0377038
2.55872e-06
1.10339e-05
1.39067e-05
1.6987e-05
1.18581e-05
7.42223e-06
4.12315e-06
2.27537e-06
1.43774e-06
9.89547e-07
6.83324e-07
4.61366e-07
3.05684e-07
1.99989e-07
1.28239e-07
8.12525e-08
5.08471e-08
3.1213e-08
1.89953e-08
1.13809e-08
6.80411e-09
4.04041e-09
2.42426e-09
1.46596e-09
9.18779e-10
6.06258e-10
4.29187e-10
3.51965e-10
3.2468e-10
2.86579e-10
2.52053e-10
2.32379e-10
2.2237e-10
2.25703e-10
2.53555e-10
3.49118e-10
1.45828e-09
1.77411e-08
2.22807e-07
2.26901e-06
1.78527e-05
0.000109643
0.000543611
0.0022873
0.00754651
0.0167683
0.0299341
0.0479372
0.0655611
0.076782
0.0822986
0.0837661
0.0822247
0.0784262
0.0730013
0.0665119
0.0594493
0.0522219
0.0451548
0.0384435
0.0323539
2.30661e-06
1.02225e-05
1.28375e-05
1.5455e-05
1.09161e-05
7.02396e-06
3.97068e-06
2.21048e-06
1.40767e-06
9.75634e-07
6.77802e-07
4.5921e-07
3.04695e-07
1.9945e-07
1.27878e-07
8.09945e-08
5.07055e-08
3.11517e-08
1.89578e-08
1.13595e-08
6.78733e-09
4.03253e-09
2.42135e-09
1.46439e-09
9.17903e-10
6.04609e-10
4.2692e-10
3.41379e-10
3.17398e-10
2.89208e-10
2.53899e-10
2.33053e-10
2.22778e-10
2.22519e-10
2.43107e-10
3.06679e-10
9.17419e-10
1.06038e-08
1.48597e-07
1.68433e-06
1.43565e-05
9.27264e-05
0.000471386
0.00202065
0.00689941
0.0158796
0.028892
0.0470155
0.065186
0.0769829
0.0828644
0.0845754
0.0831937
0.0794883
0.0741016
0.0676048
0.0604999
0.0532066
0.0460533
0.039284
0.033025
0.0274647
2.06102e-06
9.42747e-06
1.17977e-05
1.40184e-05
1.00581e-05
6.65886e-06
3.82243e-06
2.14994e-06
1.37981e-06
9.61798e-07
6.71729e-07
4.56802e-07
3.03621e-07
1.98946e-07
1.27585e-07
8.07708e-08
5.05445e-08
3.10817e-08
1.89204e-08
1.13387e-08
6.77211e-09
4.02266e-09
2.41783e-09
1.46286e-09
9.17397e-10
6.03146e-10
4.25567e-10
3.32612e-10
3.07923e-10
2.90681e-10
2.55879e-10
2.33693e-10
2.23335e-10
2.20642e-10
2.34343e-10
2.82135e-10
6.21441e-10
6.20854e-09
9.67869e-08
1.23741e-06
1.15635e-05
7.90295e-05
0.000412087
0.00179378
0.00630918
0.0150272
0.0278685
0.0460815
0.0647678
0.077162
0.0834202
0.0853819
0.084166
0.0805586
0.0752132
0.0687117
0.0615659
0.0542062
0.0469711
0.0401073
0.0337833
0.028066
0.0230796
1.82658e-06
8.63602e-06
1.08042e-05
1.26947e-05
9.28527e-06
6.31805e-06
3.67642e-06
2.0908e-06
1.3546e-06
9.49293e-07
6.65705e-07
4.53987e-07
3.02398e-07
1.98415e-07
1.27289e-07
8.05715e-08
5.03822e-08
3.09941e-08
1.88796e-08
1.13181e-08
6.75871e-09
4.01264e-09
2.41354e-09
1.46116e-09
9.16767e-10
6.01987e-10
4.24517e-10
3.2642e-10
2.97379e-10
2.89684e-10
2.58011e-10
2.34341e-10
2.23903e-10
2.19665e-10
2.27449e-10
2.66242e-10
4.62281e-10
3.60059e-09
6.13715e-08
8.97721e-07
9.32221e-06
6.79327e-05
0.000363666
0.00160279
0.00577846
0.014219
0.0268713
0.0451409
0.0643051
0.0773179
0.0839641
0.086185
0.0851405
0.0816361
0.0763359
0.0698318
0.062647
0.0552213
0.0479036
0.040949
0.0345274
0.0287421
0.0236123
0.0192111
1.60282e-06
7.86317e-06
9.86917e-06
1.15015e-05
8.59061e-06
5.998e-06
3.53001e-06
2.0326e-06
1.33114e-06
9.3828e-07
6.6048e-07
4.51157e-07
3.00953e-07
1.97818e-07
1.26999e-07
8.03994e-08
5.02169e-08
3.08946e-08
1.88327e-08
1.12972e-08
6.74563e-09
4.00257e-09
2.4078e-09
1.45931e-09
9.15944e-10
6.01234e-10
4.23526e-10
3.23607e-10
2.87203e-10
2.84272e-10
2.60113e-10
2.35114e-10
2.24358e-10
2.19501e-10
2.22608e-10
2.54079e-10
3.76154e-10
2.11038e-09
3.78314e-08
6.41348e-07
7.5195e-06
5.89125e-05
0.000324371
0.00144376
0.00530791
0.0134623
0.0259085
0.0442019
0.0637966
0.077449
0.084495
0.0869832
0.0861167
0.0827197
0.0774687
0.0709649
0.0637421
0.0562518
0.0488512
0.0418046
0.0352885
0.0294066
0.0242086
0.0196781
0.0158492
1.39333e-06
7.10645e-06
8.99421e-06
1.04532e-05
7.96974e-06
5.69362e-06
3.38256e-06
1.97499e-06
1.30915e-06
9.28175e-07
6.56099e-07
4.48733e-07
2.9951e-07
1.97169e-07
1.26698e-07
8.02275e-08
5.0069e-08
3.07921e-08
1.877e-08
1.12743e-08
6.73206e-09
3.99313e-09
2.40138e-09
1.45728e-09
9.15115e-10
6.00824e-10
4.2267e-10
3.22257e-10
2.78363e-10
2.7701e-10
2.61746e-10
2.36125e-10
2.24708e-10
2.19763e-10
2.19369e-10
2.43653e-10
3.29217e-10
1.29466e-09
2.26793e-08
4.50068e-07
6.06666e-06
5.1564e-05
0.000292599
0.00131323
0.00489676
0.0127633
0.0249913
0.0432712
0.0632422
0.0775536
0.0850106
0.0877751
0.087093
0.083809
0.0786104
0.0721102
0.0648515
0.0572967
0.0498138
0.0426745
0.0360627
0.0300868
0.024796
0.0201988
0.0162543
0.0129679
1.21073e-06
6.3625e-06
8.18406e-06
9.54437e-06
7.41924e-06
5.39897e-06
3.23596e-06
1.91902e-06
1.28837e-06
9.18731e-07
6.52182e-07
4.46752e-07
2.98361e-07
1.9655e-07
1.26392e-07
8.00719e-08
4.99506e-08
3.06926e-08
1.87001e-08
1.12499e-08
6.71902e-09
3.98566e-09
2.39485e-09
1.45496e-09
9.14264e-10
6.00488e-10
4.22013e-10
3.21491e-10
2.71169e-10
2.68484e-10
2.62053e-10
2.37315e-10
2.24978e-10
2.20168e-10
2.17332e-10
2.34916e-10
3.01991e-10
8.65974e-10
1.32913e-08
3.09218e-07
4.89808e-06
4.55641e-05
0.000267024
0.00120766
0.00454461
0.0121267
0.0241318
0.0423544
0.0626491
0.07763
0.0855091
0.0885585
0.0880683
0.0849022
0.0797609
0.0732664
0.0659741
0.058356
0.0507906
0.0435588
0.0368503
0.0307789
0.0253974
0.0207129
0.0167047
0.0133155
0.010531
1.05234e-06
5.64922e-06
7.44839e-06
8.76922e-06
6.92875e-06
5.10746e-06
3.09245e-06
1.86636e-06
1.26915e-06
9.09687e-07
6.48485e-07
4.45006e-07
2.97448e-07
1.96079e-07
1.26099e-07
7.99323e-08
4.98433e-08
3.06125e-08
1.86322e-08
1.12229e-08
6.70592e-09
3.97817e-09
2.38913e-09
1.45229e-09
9.1336e-10
6.00066e-10
4.2153e-10
3.20906e-10
2.66833e-10
2.59393e-10
2.60131e-10
2.38702e-10
2.25194e-10
2.20553e-10
2.16172e-10
2.27821e-10
2.8413e-10
6.44922e-10
7.71717e-09
2.07297e-07
3.96224e-06
4.06758e-05
0.000246524
0.00112375
0.00425029
0.0115575
0.0233404
0.0414635
0.0620376
0.0776772
0.0859884
0.0893314
0.08904
0.0859984
0.0809183
0.0744334
0.0671088
0.059429
0.0517817
0.0444566
0.0376512
0.0314835
0.0260099
0.0212397
0.0171504
0.0137011
0.0108256
0.0084962
9.16251e-07
4.99634e-06
6.80592e-06
8.10991e-06
6.4896e-06
4.81754e-06
2.95293e-06
1.81863e-06
1.25187e-06
9.01173e-07
6.4484e-07
4.43328e-07
2.96707e-07
1.95733e-07
1.25844e-07
7.97986e-08
4.97545e-08
3.0549e-08
1.85761e-08
1.11927e-08
6.69236e-09
3.97118e-09
2.38498e-09
1.44911e-09
9.12233e-10
5.99539e-10
4.21262e-10
3.20395e-10
2.64876e-10
2.50863e-10
2.55171e-10
2.40012e-10
2.25412e-10
2.20821e-10
2.15711e-10
2.22759e-10
2.70162e-10
5.29056e-10
4.56883e-09
1.3509e-07
3.22095e-06
3.67167e-05
0.000230254
0.00105829
0.00401214
0.0110612
0.0226257
0.0406126
0.0614182
0.0776954
0.0864464
0.0900907
0.0900061
0.087095
0.0820818
0.0756094
0.0682555
0.0605145
0.0527861
0.0453679
0.0384647
0.0322003
0.0266336
0.0217767
0.0176077
0.0140839
0.0111521
0.00874237
0.00681808
7.95534e-07
4.42312e-06
6.26359e-06
7.54303e-06
6.08949e-06
4.52891e-06
2.81843e-06
1.77599e-06
1.2366e-06
8.93442e-07
6.41306e-07
4.41654e-07
2.96025e-07
1.95466e-07
1.25645e-07
7.96595e-08
4.96717e-08
3.04983e-08
1.85315e-08
1.11651e-08
6.67731e-09
3.96455e-09
2.38134e-09
1.44588e-09
9.10828e-10
5.99033e-10
4.21177e-10
3.20092e-10
2.63964e-10
2.43618e-10
2.49103e-10
2.40684e-10
2.25705e-10
2.20982e-10
2.15696e-10
2.19338e-10
2.5811e-10
4.65395e-10
2.90512e-09
8.51898e-08
2.64501e-06
3.35583e-05
0.000217561
0.00100864
0.00382676
0.0106453
0.0219937
0.0398165
0.060802
0.077683
0.0868806
0.0908337
0.0909631
0.08819
0.0832487
0.0767938
0.0694125
0.0616125
0.0538029
0.046292
0.0392908
0.0329286
0.0272686
0.0223238
0.0180742
0.0144772
0.0114774
0.00901539
0.0070204
0.00545091
6.8797e-07
3.93064e-06
5.81175e-06
7.04691e-06
5.71507e-06
4.24463e-06
2.69074e-06
1.73771e-06
1.22276e-06
8.86602e-07
6.38097e-07
4.40046e-07
2.95365e-07
1.95262e-07
1.25488e-07
7.95452e-08
4.95814e-08
3.04558e-08
1.84937e-08
1.11408e-08
6.65969e-09
3.95772e-09
2.37764e-09
1.44287e-09
9.09084e-10