/*--------------------------------*- C++ -*----------------------------------*\
| =========                 |                                                 |
| \\      /  F ield         | OpenFOAM: The Open Source CFD Toolbox           |
|  \\    /   O peration     | Version:  v2012                                 |
|   \\  /    A nd           | Website:  www.openfoam.com                      |
|    \\/     M anipulation  |                                                 |
\*---------------------------------------------------------------------------*/
FoamFile
{
    version     2.0;
    format      ascii;
    class       volScalarField;
    location    "12000";
    object      omega;
}
// * * * * * * * * * * * * * * * * * * * * * * * * * * * * * * * * * * * * * //

dimensions      [0 0 -1 0 0 0 0];


internalField   nonuniform List<scalar> 
27324
(
40954.5
41498.6
42791.5
42041.2
43775.3
45300.5
42411.1
44753.3
46599.2
46547.9
42656.9
45583.6
47774.2
47658.9
44747.8
42766.7
46246.9
48705.1
48432.3
44782.8
35755.6
42778.4
46686.1
49288.2
48704.1
44178.3
33880.4
20807.4
42648.1
46890.3
49389.3
48267.5
42774.2
31649.1
18820.3
11308.5
41932.9
46808.8
48952.7
46911.3
40538.5
29109.1
17143.8
10528.4
7885.03
39563
45569.5
47438.2
44558.2
37611.7
26525.1
15739.9
10002
7665.25
6590.9
34746.6
42680.5
45123.3
41956.9
34641.3
24255.6
14648
9629.11
7535.94
6524.93
5963.4
29589.8
38322.4
42089.9
39539.8
32054.6
22500.4
13957.6
9364.05
7450.24
6494.86
5948.12
5643.9
28515.9
33577.8
39265.6
38111.2
30503
21163.7
13526
9229.96
7391.01
6480.03
5951.47
5656.03
5449.53
28432.2
32674.5
35387.1
37784.6
31227.9
20789.9
13158.3
9182.16
7371.15
6474.92
5962.2
5677.43
5471.5
5347.97
28484.2
32763.8
34450.5
35775.8
33774
22585.3
13259.9
9058
7379.99
6485.76
5975.5
5702.9
5497.45
5376.57
5284.75
28540.7
32980.6
34425.8
34938.2
35110.2
26621.4
14618.9
9114.35
7286.04
6498.32
5995.85
5726.85
5523.86
5411.25
5312.96
5293.31
28591.2
33172.6
34535.7
34916.8
34902.1
31254.1
17604.6
9710.37
7255.06
6401.16
5991.9
5752.05
5552.99
5435.86
5348.77
5325.04
5342.78
28628.7
33368.4
34689.6
35072.9
35015.4
32333.4
21893.9
11055
7470.3
6313.98
5876.45
5686.86
5563.88
5468.61
5375.06
5365.72
5373.91
5445.43
28671.7
33563.5
34898.6
35320.3
35221.3
32583.2
23250.1
13120.2
8032.45
6360.13
5751.43
5546.44
5462.08
5408.6
5378.06
5375.2
5391.46
5482.17
5524.82
28730.1
33793.8
35157.3
35647.5
35503.5
32604.1
23509.6
13736.1
8919.86
6610.66
5718.94
5400.52
5296.79
5270.31
5268.89
5294.06
5319.89
5406.49
5448.98
5527.49
28805.1
34076.2
35477.6
36021.8
35820.2
32613.5
23417.2
13932.1
9222.06
7035.76
5808.87
5347
5157.22
5086.29
5088.53
5123.04
5174.96
5236.77
5282.05
5372.57
5408.82
28895.1
34405.1
35841.6
36428.7
36134
32597.4
23258.3
13956.1
9268.67
7202.26
5972.46
5373.94
5116.96
4976.43
4926.72
4936.34
4976.15
5032.42
5083.81
5134.08
5255.21
5432.52
29001.7
34776.9
36218.1
36829.9
36420.3
32558.2
23065.6
13908.4
9311.39
7145.25
6014.19
5420.73
5137.21
4950.06
4857.78
4837.6
4859.3
4907.9
4958.42
5014.19
5095.52
5284.03
5707.91
29119.3
35191.9
36584.4
37185.9
36648.6
32485
22848.7
13808.6
9318.19
7171.86
5933.84
5380.37
5147.69
5003.28
4868.5
4825.26
4828.29
4862.32
4913.46
4978.42
5069.78
5199.71
5536.08
6082.93
29236.7
35640.2
36913.8
37471.5
36804
32380.7
22612.4
13676.4
9293.31
7191.99
5920.54
5261.6
5079.71
5014.58
4907.25
4843.86
4838.23
4870.67
4923.56
4988.6
5072.13
5187.08
5370.19
5906.54
6405.71
29331.1
36085.5
37180.6
37674.7
36897.4
32266.1
22367.3
13520.2
9255.04
7200.7
5936.75
5179.51
4929.86
4944.29
4925.96
4864.06
4849.77
4881.57
4935.31
5003.35
5083.56
5186.28
5321.27
5689.15
6298.17
6570
29391.5
36497.5
37369.4
37805.3
36952.9
32152.9
22158.2
13354.1
9207.99
7205.2
5948.84
5182.23
4824.22
4793.99
4856.47
4888.97
4854.48
4888.28
4945.42
5016.29
5096.22
5189.85
5306.78
5531.55
6103.03
6556.12
6596.24
29406.8
36838.9
37465.5
37868.5
36992.3
32047.7
21983.1
13226.5
9160.63
7206.49
5957.93
5192.87
4799.77
4661.71
4717.76
4837.14
4861.04
4887.63
4952.32
5026.79
5109.22
5196.59
5303.68
5450.42
5904.43
6466.82
6613.97
6546.96
29375.7
37094.2
37470.5
37880.3
37025.8
31948.6
21837.3
13138
9135.97
7206.67
5964.2
5202.18
4805.77
4590.23
4559.3
4719.47
4854.97
4885.28
4953.88
5036.04
5121.41
5207.65
5305.81
5422.39
5722.13
6315.77
6613.15
6578.93
6454.97
29311.1
37269.3
37433.6
37899.4
37084.1
31875.8
21713.5
13085.1
9132.6
7214.96
5968.22
5209.88
4815.24
4588.09
4455.66
4554.9
4779.18
4887.72
4951.93
5042.71
5132.3
5220.92
5310.36
5416.7
5591.69
6130.37
6587.55
6603.42
6489.36
6349.74
29234.6
37394.9
37400.5
37968.8
37184.5
31835.2
21613.8
13059.8
9146.28
7230.83
5975.69
5216.69
4824.96
4596.47
4422.28
4404.85
4636.82
4859.21
4948.25
5041.92
5141.74
5233.76
5319.5
5417.56
5539.76
5938.08
6503.01
6623.07
6521.15
6382.54
6242.2
29174
37518.8
37407.2
38105.8
37318.4
31821.3
21542.1
13055.3
9171.16
7252.48
5987.49
5225.75
4835.15
4606.32
4425.46
4325.93
4457.49
4751.68
4941.56
5033.53
5147.05
5245.08
5331.94
5422.94
5525.92
5770.65
6353.75
6628.69
6552.67
6413.66
6275.64
6139.72
29146.3
37692.6
37469.1
38306.3
37470.4
31821.3
21488.8
13065.5
9203.4
7277.55
6003.7
5237.61
4847
4617.26
4433.25
4313.92
4325.41
4592.3
4889.09
5024.86
5143.75
5254.57
5345.26
5431.09
5525.48
5670.67
6175.74
6605.61
6580.07
6445.93
6308.3
6171.63
6037.01
29168.6
37988.9
37623.9
38554.2
37621.3
31825.1
21447.5
13081.7
9237.21
7305.04
6023.39
5252.29
4860.6
4629.9
4442.55
4318.92
4261.16
4410.33
4769.57
5015.47
5134.7
5260.19
5357.77
5443.45
5531.44
5634.08
5993.08
6529.2
6601.36
6477.44
6340.61
6202.15
6068.33
5927.83
29241.1
38417.2
37852.9
38813.4
37759.9
31810.1
21409.7
13100.7
9272.16
7333.02
6045.09
5269.02
4875.52
4644.07
4453.6
4326.57
4256.91
4288.68
4601.01
4955.87
5128.5
5258.28
5369.18
5458.12
5541.41
5628.94
5834.55
6387.94
6610.52
6507.62
6371.21
6233.91
6098.2
5959.54
5821.48
29344
38944.9
38082.6
39011.9
37848.8
31771.8
21352.7
13119.4
9309.01
7363.09
6068.86
5286.89
4891.11
4659.09
4466.38
4335.81
4263.13
4230.7
4418.84
4828.95
5116.63
5251.69
5377.86
5473.6
5554.45
5633.35
5746.75
6219.58
6594.39
6534.54
6401.89
6265.83
6129.01
5991.11
5855.95
5730.63
29435.4
39498.4
38247.1
39111.2
37889
31711.7
21274.4
13130.7
9348.17
7395.07
6094.54
5305.22
4906.75
4674.18
4480.39
4346.82
4271.18
4228.9
4299.33
4658.29
5064.43
5243.62
5380.77
5488.54
5570.77
5643.5
5715.2
6044.56
6533.3
6555.74
6431.97
6298.14
6159.8
6022.9
5891.41
5771.18
5637.18
29479.9
40010.8
38306.3
39116.3
37904.8
31646.3
21174.4
13136.7
9386.66
7428.67
6121.65
5323.95
4922.11
4688.6
4494.88
4359.56
4280.47
4235.5
4242.18
4469.89
4948.3
5236.85
5378.57
5501.82
5588.5
5657.21
5713.58
5889.34
6407.75
6567.53
6460.76
6328.69
6190.81
6054.86
5926.33
5814.23
5682.32
5537.09
29459.9
40410.3
38261.3
39068.4
37917
31580.2
21056.1
13134.2
9424.11
7460.83
6149.71
5343.14
4937.27
4702.17
4508.99
4373.42
4291.98
4243.7
4240.25
4340.63
4783.55
5200.91
5373.84
5510.86
5605.94
5673.4
5720.94
5800.37
6251.66
6559.38
6486.97
6358.11
6222.03
6087.16
5961.57
5855.36
5732.21
5581.62
5455.29
29364.8
40663.9
38101.2
38995.6
37938.2
31518.2
20930.2
13122.5
9457.31
7490.53
6176.8
5362.57
4952.3
4715.13
4521.94
4387.48
4305.61
4253.57
4246.88
4276.55
4596.2
5095.97
5367.74
5515.66
5622.3
5692.8
5734.5
5767.64
6083.97
6515.61
6508.17
6387.24
6253.58
6119.76
5997.41
5896.55
5779.06
5633.39
5494.31
5430.38
29216.3
40782.6
37912.7
38964.6
37987
31460.9
20805.3
13108.9
9484.81
7516.67
6202.43
5381.52
4966.98
4727.66
4533.93
4400.76
4320.29
4265.93
4255.59
4270.35
4449.7
4943.77
5349.21
5514.98
5636.24
5713.19
5751.93
5766.61
5927.49
6418.49
6522.77
6415.47
6285.35
6152.74
6033.98
5937.67
5826.05
5681.53
5542.56
5460.26
5509.07
29049.3
40848.9
37778
39036.4
38079.6
31415.3
20700.4
13095.7
9506.92
7537.98
6225.88
5400.1
4980.99
4739.67
4545.32
4412.81
4335.14
4280.17
4266.95
4276.68
4369.56
4760.68
5268.83
5510.51
5646.24
5733.7
5772.11
5776.59
5823.5
6275.36
6522.54
6441.89
6315.34
6186.47
6071.19
5978.93
5872.73
5730.44
5586.79
5501.25
5522.66
5798.28
28909.4
40922.9
37734.6
39202.7
38203.9
31379.4
20619.3
13094.3
9524.59
7555.37
6247.03
5417.95
4994.5
4750.91
4556.21
4423.97
4349.1
4295.4
4280.7
4285.76
4347.91
4589.52
5134.92
5502.2
5650.18
5753.7
5795.67
5793.01
5779.22
6115.11
6495.91
6464.66
6345.38
6221.31
6108.95
6020.51
5919.25
5779.31
5632.38
5538.15
5550.07
5774.86
6599.05
28812.9
41060.3
37777.9
39428.5
38331.6
31339
20568.7
13105.8
9544.01
7570.43
6266.32
5435.05
5007.5
4761.45
4566.63
4434.48
4361.65
4310.47
4296.15
4296.8
4353.17
4480.04
4963.71
5466.04
5651.49
5771.86
5820.72
5813.88
5771.82
5955.68
6428.02
6481.78
6374.84
6257.38
6147.07
6062.51
5965.74
5828.22
5678.29
5577.15
5574.47
5769.09
6502.05
8461.47
28764.4
41340.8
37887.5
39682.3
38448
31287.8
20534.5
13125.2
9568.07
7587.32
6284.78
5451.81
5020.36
4771.54
4576.56
4444.19
4372.91
4324.25
4312.1
4309.68
4362.23
4422.34
4775.57
5359.86
5648.99
5787.01
5846.25
5837.82
5781.06
5824.52
6307.22
6489.72
6402.73
6294.82
6185.46
6105.06
6012.34
5877.17
5724.54
5616.93
5602.69
5762.54
6426.3
8262.4
11877.5
28725.3
41681.6
38016.6
39937.8
38544.4
31217.6
20510.2
13150.2
9595.1
7606.93
6304.74
5468.75
5033.47
4781.62
4586
4453.21
4382.88
4335.85
4327.4
4323.43
4371.88
4417.62
4625.31
5209.81
5638.67
5795.99
5871.7
5865.05
5797.88
5754.92
6157.03
6480.07
6427.8
6331.07
6224
6148.14
6059.29
5926.18
5771.01
5657.48
5633.18
5762.91
6351.33
8083.66
11625.9
16238
28645.8
41992.1
38065.2
40133.5
38627.1
31111.6
20485.2
13181.5
9627.13
7631.11
6326.51
5487.24
5047.18
4791.86
4595.31
4461.94
4392.04
4345.3
4340.86
4337.48
4381.76
4424.43
4535.84
5028.57
5592.22
5802.86
5895.26
5894.41
5820.6
5730.65
5996.72
6441.72
6448.23
6364.92
6262.73
6191.61
6106.78
5975.39
5817.6
5698.55
5665.89
5768.49
6286.72
7899.83
11386.8
16096.7
19687.9
28510.2
42203.8
38044.6
40306.2
38701.5
30982.1
20444.3
13215.3
9663.09
7658.7
6349.73
5507.3
5062.12
4802.66
4604.72
4470.67
4400.94
4353.62
4351.89
4351.09
4392.71
4432.84
4499.18
4841.73
5477.19
5804.48
5916.12
5924.7
5846.99
5734.02
5843.87
6361.88
6463.1
6396.76
6301.83
6235.35
6154.94
6024.93
5864.32
5739.91
5700.43
5779.24
6231
7724.6
11124.3
15969.1
19728.9
21863.5
28280.7
42322.5
38016.7
40486.4
38794.7
30837.6
20387
13244.4
9699.22
7688
6373.81
5528.44
5078.13
4814.41
4614.45
4479.43
4409.8
4361.74
4361.24
4363.4
4404.89
4442.23
4500.1
4703.35
5320.33
5796.99
5931.48
5956.08
5876.45
5747.47
5734.04
6234.81
6468.57
6425.61
6341.75
6279.12
6203.84
6074.99
5911.19
5781.4
5736.45
5794.66
6184.6
7557.17
10857.6
15802.1
19805.1
22010.7
23468.4
28004.4
42354.5
38009.6
40683.8
38882.9
30681.9
20315.6
13264
9730.88
7716.64
6398.27
5550.14
5094.95
4826.98
4624.6
4488.28
4418.76
4369.84
4369.9
4373.89
4417.61
4452.9
4507.96
4621.17
5134.01
5754.12
5943.91
5987.13
5908.99
5768.48
5677.51
6085.54
6455.78
6450.95
6380.78
6322.75
6253.35
6125.83
5958.33
5822.87
5773.64
5814.31
6147.29
7399.26
10585.7
15618.3
19845
22216.4
23678.1
24700
27742.3
42435.3
38113.9
40918
38946.3
30514.8
20235.9
13271.2
9755.6
7741.82
6421.99
5572.06
5112.12
4840.48
4635.2
4497.11
4427.6
4378.03
4378.27
4382.79
4430.02
4464.29
4516.96
4593.55
4946.98
5639.32
5953.03
6016.09
5943.27
5794.03
5658.51
5930.68
6414.32
6473.61
6418.35
6366.05
6303.26
6177.61
6005.95
5864.23
5811.67
5837.71
6118.88
7251.64
10311.7
15413.7
19876.2
22390.8
23955.3
24965.1
25613.6
27523
42608.2
38339.5
41176.4
38965.9
30358.9
20158.2
13269.5
9771.18
7762.21
6443.55
5593.49
5129.11
4854.5
4646.75
4506.18
4436.27
4386.25
4386.58
4391.2
4441.43
4476.29
4527.71
4596.99
4808.37
5483.62
5952.8
6041.89
5979.12
5822.97
5662.58
5785.82
6335.66
6490.15
6454.01
6408.96
6353.21
6230.48
6054.27
5905.51
5850.26
5864.36
6098.99
7115.51
10037.5
15189.2
19893.5
22568.8
24200
25304.8
25916.4
26344
27369.7
42895.2
38636.4
41415
38933.2
30211.4
20109.9
13264.6
9780.55
7777.38
6462.16
5613.71
5145.42
4868.31
4659.24
4516.53
4445.01
4394.64
4394.92
4399.54
4452.16
4488.57
4539.95
4605.78
4723.1
5298.65
5923.82
6062.44
6016.62
5855.61
5674.45
5688.28
6218.28
6494.26
6486.73
6451.58
6402.94
6284.4
6103.58
5946.75
5889.19
5893.77
6087.18
6991.54
9765.07
14944.4
19896.9
22745.1
24449.9
25615.3
26298.6
26667.1
27036.6
27216.3
43279.4
38972.5
41607.7
38847.1
30094.1
20097.7
13277.9
9787.23
7788.84
6477.74
5632.14
5160.85
4881.61
4671.89
4528.26
4455.09
4403.23
4403.42
4407.87
4462.31
4500.59
4552.52
4615.49
4690.76
5108.07
5820.57
6082.58
6053.44
5890.64
5695.53
5638.81
6078.73
6479.18
6517.14
6492.92
6452.18
6339.27
6154.12
5988.15
5928.27
5925.49
6082.9
6880.33
9496.08
14680.2
19885.2
22921.1
24698.9
25934.5
26654.8
27072.3
27367.4
27816.8
27007.2
43606.5
39243.2
41734.2
38710.6
29999.6
20111.3
13304.8
9802.93
7798.34
6491.76
5648.85
5175.09
4893.94
4684.04
4540.28
4466.46
4412.57
4412.02
4416.08
4471.59
4511.82
4565.52
4625.6
4691.42
4957.15
5672.3
6096.25
6089.19
5927
5721.74
5622.12
5936.65
6439.69
6542.61
6531.29
6500.82
6394.76
6206.08
6029.91
5967.43
5959.04
6085.57
6782.27
9232.94
14397.4
19855.7
23096.5
24947.9
26256.8
27022.7
27453.9
27781.9
28147.8
28785.5
26751.6
43830.3
39412.2
41778.3
38531
29909.8
20147.6
13340.2
9825.76
7812.75
6505.27
5664.84
5188.46
4904.92
4694.94
4551.54
4477.96
4422.37
4420.62
4423.9
4480.31
4521.46
4578.44
4636.5
4699.08
4857.92
5493.5
6089.54
6121.44
5965.59
5750.57
5625.06
5812.37
6368.42
6557.97
6567.78
6548.84
6450.54
6259.47
6072.37
6006.64
5994.04
6094.54
6697.5
8977.82
14100
19805.4
23268.1
25196.4
26583.3
27397
27849
28173.8
28563.4
29112.8
30024
26447.2
43979.2
39518.2
41785.5
38344.6
29818.2
20184.3
13380.2
9853.05
7831.08
6522.71
5680.82
5201.74
4915.23
4704.11
4561.31
4488.6
4431.97
4429.07
4431.51
4488.1
4529.94
4591.02
4648.43
4708.33
4807.62
5300.02
6031.94
6151.89
6006.28
5782.14
5637.75
5729.29
6263.95
6560.64
6602.16
6596.45
6506.19
6314.24
6115.78
6046.07
6030.1
6109.13
6626.12
8732.65
13789.9
19733.6
23431.6
25445.3
26913.9
27779
28252.7
28580.3
28956.5
29525.7
30346.2
31603.3
26142.3
44074.6
39538.5
41748.3
38163.6
29741.5
20214.8
13412.6
9881.44
7852.42
6543.5
5699.51
5215.29
4925.81
4712.59
4569.49
4497.86
4441.22
4437.5
4439.21
4495.23
4537.9
4602.68
4661.1
4718.64
4802.06
5131.36
5905.77
6179.8
6046.85
5815.34
5659.49
5688.74
6138.36
6544.95
6633.1
6643.92
6561.35
6370.15
6160.38
6085.91
6066.98
6128.6
6567.9
8499.65
13468.6
19639.9
23586
25695.9
27248.1
28168.5
28666.3
28996.5
29364.6
29915.5
30755.6
31920
33592.2
25856.8
44199.6
39489.4
41641.3
37978.5
29678
20238.2
13434.4
9904.91
7875.17
6566.99
5720.41
5230.36
4936.96
4721.32
4577.06
4505.85
4449.97
4446.12
4446.9
4502.13
4545.66
4612.79
4674.25
4730.46
4809.58
5009.93
5743.14
6196.81
6087.01
5850.36
5689
5677.02
6012.78
6503.18
6659.36
6688.12
6615.9
6426.87
6206.24
6126.48
6104.54
6152.23
6522.52
8280.73
13138.7
19523.9
23730.6
25948.1
27586
28565.3
29089.8
29423.7
29783
30320.6
31140.5
32326.3
33903.1
36065.1
25565
44338.5
39374.6
41476.1
37814.7
29641.6
20255.7
13439.3
9921.59
7896.19
6592.04
5742.92
5246.75
4948.96
4730.41
4584.65
4513.21
4458.1
4455.01
4454.78
4509.29
4553.21
4622.11
4687.43
4743.51
4819.4
4930.14
5558.24
6179.85
6126.54
5888.63
5720.22
5677.53
5910.31
6433.46
6679.97
6729.39
6669.79
6484.06
6253.29
6168.07
6142.8
6179.3
6489.31
8078.01
12802.6
19385.5
23864.8
26201.3
27927
28969.5
29523.1
29862.1
30212.9
30736
31540.9
32706.4
34307.3
36369.3
39109.8
25220.9
44421
39180.2
41252.6
37686.3
29650.6
20285.7
13433.5
9929.84
7913.96
6616.67
5766.22
5263.96
4961.99
4739.92
4592.47
4520.41
4465.78
4463.97
4463.27
4516.97
4560.65
4631.21
4699.63
4757.52
4829.87
4905.57
5374.17
6095.03
6165.61
5930.76
5751.34
5689.55
5843.68
6335.92
6683.67
6768.86
6723.23
6541.33
6301.37
6210.87
6181.91
6209.25
6467.43
7893.1
12463.9
19224.7
23988
26455.6
28270.6
29381
29966.4
30311.5
30654.4
31163.1
31951.8
33102.3
34683
36772.1
39404.8
42834.1
24790.3
44392.9
38898.9
40985.3
37589.9
29706.6
20327.1
13432.3
9933.54
7928.35
6640
5789.4
5281.28
4975.42
4750.32
4600.9
4527.66
4473.4
4472.66
4472.51
4525.08
4568.15
4639.84
4710.12
4771.99
4841.11
4906.41
5225.46
5962.15
6199.5
5976.02
5781.88
5714.59
5811.22
6220.25
6666.72
6804.77
6776.51
6598.36
6350.17
6254.99
6222.09
6241.6
6455.83
7727.5
12126.3
19041.6
24099.4
26710.4
28616.4
29799.4
30419.8
30772.4
31107.5
31602
32374.4
33508.9
35075.3
37143.6
39805.6
43115.1
47374.7
24240.1
44236.2
38556.5
40696.4
37511.9
29797.2
20371.8
13436.1
9940.21
7941.57
6661.01
5811.64
5298.23
4988.59
4761.39
4610.29
4535.35
4480.96
4481.14
4481.97
4533.89
4575.97
4647.75
4719.52
4786.48
4853.38
4914.3
5118.37
5799.47
6217.76
6022.14
5812.47
5744.25
5801.35
6106.97
6627.79
6836.38
6830.14
6654.93
6399.42
6300.34
6263.62
6276.08
6453.43
7581.9
11794.9
18836.8
24198.4
26965.9
28963.3
30224.8
30883.1
31244.8
31572.6
32052.7
32808.9
33927.4
35478.5
37532.7
40171.8
43511.4
47633.1
52906.3
23602.6
43897
38179.3
40402.2
37467.3
29901.3
20409.7
13440.9
9953.35
7957.66
6681.32
5832.25
5314.49
5001.36
4772.15
4620.32
4543.59
4488.45
4489.36
4491.12
4543.19
4584.26
4654.96
4728.27
4800.26
4866.86
4924.04
5055.16
5622.94
6197.77
6065.1
5843.89
5775.86
5804.13
6014.88
6561.03
6860.9
6879.9
6711.03
6448.79
6346.78
6306.64
6312.63
6459.16
7456.82
11474.5
18611.5
24283.8
27221.8
29310.7
30656.5
31356.5
31728.4
32049.6
32515.4
33255.2
34357.9
35893.9
37933.1
40557.1
43869.3
48019.3
53128
59655.1
22881.7
43405.5
37791.7
40133.5
37454.9
30016.2
20425.1
13443.6
9972.47
7978.67
6703.61
5852.14
5329.69
5013.52
4782.38
4630.19
4552.19
4496.18
4496.6
4499.6
4552.51
4592.88
4661.92
4736.6
4812.65
4881.24
4934.41
5037.47
5460.19
6107.67
6106.11
5878.59
5806.91
5819.22
5956.4
6467.82
6872.87
6927.04
6766.76
6498.05
6394.02
6351.2
6351.23
6472.08
7352.15
11169.4
18367.6
24354.5
27478.4
29657.3
31094.3
31839.6
32223.7
32538.5
32990.2
33713.6
34800.3
36321.8
38346.6
40954.6
44248.3
48362.8
53494.6
59818.4
67914.4
22073.8
42748.1
37397.1
39933.1
37483.1
30131.2
20413.8
13439.8
9996.07
8003.46
6728.63
5872.63
5344.5
5025.03
4792.14
4639.69
4561.16
4504.42
4502.98
4507.1
4561.52
4601.77
4669.27
4744.58
4823.6
4895.99
4946.56
5040.46
5327.57
5984.26
6144.46
5918.44
5837.1
5845.97
5926.31
6355.9
6866.46
6972.53
6822.39
6546.97
6441.81
6397.15
6391.95
6491.39
7267.4
10883.6
18108.8
24408.2
27735.8
30001.8
31537.4
32332.2
32730.3
33039.5
33476.9
34184.1
35255.1
36761.9
38773
41366.2
44640.9
48730.3
53813.2
60149.4
67986.5
78066.1
21306.9
41892.9
37001.9
39820.1
37567.1
30231.6
20379.2
13432.8
10021.9
8030.78
6755.63
5893.77
5359.78
5036.54
4801.67
4648.45
4570.38
4513.05
4509.59
4513.82
4569.87
4610.97
4677.32
4751.99
4833.85
4910.34
4960.52
5049.83
5228.68
5838.58
6161.62
5960.93
5866.56
5878.15
5915.88
6247.67
6838.64
7012.47
6878.27
6595.47
6489.82
6444.3
6434.7
6516.48
7202.19
10620.4
17839.9
24440.6
27991.5
30342.5
31985.4
32833.5
33248
33552.4
33975.9
34666.6
35722
37214.7
39212.4
41791.6
45048.9
49113.1
54159.5
60426.3
68257.6
77998.7
90607.9
20579.8
40887.3
36630.8
39819.1
37707.4
30294.4
20327.3
13429.4
10050.9
8058.92
6783.6
5915.5
5374.93
5048.45
4811.53
4656.84
4579.21
4522.1
4516.72
4520.38
4577.85
4620.18
4686.09
4759.3
4843.75
4923.64
4975.44
5060.67
5178.4
5686.19
6140.04
6003.6
5895.73
5912.34
5917.85
6155.07
6784.7
7045.98
6934.79
6643.6
6537.88
6492.34
6479.37
6546.8
7156.02
10383.2
17565.6
24451.5
28238
30679.1
32437
33343.2
33776.1
34077
34486.7
35161.3
36201
37680
39665.1
42231.1
45472.3
49513.4
54523.9
60736.1
68467.1
78173.7
90331.3
106186
19893.3
39838.3
36345.4
39934.5
37904.1
30308.1
20262
13436.4
10084.8
8087.38
6811.34
5937.47
5390.21
5060.35
4821.65
4665.9
4587.31
4531.59
4524.54
4527.42
4585.23
4628.98
4696
4767.23
4852.49
4935.49
4991.08
5074.23
5166.15
5546.91
6065.46
6041.52
5925.9
5946.07
5930.64
6093.41
6701.37
7070.3
6989.58
6691.59
6585.79
6540.99
6525.7
6581.84
7128.3
10174.8
17290.3
24442.7
28472.1
31013.5
32891.9
33859.9
34314.3
34612.6
35009.5
35667.8
36692.4
38157.8
40131
42684.8
45911.1
49931.1
54908.5
61067.5
68716.5
78277.8
90358.1
105601
125634
19237.5
38843.1
36196.3
40152.1
38135.5
30261.3
20183.8
13457.5
10124.2
8116.72
6838.06
5959.16
5405.72
5072.62
4831.69
4675.5
4595.61
4540.9
4533.17
4535.31
4591.92
4637.27
4706.77
4775.93
4859.9
4946.2
5007.21
5090.74
5171.18
5434.59
5970.1
6071.1
5958.74
5979.12
5953.49
6060.91
6593.94
7080.87
7041.55
6739.74
6633.44
6589.93
6573.45
6621.03
7118.04
9998.26
17017.5
24416.7
28693.3
31344.9
33348.6
34382.9
34861.1
35158.8
35543.4
36186.2
37195.8
38648.4
40610.1
43152.9
46365.7
50366.3
55313.4
61423.2
68992.6
78431.5
90302.1
105407
124608
150019
18613.5
37964.5
36202.6
40454.7
38368.5
30152.2
20097.6
13489.4
10167.7
8147.18
6863.96
5980.2
5421.74
5084.49
4841.87
4684.9
4604.96
4549.47
4542.73
4543.92
4598.66
4645.05
4717.49
4785.39
4866.8
4956.38
5024.07
5108.12
5183.59
5353.35
5856.38
6081.4
5996.02
6011.29
5983.52
6049.85
6487.38
7072.37
7090.86
6788.31
6680.85
6638.92
6622.34
6663.89
7123.89
9855.04
16751.7
24375
28903.2
31672.9
33805
34910.5
35415.6
35714.3
36088
36715.8
37711.3
39151.4
41102.6
43635.2
46836.2
50819.4
55738.5
61802.9
69298.4
78618.9
90308.9
105114
124093
148370
180675
18026.3
37200.6
36364.2
40795.9
38581.5
29995.4
20017.9
13531
10213.6
8178.81
6889.25
6000.58
5438.05
5096.55
4852.42
4694.2
4614.48
4558.16
4551.77
4552.86
4605.92
4652.27
4727.78
4795.34
4873.83
4965.72
5041.56
5125.6
5201.4
5317.75
5738.85
6053.51
6034.96
6043.18
6018.2
6051.14
6399.32
7039.87
7134.79
6837.5
6728.11
6687.85
6672.05
6709.86
7144.11
9744.79
16498.8
24317.2
29104.2
31998.2
34255.7
35437.7
35974
36276.2
36640.7
37256
38238.2
39666.9
41608.3
44132.1
47322.4
51290.3
56184.4
62206.7
69633.5
78843.4
90358.8
104901
123457
147405
178174
219238
17494.9
36534.3
36644.2
41103.6
38738.7
29811.5
19942.5
13581.5
10259.4
8211.08
6914.2
6020.59
5454.51
5109.57
4862.15
4704.4
4623.2
4568
4559.75
4562.48
4613.9
4659.33
4737.18
4805.59
4882.14
4974.22
5059.36
5143.37
5223.24
5309.93
5630.62
5986.38
6070.77
6076.75
6054.64
6059.88
6329.02
6975.3
7170.43
6887.6
6775.51
6736.68
6722.26
6758.38
7176.59
9664.03
16265.3
24243.7
29293.4
32314.1
34693.6
35962.9
36535.9
36843.7
37199.9
37802.8
38774.4
40194.5
42127.4
44643.3
47824.9
51779.3
56651
62635.1
69998
79104.2
90455.9
104745
122925
146287
176597
215609
267653
17003.2
35935.1
37029.8
41339.3
38815.4
29613.9
19871.9
13635.9
10304.8
8243.83
6938.93
6040.2
5470.42
5123.52
4872.16
4714.97
4631.89
4578.51
4568.01
4572.47
4622.44
4666.92
4745.7
4815.95
4892.08
4982.58
5077.22
5161.3
5246.99
5314.63
5547.68
5909.73
6096.8
6112.62
6091.84
6077.8
6284.97
6886.77
7196.36
6939.07
6823.38
6785.5
6772.55
6808.79
7217.32
9601.85
16053.9
24150.8
29459.2
32625.6
35129.8
36486.3
37100.8
37415.9
37764.8
38356.4
39317.7
40730.5
42659.3
45169.1
48343.4
52286.7
57138.6
63088.2
70392.2
79401.6
90599.2
104649
122466
145302
174817
213231
262586
328169
16498.9
35167.2
37518.8
41495.7
38813
29441
19797.3
13686.1
10350.3
8277.19
6963.81
6060.16
5485.6
5136.9
4884.18
4724.18
4641.83
4588.28
4577.65
4581.34
4631.74
4675.59
4753.44
4825.65
4903.92
4991.72
5094.74
5179.42
5270.24
5325.54
5489.98
5821.11
6106.53
6152.7
6129.78
6104.97
6269.17
6783.56
7210.14
6991.27
6871.91
6834.22
6822.33
6858.73
7257.76
9539.22
15842.5
24032.6
29604.9
32938.8
35570
37008
37665.3
37991.3
38333.6
38915.3
39867.7
41274.5
43200.4
45709
48878.3
52812.5
57647.6
63566.1
70816.2
79735.7
90788.5
104612
122085
144410
173206
210571
259202
321339
403319
16085.5
34175.2
37999.7
41599.6
38694.6
29303.5
19726.6
13726.9
10393.2
8311.81
6988.96
6080.72
5500.78
5148.97
4896.22
4734.07
4651.99
4597.98
4588.57
4589.87
4640.89
4684.71
4761.2
4834.3
4917.78
5001.94
5111.42
5198.37
5291.85
5340.13
5448.67
5727.5
6089.16
6197.33
6168.76
6139.25
6273.84
6682.94
7208.64
7042.27
6920.91
6882.66
6870.84
6907.3
7298.13
9488.56
15653.2
23921.1
29746.5
33247.8
36016.8
37532.2
38226.6
38565.9
38904.1
39477.5
40423.2
41826.4
43751.2
46260.6
49429.3
53357
58178.1
64069.5
71270.4
80106.8
91024.2
104634
121781
143620
171712
208119
255414
316754
394418
495925
15753
33117.3
38428.3
41645.3
38452.5
29175.9
19671.1
13757.7
10433.7
8345.93
7014.79
6101.84
5516.9
5160.61
4907.04
4746.41
4660.68
4608.78
4598.75
4600.93
4649.74
4694.22
4770.19
4842.12
4933.16
5014.36
5127.34
5217.67
5310.98
5357.96
5423.22
5645.49
6032.46
6241.82
6209.55
6179.66
6289.19
6594.99
7183.32
7089.12
6970.12
6930.46
6917.47
6953.65
7336.93
9448.69
15480
23824.4
29885.5
33551.6
36462.7
38067.1
38784.2
39135.2
39475.2
40042.2
40982.2
42383.8
44310.4
46823.1
49994.8
53920.5
58730.6
64598.5
71755.5
80515.1
91306.2
104716
121553
142928
170347
205810
251874
311579
388473
484682
609166
15454.1
32370.7
38817.2
41650.6
38109.9
28993.1
19631.6
13789.8
10475.9
8379.48
7040.06
6123.07
5534.25
5171.98
4917.59
4757.84
4671.25
4619.74
4608.12
4614.42
4657.8
4703.97
4780.17
4849.99
4949.5
5028.69
5143.27
5236.17
5326.84
5374.15
5407.38
5577.77
5967.37
6279.23
6253.6
6224.24
6311.97
6534.24
7128.4
7131.64
7019.77
6976.89
6961.33
6997.17
7372.48
9416.19
15318.1
23734.7
30030
33858
36902.7
38608.3
39350.9
39698
40041.5
40604.7
41541.6
42944
44875.6
47395.5
50573.8
54502.4
59305.1
65153.6
72271.7
80961.4
91634.9
104856
121401
142335
169108
203661
248497
306684
381670
477283
595351
746733
15201.3
31544.7
39223.1
41709.7
37785.4
28746
19563.9
13827.3
10525.4
8413.84
7065.12
6143.38
5551.2
5185.39
4927.56
4767.84
4683.97
4629.16
4618.24
4627.59
4666.79
4712.97
4792.22
4859
4965
5044.41
5159.1
5252.43
5338.58
5386.4
5398.08
5524.09
5899.92
6304.2
6302
6271.61
6341.3
6503.57
7046.87
7168.98
7068.79
7020.63
7001.98
7037.96
7403.88
9388.49
15162.7
23645.7
30184.3
34154.9
37334.7
39145.9
39934.9
40264.3
40593.9
41160.7
42097.6
43504.1
45443.9
47975.1
51164.7
55101
59903.6
65735
72819.4
81446.1
92011.3
105056
121325
141840
167995
201668
245308
301957
375159
468658
586482
730137
913091
16217.9
31355.7
39609.1
41955
37538.8
28553.3
19490.5
13847.2
10581
8450.06
7090.24
6162.91
5566.68
5199.34
4938.07
4778.75
4695.01
4641.62
4628.44
4638.56
4678.53
4721.4
4802.99
4870.6
4979.09
5062.6
5173.75
5264.87
5345.46
5394.65
5395.23
5485.46
5824.36
6313.36
6355.93
6321.68
6380.01
6501.39
6948.24
7193.31
7114.53
7060.87
7039.14
7074.57
7430.7
9363.41
15009.3
23551
30335.4
34469.2
37733
39691.9
40510.6
40852.2
41138.2
41700.4
42646
44059.8
46012.2
48558.8
51764.8
55714.6
60523.1
66346.9
73398.6
81969.9
92436
105317
121326
141443
167008
199833
242305
297437
368797
460310
575908
719848
893481
1.11384e+06
17510.6
38841.3
41474.9
42236.8
37328.5
28385.3
19485.9
13860.1
10627.7
8487.36
7115.52
6183.1
5580.91
5211.67
4951.44
4788.52
4704.99
4657.62
4637.55
4649.27
4691.16
4729.7
4814.74
4886.96
4992.79
5081.1
5185.46
5271.7
5347.06
5398.79
5395.17
5454.39
5745.3
6301.48
6414.03
6374.8
6425
6519.67
6852.25
7195.08
7155.1
7097.32
7071.57
7106.19
7454.6
9338.42
14855.7
23446.6
30477.6
34798.1
38141.7
40198.7
41100.7
41419.1
41709.2
42221
43176.9
44606.3
46575.6
49143.2
52371
56340.6
61161.9
66985.8
74016.2
82531.8
92909.6
105639
121404
141145
166148
198158
239495
293127
362642
452056
565564
707265
881853
1.09091e+06
1.3562e+06
17517.2
41128.5
49381.8
44319.8
37454.5
28011.5
19513
13907.7
10663.8
8518.67
7141.15
6203.27
5596.59
5222.76
4963.83
4800.52
4715.53
4671.15
4649.75
4659.39
4702.59
4742.83
4824.88
4907.02
5006.02
5097.35
5191.56
5271.63
5346.15
5398.86
5397.3
5423.81
5670.01
6259.27
6470.98
6431.17
6474.63
6549.04
6769.02
7171.96
7188.1
7128.26
7099.61
7134.64
7478.64
9312.35
14699.8
23330.2
30610.3
35121.5
38580.6
40691.8
41649.5
42001.7
42250.8
42771.1
43679.4
45135.8
47128.3
49723.2
52979.4
56975.4
61817.4
67649.8
74669
83141.2
93431
106023
121561
140948
165415
196643
236881
289039
356700
443973
555218
694838
867246
1.07801e+06
1.3295e+06
1.6496e+06
17590.5
41170.5
54794.5
47400.9
38475.4
28016.4
19347.3
13976.9
10706.6
8541.91
7164.37
6222.96
5612.92
5234.45
4974.38
4815.81
4724.62
4681.98
4665.51
4668.45
4712.18
4762.67
4835.12
4928.05
5017.46
5107.46
5189.35
5272.95
5347.53
5399.41
5399.77
5404.58
5603.65
6210.57
6521.14
6490.52
6528.78
6582.53
6708.35
7122.7
7213.28
7156.08
7126.12
7162
7503.05
9287.15
14538.3
23196.4
30730.3
35446.3
39009.6
41259.3
42157.8
42553.7
42803.8
43285.2
44214.1
45629.1
47665
50291.6
53584.7
57615.1
62485.7
68336.2
75354.5
83796.6
94009.5
106469
121799
140852
164812
195292
234466
285180
350993
436076
544966
682274
852700
1.06136e+06
1.31532e+06
1.61851e+06
2.00648e+06
17629.7
41131.8
54562.6
51318.8
32735.4
27092.3
19438
13960.1
10767.3
8564.24
7182.73
6242.2
5627.77
5249.81
4983.84
4827.58
4738.66
4692.11
4679.3
4682.14
4722.67
4785.89
4847.8
4946.69
5024.02
5107.72
5192.13
5277.74
5351.1
5400.59
5400.92
5391.8
5550.89
6151.54
6564.71
6553.34
6586.15
6619.57
6673.21
7050.12
7230.33
7183.55
7152.95
7189.51
7528.27
9264.79
14373.3
23042
30833.2
35771.3
39442.8
41822.8
42762.3
43041.9
43343.7
43805.6
44706.2
46157
48159.2
50844.3
54178.2
58253.9
63162.7
69040.8
76069.9
84494.8
94648.1
106982
122117
140860
164340
194107
232256
281558
345536
428399
534828
669680
837855
1.04467e+06
1.29655e+06
1.60292e+06
1.97014e+06
2.44345e+06
17604.3
40861
53986.8
50822.4
34482
14002.3
18053.6
13985.7
10807.7
8606.97
7201.78
6261.14
5640.7
5262.44
4998.2
4839.67
4755.1
4700.37
4688.78
4706.46
4733.37
4807.5
4862.22
4958.67
5022.95
5112.74
5200.47
5286.03
5356.62
5402.29
5400.96
5387.11
5511.31
6079.21
6602.62
6620.58
6644.39
6657.44
6659.46
6961.21
7235.19
7210.2
7180.54
7217.86
7554.31
9246.26
14210.1
22859.8
30929.5
36082.4
39906
42375.4
43373.5
43622.1
43799.3
44334
45199.9
46635.2
48689.2
51348.8
54756.3
58881.7
63842.1
69759.3
76811
85232.9
95343.1
107573
122517
140973
164004
193093
230258
278188
340347
420966
524851
657083
822824
1.02751e+06
1.27766e+06
1.58185e+06
1.95284e+06
2.40074e+06
2.98292e+06
17533.6
40397.3
53036.9
50520.7
34254.8
13460.4
6790.05
12714.3
10765.5
8661.06
7250.29
6279.62
5661.73
5275.33
5014.53
4848.72
4765.5
4721.94
4700.24
4732.89
4747.92
4824.21
4872.35
4956.22
5031.92
5124.66
5213.88
5297.46
5363.83
5404.29
5400.52
5388.43
5478.88
6000.71
6628.77
6688.02
6699.53
6695.13
6659.35
6866.81
7224.64
7235.51
7209.03
7247.33
7581.32
9231.81
14052.2
22656.1
31000.7
36407
40345.9
43011.5
43949.3
44222.1
44335.5
44757.8
45727.9