/*--------------------------------*- C++ -*----------------------------------*\
| =========                 |                                                 |
| \\      /  F ield         | OpenFOAM: The Open Source CFD Toolbox           |
|  \\    /   O peration     | Version:  v2012                                 |
|   \\  /    A nd           | Website:  www.openfoam.com                      |
|    \\/     M anipulation  |                                                 |
\*---------------------------------------------------------------------------*/
FoamFile
{
    version     2.0;
    format      ascii;
    class       volScalarField;
    location    "12000";
    object      p;
}
// * * * * * * * * * * * * * * * * * * * * * * * * * * * * * * * * * * * * * //

dimensions      [1 -1 -2 0 0 0 0];


internalField   nonuniform List<scalar> 
27324
(
53294.5
55758.8
53293.5
56977.4
55757.4
53292.4
58131.8
56976
55756.6
53289
58930.3
58127.6
56975.5
55752.8
53284.2
59260.6
58931.9
58123.6
56972.4
55748.4
53275.9
59188.8
59260
58932.1
58114.1
56969.7
55735.7
53256.5
58247.8
59181.9
59255.5
58926.7
58101.5
56957.5
55710.6
53235.7
51552.6
58217.7
59172
59260.7
58916.5
58072.2
56938.5
55676.6
53207
40127.2
51501.3
58174
59159.6
59256.6
58896.9
58031.6
56914.8
55621.5
53174.8
29494.4
40108.3
51414.5
58066.8
59123
59243.2
58856.5
57979.2
56877.8
55535.6
53133.5
23583.5
29513.9
40071
51218.5
57878.1
59066.1
59222.6
58798.6
57907.5
56822.5
55402.2
53107.1
22506.5
23601.9
29547.5
39997.4
50896
57548.4
58962.1
59192.3
58707
57815.5
56735
55222.3
53069.2
22313
22509.8
23633.4
29622.2
39872.9
50339.7
57017.6
58790.8
59131.8
58576.1
57696.3
56604.4
54978.1
53111.3
22301.2
22314.5
22516.7
23703
29743.1
39676.2
49534
56187.7
58471.7
59017.8
58397.7
57549.4
56392.4
54775.9
53177.3
22410.4
22301.6
22316.9
22531.2
23820.4
29939.4
39375.9
48343.7
54925.7
57900.2
58774.8
58140.6
57335.6
56078
54474.5
53473.8
22532.4
22410.8
22302.3
22321.6
22557.6
24020
30238.5
38966.7
46765.5
53064.8
56823.9
58276.2
57729.4
56999.1
55445.8
54456
53522.4
22685.8
22532.7
22411.1
22304.1
22328.8
22604.1
24340.9
30675
38458.5
44787.9
50445.6
54858.8
57088.9
56980.1
56327.8
54745.6
53974.5
53446.9
22851.7
22685.8
22533.1
22412.2
22307.4
22340
22681.9
24851.8
31253.5
37870.3
42547.7
47046.6
51497.4
54511.7
55076.3
54960.3
52552.4
53927.6
51450.2
23002.8
22851.5
22685.8
22534.1
22413.9
22313.5
22358.5
22813.3
25612.1
31999.5
37294.8
40329.8
43237.7
46604.3
49358.9
50423.5
50099.5
49262.6
47272.7
48459.7
23100
23002.4
22851
22686
22535.8
22417.4
22323.3
22388.9
23034.8
26731.6
32875.9
36844.4
38466
39804.5
41276.9
42382.9
42531.9
41796.7
40437
38744.7
40514.9
23159
23099.6
23001.6
22850.3
22686.3
22538.9
22421.4
22337.8
22440.2
23414.1
28264.6
33806.9
36508.2
37211.7
37560.1
37695.5
37363.3
36520.7
35508.4
34589.8
33975.3
37266.7
23187
23158.8
23099
23000.4
22849
22687.2
22542.5
22428.9
22363.7
22527.4
24062.9
30199.8
34765.9
36380.7
36737
36719
36268.6
35270.8
34160
33490.5
33249.4
33647.2
38787
23195.6
23186.3
23158.4
23098
22998
22847
22687.3
22549
22439.6
22400.4
22688.9
25157.2
32358.4
35884.4
36662.4
36730
36587.9
35844.6
34616.8
33616.2
33186
33417
34783.9
43319.4
23177.8
23195.5
23187.2
23157.5
23096
22994.2
22842.8
22688.9
22557.7
22455.5
22461.3
23002.2
26871
34368
36768.1
36967.5
36954.2
36543.5
35499.2
34270
33578.3
33413.4
33972.5
38296.1
47640.9
23143.8
23177.6
23194.9
23186
23155.7
23092.5
22987.3
22838.1
22690.4
22569.7
22480.2
22546.5
23643.2
29221.9
35891.9
37319.4
37313.7
37101.8
36371.5
35083.4
34027
33633.3
33739.4
35862.9
43584.3
50174.1
23099.1
23143.6
23177.5
23194.7
23185.8
23153.6
23086.9
22978.3
22830.6
22692.8
22585.9
22516.1
22709.5
24887.8
31896.6
36730.2
37460.3
37417.4
37021.5
35892
34587.6
33829.7
33716.8
34357.4
40313.4
47906.3
51365.6
23051.5
23099.1
23143.6
23177
23193
23183.3
23149.5
23078.8
22964.2
22821.2
22697.2
22606.2
22587.9
23046.7
27072.8
34316.6
37028.5
37506
37388.7
36656.2
35275.3
34134.7
33751.2
33809.5
37130.7
45574.8
50309
51981.6
23009.8
23051.7
23099.1
23143.1
23176.1
23191.6
23180.2
23143.7
23066
22946.3
22810.1
22701.5
22632.3
22674.1
23900.6
30126.8
36181.1
37464
37567.2
37257.8
36048.8
34625.6
33832.7
33678.6
35019.3
42381.6
49198
51465.8
52382.7
22985.9
23009.9
23051.7
23099.1
23142.4
23174.8
23188.7
23175.2
23134.2
23048.6
22922.1
22795.7
22709.1
22666.3
22880.3
25705.9
33359.9
37308.4
37693.7
37620.9
36804.2
35260.6
34069.9
33660.3
33982.1
39071.6
47366.3
50986.9
52059.4
52724.2
22981.7
22986.5
23010.2
23052
23098.7
23141.9
23172.3
23184.4
23167.6
23120.7
23022.9
22891.9
22782
22716.7
22720.4
23439.2
28802.7
35773.4
37756.3
37773
37392.5
35990.3
34448.7
33683.9
33635.1
36311.8
44847.9
50180.7
51818.1
52454.6
53076.1
23002.5
22981.8
22986.7
23010.7
23052.3
23099.3
23139.4
23169.1
23177.3
23156.7
23099.2
22988.1
22858
22766.1
22729.1
22826.8
24973
32490.6
37052.9
37798.2
37710.4
36710.9
35000.1
33824.6
33561.6
34572.3
41758.4
48972.2
51452.2
52291.7
52804.8
53391.6
23036.1
23002.7
22982.1
22987.4
23011.5
23053.5
23098.2
23137.5
23163.6
23168.6
23140.6
23068.1
22943.9
22820
22754
22742.9
23247.9
28029.4
35509.4
37600.9
37811.9
37287.8
35683.1
34121.1
33555.8
33784.6
38618.3
47172.4
50939.3
52082.1
52654.2
53101.5
53662.5
23075.1
23036.2
23002.6
22983
22989
23013
23054
23098.5
23133.2
23157.3
23154.1
23117.5
23024
22890.5
22783.7
22740.8
22805.6
24606.7
32091.8
37147.6
37826.2
37614.6
36420.4
34598.8
33643.4
33557
36058.3
44708.7
50170.1
51829.6
52484.4
52931
53389.8
54155
23109.4
23075
23036.4
23003.5
22983.9
22991.3
23014.9
23056.4
23097
23129
23145.7
23134.7
23081.4
22964.6
22831.3
22748.2
22731.9
23145.3
27769.2
35351.1
37684.4
37701.3
37078.3
35250.4
33859
33526.8
34441.2
41729.6
49019.1
51490.3
52311.5
52742.7
53222.4
53996.8
54876.7
23126
23109.7
23075.1
23036.6
23004.3
22985.9
22994.2
23018.9
23058
23096.5
23121.3
23133
23108
23029.3
22891.2
22774
22717.4
22767.4
24536.2
32132.2
37031.3
37697.1
37524.2
36018.6
34251.2
33531
33689.3
38686.8
47342
51012.1
52114.8
52565.8
53031.4
53900.4
54860.8
56011.3
23121.6
23125.6
23109
23074.6
23037.4
23005.1
22988.7
22999.1
23023.7
23062.2
23094.1
23113.8
23111.9
23071.1
22958.6
22810.6
22719.5
22694.8
23112
28007.9
35600.8
37552.2
37717.8
36794.4
34811.8
33639
33456.8
36152.6
45055.7
50315.6
51874.3
52392.8
52846.1
53793.9
54824.9
56315.1
57515.3
23083.5
23121.3
23125.8
23109.1
23074.1
23037.3
23007.9
22993.7
23005.4
23031.9
23066.4
23093.2
23102.4
23089.4
23014.2
22873.6
22726.4
22675.7
22728.1
24748.1
32686.5
37258.3
37759.9
37410.2
35532.4
33867.6
33418.7
34487.6
42255.1
49292.1
51560.2
52218
52667.6
53688.3
54795.5
56456.9
58185.5
59278.9
23040.2
23083.6
23121.3
23125
23108.1
23073.8
23038.3
23010.2
22999.5
23014.9
23041.9
23073
23090.5
23091
23053.6
22942.4
22779.5
22673.4
22652.6
23181.8
28814.2
35999.2
37768
37753.8
36328.6
34283.3
33415.4
33662.5
39292.6
47814.2
51132.5
52025.9
52506.9
53577.6
54779.5
56578.3
58529.2
60284.3
61126.2
22996
23040.3
23083.5
23119.9
23123.2
23106.3
23073
23038.7
23015.2
23009.7
23027
23055.8
23080.5
23090.5
23076.8
23006
22853
22703.9
22636.9
22722.8
25399.3
33701.7
37446.1
37870.4
37068.4
34864.5
33523.6
33384.5
36672.3
45786.7
50527.1
51801.3
52368.4
53458.3
54799
56696.5
58881.3
60833.6
62417.2
62927.2
22966.8
22996.2
23040.1
23083
23118.9
23122
23103.9
23071.3
23040.9
23021.4
23021.2
23044.5
23072.3
23091
23090.6
23055
22938
22767.9
22647.1
22646.9
23496.6
30215.3
36756.8
37884.9
37583.8
35604.9
33763.9
33332.2
34791.1
43233.3
49657.8
51522.1
52230.5
53338.6
54830.4
56818
59191.1
61422.9
63147.8
64453.9
64596
22959.5
22967.2
22996.2
23040
23082.6
23117
23118.7
23100.2
23069.7
23042.7
23029.4
23038.7
23065.4
23091.5
23102.8
23088.4
23019.6
22858.8
22698.9
22649.8
22829.2
26628.7
34998.2
37775.4
37815.2
36415
34189.6
33328
33735.2
40384
48419.6
51153.5
52089.3
53249
54879.6
56954.8
59477.1
61962.2
63953.3
65336.6
66310.4
66091.7
22987.3
22959.8
22967.4
22996.6
23040.5
23081.4
23114
23112.9
23094.5
23066.6
23044.8
23042.5
23057.9
23090.6
23113.7
23112.8
23082
22959.8
22772.9
22675.1
22691.6
24175.8
32125.4
37288.1
37860.8
37164.4
34803.2
33404.2
33302.4
37654.1
46714
50647
51932.6
53188
54928.6
57115
59748
62470.5
64712.3
66324.9
67315.6
67951.6
67400.3
23031.2
22987.4
22959.6
22968.3
22997.6
23040.3
23079.8
23108.5
23107.2
23087.1
23062.2
23049.7
23053.6
23084.3
23117.7
23132.1
23123.3
23051.3
22872.5
22727
22683.7
23070.9
28560.4
36212.9
37854.5
37688.7
35579
33623.1
33189.4
35468.9
44502.9
49938.3
51740.8
53160.8
54976.5
57301.8
60017.7
62945.6
65447.8
67273.7
68452.2
69052.9
69367.7
68520.6
23077.5
23031.2
22987.3
22961.3
22969.9
22998.7
23040.7
23076.9
23102.6
23095.8
23077.2
23057.9
23051
23072
23109.1
23139.3
23148.9
23115.2
22974.1
22796.2
22688.9
22739
25466
34133
37678.2
37930.9
36435.2
34010.6
33169
34050
41884.3
48948.5
51483.4
53167
55020.8
57515.8
60299.5
63394.1
66149.9
68211.9
69556.9
70306.7
70542
70593.5
69476.8
23112.8
23077.4
23031.2
22988.5
22962.2
22971.8
23001.1
23040.5
23073.7
23091
23082.3
23063.3
23048.2
23057
23087.8
23133.2
23157.4
23147.6
23055.7
22873.4
22696.1
22670.4
23625.5
31048
37147.3
37990.6
37220.9
34598.8
33198.9
33339.1
39135.4
47594.4
51121.3
53188.3
55065
57751.5
60610.4
63825.3
66817.8
69126.6
70663.5
71536.5
71884.2
71834
71593.1
70279.7
23118.8
23112.7
23076.5
23031.2
22988.8
22964.9
22975.7
23004
23041.5
23067.6
23079.5
23064.3
23045.2
23040.7
23060.7
23103.6
23146.7
23155.8
23103.9
22953.3
22721.7
22654.8
22870.8
27654.6
35903.4
37995.5
37780.7
35349.2
33369.3
33085.4
36648.2
45805.1
50603.5
53232
55118.3
58001.9
60958.6
64251.8
67451.8
70014.3
71757.8
72779.8
73210.9
73247.7
72865.3
72475
70878.3
23089.7
23118.7
23112.3
23075.8
23031
22990.9
22968.6
22980.9
23009.4
23041.4
23062.4
23060.1
23042.8
23025.6
23031.9
23065.2
23112.1
23144.5
23120.3
23021.3
22778.6
22654.4
22658.2
24962.1
33737.7
37818
38048.6
36224.9
33697.8
33023.8
34751.1
43574.6
49904.6
53196.7
55197.5
58260.2
61348.7
64687.9
68056.2
70870.5
72837
74021.6
74562.4
74647.2
74314.4
73802
73119.5
71350
23054.1
23090
23117.7
23111
23074.8
23031.2
22992.9
22973.9
22988.8
23015.6
23043.4
23051.7
23041.3
23017.3
23007.6
23023.2
23069
23110.1
23112.4
23066.1
22847.6
22672.7
22613.2
23445.1
30682
37290.1
38118.5
37082.4
34221
33017.3
33559.2
41046.1
48950.1
53060.5
55324.4
58518.4
61777.8
65148.7
68639.5
71692.3
73895.1
75259.2
75923.1
76075.6
75755.7
75314.8
74485.8
73619.3
71713.5
23022.6
23054.5
23089
23116.6
23109.6
23072.7
23031
22997.4
22982.8
22999.8
23025.4
23042.9
23045.5
23016.2
22996.8
22989.7
23022
23073.1
23095.3
23085.6
22929.4
22724.6
22604.8
22839.7
27461.1
36102.7
38128.6
37760.5
34928
33114.4
32964.2
38500.6
47627.2
52755.1
55514.9
58777.3
62236.4
65647.3
69214.5
72478.9
74927.5
76486.5
77290.5
77519
77238.1
76821.2
76039.1
75020.2
73994.6
71986.3
23010.6
23023.6
23054.4
23088.5
23115
23107.7
23070.5
23031.5
23002.2
22994.2
23014.7
23035.6
23048.9
23033.3
22995.2
22975.7
22987.6
23035.1
23077
23091.2
23006.1
22801.9
22603.9
22678.1
24938
33997.4
38014.1
38142.9
35782.6
33345.2
32742.7
36263.7
45921.3
52316.9
55792.5
59036.9
62710.9
66192.3
69797.2
73233.1
75929
77698.5
78658.7
78976.4
78755.2
78364
77587.9
76602.5
75422.4
74271
72186.9
23023.9
23011.1
23023.3
23054.8
23087.8
23111.6
23101.4
23067.1
23031.8
23010.4
23010.4
23033
23053.3
23050
23024.7
22978
22974.3
23007.9
23060.6
23094.4
23065.5
22899.9
22660.8
22657.4
23478.8
31102.7
37550.5
38274.7
36697.5
33774.4
32684.6
34584.6
43875.4
51649.2
56068.7
59300.9
63187.2
66787.1
70405
73962.5
76895.5
78889.8
80021.6
80448.1
80307.5
79928
79176
78179.9
77023.6
75719.9
74470.8
72333
23046.3
23024.4
23011.7
23024.7
23055.1
23086.1
23107
23096
23061.8
23033.2
23019.4
23031.2
23056
23067.9
23053.4
23017
22975.6
22995.8
23048.4
23097.9
23106
23001.3
22723.7
22666.8
22854.7
27954
36511.7
38311.1
37536
34392.3
32676
33546.1
41623.3
50707.1
56313.5
59579
63657.1
67428.6
71053.2
74679.4
77824.8
80055.9
81372.7
81927
81876.7
81512.1
80790.8
79794.9
78621.7
77334
75935.6
74615.2
72437.7
23062.7
23046.6
23025.1
23013.3
23026.3
23055.2
23083.5
23100.4
23085.5
23055.6
23034.2
23032.5
23056
23080.2
23082.5
23056.7
23016.1
22996.7
23037.4
23101.3
23133.3
23078.5
22815.8
22678.9
22653.7
25369.9
34648.7
38286.4
38139.8
35164
32926.3
33055.7
39377.2
49474.2
56489.5
59889.3
64121.2
68107.4
71752.8
75400.3
78718.3
81191.9
82707
83405.2
83461
83120.8
82433
81436.6
80257.3
78947.1
77558.5
76092.1
74720
72511.2
23064.8
23062.2
23046.6
23026.4
23015.2
23028.5
23055.8
23080.4
23090.5
23073.5
23046.6
23035.9
23044.8
23083.6
23100.6
23096.6
23056
23023.3
23032.7
23096.5
23145.7
23119.6
22914.8
22700.8
22598.2
23742.6
32006.3
37983.6
38465.2
36057.7
33270.7
32867.6
37412.1
47998.2
56200.2
60300.9
64587.3
68808.5
72507.9
76143.9
79582.5
82292.9
84019.9
84875.5
85053.8
84750.7
84100.1
83106.8
81920.1
80597.2
79182.2
77721.2
76205.5
74796.7
72561.6
23046.3
23064.4
23062.1
23046.8
23028
23018.2
23032.1
23056.7
23075.1
23078.3
23055.9
23036.8
23035.3
23061.6
23106.9
23117.4
23096
23047.4
23035.2
23072.2
23146.6
23130.7
23010.1
22733.9
22580.3
22964.8
28970.8
37206.4
38582.2
36969.5
33834
32820.3
35969.6
46180.4
55622.8
60790.9
65068.4
69513.9
73315.8
76928.3
80430.2
83355.1
85307
86331.1
86647.2
86396.1
85789.4
84803.2
83611.1
82274.5
80842.5
79352.3
77839.2
76287.7
74853.2
72595.2
23029.2
23045.8
23063.5
23061.9
23047.3
23030.3
23022
23036.3
23057.7
23070
23061.7
23036.8
23024.2
23037.7
23076.5
23121.2
23116.7
23070.7
23037.4
23044.5
23116.4
23120.3
23081.4
22797.6
22577.2
22681.9
26270.3
35722.1
38611.2
37812.7
34539.8
32942
35130
44208
54812.8
61351.8
65578.4
70207.8
74168.3
77767.5
81279.8
84377.7
86562.8
87766.4
88231.4
88050.5
87495.8
86523.1
85327.7
83979.3
82529.6
81019.6
79475.6
77924.9
76347.4
74895.1
72616.9
23013.6
23029.3
23045
23062.4
23061.1
23048.3
23033.5
23028.7
23043.1
23059
23060.4
23042.4
23014.8
23014.5
23040.5
23086.7
23119.9
23084.7
23041.1
23019.6
23076.2
23107.7
23120
22883
22606.5
22610.7
24365.5
33392.1
38516
38442.3
35370.4
33468.3
34779.4
42261.7
53693.2
61823.6
66124.6
70883.1
75052.8
78669.2
82152.5
85365.8
87780.4
89176.7
89796.2
89704.8
89214.1
88262.3
87068
85709.4
84243.9
82713.5
81147.9
79565.2
77987.3
76390.8
74926.4
72630.5
23007.5
23014
23028.6
23044.3
23060.6
23059.9
23049.1
23038.2
23035.9
23050.8
23059.3
23054.6
23017.6
22998.8
23006
23047.6
23090.6
23089.7
23048.9
23004
23030.9
23089.4
23134.4
22978.4
22652
22602.1
23284.5
30582
37999
38803.5
36331.4
34120.9
34636.7
40565.7
52310.9
62145.4
66721.4
71545.6
75955.1
79633.2
83068.8
86331.5
88952.6
90557.2
91332.3
91347.7
90937.7
90016.6
88828.4
87463
85983.1
84434.2
82846.6
81241.1
79630.7
78033
76422.5
74949.9
72638.6
23002.2
23008.1
23013.9
23028.3
23042.3
23058
23057.9
23050
23043.3
23046.7
23060.1
23062.5
23041.3
22998.3
22984.3
23005.6
23060.6
23077.1
23065.8
23000.7
23000.9
23067.5
23141.2
23057.6
22724.4
22610
22785.9
27774.6
36868
38977.4
37386.2
34941.9
34630
39387.5
50723.7
62039.8
67405.3
72215.1
76860.5
80652
84043.4
87294
90075.4
91900.3
92832.7
92967.3
92658.9
91780.5
90605.8
89237.4
87745.7
86179.6
84571.8
82943.3
81309.3
79678.7
78066.5
76445.7
74967.5
72643.4
22994.1
23002.7
23008.5
23014.4
23027.5
23040.4
23054.6
23056.4
23051.3
23049.9
23059.1
23070.6
23061.9
23031.1
22980.5
22984
23026.1
23066.1
23076.9
23015.5
22989.1
23041.6
23144
23105.3
22820.4
22623.3
22594
25507.7
35019.3
39032.9
38454.7
35866.9
35104.6
38744.9
48936.5
61260.2
68191.1
72913.5
77755
81712.5
85083.5
88275.2
91151.6
93195.1
94292.4
94553.4
94367.8
93548.1
92395.9
91029.8
89529.3
87948.3
86321.6
84672
83014.2
81359.5
79714.1
78091.4
76462.8
74980.8
72646
22986.8
22994.3
23003.2
23009.3
23014.7
23027
23037
23050.1
23052.4
23052.4
23056.4
23073
23079
23061.2
23016.3
22982.3
23004.7
23053.6
23084.2
23052.6
22991.1
23017.5
23129.9
23122.8
22922.9
22651.9
22527.8
23986
32589.5
38792.8
39442.6
36923.7
35811.2
38496.3
47177.7
60430
69015
73658.6
78630
82798.9
86187.2
89296.2
92192.4
94430.2
95706
96101.2
96052
95312.1
94193.1
92836.6
91331.6
89737.9
88094.7
86425.2
84745.6
83066.6
81396.7
79740.5
78109.9
76475.5
74990.8
72647.3
22987.8
22986.7
22994.5
23003.8
23010.6
23015.3
23024.9
23033.9
23044.7
23048.7
23052.9
23064.5
23084.7
23084.1
23054.3
23014
22996.9
23034.8
23088.9
23084.6
23014.4
23007.6
23097.8
23123.9
23019.9
22698.9
22504.2
23134.6
29907.2
38107.1
40249.6
38072.8
36799.3
38431.1
45706.7
59282.7
69654.7
74460.2
79488.3
83894.6
87345.1
90371.2
93217.8
95597.8
97065.5
97611.6
97696.8
97063
95990.5
94652.6
93149.2
91546.5
89888.5
88201.4
86501.3
84800.1
83105.6
81424.6
79760.3
78123.7
76485
74998.4
72648
22990.2
22987.7
22986.5
22994.4
23005.3
23012.2
23016.2
23024
23028.9
23038.2
23043.7
23053.6
23069.7
23093.4
23081.1
23042.2
23006
23018.9
23089.5
23102.6
23043
23005.7
23048.8
23109
23091.3
22771.8
22499
22726.1
27458.1
36898.5
40762.3
39320.8
37955.9
38615.4
44791.6
57958.5
70008.5
75334.2
80347.2
84984.6
88541.5
91504.4
94251.5
96699.8
98364.6
99086.8
99288
98788.4
97779.9
96471.5
94977.4
93370.7
91701.2
89998.3
88280.1
86557.9
84840.9
83135
81445.7
79775.3
78134.3
76492
75004.2
72648.3
22988.2
22990.3
22987.3
22986.1
22994.7
23006.3
23014.3
23017.7
23021
23024.5
23031.6
23039.3
23053
23074
23090
23065.7
23014.7
23013
23056
23106.3
23072.9
23010.2
22998.5
23092.9
23132.9
22863.5
22496.4
22562.5
25544.3
34963.8
40917.3
40712.4
39275.9
39373.8
44395.8
56285.8
69597.8
76329.8
81234.4
86055.1
89756.7
92690.1
95314.4
97751.3
99588.6
100509
100820
100473
99551.2
98285.7
96810.4
95206.6
93530
91814.1
90079.4
88338.8
86600.6
84871.8
83157.4
81461.8
79786.7
78142.3
76497.4
75008.6
72648.4
22982.7
22988.7
22989.9
22986.9
22985.4
22994.8
23009.1
23016.8
23018.3
23019.1
23020.4
23027.6
23035.4
23051.3
23071.9
23075.1
23034.7
23009.2
23020.8
23077
23085.5
23025.1
22964.1
23064.5
23152.5
22957.6
22547.8
22515.4
24249.4
32697.3
40760.6
42263.6
40736.1
40350.8
44258.2
54552.5
69050.2
77450
82170.1
87095.1
90969.1
93915.3
96419.1
98778.4
100731
101871
102300
102104
101293
100087
98641.4
97048.9
95371
93646
91897.5
90140.2
88383.3
86633.1
84895.6
83174.6
81474.2
79795.5
78148.4
76501.4
75012
72648.4
22980.1
22982.8
22988.8
22990.1
22985.9
22984.2
22997
23011.3
23019.4
23019.1
23016.8
23018.3
23024.3
23033.1
23052.3
23064.2
23045.9
23011.7
22991.7
23044.5
23087.9
23050
22944.9
23022.5
23160.1
23038.3
22608.5
22503.9
23497.6
30328.1
39972.2
43761.2
42306.7
41665.8
44315.5
53127.1
68217.5
78451.3
83154.5
88100.6
92157.8
95162.1
97568.3
99810.8
101802
103157
103734
103671
102991
101866
100463
98891.4
97219.7
95490.7
93731.8
91960.2
90186.4
88417.4
86658.3
84914
83188
81483.8
79802.3
78153.2
76504.4
75014.5
72648.5
22994
22980.7
22982.9
22989.4
22990
22985.5
22984.9
22996.6
23014.2
23021.3
23018.9
23015
23017.4
23026.2
23035.4
23051.1
23048
23017.2
22971.3
23009.2
23085.7
23067.6
22945.3
22988.3
23162
23093
22696
22507.8
23141.6
28178.2
38875.3
44995.4
43989
43177.5
44772.3
52269
67160.7
79126
84181.3
89082.6
93306.2
96410
98757.6
100872
102828
104351
105116
105177
104629
103611
102266
100727
99070.1
97344
95579.4
93796.6
92008.2
90222.1
88444
86678
84928.5
83198.5
81491.3
79807.6
78156.8
76506.8
75016.4
72648.5
23011.4
22994.2
22980.1
22983
22989.8
22989.7
22985
22983.1
22999.5
23017.8
23021.4
23017.5
23013.7
23022.3
23029.6
23040.4
23046.8
23032.1
22970.5
22991.6
23057.1
23076.9
22982.9
22970.8
23117.7
23120.7
22789.9
22569.6
23019
26548.4
37514.1
45768
45831
44914
45647.4
51969.6
65635.8
79390.9
85295.2
90066.5
94402.5
97637.3
99977.3
101977
103843
105451
106424
106628
106193
105302
104038
102545
100915
99200.2
97436.2
95646.5
93846.4
92045.4
90250.1
88465
86693.5
84939.9
83206.9
81497.3
79811.8
78159.7
76508.5
75017.8
72648.5
23013.2
23011.8
22993.1
22980.2
22983.5
22990.4
22990.7
22982.2
22984.3
23002.5
23020.5
23019.1
23013.4
23016.8
23027.9
23039
23047.1
23041.8
22997
22990.8
23024.6
23074.7
23023.5
22969.5
23061.1
23130.8
22898.7
22690.6
23004.5
25511.3
35653.5
45988.2
47863.4
46843.4
46880
51880.5
63822.1
79190.9
86523.6
91072.1
95439.8
98822.6
101215
103128
104872
106474
107623
108018
107676
106913
105760
104334
102743
101051
99296.8
97506.2
95698.3
93885.3
92074.9
90272.4
88481.7
86706
84949.1
83213.5
81502
79815.1
78161.9
76509.8
75018.9
72648.6
22992.8
23013.1
23011.6
22993.1
22980.1
22985
22991.2
22988.4
22982
22985.1
23008
23021.8
23013.9
23009.9
23020.7
23038.2
23044.2
23042.7
23018.7
22996.8
22991.7
23060.8
23064.5
22982.5
22989.9
23133.2
23023.9
22822.5
23089.6
24998.1
33746.8
45506.1
50077.7
48935.5
48446.9
52314.3
62221.4
78823.8
87704.2
92090.3
96416.6
99950.2
102454
104318
105924
107445
108691
109306
109080
108419
107404
106073
104541
102887
101153
99370.2
97560.3
95739.1
93916.3
92098.5
90290.3
88495.2
86716
84956.4
83218.7
81505.7
79817.6
78163.6
76510.8
75019.7
72648.6
22989.5
22993.4
23012.2
23011.3
22993.1
22980.3
22985.6
22991.5
22988.4
22979.8
22989.2
23014.2
23018.4
23005.1
23006.1
23029.6
23043.6
23039.5
23026.7
23003.7
22973.6
23039.3
23085.3
23005.7
22931.1
23106.4
23158.2
22979.8
23341.2
24872.7
32014.9
44703.8
52190.9
51174.7
50297.2
52793.9
61223.2
78198.1
88564.2
93101
97346.4
101015
103673
105528
106988
108378
109623
110433
110388
109807
108929
107731
106285
104690
102993
101230
99427.3
97603.6
95771.8
93941.4
92117.7
90304.8
88506.1
86724
84962.3
83223
81508.7
79819.6
78165
76511.6
75020.2
72648.7
23050.9
22989.5
22993.4
23012.7
23011.4
22992.9
22980.8
22987.6
22994
22985.3
22979.5
22996.4
23019.1
23011.6
22996.3
23010.1
23040.1
23041.3
23029
23010
22965
23009
23091.5
23045
22898.1
23077.4
23301.7
23160.3
23688.5
24885.3
30673.1
43614.2
53932.9
53535.1
52376.7
53654.6
60677.2
76728.4
88954.8
94123.9
98260.4
102021
104841
106722
108032
109270
110428
111350
111542
111072
110297
109265
107948
106440
104801
103075
101292
99473.8
97638.1
95798.5
93961.8
92133.3
90316.7
88514.9
86730.6
84967
83226.3
81511
79821.2
78166
76512.1
75020.6
72648.7
23074.8
23050.6
22989.6
22995.4
23011.9
23010.8
22991.3
22981.8
22990.8
22993.2
22982.7
22980.5
23008.9
23022.2
22999.2
22991.2
23026.9
23046.1
23027.6
23014.4
22981.4
22996.1
23080.5
23079.9
22886.2
23052.2
23452.4
23376.7
24101.6
25130.2
29978.1
42456.4
54990.7
56076.7
54707.8
54960.3
60714
74961.3
89040
95212.2
99189.2
102975
105914
107843
109009
110097
111104
112056
112458
112187
111497
110629
109496
108114
106557
104890
103142
101341
99509.8
97666.8
95820.3
93978.7
92146.2
90326.4
88522.2
86735.8
84970.8
83229
81512.8
79822.4
78166.7
76512.5
75020.9
72648.7
23006.7
23075.1
23048.3
22989.7
22996.4
23013.3
23006.8
22991.1
22983.9
22993.8
22993.9
22978.6
22985.3
23025.1
23019.1
22984.5
23002.7
23048.8
23035.8
23009.5
22993.8
22999.1
23042.6
23094.6
22931.4
23039.6
23596.2
23642.9
24577.5
25561.7
29749.4
40914.3
55299.5
58826.2
57273.8
56603.1
61210.5
72903.3
88969.3
96267.8
100129
103867
106838
108816
109875
110822
111642
112588
113111
113089
112557
111811
110883
109665
108208
106622
104935
103178
101373
99540
97689.9
95838.5
93992.6
92156.8
90334.4
88528
86740.1
84973.8
83231.1
81514.2
79823.3
78167.3
76512.8
75021
72648.7
23086.2
23010.3
23074.8
23045.9
22989.9
22999.5
23012.4
23006.4
22989.2
22986.2
22997.9
22988.8
22975.7
23001.3
23031
23002.4
22983.6
23036.8
23050.7
23013
22996.3
23008.4
23011.9
23091.4
23016.9
23042.7
23748.3
23977.5
25132.1
26270.1
29980.5
39494.3
55217.5
61767.2
60034.7
58577.5
61865.4
71079.4
88595.8
97043.3
101037
104670
107558
109566
110588
111406
112052
112822
113607
113728
113472
112838
112029
110997
109724
108280
106689
104994
103224
101407
99562.5
97709.6
95853.4
94004.1
92165.5
90340.9
88532.8
86743.5
84976.2
83232.8
81515.4
79824
78167.7
76512.9
75021.1
72648.8
23506.3
23083.5
23017.4
23075.9
23040.7
22992.8
23002.2
23013.4
23001.6
22986.7
22991
23001
22981.7
22975.1
23025.3
23036.2
22979.8
22998.7
23063.9
23036.3
22988.8
23010
22997.4
23068.9
23112.4
23133.5
23924.4
24400.8
25776.2
27169
30339.5
38438.4
54606.1
64459.3
62942.9
60858.6
62689.8
69715
87375.8
97421.9
101891
105346
108038
110042
111114
111822
112284
112988
113555
114123
114152
113699
112932
112133
111116
109821
108348
106743
105036
103258
101434
99584.9
97724.5
95866.1
94013.7
92172.7
90346.2
88536.7
86746.3
84978.2
83234.1
81516.2
79824.6
78168
76513
75021.1
72648.8
23552.7
23507.2
23079.9
23029.4
23075.4
23033.4
22994.3
23006.8
23012.1
22998.9
22985.2
22999.1
23004.3
22972.7
22984.7
23049.1
23006.2
22965.2
23057.7
23077.6
22983.7
23004
23011.8
23062.7
23213.6
23261.9
24152.9
24927.9
26527.7
28184.4
30864.2
37861.7
53979.7
66555.5
65981.2
63351
63602.3
68921.3
85545.4
97619.4
102709
105833
108268
110243
111430
112040
112359
112918
113474
114023
114462
114222
113694
113029
112270
111198
109884
108402
106787
105073
103287
101457
99602.6
97738.9
95876.5
94021.6
92178.6
90350.6
88539.8
86748.5
84979.7
83235.1
81516.8
79824.9
78168.2
76513.1
75021.1
72648.8
24275.9
23621.6
23505
23068.9
23050
23078.1
23023.9
23001.9
23012
23013.7
22992.3
22985.3
23008.9
23000
22967
23025.8
23049
22956.1
23004.7
23111.6
22999.3
22954.3
23065.7
23079.2
23308.7
23490.3
24478
25576.6
27395.5
29317.9
31761.4
37905.1
53014.3
67798.4
69203
66057.2
64877.6
68926.6
83203.8
97703.3
103305
106064
108302
110263
111515
112092
112315
112777
113302
113726
114302
114447
114280
113733
113120
112362
111264
109938
108446
106824
105103
103312
101477
99617.6
97750.3
95885.2
94028.1
92183.5
90354.1
88542.3
86750.2
84980.8
83235.8
81517.3
79825.2
78168.3
76513.1
75021
72648.8
55347.9
28596.4
23662.6
23509.5
23060.9
23074.8
23078.5
23015.3
23007.4
23017.7
23012.9
22986.6
22988
23014.4
22982.9
22965.1
23056.4
23011.5
22961.1
23116.6
23070.3
22908.4
23102.7
23140.2
23404
23826
24938.7
26359.1
28388.7
30561.4
32907.3
38441.1
51664.5
68373.8
72616.3
68940.6
66380.2
69335.7
80695.1
97273.3
103507
106119
108228
109973
111257
112007
112060
112487
112934
113446
113857
114527
114503
114355
113718
113198
112432
111317
109983
108483
106855
105129
103332
101493
99630.2
97760
95892.4
94033.5
92187.4
90356.9
88544.3
86751.6
84981.7
83236.4
81517.6
79825.4
78168.4
76513
75021
72648.8
55211.1
55193.1
30075.2
23935.7
23511.9
23048.5
23110.2
23075.1
23009.2
23019.8
23023.2
23014.4
22980.1
23004.3
23021.3
22955.4
23015.3
23095
22957.6
23027.9
23130.1
22897
23086.1
23328.2
23566
24289.3
25566.7
27288.1
29514
31907.8
34296.6
39134.3
50357
68744.4
76025.3
71972.7
68076.7
69970.2
78289.8
95786.3
103382
106041
107781
109393
110716
111567
111767
112195
112479
113032
113472
113884
114705
114484
114426
113695
113263
112486
111362
110021
108514
106882
105150
103350
101506
99640.6
97767.9
95898.3
94037.9
92190.5
90359.1
88545.8
86752.6
84982.4
83236.8
81517.9
79825.5
78168.5
76513
75020.9
72648.8
55116.3
55206.9
55651.7
32438.9
24312.5
23538.3
23053.2
23135.1
23060.8
23013.1
23029
23031.8
23013.4
22977.4
23025.3
23006.1
22954.6
23113.9
23013.4
22910.2
23147.4
23010.6
23061.4
23602.1
23846.4
24902.7
26383.8
28371.2
30777.4
33355.3
35884.1
40065.7
49262.3
68898.3
78927.4
75100.3
69987.4
70800.7
76201.4
93665
102570
105413
107149
108649
110025
111016
111409
111886
112049
112515
113100
113357
114088
114773
114474
114497
113674
113316
112521
111402
110053
108542
106904
105169
103364
101518
99649.4
97774.4
95903.2
94041.4
92193
90360.9
88547
86753.4
84982.9
83237.1
81518
79825.6
78168.5
76513
75020.9
72648.8
55077.5
55118.7
55207.3
55474.5
34967.2
25162.5
23606.1
23083.5
23156.3
23044.2
23017.5
23034.1
23042
23004.5
22983.8
23058.5
22950.7
23031.7
23091.3
22861.4
23095.6
23271.1
23098.9
23964.5
24319.6
25686.7
27401.8
29619.1
32185
34914.7
37582.9
41132.3
48597.3
68887.7
81053.3
78287.3
72102
71613
74556.3
90760.1
101456
104701
106438
107867
109301
110398
111029
111628
111653
112097
112563
113098
113332
114262
114812
114465
114576
113656
113361
112551
111437
110082
108565
106924
105185
103377
101527
99656.6
97779.8
95907.1
94044.2
92195
90362.2
88547.9
86754
84983.2
83237.3
81518.1
79825.6
78168.5
76513
75020.8
72648.8
55017.5
55078.3
55120.3
55207.3
55912.6
37722.7
26434.4
23863.4
23153
23180.8
23015.6
23031.6
23038.1
23057.1
22976.8
23060.7
23054.4
22911.8
23108
22970.9
23018
23591.5
23317.5
24405.7
25037
26673.3
28630.6
31041.3
33745.3
36597.1
39384.6
42534.1
48885.4
67828.6
82257.6
81533.7
74409.8
72299.8
73349
87319.3
99777.9
103789
105729
107137
108587
109813
110606
111400
111318
111692
112136
112485
113196
113228
114451
114815
114469
114659
113655
113398
112576
111467
110106
108585
106940
105198
103387
101535
99662.5
97784.1
95910.2
94046.4
92196.6
90363.3
88548.6
86754.4
84983.5
83237.4
81518.2
79825.6
78168.5
76512.9
75020.8
72648.8
54980.3
55017.1
55079.2
55122.6
55205.1
55606.6
40521.6
28392
24426.4
23343.1
23204.6
23036.4
23036
23055.7
23072.5
22966
23107.7
22887.7
23002.2
23318.8
23007.2
23914.8
23768
25003.1
26023
27891.7
30081.1
32650.4
35467.5
38411
41290.2
44209
49555.7
66186.6
82910.9
84698.6
76826.3
72853.8
72516.3
83629.3
97651.2
102720
105008
106477
107917
109240
110180
111093
111366
111222
111837
111890
112716
113210
113147
114630
114776
114477
114736
113660
113430
112598
111494
110127
108602
106954
105209
103396
101542
99667.3
97787.7
95912.7
94048.2
92197.8
90364.1
88549.1
86754.7
84983.6
83237.5
81518.2
79825.6
78168.5
76512.9
75020.8
72648.8
55010
54982.9
55017.3
55078.4
55126.5
55203.6
55863.9
43241.7
30912.5
25605.1
23785.5
23329.3
23152.9
23001.7
23126.9
22975.6
23031.9
23213.3
22965.1
23662
23222.7
24261.3
24498.5
25888.9
27315.1
29378.9
31764
34458.2
37360.1
40360.9
43287.6
46051
50473.3
64015.6
83311.1
87445.5
79287.3
73323.8
71879.3
80046.7
95095.2
101519
104280
105883
107305
108675
109807
110754
111275
111290
111333
111781
111874
112867
113236
113076
114812
114722
114490
114802
113670
113456
112619
111516
110145
108617
106966
105218
103403
101547
99671.2
97790.4
95914.7
94049.5
92198.7
90364.6
88549.4
86754.9
84983.8
83237.6
81518.2
79825.6
78168.5
76512.9
75020.7
72648.8
54970
55005.9
54983.8
55017.6
55080.7
55127.5
55195.7
55722.3
45815.1
33986.9
27537.5
24798.8
23762.3
23396.4
23114.8
23376.3
22971.7
23570.9
23139.4
23908.2
23846.2
24880.5
25635.9
27173
28942.1
31167
33693.8
36474.7
39426.6
42440.4
45350.1
47962.7
51568.4
61809.6
83417.5
89317.3
81633.6
73820.5
71459.6
76915.5
92181.2
100171
103517