/*--------------------------------*- C++ -*----------------------------------*\
| =========                 |                                                 |
| \\      /  F ield         | OpenFOAM: The Open Source CFD Toolbox           |
|  \\    /   O peration     | Version:  v2012                                 |
|   \\  /    A nd           | Website:  www.openfoam.com                      |
|    \\/     M anipulation  |                                                 |
\*---------------------------------------------------------------------------*/
FoamFile
{
    version     2.0;
    format      ascii;
    class       volScalarField;
    location    "12000";
    object      p1;
}
// * * * * * * * * * * * * * * * * * * * * * * * * * * * * * * * * * * * * * //

dimensions      [0 1 0 0 0 0 0];


internalField   nonuniform List<scalar> 
27324
(
0.000141332
0.000136928
0.000144004
0.000132228
0.000139673
0.000146525
0.000127318
0.00013497
0.000142226
0.0001448
0.000122273
0.000130052
0.000137483
0.000139979
0.000133467
0.000117134
0.00012497
0.00013246
0.000134588
0.000127275
0.000111403
0.00011203
0.000119722
0.00012712
0.000128764
0.000120648
0.000104015
8.97036e-05
0.000107204
0.000114338
0.00012139
0.00012245
0.000113743
9.65451e-05
7.96925e-05
6.26176e-05
0.000102344
0.000108869
0.000115299
0.000115638
0.000106657
8.89327e-05
6.94449e-05
4.99158e-05
3.29892e-05
9.59868e-05
0.000103443
0.00010844
0.000108365
9.97548e-05
8.1491e-05
5.93363e-05
3.91475e-05
2.47772e-05
1.66148e-05
8.53263e-05
9.82705e-05
0.000102148
0.000101234
9.35157e-05
7.57601e-05
5.03802e-05
3.08115e-05
1.93915e-05
1.35396e-05
1.02272e-05
7.45105e-05
9.04738e-05
9.81662e-05
9.54921e-05
8.81148e-05
7.17342e-05
4.54793e-05
2.49876e-05
1.62779e-05
1.1925e-05
9.3311e-06
7.48524e-06
7.0962e-05
8.25656e-05
9.36134e-05
9.28323e-05
8.42786e-05
6.86675e-05
4.35754e-05
2.26086e-05
1.45918e-05
1.11468e-05
8.84582e-06
7.15688e-06
5.81366e-06
6.86324e-05
7.91228e-05
8.96871e-05
9.07229e-05
8.25929e-05
6.68884e-05
4.23592e-05
2.21883e-05
1.39818e-05
1.07237e-05
8.57363e-06
6.92107e-06
5.62601e-06
4.55573e-06
6.65061e-05
7.68518e-05
8.67517e-05
9.05122e-05
8.17234e-05
6.6447e-05
4.21873e-05
2.19942e-05
1.38715e-05
1.05218e-05
8.38609e-06
6.76046e-06
5.45978e-06
4.4232e-06
3.55244e-06
6.44253e-05
7.48051e-05
8.43638e-05
8.86576e-05
8.31641e-05
6.60639e-05
4.32993e-05
2.24806e-05
1.38332e-05
1.04673e-05
8.26654e-06
6.63867e-06
5.33917e-06
4.29374e-06
3.45138e-06
2.73855e-06
6.23901e-05
7.28016e-05
8.21027e-05
8.63398e-05
8.25739e-05
6.60697e-05
4.41724e-05
2.40292e-05
1.42404e-05
1.04761e-05
8.22959e-06
6.5507e-06
5.24332e-06
4.19767e-06
3.34743e-06
2.66301e-06
2.09892e-06
6.04124e-05
7.08472e-05
7.9911e-05
8.3989e-05
8.05356e-05
6.52212e-05
4.39324e-05
2.58536e-05
1.52964e-05
1.08742e-05
8.29181e-06
6.52319e-06
5.17549e-06
4.12008e-06
3.26184e-06
2.58169e-06
2.04301e-06
1.59619e-06
5.85144e-05
6.89439e-05
7.77894e-05
8.17065e-05
7.81774e-05
6.33661e-05
4.30883e-05
2.70912e-05
1.66353e-05
1.17465e-05
8.70036e-06
6.63927e-06
5.18075e-06
4.06324e-06
3.20156e-06
2.50892e-06
1.98054e-06
1.55383e-06
1.20097e-06
5.6698e-05
6.71123e-05
7.57281e-05
7.94892e-05
7.58179e-05
6.12699e-05
4.19602e-05
2.7205e-05
1.78437e-05
1.28347e-05
9.45357e-06
7.04481e-06
5.34781e-06
4.1065e-06
3.17405e-06
2.46197e-06
1.92151e-06
1.50844e-06
1.16228e-06
8.95833e-07
5.49551e-05
6.53522e-05
7.37213e-05
7.73162e-05
7.34843e-05
5.91145e-05
4.07996e-05
2.69346e-05
1.82161e-05
1.391e-05
1.03955e-05
7.67177e-06
5.72508e-06
4.31021e-06
3.26317e-06
2.4909e-06
1.91259e-06
1.47645e-06
1.13874e-06
8.76472e-07
6.73731e-07
5.32765e-05
6.36517e-05
7.17462e-05
7.51683e-05
7.11709e-05
5.69265e-05
3.94193e-05
2.65597e-05
1.82243e-05
1.43425e-05
1.14184e-05
8.43704e-06
6.22872e-06
4.6361e-06
3.46135e-06
2.60337e-06
1.97363e-06
1.5101e-06
1.16035e-06
8.92014e-07
6.87219e-07
5.2972e-07
5.16507e-05
6.20053e-05
6.97737e-05
7.30231e-05
6.88694e-05
5.47481e-05
3.78166e-05
2.58671e-05
1.81159e-05
1.43784e-05
1.20118e-05
9.29673e-06
6.81515e-06
5.03445e-06
3.72115e-06
2.7661e-06
2.06982e-06
1.5662e-06
1.1951e-06
9.15315e-07
7.02986e-07
5.4537e-07
4.25331e-07
5.00478e-05
6.04063e-05
6.77919e-05
7.08638e-05
6.65833e-05
5.25874e-05
3.61222e-05
2.48741e-05
1.78443e-05
1.4337e-05
1.21424e-05
9.96226e-06
7.46972e-06
5.47802e-06
4.0246e-06
2.96291e-06
2.19101e-06
1.63799e-06
1.23867e-06
9.44119e-07
7.23134e-07
5.5892e-07
4.38924e-07
3.51055e-07
4.84498e-05
5.88338e-05
6.57934e-05
6.86891e-05
6.4344e-05
5.04847e-05
3.43664e-05
2.37585e-05
1.74157e-05
1.42339e-05
1.21434e-05
1.02133e-05
8.06539e-06
5.9567e-06
4.3535e-06
3.1818e-06
2.32946e-06
1.72154e-06
1.28832e-06
9.75283e-07
7.43795e-07
5.72867e-07
4.48769e-07
3.59794e-07
3.02307e-07
4.68315e-05
5.72703e-05
6.37733e-05
6.65085e-05
6.21644e-05
4.85534e-05
3.26402e-05
2.25712e-05
1.69401e-05
1.40788e-05
1.20941e-05
1.02298e-05
8.40317e-06
6.44504e-06
4.70057e-06
3.41757e-06
2.48199e-06
1.81485e-06
1.34289e-06
1.00787e-06
7.64741e-07
5.86873e-07
4.5832e-07
3.67197e-07
3.06362e-07
2.74679e-07
4.519e-05
5.56952e-05
6.17331e-05
6.43396e-05
6.0059e-05
4.67832e-05
3.12094e-05
2.14137e-05
1.64537e-05
1.39104e-05
1.20163e-05
1.02068e-05
8.46065e-06
6.82059e-06
5.0737e-06
3.66538e-06
2.65064e-06
1.91912e-06
1.40387e-06
1.04309e-06
7.86268e-07
6.0119e-07
4.67657e-07
3.73844e-07
3.10315e-07
2.74807e-07
2.69291e-07
4.3522e-05
5.40953e-05
5.96745e-05
6.21993e-05
5.80323e-05
4.51543e-05
3.00418e-05
2.05447e-05
1.60067e-05
1.37398e-05
1.19279e-05
1.01586e-05
8.45235e-06
6.94295e-06
5.42511e-06
3.93095e-06
2.82877e-06
2.03498e-06
1.47262e-06
1.08184e-06
8.08984e-07
6.15662e-07
4.77085e-07
3.79991e-07
3.14527e-07
2.75433e-07
2.62863e-07
3.02329e-07
4.18416e-05
5.24678e-05
5.76091e-05
6.01103e-05
5.60823e-05
4.36308e-05
2.90824e-05
1.99155e-05
1.56879e-05
1.35801e-05
1.18337e-05
1.00991e-05
8.42146e-06
6.93638e-06
5.62208e-06
4.21492e-06
3.01801e-06
2.15994e-06
1.54931e-06
1.12526e-06
8.33425e-07
6.30466e-07
4.86592e-07
3.86224e-07
3.18467e-07
2.76519e-07
2.58993e-07
2.80588e-07
4.15458e-07
4.01765e-05
5.08203e-05
5.55671e-05
5.81021e-05
5.42201e-05
4.21905e-05
2.8266e-05
1.94679e-05
1.54619e-05
1.34566e-05
1.17393e-05
1.00333e-05
8.37809e-06
6.91325e-06
5.65314e-06
4.44106e-06
3.2177e-06
2.29082e-06
1.63283e-06
1.17409e-06
8.60304e-07
6.45912e-07
4.96439e-07
3.92388e-07
3.22096e-07
2.78002e-07
2.56808e-07
2.65666e-07
3.61622e-07
6.82521e-07
3.85445e-05
4.91735e-05
5.35745e-05
5.6188e-05
5.24402e-05
4.08119e-05
2.75452e-05
1.91406e-05
1.52999e-05
1.33602e-05
1.16605e-05
9.96517e-06
8.32959e-06
6.88117e-06
5.62382e-06
4.53576e-06
3.41448e-06
2.4278e-06
1.72239e-06
1.22874e-06
8.90322e-07
6.62441e-07
5.06466e-07
3.98677e-07
3.2592e-07
2.79683e-07
2.55525e-07
2.55706e-07
3.20916e-07
5.71342e-07
1.22882e-06
3.69772e-05
4.75505e-05
5.16506e-05
5.43667e-05
5.07276e-05
3.9491e-05
2.68576e-05
1.88855e-05
1.51775e-05
1.32842e-05
1.15967e-05
9.90685e-06
8.27805e-06
6.84498e-06
5.59988e-06
4.53386e-06
3.55823e-06
2.573e-06
1.815e-06
1.28875e-06
9.24203e-07
6.8055e-07
5.16768e-07
4.05046e-07
3.29795e-07
2.81385e-07
2.5474e-07
2.49186e-07
2.90963e-07
4.81704e-07
1.01874e-06
2.28323e-06
3.54708e-05
4.59803e-05
4.98026e-05
5.26218e-05
4.90691e-05
3.82215e-05
2.62025e-05
1.86435e-05
1.50775e-05
1.32215e-05
1.15467e-05
9.85939e-06
8.23234e-06
6.80604e-06
5.57236e-06
4.51027e-06
3.60295e-06
2.7088e-06
1.91236e-06
1.35164e-06
9.62368e-07
7.00774e-07
5.27654e-07
4.11655e-07
3.3376e-07
2.83309e-07
2.54444e-07
2.44902e-07
2.69672e-07
4.10496e-07
8.43698e-07
1.90115e-06
4.26701e-06
3.40327e-05
4.44847e-05
4.80456e-05
5.09383e-05
4.74466e-05
3.70013e-05
2.55777e-05
1.84121e-05
1.49813e-05
1.31669e-05
1.15072e-05
9.82357e-06
8.19428e-06
6.77006e-06
5.54271e-06
4.49003e-06
3.58605e-06
2.80235e-06
2.0144e-06
1.41663e-06
1.00384e-06
7.23689e-07
5.39454e-07
4.18391e-07
3.3775e-07
2.85539e-07
2.54472e-07
2.41932e-07
2.54963e-07
3.55271e-07
6.99071e-07
1.57689e-06
3.58357e-06
7.94337e-06
3.26552e-05
4.30644e-05
4.63636e-05
4.92904e-05
4.58583e-05
3.58237e-05
2.49815e-05
1.81889e-05
1.48882e-05
1.31144e-05
1.14743e-05
9.79717e-06
8.16586e-06
6.73889e-06
5.51415e-06
4.46832e-06
3.56684e-06
2.82671e-06
2.10828e-06
1.48378e-06
1.0467e-06
7.49529e-07
5.52564e-07
4.25378e-07
3.4182e-07
2.87823e-07
2.54739e-07
2.39697e-07
2.45007e-07
3.13578e-07
5.81036e-07
1.30287e-06
2.99558e-06
6.73565e-06
1.46838e-05
3.13219e-05
4.16978e-05
4.47261e-05
4.76604e-05
4.4292e-05
3.46872e-05
2.44099e-05
1.79734e-05
1.47979e-05
1.30638e-05
1.14444e-05
9.77671e-06
8.1463e-06
6.715e-06
5.48819e-06
4.44687e-06
3.55034e-06
2.81072e-06
2.17259e-06
1.55516e-06
1.0908e-06
7.77518e-07
5.67422e-07
4.32794e-07
3.46007e-07
2.90226e-07
2.55471e-07
2.38122e-07
2.38283e-07
2.83118e-07
4.85883e-07
1.07316e-06
2.49153e-06
5.68315e-06
1.25807e-05
2.67657e-05
3.00082e-05
4.03536e-05
4.31085e-05
4.6038e-05
4.27517e-05
3.3579e-05
2.38599e-05
1.77632e-05
1.47101e-05
1.30139e-05
1.1416e-05
9.75905e-06
8.13286e-06
6.69893e-06
5.46717e-06
4.42645e-06
3.53437e-06
2.79617e-06
2.18998e-06
1.62124e-06
1.13655e-06
8.06911e-07
5.84238e-07
4.40903e-07
3.50285e-07
2.92612e-07
2.56612e-07
2.37027e-07
2.33577e-07
2.61554e-07
4.1066e-07
8.82082e-07
2.06242e-06
4.77014e-06
1.07225e-05
2.3178e-05
4.82963e-05
2.86972e-05
3.90095e-05
4.14998e-05
4.44279e-05
4.12488e-05
3.24828e-05
2.32986e-05
1.75576e-05
1.46229e-05
1.29641e-05
1.1388e-05
9.74308e-06
8.12256e-06
6.68923e-06
5.45229e-06
4.4086e-06
3.51891e-06
2.78396e-06
2.17898e-06
1.67051e-06
1.18374e-06
8.36893e-07
6.02554e-07
4.5004e-07
3.54721e-07
2.95061e-07
2.57841e-07
2.36353e-07
2.30029e-07
2.46674e-07
3.52535e-07
7.25009e-07
1.69911e-06
3.98385e-06
9.0884e-06
1.99735e-05
4.22839e-05
8.6424e-05
2.73917e-05
3.76429e-05
3.99044e-05
4.28499e-05
3.97888e-05
3.14103e-05
2.27006e-05
1.73332e-05
1.45353e-05
1.29119e-05
1.13598e-05
9.72766e-06
8.11447e-06
6.6825e-06
5.44327e-06
4.39491e-06
3.50448e-06
2.7726e-06
2.1686e-06
1.68721e-06
1.22956e-06
8.67537e-07
6.22e-07
4.6043e-07
3.59489e-07
2.97596e-07
2.59206e-07
2.36258e-07
2.274e-07
2.36558e-07
3.08964e-07
5.97111e-07
1.39389e-06
3.31018e-06
7.66342e-06
1.71188e-05
3.68602e-05
7.65376e-05
0.000152778
2.61072e-05
3.62529e-05
3.83233e-05
4.13162e-05
3.83831e-05
3.03732e-05
2.20957e-05
1.70741e-05
1.4439e-05
1.28566e-05
1.13286e-05
9.71234e-06
8.10746e-06
6.67772e-06
5.43694e-06
4.38551e-06
3.49214e-06
2.76163e-06
2.16078e-06
1.68172e-06
1.26625e-06
8.98827e-07
6.41959e-07
4.71836e-07
3.64766e-07
3.00163e-07
2.60544e-07
2.36645e-07
2.25446e-07
2.29609e-07
2.77362e-07
4.94466e-07
1.13938e-06
2.73648e-06
6.42816e-06
1.45965e-05
3.19726e-05
6.75226e-05
0.000136921
0.000264742
2.48655e-05
3.48505e-05
3.67939e-05
3.98642e-05
3.70382e-05
2.93946e-05
2.15101e-05
1.68066e-05
1.43289e-05
1.27953e-05
1.12938e-05
9.6944e-06
8.10108e-06
6.67373e-06
5.43274e-06
4.37852e-06
3.48242e-06
2.75121e-06
2.1534e-06
1.67394e-06
1.28339e-06
9.30572e-07
6.62266e-07
4.84157e-07
3.70776e-07
3.02828e-07
2.61918e-07
2.37202e-07
2.24051e-07
2.24623e-07
2.5513e-07
4.13622e-07
9.28751e-07
2.25016e-06
5.36522e-06
1.23806e-05
2.76026e-05
5.93074e-05
0.000122292
0.000240191
0.00044495
2.36866e-05
3.34729e-05
3.53457e-05
3.85143e-05
3.57607e-05
2.8483e-05
2.09949e-05
1.6547e-05
1.42122e-05
1.27257e-05
1.1253e-05
9.67296e-06
8.09283e-06
6.67003e-06
5.42926e-06
4.37327e-06
3.47536e-06
2.742e-06
2.14571e-06
1.66858e-06
1.28311e-06
9.57849e-07
6.82631e-07
4.97167e-07
3.77548e-07
3.057e-07
2.63352e-07
2.37905e-07
2.23288e-07
2.20909e-07
2.39943e-07
3.51554e-07
7.56128e-07
1.84097e-06
4.45551e-06
1.04481e-05
2.37117e-05
5.18768e-05
0.000108805
0.000217233
0.00040919
0.000709517
2.26036e-05
3.21448e-05
3.3994e-05
3.72533e-05
3.45471e-05
2.76097e-05
2.05553e-05
1.63278e-05
1.40938e-05
1.26507e-05
1.12051e-05
9.64605e-06
8.08193e-06
6.6648e-06
5.42592e-06
4.36882e-06
3.46909e-06
2.73427e-06
2.13805e-06
1.66296e-06
1.27681e-06
9.7541e-07
7.03862e-07
5.10264e-07
3.85049e-07
3.08923e-07
2.64781e-07
2.38588e-07
2.23093e-07
2.18149e-07
2.2969e-07
3.05398e-07
6.16128e-07
1.49851e-06
3.68194e-06
8.77274e-06
2.02699e-05
4.51788e-05
9.64626e-05
0.000195789
0.00037509
0.000663936
0.00102186
2.15965e-05
3.08889e-05
3.27369e-05
3.60641e-05
3.33837e-05
2.67694e-05
2.01496e-05
1.61496e-05
1.39855e-05
1.25728e-05
1.1152e-05
9.6127e-06
8.06627e-06
6.65764e-06
5.42129e-06
4.36448e-06
3.46365e-06
2.72815e-06
2.13078e-06
1.65698e-06
1.27266e-06
9.79859e-07
7.23429e-07
5.23511e-07
3.92996e-07
3.12633e-07
2.6626e-07
2.39278e-07
2.23209e-07
2.16109e-07
2.22671e-07
2.72243e-07
5.0437e-07
1.21396e-06
3.02696e-06
7.33068e-06
1.72414e-05
3.91743e-05
8.52024e-05
0.000175911
0.000342658
0.000619041
0.000978078
0.00125934
2.06562e-05
2.97159e-05
3.1565e-05
3.49278e-05
3.22628e-05
2.59587e-05
1.976e-05
1.59825e-05
1.38889e-05
1.24981e-05
1.10954e-05
9.57461e-06
8.04519e-06
6.6467e-06
5.41511e-06
4.35968e-06
3.45884e-06
2.72296e-06
2.12444e-06
1.65082e-06
1.26846e-06
9.75591e-07
7.3936e-07
5.36662e-07
4.01342e-07
3.16773e-07
2.67846e-07
2.40009e-07
2.23496e-07
2.14715e-07
2.17641e-07
2.49275e-07
4.16889e-07
9.79548e-07
2.47526e-06
6.09593e-06
1.45954e-05
3.38146e-05
7.49812e-05
0.000157547
0.000312075
0.000575052
0.000932785
0.00123214
0.00134755
1.97636e-05
2.85975e-05
3.04541e-05
3.3835e-05
3.11739e-05
2.51738e-05
1.93824e-05
1.58171e-05
1.37936e-05
1.24273e-05
1.10407e-05
9.53337e-06
8.02e-06
6.63127e-06
5.40647e-06
4.35421e-06
3.45431e-06
2.7184e-06
2.11922e-06
1.64492e-06
1.26407e-06
9.71744e-07
7.47508e-07
5.50159e-07
4.09709e-07
3.21376e-07
2.69633e-07
2.40725e-07
2.23804e-07
2.1399e-07
2.13989e-07
2.33859e-07
3.5028e-07
7.88529e-07
2.01289e-06
5.04477e-06
1.22966e-05
2.90592e-05
6.57361e-05
0.000140669
0.000283354
0.000532376
0.00088627
0.00120273
0.00133272
0.00138803
1.89015e-05
2.75059e-05
2.93802e-05
3.27751e-05
3.01174e-05
2.44091e-05
1.90128e-05
1.56521e-05
1.36979e-05
1.23585e-05
1.09889e-05
9.494e-06
7.99193e-06
6.61278e-06
5.39445e-06
4.34736e-06
3.44963e-06
2.71468e-06
2.11516e-06
1.63966e-06
1.25988e-06
9.68422e-07
7.47768e-07
5.62072e-07
4.18081e-07
3.26224e-07
2.71726e-07
2.41446e-07
2.24084e-07
2.13753e-07
2.1129e-07
2.2368e-07
3.0121e-07
6.35048e-07
1.62705e-06
4.15445e-06
1.03124e-05
2.48609e-05
5.74169e-05
0.000125211
0.000256544
0.000491209
0.000839016
0.00117114
0.00131726
0.00137243
0.00149326
1.80555e-05
2.64232e-05
2.83482e-05
3.17581e-05
2.9088e-05
2.36566e-05
1.86477e-05
1.54859e-05
1.36006e-05
1.22895e-05
1.09385e-05
9.4581e-06
7.96518e-06
6.59216e-06
5.38029e-06
4.33798e-06
3.44418e-06
2.71113e-06
2.11177e-06
1.63535e-06
1.25605e-06
9.65271e-07
7.44693e-07
5.71559e-07
4.2627e-07
3.31353e-07
2.7408e-07
2.42208e-07
2.244e-07
2.13687e-07
2.09301e-07
2.16867e-07
2.66541e-07
5.13488e-07
1.30728e-06
3.4029e-06
8.61033e-06
2.11771e-05
4.99595e-05
0.000111126
0.000231629
0.000451796
0.000791321
0.00113744
0.00130103
0.00135696
0.0014764
0.00161749
1.72165e-05
2.53523e-05
2.73702e-05
3.07863e-05
2.80909e-05
2.29002e-05
1.82687e-05
1.53167e-05
1.35003e-05
1.22195e-05
1.08887e-05
9.42441e-06
7.94105e-06
6.57266e-06
5.36495e-06
4.32702e-06
3.43797e-06
2.70726e-06
2.10895e-06
1.63207e-06
1.25269e-06
9.62151e-07
7.42279e-07
5.75649e-07
4.34521e-07
3.36453e-07
2.76717e-07
2.4307e-07
2.24727e-07
2.13773e-07
2.07978e-07
2.12107e-07
2.43104e-07
4.1919e-07
1.04411e-06
2.77142e-06
7.15646e-06
1.79649e-05
4.3309e-05
9.83348e-05
0.000208611
0.000414296
0.000743602
0.00110157
0.00128399
0.00134131
0.0014592
0.00160471
0.00169424
1.64041e-05
2.43011e-05
2.64558e-05
2.98525e-05
2.71205e-05
2.21539e-05
1.78585e-05
1.51316e-05
1.33958e-05
1.21472e-05
1.08385e-05
9.39265e-06
7.91872e-06
6.55522e-06
5.35103e-06
4.3156e-06
3.43116e-06
2.70306e-06
2.10627e-06
1.62924e-06
1.24997e-06
9.59233e-07
7.40141e-07
5.75034e-07
4.41761e-07
3.41408e-07
2.79538e-07
2.44105e-07
2.25018e-07
2.13833e-07
2.0725e-07
2.08724e-07
2.278e-07
3.47942e-07
8.30316e-07
2.24256e-06
5.92076e-06
1.51774e-05
3.74096e-05
8.6772e-05
0.000187435
0.000378885
0.000696232
0.00106362
0.00126599
0.00132581
0.00144158
0.00159097
0.00168592
0.00172494
1.56476e-05
2.33039e-05
2.56189e-05
2.89611e-05
2.61801e-05
2.14297e-05
1.74414e-05
1.49213e-05
1.32818e-05
1.2071e-05
1.07867e-05
9.36151e-06
7.89816e-06
6.53902e-06
5.33888e-06
4.30551e-06
3.42411e-06
2.69862e-06
2.10365e-06
1.62707e-06
1.24799e-06
9.56747e-07
7.38025e-07
5.72956e-07
4.47561e-07
3.4609e-07
2.825e-07
2.45312e-07
2.25312e-07
2.13908e-07
2.06924e-07
2.06261e-07
2.17995e-07
2.96239e-07
6.59127e-07
1.8021e-06
4.87327e-06
1.27724e-05
3.21995e-05
7.63657e-05
0.000168056
0.000345651
0.000649657
0.00102368
0.00124691
0.00131044
0.00142379
0.00157684
0.00167681
0.00171892
0.0017262
1.49578e-05
2.23732e-05
2.48537e-05
2.81036e-05
2.52587e-05
2.07634e-05
1.70379e-05
1.47006e-05
1.31536e-05
1.19883e-05
1.07316e-05
9.32923e-06
7.87827e-06
6.52391e-06
5.32727e-06
4.29673e-06
3.41751e-06
2.69396e-06
2.10099e-06
1.62504e-06
1.24614e-06
9.54723e-07
7.35915e-07
5.71161e-07
4.49971e-07
3.50737e-07
2.85476e-07
2.46634e-07
2.25643e-07
2.1401e-07
2.06741e-07
2.04427e-07
2.11679e-07
2.60411e-07
5.24795e-07
1.43718e-06
3.98842e-06
1.07047e-05
2.76249e-05
6.70325e-05
0.000150406
0.000314683
0.000604249
0.000981979
0.00122659
0.00129522
0.00140584
0.00156217
0.00166777
0.00171226
0.00172178
0.00170473
1.43222e-05
2.15103e-05
2.41445e-05
2.72582e-05
2.43524e-05
2.01321e-05
1.66883e-05
1.44815e-05
1.30185e-05
1.18972e-05
1.06711e-05
9.29409e-06
7.85763e-06
6.50936e-06
5.31569e-06
4.28771e-06
3.411e-06
2.68902e-06
2.09803e-06
1.62297e-06
1.24433e-06
9.53101e-07
7.33892e-07
5.69518e-07
4.49376e-07
3.54696e-07
2.88269e-07
2.48161e-07
2.26058e-07
2.14089e-07
2.06696e-07
2.03207e-07
2.07454e-07
2.36791e-07
4.21956e-07
1.13747e-06
3.24237e-06
8.93412e-06
2.36244e-05
5.87032e-05
0.00013439
0.000286026
0.000560401
0.000938779
0.00120491
0.00128017
0.00138781
0.00154694
0.00165844
0.00170577
0.0017168
0.00170185
0.00166269
1.37147e-05
2.06992e-05
2.3474e-05
2.64088e-05
2.34588e-05
1.95258e-05
1.63711e-05
1.42922e-05
1.28817e-05
1.18011e-05
1.06038e-05
9.25404e-06
7.83474e-06
6.49431e-06
5.30386e-06
4.278e-06
3.40414e-06
2.68368e-06
2.09462e-06
1.62067e-06
1.24254e-06
9.51614e-07
7.32053e-07
5.6783e-07
4.47811e-07
3.57963e-07
2.90703e-07
2.49713e-07
2.26611e-07
2.14145e-07
2.06624e-07
2.02483e-07
2.04511e-07
2.21887e-07
3.45834e-07
8.94005e-07
2.61591e-06
7.42068e-06
2.01426e-05
5.12965e-05
0.000119925
0.000259658
0.000518479
0.00089445
0.00118173
0.00126529
0.00136972
0.00153115
0.00164889
0.00169907
0.00171202
0.00169848
0.0016614
0.00160135
1.31193e-05
1.99088e-05
2.28122e-05
2.55457e-05
2.2576e-05
1.89423e-05
1.60602e-05
1.41165e-05
1.27575e-05
1.17031e-05
1.0533e-05
9.20763e-06
7.8078e-06
6.47808e-06
5.2917e-06
4.2678e-06
3.39671e-06
2.67791e-06
2.09068e-06
1.61812e-06
1.24077e-06
9.50027e-07
7.30478e-07
5.66113e-07
4.46394e-07
3.5945e-07
2.93197e-07
2.51294e-07
2.27222e-07
2.14202e-07
2.06588e-07
2.02114e-07
2.02366e-07
2.12777e-07
2.91667e-07
6.9959e-07
2.09199e-06
6.13036e-06
1.71194e-05
4.47419e-05
0.000106903
0.000235558
0.000478757
0.000849443
0.00115697
0.00125055
0.00135169
0.00151479
0.00163909
0.00169223
0.001707
0.00169526
0.00165965
0.00160162
0.00152259
1.25405e-05
1.91339e-05
2.2152e-05
2.46731e-05
2.17068e-05
1.8379e-05
1.57561e-05
1.39403e-05
1.26396e-05
1.16119e-05
1.04611e-05
9.158e-06
7.7756e-06
6.45955e-06
5.27935e-06
4.25788e-06
3.38896e-06
2.67176e-06
2.08616e-06
1.61525e-06
1.23892e-06
9.4851e-07
7.29159e-07
5.64435e-07
4.45141e-07
3.59151e-07
2.95175e-07
2.52754e-07
2.27925e-07
2.14287e-07
2.06553e-07
2.0186e-07
2.00776e-07
2.07132e-07
2.54814e-07
5.47682e-07
1.65705e-06
5.03132e-06
1.45011e-05
3.89583e-05
9.52342e-05
0.000213637
0.00044151
0.000804233
0.00113061
0.00123574
0.00133378
0.00149808
0.00162905
0.00168523
0.00170184
0.00169181
0.00165806
0.0016015
0.00152431
0.00142919
1.19805e-05
1.83831e-05
2.14934e-05
2.38009e-05
2.08559e-05
1.78347e-05
1.54565e-05
1.37633e-05
1.25216e-05
1.15248e-05
1.03957e-05
9.1073e-06
7.74085e-06
6.43727e-06
5.26621e-06
4.24851e-06
3.3814e-06
2.66545e-06
2.08131e-06
1.61168e-06
1.23698e-06
9.47086e-07
7.27983e-07
5.62875e-07
4.4394e-07
3.58036e-07
2.96803e-07
2.539e-07
2.28694e-07
2.1443e-07
2.06478e-07
2.01683e-07
1.99654e-07
2.03466e-07
2.31303e-07
4.32478e-07
1.29963e-06
4.0975e-06
1.22337e-05
3.3872e-05
8.48129e-05
0.000193815
0.000406888
0.000759399
0.00110264
0.00122082
0.00131605
0.00148129
0.00161873
0.00167807
0.00169651
0.0016882
0.00165622
0.00160151
0.0015257
0.00143219
0.00132465
1.14512e-05
1.76645e-05
2.08319e-05
2.29263e-05
2.00281e-05
1.72986e-05
1.51603e-05
1.35844e-05
1.2403e-05
1.14391e-05
1.03351e-05
9.06208e-06
7.70522e-06
6.41296e-06
5.2505e-06
4.23929e-06
3.37422e-06
2.65949e-06
2.07628e-06
1.60775e-06
1.23491e-06
9.45659e-07
7.26756e-07
5.61563e-07
4.42767e-07
3.56974e-07
2.97671e-07
2.54796e-07
2.29499e-07
2.14672e-07
2.06387e-07
2.01573e-07
1.98865e-07
2.00917e-07
2.16979e-07
3.48657e-07
1.00954e-06
3.30694e-06
1.02711e-05
2.94021e-05
7.55462e-05
0.00017597
0.000375018
0.000715487
0.00107317
0.00120578
0.00129853
0.00146443
0.00160811
0.00167077
0.00169102
0.0016844
0.0016542
0.00160128
0.00152721
0.00143489
0.0013287
0.0012128
1.09614e-05
1.69923e-05
2.01696e-05
2.20477e-05
1.923e-05
1.67786e-05
1.48544e-05
1.34036e-05
1.22827e-05
1.13542e-05
1.0277e-05
9.02104e-06
7.67397e-06
6.38827e-06
5.23341e-06
4.22889e-06
3.3674e-06
2.65388e-06
2.07145e-06
1.60381e-06
1.2326e-06
9.44239e-07
7.25633e-07
5.60489e-07
4.41599e-07
3.56043e-07
2.97553e-07
2.55427e-07
2.30216e-07
2.14943e-07
2.06295e-07
2.01417e-07
1.98283e-07
1.99034e-07
2.08473e-07
2.90534e-07
7.78716e-07
2.64067e-06
8.5731e-06
2.54749e-05
6.73261e-05
0.00016
0.000345909
0.000673084
0.00104234
0.00119063
0.00128127
0.00144752
0.00159715
0.00166332
0.00168538
0.00168041
0.001652
0.00160088
0.00152849
0.00143772
0.0013325
0.00121766
0.00109739
1.05051e-05
1.63625e-05
1.95065e-05
2.117e-05
1.84675e-05
1.62858e-05
1.45485e-05
1.32106e-05
1.21607e-05
1.12686e-05
1.02201e-05
8.98263e-06
7.64603e-06
6.36694e-06
5.21629e-06
4.21772e-06
3.3606e-06
2.64867e-06
2.06709e-06
1.60018e-06
1.23001e-06
9.42791e-07
7.24577e-07
5.59497e-07
4.40472e-07
3.55169e-07
2.96671e-07
2.55725e-07
2.30717e-07
2.15233e-07
2.06214e-07
2.01225e-07
1.97913e-07
1.97612e-07
2.03353e-07
2.52393e-07
5.99172e-07
2.08415e-06
7.10397e-06
2.20213e-05
6.00501e-05
0.000145775
0.000319559
0.00063267
0.00101043
0.00117533
0.00126435
0.00143058
0.00158587
0.00165574
0.00167959
0.00167626
0.0016496
0.00160028
0.00152961
0.00144033
0.00133641
0.00122232
0.00110286
0.000981861
1.00724e-05
1.57605e-05
1.88399e-05
2.02924e-05
1.77384e-05
1.58216e-05
1.42567e-05
1.30146e-05
1.20329e-05
1.1182e-05
1.01623e-05
8.94494e-06
7.62044e-06
6.34856e-06
5.20146e-06
4.20625e-06
3.35386e-06
2.64374e-06
2.06282e-06
1.59684e-06
1.22733e-06
9.41238e-07
7.23508e-07
5.58508e-07
4.39456e-07
3.54292e-07
2.95786e-07
2.55914e-07
2.30802e-07
2.15593e-07
2.06153e-07
2.01008e-07
1.97696e-07
1.96528e-07
2.00046e-07
2.28549e-07
4.64154e-07
1.62443e-06
5.83621e-06
1.89758e-05
5.36137e-05
0.000133177
0.000295886
0.000594696
0.000977799
0.00115989
0.00124782
0.00141364
0.00157422
0.00164802
0.00167364
0.00167193
0.00164702
0.0015995
0.00153054
0.00144278
0.00134012
0.00122707
0.00110814
0.000987727
0.000869097
9.64597e-06
1.51748e-05
1.81665e-05
1.94187e-05
1.70411e-05
1.53768e-05
1.39764e-05
1.28283e-05
1.19042e-05
1.10931e-05
1.01034e-05
8.90613e-06
7.59562e-06
6.33144e-06
5.18844e-06
4.19572e-06
3.3465e-06
2.63889e-06
2.05879e-06
1.59369e-06
1.22472e-06
9.39547e-07
7.224e-07
5.57586e-07
4.3858e-07
3.53399e-07
2.9498e-07
2.55597e-07
2.30729e-07
2.15986e-07
2.06122e-07
2.00767e-07
1.97444e-07
1.95682e-07
1.97694e-07
2.14479e-07
3.67178e-07
1.25092e-06
4.74555e-06
1.62863e-05
4.79082e-05
0.000122077
0.000274815
0.000559461
0.000944901
0.00114434
0.00123179
0.00139675
0.0015622
0.00164017
0.00166756
0.00166742
0.00164424
0.00159852
0.00153129
0.00144507
0.00134368
0.00123164
0.00111349
0.000993426
0.0008752
0.000761402
9.22092e-06
1.45985e-05
1.74924e-05
1.85597e-05
1.63747e-05
1.4949e-05
1.36979e-05
1.26496e-05
1.17818e-05
1.1005e-05
1.00422e-05
8.86574e-06
7.57007e-06
6.31508e-06
5.17645e-06
4.18565e-06
3.33835e-06
2.6337e-06
2.05481e-06
1.59055e-06
1.22216e-06
9.37595e-07
7.2126e-07
5.5674e-07
4.37795e-07
3.52525e-07
2.94275e-07
2.54919e-07
2.30424e-07
2.16217e-07
2.0613e-07
2.00513e-07
1.97179e-07
1.9502e-07
1.95891e-07
2.06321e-07
3.015e-07
9.53411e-07
3.81361e-06
1.39055e-05
4.28412e-05
0.000112326
0.000256242
0.000527218
0.000912216
0.00112874
0.00121634
0.00137997
0.00154979
0.00163222
0.00166132
0.00166273
0.00164127
0.00159735
0.00153184
0.00144717
0.00134708
0.00123607
0.00111869
0.000999196
0.00088115
0.000767601
0.000660479
8.7971e-06
1.40262e-05
1.68222e-05
1.77259e-05
1.57424e-05
1.45361e-05
1.34213e-05
1.24722e-05
1.1666e-05
1.09221e-05
9.98182e-06
8.82275e-06
7.54325e-06
6.29859e-06
5.16461e-06
4.17594e-06
3.32996e-06
2.6278e-06
2.05071e-06
1.58749e-06
1.2197e-06
9.35579e-07
7.2006e-07
5.55902e-07
4.37016e-07
3.51698e-07
2.93621e-07
2.54109e-07
2.29971e-07
2.16194e-07
2.06253e-07
2.0025e-07
1.96889e-07
1.94541e-07
1.94459e-07
2.01443e-07
2.59575e-07
7.23429e-07
3.02405e-06
1.17986e-05
3.83251e-05
0.000103787
0.000240019
0.000498139
0.000880298
0.00111319
0.00120158
0.00136341
0.00153697
0.00162415
0.00165495
0.00165788
0.00163811
0.00159599
0.00153221
0.00144909
0.00135032
0.00124035
0.00112376
0.00100482
0.000887158
0.000773661
0.000666666
0.000567482
8.36947e-06
1.34594e-05
1.616e-05
1.69287e-05
1.51446e-05
1.4136e-05
1.31464e-05
1.22961e-05
1.15534e-05
1.08443e-05
9.92603e-06
8.78024e-06
7.51446e-06
6.28147e-06
5.1532e-06
4.16703e-06
3.32135e-06
2.62131e-06
2.04651e-06
1.58452e-06
1.21727e-06
9.33526e-07
7.18668e-07
5.5506e-07
4.36257e-07
3.50959e-07
2.92969e-07
2.53456e-07
2.29345e-07
2.15739e-07
2.06395e-07
1.99987e-07
1.96562e-07
1.94216e-07
1.93321e-07
1.98201e-07
2.33945e-07
5.51959e-07
2.36448e-06
9.93472e-06
3.42932e-05
9.6311e-05
0.000225991
0.000472308
0.000849678
0.00109785
0.00118767
0.00134719
0.00152371
0.001616
0.00164845
0.00165285
0.00163477
0.00159443
0.0015324
0.00145084
0.00135339
0.00124447
0.00112869
0.00101032
0.000893036
0.000779772
0.000672713
0.000573553
0.000483082
7.94489e-06
1.28934e-05
1.55082e-05
1.61792e-05
1.45816e-05
1.37463e-05
1.28725e-05
1.21223e-05
1.1444e-05
1.0769e-05
9.87464e-06
8.74133e-06
7.48604e-06
6.26398e-06
5.14186e-06
4.15831e-06
3.3132e-06
2.61457e-06
2.04166e-06
1.5816e-06
1.21484e-06
9.31525e-07
7.17144e-07
5.54208e-07
4.35564e-07
3.50311e-07
2.92313e-07
2.52852e-07
2.28581e-07
2.15151e-07
2.06395e-07
1.99741e-07
1.96205e-07
1.93887e-07
1.92396e-07
1.95793e-07
2.18965e-07
4.30906e-07
1.82325e-06
8.29123e-06
3.06882e-05
8.97801e-05
0.000213954
0.000449782
0.000820852
0.00108291
0.00117476
0.00133147
0.00151002
0.00160778
0.00164181
0.00164766
0.00163124
0.00159268
0.00153239
0.0014524
0.00135628
0.00124844
0.00113347
0.00101569
0.000898799
0.000785758
0.000678807
0.000579493
0.000488959
0.000407571
7.53814e-06
1.23238e-05
1.48721e-05
1.54818e-05
1.40532e-05
1.33637e-05
1.26011e-05
1.19524e-05
1.13382e-05
1.06958e-05
9.82543e-06
8.70635e-06
7.46101e-06
6.24699e-06
5.13055e-06
4.15036e-06
3.30593e-06
2.60784e-06
2.03635e-06
1.57871e-06
1.21255e-06
9.29725e-07
7.15552e-07
5.53334e-07
4.349e-07
3.49701e-07
2.91675e-07
2.52316e-07
2.27732e-07
2.1444e-07
2.06228e-07
1.99529e-07
1.9583e-07
1.93534e-07
1.91669e-07
1.93908e-07
2.10142e-07
3.51412e-07
1.39009e-06
6.84715e-06
2.74724e-05
8.4086e-05
0.000203709
0.000430493
0.000794357
0.00106856
0.00116305
0.00131642
0.00149604
0.00159952
0.00163505
0.00164232
0.00162752
0.00159073
0.00153218
0.00145377
0.001359
0.00125223
0.0011381
0.00102092
0.000904436
0.000791641
0.00068479
0.000585473
0.000494702
0.000413176
0.00034092
7.15084e-06
1.17544e-05
1.42596e-05
1.484e-05
1.35555e-05
1.29844e-05
1.23342e-05
1.17888e-05
1.12371e-05
1.06245e-05
9.77732e-06
8.67335e-06
7.43907e-06
6.23212e-06
5.11935e-06
4.14301e-06
3.2992e-06
2.60183e-06
2.03105e-06
1.57567e-06
1.21032e-06
9.27922e-07
7.14024e-07
5.52402e-07
4.3424e-07
3.49105e-07
2.9107e-07
2.51817e-07
2.26998e-07
2.13584e-07
2.05831e-07
1.99399e-07
1.95438e-07
1.93142e-07
1.91125e-07
1.92389e-07
2.04641e-07
3.0254e-07
1.0549e-06
5.58592e-06
2.46179e-05
7.9153e-05
0.000195058
0.000414304
0.000770678
0.00105503
0.00115272
0.00130221
0.00148221
0.0015912
0.00162817
0.00163681
0.00162363
0.0015886
0.00153179
0.00145496
0.00136154
0.00125587
0.00114257
0.00102601
0.000909948
0.000797406
0.000690678
0.000591359
0.000500491
0.000418645
0.000346184
0.000282864
6.78661e-06
1.11989e-05
1.36842e-05
1.42506e-05
1.30848e-05
1.26076e-05
1.20722e-05
1.1634e-05
1.11415e-05
1.0556e-05
9.72992e-06
8.64096e-06
7.41926e-06
6.2193e-06
5.10879e-06
4.13552e-06
3.29334e-06
2.59641e-06
2.02624e-06
1.57232e-06
1.20812e-06
9.26226e-07
7.12654e-07
5.51338e-07
4.33581e-07
3.48533e-07
2.90522e-07
2.5128e-07
2.26432e-07
2.12664e-07
2.05109e-07
1.99317e-07
1.95035e-07
1.92711e-07
1.90715e-07
1.912e-07
2.00784e-07
2.73547e-07
8.08494e-07
4.49311e-06
2.21151e-05
7.49222e-05
0.000187841
0.000400986
0.000750231
0.00104265
0.00114393
0.00128901
0.00146872
0.00158279
0.00162117
0.00163116
0.00161956
0.00158628
0.00153119
0.00145596
0.00136389
0.00125933
0.00114689
0.00103095
0.00091532
0.000803052
0.000696458
0.000597161
0.000506199
0.000424171
0.000351313
0.000287728
0.000232958
6.43063e-06
1.0671e-05
1.31547e-05
1.37062e-05
1.26365e-05
1.22336e-05
1.18169e-05
1.14878e-05
1.10518e-05
1.04916e-05
9.68426e-06
8.60892e-06
7.4001e-06
6.20755e-06
5.09946e-06
4.12767e-06
3.28763e-06
2.5916e-06
2.02187e-06
1.56901e-06
1.20588e-06
9.24626e-07
7.11293e-07
5.50221e-07
4.32917e-07
3.48008e-07
2.90024e-07
2.50753e-07
2.25932e-07
2.11724e-07
2.04267e-07
1.99109e-07
1.94623e-07
1.92247e-07
1.90343e-07
1.90234e-07
1.97847e-07
2.5637e-07
6.42316e-07
3.55527e-06
1.99684e-05
7.13608e-05
0.000181926
0.000390307
0.000733221
0.00103185
0.00113684
0.00127699
0.00145569
0.00157427
0.00161407
0.00162537
0.00161533
0.00158377
0.00153041
0.00145677
0.00136607
0.00126261
0.00115103
0.00103573
0.00092055