/*--------------------------------*- C++ -*----------------------------------*\
| =========                 |                                                 |
| \\      /  F ield         | OpenFOAM: The Open Source CFD Toolbox           |
|  \\    /   O peration     | Version:  v2012                                 |
|   \\  /    A nd           | Website:  www.openfoam.com                      |
|    \\/     M anipulation  |                                                 |
\*---------------------------------------------------------------------------*/
FoamFile
{
    version     2.0;
    format      ascii;
    class       volScalarField;
    location    "12000";
    object      PD;
}
// * * * * * * * * * * * * * * * * * * * * * * * * * * * * * * * * * * * * * //

dimensions      [0 0 0 0 0 0 0];


internalField   nonuniform List<scalar> 
27324
(
0.143223
0.180549
0.8348
0.204273
1.11552
1.59803
0.249348
1.30501
2.07025
2.1845
0.302389
1.58806
2.36729
2.75376
2.71688
0.37027
1.90343
2.80933
3.1182
3.24907
3.14897
0.437649
2.285
3.30268
3.65508
3.61808
3.51939
3.61852
0.66674
2.68252
3.84967
4.26724
4.15949
3.88354
3.79272
3.44438
2.53853
3.49587
4.83741
4.93649
4.80384
4.39763
4.01538
3.52236
3.02658
6.96365
4.8031
6.82993
6.5314
5.64326
4.93949
4.38136
3.33368
3.17172
2.82519
9.6088
8.10742
8.08664
8.89163
6.84414
5.56712
4.63486
3.53156
2.46018
3.12429
2.54679
1.29605
9.23982
10.4499
11.1399
9.27019
5.96508
4.71502
3.60053
2.41634
1.90146
3.29681
2.09192
0.400997
2.08812
9.45576
13.1288
14.3547
10.4548
5.53599
3.39774
2.38071
1.58596
1.71679
3.48998
1.66284
0.385769
1.49784
2.24325
10.3918
17.3056
21.0921
16.3221
5.99321
2.07992
1.52251
1.18876
1.79841
3.54641
1.24843
0.455198
1.53528
1.76735
2.19595
12.4361
26.1759
41.5725
30.1134
7.26586
1.44441
1.09355
0.982322
2.18121
2.62839
0.986138
0.456913
1.6444
1.79133
1.7131
2.27897
17.2379
49.3883
83.4263
56.5698
13.6556
1.93518
0.864761
0.723997
2.66129
1.36274
0.678764
0.47425
1.61306
1.78728
1.74167
1.76989
2.60111
31.7033
88.887
128.452
100.873
34.2955
5.64649
1.34234
0.641295
2.58808
0.287871
0.262709
0.469835
1.60979
1.74641
1.74192
1.86554
1.89437
4.15082
64.2816
111.857
156.359
162.365
86.1502
23.4205
5.64423
2.15535
2.61644
1.24689
0.680534
0.454081
1.57243
1.73192
1.75247
1.89179
2.09605
1.85265
13.2829
91.828
101.904
151.718
213.358
181.245
93.7999
41.5147
21.4607
18.6786
16.322
13.8337
0.437754
1.53583
1.72895
1.79437
1.96616
2.16738
2.16678
1.76297
40.6179
89.8403
68.6986
109.228
201.631
257.537
226.424
166.576
123.465
115.816
107.917
84.2638
0.434083
1.51412
1.75864
1.85642
2.04283
2.25672
2.2883
1.85325
3.81065
85.0611
65.1177
34.8292
54.5804
114.947
184.995
218.921
211.461
185.42
158.806
135.585
89.3072
0.436088
1.514
1.81018
1.94491
2.12985
2.29044
2.32964
2.07148
1.19068
13.3657
131.318
34.8394
11.4306
14.9617
29.2445
49.4121
65.9092
70.274
61.422
41.44
24.2882
34.9656
0.451243
1.53057
1.87031
2.03939
2.22071
2.33081
2.33775
2.14633
1.54918
0.74118
41.4761
144.373
14.2095
1.17154
0.902845
1.72102
3.30648
4.76457
4.37191
2.6696
0.990724
1.79672
19.1547
0.485957
1.57798
1.95026
2.12388
2.28736
2.35718
2.34487
2.1915
1.72614
0.898124
2.0349
96.827
111.997
6.04294
0.451263
0.282181
0.668589
1.75035
1.92041
0.69079
0.142059
0.0619952
9.10334
13.6492
0.541993
1.65816
2.03324
2.197
2.31578
2.36196
2.36924
2.24181
1.73837
1.12281
0.385853
10.6096
156.469
62.5075
2.56351
1.32742
0.808037
1.49511
2.73063
1.96116
0.620352
0.112039
1.55971
19.976
5.1307
0.599655
1.74852
2.09933
2.23742
2.31324
2.34329
2.39073
2.33862
1.77796
1.19689
0.69272
0.113222
39.2952
170.436
25.9155
0.448588
0.483779
0.768507
2.02435
2.32169
0.955935
0.160056
0.15674
10.1584
14.8493
1.24037
0.678755
1.86723
2.16545
2.27418
2.29512
2.32654
2.39609
2.39992
1.85394
1.28593
0.871038
0.174596
1.75759
98.6652
123.269
8.04637
0.0488622
0.132853
0.89296
2.25762
1.43738
0.256565
0.010732
3.37221
16.5088
4.84237
0.254571
0.762303
1.96981
2.21772
2.28661
2.28233
2.32346
2.40966
2.38721
1.88795
1.43877
0.97478
0.376222
0.00575588
12.2266
160.346
54.161
1.37585
0.00836742
0.256939
1.60935
1.88208
0.603428
0.0189627
0.563405
13.4154
8.75389
0.992856
0.0663641
0.826633
2.05406
2.20804
2.24073
2.25328
2.30148
2.43253
2.35151
1.84852
1.56097
1.13176
0.437843
0.104379
0.263396
51.1617
153.387
14.3602
0.188498
0.0985664
0.739531
1.9537
1.09843
0.113467
0.0419163
6.44292
13.5977
2.18452
0.200677
0.0298808
0.855568
2.09459
2.17703
2.18657
2.2309
2.31374
2.45743
2.32523
1.80776
1.57971
1.24706
0.530485
0.162912
0.012234
3.87175
122.676
83.4119
2.46821
0.0699204
0.202544
1.43466
1.56526
0.346048
0.00163458
1.75348
14.4558
4.93097
0.401805
0.0621838
0.0217757
0.886093
2.09241
2.13948
2.14546
2.23631
2.33541
2.47759
2.31543
1.78841
1.5597
1.22459
0.616512
0.217784
0.0432819
0.0580074
26.5632
153.319
25.8872
0.274168
0.0119073
0.62391
1.70854
0.778051
0.038611
0.23684
10.2134
8.94159
0.993644
0.090005
0.0344528
0.0216901
0.885141
2.05835
2.11668
2.13157
2.25785
2.36187
2.50274
2.27246
1.77774
1.53525
1.12759
0.611837
0.299054
0.0703684
0.00683333
1.58966
90.5337
94.8869
4.56528
0.023108
0.120423
1.33681
1.27284
0.19229
0.00606309
4.4958
12.5307
2.29819
0.185813
0.0344622
0.0309392
0.0218675
0.86603
1.98471
2.06248
2.14081
2.28587
2.37817
2.50396
2.27315
1.80035
1.51456
1.01698
0.540457
0.33331
0.127155
0.0223411
0.0232485
16.2169
139.178
29.3558
0.412756
0.00374884
0.651482
1.60028
0.533051
0.0142766
1.13206
12.6183
4.77825
0.40865
0.0515518
0.0255504
0.030349
0.0124307
0.853854
1.93774
2.06078
2.19609
2.3124
2.38187
2.48896
2.24841
1.77133
1.5179
0.958119
0.449958
0.306686
0.177706
0.058203
0.00282232
0.965203
71.6904
93.9633
4.91291
0.019667
0.152681
1.46504
1.03375
0.0973257
0.137862
8.70181
8.28807
0.938031
0.0867093
0.0287906
0.0255022
0.0191515
0.00985479
0.879944
1.9322
2.13014
2.30324
2.36768
2.37708
2.47312
2.21055
1.70883
1.44748
0.868243
0.397764
0.234991
0.193739
0.104939
0.0191688
0.0322491
12.6683
123.191
28.1711
0.539283
0.0108578
0.887903
1.49895
0.325087
0.000921084
3.90546
11.344
2.07982
0.168259
0.0349649
0.0253774
0.0161156
0.0187196
0.0583156
0.960331
1.99082
2.23053
2.39758
2.39917
2.36117
2.45755
2.15943
1.61853
1.39229
0.799718
0.362406
0.174389
0.151235
0.156457
0.0426858
0.00525666
0.830816
64.8026
80.2108
4.13757
0.0278223
0.30401
1.64104
0.714063
0.0251556
1.05689
11.5481
4.18201
0.355618
0.0496266
0.024448
0.0168415
0.0164733
0.0840485
0.200993
1.04327
2.07452
2.32414
2.46067
2.38477
2.33166
2.44788
2.11107
1.52525
1.32542
0.750527
0.338455
0.14131
0.0959626
0.149828
0.0953597
0.0148629
0.0370354
12.9474
108.305
21.1311
0.264725
0.0475007
1.25176
1.20287
0.126446
0.150802
8.37115
7.1934
0.779216
0.0808838
0.0252106
0.015961
0.0197092
0.0913457
0.235938
0.454538
1.16802
2.20207
2.3904
2.46155
2.35863
2.31213
2.45456
2.07484
1.47439
1.2761
0.693029
0.31154
0.11634
0.0572768
0.105588
0.133239
0.0414031
0.00963804
1.01736
64.9236
61.2287
2.53325
0.00373922
0.594247
1.55281
0.367265
0.00150859
4.12926
10.0899
1.67456
0.147104
0.0295777
0.0142555
0.0233459
0.106532
0.250671
0.485466
0.747662
1.32753
2.32276
2.4598
2.45399
2.33814
2.30679
2.46224
2.03607
1.45579
1.26637
0.649315
0.273561
0.0912652
0.0369216
0.0556332
0.123181
0.100614
0.0158708
0.0318388
16.3053
92.0943
12.8476
0.105952
0.143784
1.50265
0.769224
0.0275748
1.29942
10.948
3.33266
0.291102
0.0404283
0.0119392
0.0290848
0.121867
0.27959
0.482267
0.775325
1.0115
1.43082
2.42656
2.43084
2.37734
2.30915
2.33516
2.48439
2.01787
1.46296
1.26441
0.634503
0.238324
0.0643135
0.0251151
0.0248628
0.0804369
0.141443
0.0592042
0.00055601
1.62123
68.3344
40.3139
1.07876
0.00839058
0.995672
1.23956
0.135917
0.232246
8.82796
5.83632
0.603396
0.0622087
0.0110142
0.0364679
0.139749
0.308261
0.501569
0.747077
1.04451
1.19677
1.49869
2.44358
2.36019
2.27621
2.29845
2.36057
2.50248
2.03113
1.51294
1.29929
0.634288
0.223227
0.0445245
0.014597
0.0122106
0.0374117
0.140716
0.129464
0.0162702
0.0426697
23.7977
72.8496
6.18686
0.0278605
0.398408
1.54387
0.3801
0.00779171
5.09444
8.61872
1.24701
0.107945
0.0124803
0.0452011
0.159506
0.338239
0.522208
0.746635
0.996311
1.24178
1.27298
1.52206
2.43132
2.28921
2.23112
2.31057
2.42168
2.51934
2.05383
1.57013
1.32508
0.643553
0.220772
0.0358833
0.00830929
0.00588202
0.0161912
0.0931275
0.181241
0.0667744
0.00438905
3.67443
70.9872
22.4706
0.401223
0.0783988
1.4337
0.798046
0.019326
2.00108
10.2996
2.45188
0.204846
0.016758
0.0551785
0.180664
0.368715
0.548814
0.745811
0.982858
1.18251
1.33478
1.20642
1.50109
2.38327
2.25088
2.22446
2.33923
2.48493
2.47983
2.06238
1.61242
1.34249
0.68291
0.234516
0.0335424
0.00682829
0.0014994
0.0102896
0.0439544
0.174293
0.134517
0.0250798
0.22449
36.526
50.0009
2.43575
0.0012276
0.924926
1.25858
0.116639
0.496938
9.56301
4.38749
0.408144
0.0266897
0.0670403
0.202456
0.399739
0.579732
0.75185
0.964245
1.16524
1.27535
1.28645
0.958415
1.47836
2.2882
2.23633
2.23984
2.35466
2.50492
2.47181
2.06147
1.61848
1.33501
0.721702
0.258212
0.0407097
0.00850824
0.000551721
0.00271511
0.0191062
0.109399
0.172858
0.061888
0.00237056
9.51597
66.153
9.95277
0.0728837
0.376852
1.56795
0.33447
0.0547038
6.67236
6.87621
0.818023
0.0489342
0.0805924
0.225505
0.432453
0.614096
0.763706
0.94913
1.13873
1.26292
1.24307
1.05057
0.613686
1.52836
2.29209
2.27708
2.27258
2.35353
2.50484
2.43411
2.02742
1.60961
1.32007
0.764305
0.296639
0.0544338
0.0146489
0.00339098
0.000127469
0.0036247
0.0424865
0.151498
0.097796
0.00368982
1.23697
50.4703
27.5222
0.633502
0.0825432
1.46414
0.722899
0.00345526
3.37147
9.12665
1.58855
0.0980887
0.0955112
0.249773
0.467219
0.651194
0.781442
0.937075
1.11312
1.23787
1.24754
1.0378
0.674901
0.390861
1.64956
2.35061
2.39615
2.36164
2.35113
2.4978
2.40022
1.9605
1.53728
1.22485
0.785668
0.334236
0.0781578
0.0242536
0.0105709
0.00463743
0.000994379
0.00745718
0.0847772
0.129075
0.020457
0.0818778
21.7832
49.1228
3.14258
0.000264812
0.980502
1.17693
0.0779853
1.17822
9.85809
2.8907
0.207377
0.110759
0.275519
0.503684
0.690178
0.804376
0.929955
1.08741
1.21161
1.23746
1.06721
0.673547
0.409117
0.340032
1.76201
2.4347
2.45396
2.36789
2.35064
2.49397
2.37891
1.88883
1.47367
1.15236
0.786166
0.346915
0.100586
0.0385575
0.0178033
0.0170284
0.00828615
0.00250295
0.0278878
0.123133
0.0549163
0.00117662
5.15378
54.8775
10.95
0.0830504
0.429734
1.54618
0.261217
0.259987
8.37834
4.79234
0.42358
0.12657
0.304563
0.542304
0.729857
0.830589
0.928573
1.0636
1.18265
1.22401
1.08335
0.702217
0.404744
0.345203
0.351147
1.98013
2.50727
2.44503
2.34965
2.31736
2.5012
2.3787
1.83415
1.41869
1.08228
0.758375
0.342915
0.10883
0.0496038
0.0252326
0.026995
0.0218269
0.0094014
0.00646162
0.0840395
0.0996554
0.00484258
0.654211
37.7841
26.4139
0.655786
0.107618
1.56194
0.588224
0.0119926
5.46487
6.96822
0.839522
0.147669
0.337181
0.583192
0.768875
0.859075
0.933144
1.04308
1.15277
1.20529
1.09451
0.72628
0.415015
0.339132
0.363332
0.338688
2.08335
2.58055
2.41016
2.32284
2.33274
2.52085
2.36718
1.81439
1.38437
1.01061
0.701919
0.307668
0.10819
0.0520792
0.0228939
0.0277448
0.0314248
0.0179133
0.00598655
0.0392045
0.129166
0.0275205
0.0396863
15.6296
42.7706
2.99868
0.00201488
1.17615
1.05818
0.0239304
2.64423
8.59663
1.60229
0.190704
0.38017
0.625701
0.805215
0.88888
0.943268
1.02721
1.12297
1.18269
1.098
0.751196
0.425406
0.339564
0.360044
0.358473
0.30769
2.11906
2.53515
2.27251
2.27801
2.36261
2.55531
2.39343
1.79979
1.3776
0.959403
0.63669
0.260333
0.0886612
0.0515581
0.0191813
0.0139096
0.0253997
0.0215356
0.006095
0.0121442
0.121206
0.0702025
0.000350069
3.74211
45.569
9.82144
0.0632352
0.626355
1.47939
0.155897
0.900131
8.75658
2.83091
0.293182
0.427765
0.667714
0.838176
0.919611
0.957896
1.01702
1.09459
1.15706
1.09539
0.775087
0.438471
0.33906
0.361978
0.358923
0.328991
0.278992
2.13031
2.48236
2.17801
2.27021
2.42072
2.58202
2.40994
1.84087
1.40168
0.945142
0.585486
0.217053
0.0683048
0.040029
0.0193594
0.0074956
0.00748796
0.017263
0.00556401
0.00281989
0.0821884
0.116024
0.0155276
0.479963
31.9155
22.2347
0.521276
0.217679
1.66999
0.417129
0.170694
7.18303
4.45024
0.506152
0.47264
0.704389
0.867753
0.950729
0.975675
1.01294
1.06901
1.12967
1.08813
0.797857
0.453121
0.338411
0.361975
0.365714
0.330026
0.300233
0.255182
2.09472
2.41338
2.1511
2.29524
2.48464
2.59655
2.42397
1.88902
1.43271
0.954142
0.563908
0.192344
0.050453
0.0276882
0.0211801
0.0131988
0.000875416
0.00896481
0.00505627
0.00130109
0.0396946
0.143268
0.048595
0.0245959
14.3506
35.7285
2.28538
0.0339261
1.46556
0.832245
0.00398997
4.61326
6.11548
0.932603
0.500674
0.730247
0.89728
0.981549
0.995272
1.01419
1.04762
1.10198
1.07661
0.817633
0.468036
0.337002
0.361147
0.37089
0.338068
0.300602
0.276468
0.234061
2.225
2.39284
2.14299
2.32121
2.51308
2.56224
2.36309
1.92153
1.46575
0.990138
0.574037
0.186454
0.0428663
0.0166658
0.01896
0.0251584
0.00756291
0.0037003
0.00640832
0.00292003
0.0156936
0.114968
0.0951962
0.00214113
4.13214
39.4707
7.18076
0.0163704
0.983746
1.27797
0.0988777
2.22617
7.23257
1.68122
0.520503
0.757967
0.931347
1.01061
1.01533
1.01968
1.03154
1.07493
1.06204
0.833467
0.482214
0.335048
0.359401
0.375928
0.345144
0.308128
0.276225
0.25552
0.214566
2.42803
2.50445
2.2417
2.35832
2.51545
2.52354
2.3269
1.91872
1.48594
1.03921
0.59966
0.209864
0.0445357
0.00985905
0.0100095
0.0288182
0.0200025
0.00581282
0.00550167
0.00431096
0.00368369
0.059946
0.12808
0.0103657
0.748056
30.2605
16.5076
0.269593
0.483711
1.6474
0.35203
0.766085
7.22601
2.67305
0.572595
0.791282
0.972963
1.03596
1.0344
1.02771
1.02149
1.0496
1.04533
0.845211
0.495884
0.333211
0.357048
0.380477
0.35271
0.314894
0.283315
0.254738
0.236207
0.196497
2.57864
2.60655
2.31488
2.40511
2.5196
2.48436
2.26848
1.90646
1.44909
1.07425
0.647439
0.250411
0.065047
0.0102883
0.00147099
0.0132387
0.0243016
0.0091654
0.0022555
0.00734623
0.000164322
0.0152296
0.137187
0.0290197
0.0834402
15.7738
27.7532
1.35304
0.162651
1.70569
0.733633
0.160059
5.92186
3.96265
0.747168
0.830675
1.01966
1.05601
1.051
1.03739
1.01726
1.02729
1.02752
0.85317
0.508262
0.331318
0.354019
0.384526
0.360389
0.322175
0.289654
0.261435
0.234898
0.218151
0.179986
2.74797
2.65967
2.32377
2.39933
2.50795
2.4703
2.23049
1.87331
1.39866
1.05073
0.682395
0.300545
0.0901777
0.0229979
0.0023861
0.00164133
0.010563
0.0107812
7.43966e-05
0.0106341
0.00356002
0.0012926
0.10449
0.059998
0.00222262
5.58964
33.6263
4.39894
0.00750973
1.46768
1.25965
0.150503
3.9918
5.2858
1.12014
0.904437
1.05653
1.07117
1.06408
1.04798
1.01752
1.00904
1.00898
0.857658
0.518617
0.329031
0.350214
0.387965
0.368222
0.329637
0.296539
0.267426
0.241136
0.216274
0.201294
0.165242
2.79421
2.69196
2.36455
2.40412
2.5007
2.45012
2.21881
1.85691
1.3431
0.99241
0.661883
0.341814
0.122503
0.0360995
0.0158277
0.00453236
0.000932756
0.00817207
0.00157344
0.00994727
0.0136606
0.00222379
0.0563339
0.0983125
0.00548342
1.31807
29.3257
11.0121
0.0717177
1.05414
1.65613
0.490942
2.22664
6.09628
1.78627
0.947944
1.08059
1.08421
1.07369
1.05905
1.02029
0.995278
0.990057
0.858905
0.526498
0.326215
0.345673
0.390847
0.376126
0.337355
0.30362
0.273899
0.246719
0.22205
0.198914
0.185812
0.152567
2.83737
2.65445
2.36407
2.43751
2.51916
2.4623
2.22619
1.85498
1.2914
0.916122
0.602223
0.346303
0.144576
0.0506563
0.0225347
0.0182091
0.00333362
0.00438279
0.00607185
0.00584404
0.0221291
0.00457025
0.0201891
0.119859
0.0237322
0.189098
18.6659
19.7803
0.64111
0.607198
1.96367
1.0664
1.1346
6.00822
2.76929
0.976117
1.08202
1.10007
1.08049
1.06946
1.02379
0.985361
0.971455
0.856897
0.531766
0.322806
0.340533
0.393219
0.384063
0.345299
0.310971
0.280618
0.2528
0.227156
0.204185
0.183063
0.171992
0.142127
2.96645
2.64637
2.37807
2.45792
2.4993
2.4699
2.26613
1.90101
1.27258
0.845682
0.5449
0.313534
0.151556
0.0535913
0.0189601
0.0276365
0.0115648
0.00225393
0.00972618
0.00165887
0.016058
0.00813612
0.00441107
0.103996
0.0542171
0.00978837
8.68151
26.8416
2.47789
0.278729
2.09329
1.71072
0.692779
5.06011
3.84988
1.06463
1.08932
1.12305
1.08559
1.07737
1.02667
0.977476
0.954052
0.851101
0.534515
0.318802
0.334855
0.395109
0.392101
0.353571
0.318603
0.287613
0.259103
0.232792
0.208864
0.187768
0.168924
0.160027
0.134047
3.21061
2.70392
2.40901
2.48159
2.48375
2.4431
2.29005
1.9391
1.26838
0.812922
0.501082
0.280657
0.137462
0.0581666
0.00851803
0.014806
0.0189696
0.00267231
0.0100559
0.00339252
0.00500689
0.0118341
0.000406339
0.0619762
0.0969634
0.00179658
2.99564
27.4015
6.46951
0.0416939
2.01463
2.33967
0.836864
3.71388
4.90753
1.3535
1.10398
1.15081
1.08965
1.0809
1.02777
0.96916
0.938212
0.841234
0.535078
0.314485
0.328874
0.396524
0.400276
0.362249
0.32661
0.294965
0.26571
0.238602
0.213934
0.191965
0.173106
0.156742
0.150154
0.128524
3.52068
2.79541
2.45079
2.48894
2.46647
2.41898
2.32898
1.97209
1.27882
0.80746
0.48797
0.260874
0.115669
0.0632157
0.0115488
0.000594068
0.015981
0.00376295
0.00407751
0.0110745
7.95967e-05
0.0126638
0.00192934
0.0249015
0.118459
0.0140337
0.756622
21.3699
12.7842
0.0758062
1.75296
2.86944
1.37861
2.4918
5.60804
1.93323
1.1648
1.17058
1.09276
1.0791
1.02595
0.958346
0.922925
0.828051
0.533715
0.310258
0.322805
0.397503
0.408634
0.371382
0.335052
0.30268
0.27265
0.244768
0.219252
0.196495
0.176742
0.160358
0.146728
0.142541
0.125704
3.89844
2.89401
2.45882
2.48412
2.45565
2.39234
2.36811
1.99534
1.29001
0.823069
0.517582
0.264075
0.100528
0.0503335
0.028416
0.00244682
0.00594779
0.00881504
0.00093756
0.0156692
0.0025086
0.0077739
0.00793003
0.00443154
0.117628
0.0361663
0.142513
12.7283
19.2656
0.850886
1.4126
3.261
2.11218
1.66014
5.64655
2.81359
1.20045
1.1704
1.09657
1.0725
1.01985
0.944066
0.906015
0.813347
0.530841
0.306426
0.316745
0.398059
0.417184
0.381044
0.343909
0.310772
0.279975
0.251252
0.224894
0.201307
0.180745
0.163454
0.149799
0.139054
0.137325
0.125612
4.18529
3.01243
2.4383
2.47761
2.43061
2.36918
2.39778
2.00395
1.24123
0.833569
0.552418
0.299892
0.0970771
0.0347207
0.026237
0.0113586
0.00137197
0.0115002
0.000798069
0.00875154
0.00973598
0.0020846
0.0170072
0.000610572
0.0871442
0.0642814
0.0121712
5.93474
22.8423
2.99005
0.975678
3.4985
2.93391
1.37782
4.99819
3.86094
1.23428
1.15073
1.10384
1.06265
1.00774
0.925695
0.885109
0.799522
0.52713
0.302961
0.310717
0.398175
0.42585
0.391299
0.353291
0.319276
0.287616
0.258061
0.23085
0.206365
0.18497
0.166906
0.152307
0.141575
0.133866
0.13486
0.128512
4.52085
3.09582
2.41711
2.45053
2.41731
2.35694
2.42568
2.00025
1.17286
0.82
0.572822
0.342062
0.119076
0.0294638
0.0114944
0.0145774
0.000926682
0.00675047
0.00650434
0.000858585
0.0157369
1.35236e-05
0.0235514
0.00412549
0.0488323
0.0975614
0.00162661
2.18788
21.2401
6.99199
0.507271
3.59714
3.67925
1.57156
3.97302
4.79926
1.39153
1.14866
1.11597
1.05041
0.988534
0.902759
0.858827
0.785911
0.52246
0.299209
0.304464
0.397995
0.434652
0.402198
0.36326
0.328305
0.295726
0.265237
0.237125
0.211737
0.189455
0.17055
0.155199
0.143505
0.135712
0.131384
0.135272
0.134735
4.99576
3.20664
2.41791
2.40112
2.39668
2.36276
2.4903
1.98873
1.10603
0.803809
0.569836
0.369951
0.141884
0.0358125
0.00688402
0.00692533
0.00582721
0.00213226
0.0167036
0.00209198
0.00858031
0.00310364
0.0171157
0.0107208
0.0202079
0.108916
0.0161678
0.615876
15.8583
11.8821
0.346761
3.62092
4.29519
2.10576
2.98889
5.52219
1.84173
1.17474
1.12589
1.03461
0.961729
0.874691
0.828112
0.770469
0.518239
0.294889
0.297785
0.397744
0.443624
0.413882
0.373932
0.337876
0.304293
0.272801
0.243732
0.217408
0.19423
0.17445
0.158269
0.145786
0.137104
0.132495
0.131686
0.138823
0.14447
5.54105
3.36079
2.43082
2.34583
2.35482
2.40437
2.55094
1.97332
1.04119
0.792127
0.561079
0.374263
0.149304
0.0393118
0.01019
0.0017344
0.00757584
0.000398386
0.0159995
0.010863
0.0026857
0.0102079
0.00767302
0.0190199
0.00536662
0.0945824
0.0444328
0.122741
9.48303
16.0325
1.0731
3.52401
4.70654
2.80051
2.19454
5.74694
2.57894
1.24433
1.1127
1.01341
0.928811
0.841549
0.794539
0.751571
0.515891
0.290638
0.29101
0.397488
0.45302
0.426545
0.385431
0.348172
0.313383
0.280787
0.250683
0.223384
0.199254
0.178602
0.161587
0.148274
0.138776
0.133196
0.13203
0.134981
0.145848
0.158237
5.91599
3.50254
2.42503
2.27902
2.31115
2.48241
2.60583
1.93387
0.994415
0.786998
0.556117
0.368678
0.143856
0.031688
0.0114659
0.000959539
0.00495694
0.00286835
0.00981455
0.0183541
0.000450062
0.0109415
0.000494344
0.0195442
0.000282479
0.0643398
0.0804154
0.0117585
4.45411
17.6615
2.94756
2.83351
4.96469
3.62588
1.93823
5.39708
3.51852
1.25056
1.0642
0.988186
0.892736
0.804184
0.760088
0.729023
0.514039
0.286815
0.284233
0.396718
0.462891
0.44028
0.397803
0.359255
0.323137
0.289312
0.258041
0.229702
0.204598
0.183001
0.165103
0.15094
0.14062
0.134234
0.132023
0.134439
0.141556
0.156589
0.176323
6.15205
3.56448
2.3576
2.21599
2.27423
2.56238
2.66671
1.86424
0.958013
0.799821
0.560737
0.370062
0.132031
0.0244037
0.00776914
0.00140028
0.00136242
0.00500865
0.00227288
0.0130657
0.00378763
0.00692428
0.00486333
0.0134574
0.00733524
0.0381338
0.113099
0.0231343
1.64364
16.0753
5.97877
2.07093
5.15931
4.39228
2.08566
4.57015
4.52176
1.31803
1.01946
0.963536
0.856331
0.764304
0.726015
0.704504
0.509687
0.283381
0.277737
0.394539
0.472929
0.455122
0.411051
0.371126
0.333604
0.298367
0.265855
0.236358
0.210227
0.187691
0.168862
0.153783
0.142617
0.135426
0.132355
0.133702
0.140041
0.151792
0.171496
0.198865
6.45195
3.56345
2.25874
2.17541
2.26058
2.66428
2.71146
1.78168
0.949278
0.805949
0.581355
0.379259
0.129678
0.018048
0.00562726
0.00102441
0.000155842
0.0049373
0.0025073
0.00284587
0.0109396
0.00180959
0.0140182
0.00392127
0.022714
0.0181046
0.13188
0.0885716
0.493853
11.7666
9.79746
1.52877
5.3078
5.06382
2.46
3.49959
5.31378
1.57816
1.01289
0.93912
0.819784
0.724202
0.693148
0.679077
0.499396
0.278812
0.271776
0.39049
0.481878
0.47083
0.425062
0.383735
0.344749
0.308075
0.274143
0.243404
0.21614
0.192628
0.172854
0.156944
0.144867
0.13678
0.132791
0.133202
0.138368
0.149091
0.165894
0.190794
0.226017
6.89223
3.54881
2.15611
2.15707
2.28254
2.76804
2.72511
1.72268
0.962062
0.806855
0.583064
0.39251
0.137944
0.0162268
0.00452988
0.000937597
2.96624e-05
0.00248065
0.00891788
3.54261e-05
0.015609
0.000894665
0.0196752
0.000396234
0.0357367
0.00479603
0.159434
0.182239
0.215987
7.21152
12.9003
1.85325
5.20463
5.55574
3.01461
2.58992
5.80035
2.13743
1.01704
0.89715
0.780679
0.686449
0.661601
0.651693
0.480816
0.269778
0.265423
0.385009
0.488001
0.4866
0.439743
0.396812
0.356441
0.318337
0.282964
0.250922
0.22247
0.197862
0.177133
0.160281
0.147349
0.138394
0.133519
0.132895
0.137008
0.146411
0.161848
0.184088
0.214507
0.25748
7.39379
3.59461
2.05291
2.19051
2.33847
2.83574
2.70709
1.66206
1.00183
0.799826
0.567584
0.385801
0.144465
0.0201171
0.00492861
0.00180774
0.000136851
0.000473303
0.00648963
0.00107504
0.010208
0.00608363
0.0123143
0.00601608
0.0385454
0.000443556
0.187716
0.281288
0.34147
3.86317
14.0368
3.39102
4.78433
5.84111
3.62393
2.11749
5.7653
2.9351
1.00647
0.82416
0.739787
0.654139
0.630538
0.618699
0.451419
0.253044
0.256096
0.378796
0.490332
0.500647
0.45472
0.410043
0.368354
0.328967
0.2923
0.258864
0.229214
0.203433
0.181697
0.16388
0.150021
0.14017
0.134421
0.132873
0.135889
0.144029
0.157961
0.178605
0.206798
0.242611
0.292322
8.11358
3.67422
1.98374
2.27214
2.42544
2.88106
2.68508
1.59966
1.04974
0.810263
0.558161
0.356806
0.138355
0.0261199
0.00512727
0.00496164
0.000913013
9.68387e-05
0.00275717
0.00270774
0.00546527
0.0120193
0.0045838
0.0162693
0.0190143
0.00863611
0.223427
0.390849
0.657688
2.06703
13.0028
5.96653
3.91332
5.81632
4.23394
1.98789
5.01972
3.8609
0.978887
0.747031
0.703598
0.628131
0.597038
0.574056
0.408393
0.226727
0.240904
0.371114
0.489776
0.510312
0.468876
0.423202
0.38017
0.339801
0.301946
0.267229
0.236335
0.20939
0.186515
0.167697
0.152938
0.142209
0.13549
0.132983
0.134912
0.141854
0.154393
0.173381
0.199645
0.233747
0.274607
0.329013
9.25956
3.85728
1.91546
2.35021
2.52359
2.89133
2.64267
1.57668
1.07017
0.810324
0.576391
0.328962
0.11873
0.030167
0.00571292
0.00562047
0.00318251
9.66944e-05
0.00174277
0.00178237
0.00164246
0.00922706
0.000389906
0.0204478
0.00267365
0.0268624
0.275878
0.548711
1.09791
1.55966
10.486
8.97281
2.99621
5.74667
4.77859
2.1864
4.05136
4.77065
1.0835
0.710354
0.675692
0.603185
0.555205
0.512225
0.350598
0.191354
0.219193
0.359693
0.488423
0.515189
0.480231
0.436402
0.392172
0.350893
0.311982
0.276148
0.243903
0.215716
0.191656
0.171837
0.156102
0.144449
0.136828
0.133337
0.134257
0.139959
0.151098
0.168517
0.192952
0.224982
0.264552
0.309221
0.365728
10.3487
4.33016
1.88495
2.39309
2.60646
2.84179
2.61604
1.57366
1.06777
0.783468
0.592535
0.337432
0.101384
0.0262509
0.0119124
0.000725701
0.00841127
0.000351597
0.00298336
0.00163579
0.00139447
0.0026355
0.00466968
0.0129719
0.0044312
0.0414157
0.321313
0.785559
1.63831
1.89306
7.63347
11.7258
2.63885
5.55822
5.23372
2.50538
3.01235
5.51236
1.44104
0.712934
0.644539
0.567338
0.498131
0.432009
0.281329
0.150377
0.193421
0.344641
0.486863
0.519027
0.487506
0.449523
0.404933
0.361249
0.320828
0.283927
0.250856
0.221836
0.196966
0.176231
0.159498
0.146939
0.138337
0.133926
0.133784
0.138374
0.148205
0.163997
0.186611
0.216714
0.254282
0.298426
0.344888
0.400352
11.6259
4.7639
1.96501
2.4112
2.68658
2.78916
2.59012
1.60883
1.06568
0.728904
0.588598
0.359245
0.0983967
0.0220888
0.0111332
0.00289824
0.00842428
0.00372012
0.00474016
0.00277304
0.0010301
0.000130848
0.00825357
0.00511887
0.0348602
0.068435
0.423179
1.12522
2.26849
2.74046
5.55664
13.237
3.41958
5.21735
5.49436
2.88252
2.15062
5.77587
2.00944
0.694331
0.588428
0.509105
0.423233
0.3415
0.20815
0.108221
0.158168
0.332447
0.483253
0.526103
0.493759
0.459352
0.415844
0.369528
0.328513
0.291085
0.257472
0.227742
0.202094
0.180555
0.163107
0.149642
0.14012
0.134689
0.133556
0.137004
0.145462
0.159745
0.180667
0.208751
0.244445
0.286758
0.333686
0.379682
0.431185
13.6651
5.428
1.96664
2.40539
2.73029
2.74633
2.52499
1.68701
1.06796
0.704606
0.552771
0.369141
0.119487
0.0226212
0.00314287
0.0134999
0.000697133
0.017782
0.00306899
0.00793352
0.000145937
0.000497187
0.00597769
0.00333754
0.0793485
0.120478
0.608058
1.63789
3.00618
3.74461
4.39143
13.1884
5.36766
4.5444
5.49308
3.24671
1.63641
5.35705
2.80682
0.658948
0.513107
0.428069
0.336532
0.255739
0.140489
0.0694551
0.127851
0.294639
0.47567
0.533695
0.502942
0.462519
0.423784
0.378651
0.335447
0.298131
0.264477
0.234246
0.207806
0.185304
0.166843
0.152477
0.142161
0.135784
0.133638
0.135893
0.143112
0.155851
0.174996
0.20123
0.235031
0.275701
0.321323
0.368766
0.411712
0.456848
14.5084
6.6388
1.98643
2.36002
2.77493
2.74954
2.42954
1.69198
1.04272
0.720474
0.53938
0.333817
0.139123
0.0225354
0.0100145
0.00549131
0.00651997
0.0225521
0.00177933
0.017137
0.000608115
0.000452508
0.000611841
0.00948223
0.137789
0.244928
0.935627
2.34015
3.88187
4.78217
4.01666
11.8721
7.93492
3.51588
5.23682
3.57347
1.38965
4.4076
3.82635
0.704441
0.450465
0.335824
0.252442
0.189797
0.0859623
0.0374118
0.096661
0.265664
0.454103
0.52745
0.507228
0.463054
0.42439
0.387345
0.344387
0.305753
0.271001
0.240319
0.213317
0.190123
0.170897
0.155631
0.144303
0.137043
0.133889
0.135077
0.141028
0.152357
0.169796
0.194169
0.22591
0.264865
0.30944
0.356268
0.401767
0.439476
0.476962
10.7633
6.85995
2.15048
2.20146
2.71447
2.85594
2.38349
1.65074
0.987133
0.741994
0.57219
0.311117
0.131308
0.0384769
0.00934399
0.00495206
0.0245873
0.00358917
0.0199292
0.0154126
0.00763212
0.00507253
0.00367881
0.027327
0.232938
0.508272
1.49118
3.2695
4.85087
5.73227
4.41633
10.1466
10.3792
2.63708
4.89741
3.82021
1.40665
3.25126
4.85537
0.918169
0.394888
0.247277
0.187781
0.1487
0.0523539
0.0159921
0.0733069
0.241883
0.428813
0.53384
0.503099
0.466677
0.42076
0.389476
0.353672
0.312627
0.277204
0.24577
0.218437
0.194881
0.174995
0.158984
0.146787
0.138526
0.134379
0.134464
0.139215
0.149138
0.164998
0.187489
0.217272
0.254354
0.297487
0.344134
0.389763
0.430834
0.462055
0.491826
903.938
5.71896
2.04221
2.17828
2.51695
2.85474
2.37315
1.63139
0.924665
0.747632
0.61331
0.324656
0.112755
0.0472364
0.00338986
0.040418
0.00863755
0.0175388
0.0381042
0.000377941
0.0375656
0.0121323
0.00729706
0.0679037
0.389149
1.01557
2.36841
4.41498
5.87222
6.54225
5.06013
8.25955
12.2907
2.43183
4.46517
3.95588
1.49951
2.19906
5.60597
1.29972
0.326276
0.1718
0.139063
0.120651
0.0384424
0.00517853
0.0557957
0.219231
0.412886
0.518872
0.52177
0.467697
0.431749
0.383045
0.356694
0.319899
0.282789
0.251131
0.223128
0.199182
0.178959
0.162326
0.149462
0.140359
0.135202
0.134205
0.137777
0.14631
0.16054
0.181198
0.209056
0.244176
0.285831
0.331693
0.377913
0.42009
0.455034
0.47962
0.502206
40.5385
18.5868
1.29221
2.25719
2.51654
2.73072
2.37562
1.66831
0.911373
0.737524
0.610922
0.356226
0.107241
0.0239834
0.0223016
0.013837
0.00853696
0.0621197
0.00596243
0.0481447
0.0594672
0.00601326
0.0190201
0.206517
0.740851
1.79957
3.63964
5.74802
6.89484
7.2014
5.78132
6.52311
13.342
3.16989
3.86394
3.91755
1.64739
1.36019
5.57117
1.94991
0.285255
0.110253
0.102515
0.104238
0.0379598
0.00539519
0.0429248
0.198836
0.396431
0.507561
0.520909
0.488933
0.43114
0.398672
0.346595
0.324075
0.288062
0.255856
0.227578
0.20315
0.182545
0.165533
0.152104
0.142282
0.136282
0.134289
0.136577
0.143796
0.156406
0.175298
0.201111
0.234344
0.27435
0.31924
0.365725
0.40917
0.445851
0.474125
0.492566
0.509183
1.57547
6.26388
37.2998
1.81738
2.41564
2.88131
2.21461
1.71245
1.03073
0.735963
0.552144
0.352098
0.130644
0.0207674
0.0094876
0.00941141
0.0563598
0.0209885
0.0249413
0.134825
0.0367624
0.102037
0.105821
0.53333
1.4664
3.04569
5.30198
7.18134
7.87922
7.73886
6.37569
5.36261
13.5638
4.7
2.91969
3.70219
1.84019
0.857911
5.08563
2.84309
0.303966
0.0893068
0.088641
0.101237
0.0513432
0.0137237
0.0350873
0.183066
0.380457
0.506925
0.511099
0.500022
0.451211
0.394851
0.363692
0.313711
0.292522
0.258659
0.231717
0.206816
0.185834
0.168528
0.154724
0.144342
0.137527
0.134593
0.135795
0.14168
0.152744
0.169872
0.193764
0.224897
0.263056
0.306798
0.353155
0.397713
0.43647
0.466694
0.488445
0.50153
0.513477
1.58427
2.33657
2.36724
21.7445
3.74344
2.68881
2.31483
1.49347
1.23513