/*--------------------------------*- C++ -*----------------------------------*\
| =========                 |                                                 |
| \\      /  F ield         | OpenFOAM: The Open Source CFD Toolbox           |
|  \\    /   O peration     | Version:  v2012                                 |
|   \\  /    A nd           | Website:  www.openfoam.com                      |
|    \\/     M anipulation  |                                                 |
\*---------------------------------------------------------------------------*/
FoamFile
{
    version     2.0;
    format      ascii;
    class       volScalarField;
    location    "12000";
    object      q1;
}
// * * * * * * * * * * * * * * * * * * * * * * * * * * * * * * * * * * * * * //

dimensions      [0 0 0 0 0 0 0];


internalField   nonuniform List<scalar> 
27324
(
0.465382
0.479347
0.494201
0.489834
0.496481
0.496632
0.494999
0.49811
0.497722
0.497009
0.498545
0.498576
0.498601
0.497751
0.496752
0.499269
0.499344
0.498674
0.498481
0.497241
0.495157
0.496507
0.499612
0.499171
0.498401
0.497973
0.495242
0.488265
0.453275
0.497961
0.499478
0.498794
0.49765
0.496272
0.487038
0.460024
0.286769
0.488827
0.497529
0.499223
0.498031
0.495404
0.489837
0.457098
0.393431
0.186799
0.434269
0.490018
0.496463
0.498683
0.495679
0.488165
0.468799
0.393341
0.311463
0.158131
0.349722
0.455315
0.485933
0.49339
0.496983
0.488422
0.468888
0.423068
0.303893
0.214157
0.340069
0.297734
0.388724
0.449628
0.472764
0.484131
0.491559
0.4705
0.43114
0.340903
0.198474
0.121248
0.489798
0.459838
0.334938
0.38671
0.419972
0.43805
0.458528
0.477033
0.432401
0.361907
0.22189
0.112466
0.0497961
0.500363
0.503032
0.482365
0.345765
0.359134
0.350808
0.366181
0.402582
0.439522
0.357095
0.260543
0.100416
0.0490184
0.0415078
0.500144
0.501356
0.507158
0.493404
0.343325
0.294881
0.257268
0.261451
0.288258
0.341397
0.255705
0.139007
0.00577041
0.00780756
0.124942
0.499483
0.50049
0.502233
0.512123
0.503933
0.308872
0.204642
0.184581
0.171604
0.15031
0.171629
0.132656
0.00168408
0.0414566
0.07289
0.144062
0.498994
0.500052
0.500802
0.503462
0.517736
0.504647
0.23425
0.129409
0.126073
0.111023
0.0785191
0.0669986
0.0218034
0.0968391
0.0769423
0.0599955
0.0352123
0.498412
0.49989
0.500233
0.501203
0.504799
0.525422
0.45699
0.160348
0.0744915
0.0755864
0.0705677
0.0549348
0.0174289
0.00143861
0.0871836
0.0493714
0.0127235
0.0769325
0.498141
0.499688
0.500008
0.500449
0.501615
0.506783
0.54255
0.31904
0.114482
0.0259202
0.0348188
0.0415111
0.0478298
0.0324799
0.0293928
0.0388409
0.0441001
0.093887
0.0245603
0.499027
0.499418
0.499765
0.500137
0.500697
0.502238
0.512651
0.554892
0.194017
0.0844314
0.0180891
0.0011851
0.00903271
0.0265414
0.0363856
0.0360229
0.0321365
0.0230328
0.0209739
0.0210305
0.499594
0.4995
0.49937
0.49983
0.500268
0.501056
0.504112
0.530457
0.446408
0.114112
0.0678454
0.0479309
0.0261852
0.0292384
0.0156241
2.28273e-05
0.00212414
0.00504027
0.0261621
0.0629419
0.0404596
0.499832
0.499681
0.499342
0.499282
0.499904
0.500451
0.501916
0.509673
0.568941
0.282785
0.0646407
0.040676
0.0394088
0.049612
0.0652141
0.0537361
0.0423012
0.0410376
0.0417426
0.0416755
0.130167
0.0310377
0.499868
0.499789
0.499549
0.499149
0.499184
0.499956
0.500779
0.504098
0.522315
0.60184
0.155217
0.0323456
0.0112129
0.00384169
0.143291
0.135436
0.108662
0.084502
0.0754632
0.0494495
0.000685446
0.012999
0.0487813
0.49984
0.499877
0.49969
0.499392
0.498919
0.498889
0.499901
0.501311
0.508295
0.550175
0.454356
0.055665
0.0234636
0.00414214
0.0693187
0.0883538
0.0722908
0.0371869
0.0427867
0.0525646
0.0316052
0.108084
0.126085
0.0371594
0.499762
0.499889
0.499813
0.499567
0.499171
0.498404
0.497933
0.499409
0.501797
0.516568
0.615833
0.220936
0.00108284
0.023236
0.0710029
0.0363135
0.0133733
0.014597
0.0113242
0.00811043
0.0101382
0.0376497
0.00952589
0.0916888
0.0309208
0.499727
0.499879
0.499838
0.499719
0.499392
0.498731
0.496997
0.495374
0.497974
0.50206
0.533916
0.68202
0.0933543
0.0227743
0.0135134
0.139074
0.0110626
0.00390414
0.00103316
0.0138506
0.0278311
0.0323222
0.00511649
0.0138846
0.0400957
0.0386318
0.499734
0.499916
0.499844
0.499764
0.499583
0.499088
0.497601
0.493501
0.490039
0.495568
0.503584
0.592975
0.290539
0.0311198
0.0271642
0.00149945
0.0785232
0.0126924
0.00560938
0.0111406
0.0316584
0.0248186
0.1264
0.0147698
0.0139148
0.00349553
0.0551407
0.49983
0.499949
0.499899
0.499775
0.499634
0.499303
0.498244
0.494719
0.486209
0.48304
0.493193
0.507195
0.833171
0.113978
0.00420637
0.0172383
0.00486006
0.245815
0.0196724
0.0146641
0.0224954
0.0355849
0.0145001
0.0304386
0.0354396
0.0138533
0.0263861
0.108399
0.499931
0.500009
0.499944
0.499846
0.499652
0.499378
0.498658
0.496077
0.488581
0.476548
0.475263
0.483016
0.526616
0.338158
0.0433194
0.0163395
0.0026085
0.0606983
0.0256026
0.0195752
0.0203898
0.0220242
0.0239945
0.0459364
0.0258088
0.0166351
0.0449603
0.0445134
0.174563
0.500041
0.500063
0.50004
0.499913
0.499771
0.499495
0.498849
0.497034
0.491535
0.479976
0.463179
0.453009
0.464766
0.604396
0.116613
0.00786443
0.0174997
0.00110182
0.107334
0.0362655
0.0219327
0.023793
0.0182373
0.109465
0.00271996
0.0342675
0.0255262
0.0716376
0.0762507
0.181362
0.500086
0.500128
0.500144
0.500079
0.499894
0.499654
0.499081
0.497484
0.493774
0.484972
0.465091
0.427395
0.418129
0.43472
0.337353
0.0501184
0.0117296
0.00970706
0.0349815
0.145131
0.0349385
0.021857
0.0277392
0.0234228
0.0480277
0.0409813
0.00365837
0.0593171
0.112927
0.0725983
0.096144
0.500017
0.50012
0.500209
0.500219
0.500144
0.499849
0.499362
0.497961
0.494902
0.489263
0.471457
0.424513
0.371765
0.355791
0.518209
0.0954173
0.0178041
0.0164093
0.00448131
0.0869024
0.066988
0.0245626
0.0254653
0.00940783
0.0200871
0.026539
0.0228645
0.0489679
0.0932945
0.141128
0.0193235
0.0364303
0.499994
0.50005
0.500194
0.500295
0.500316
0.500232
0.499702
0.498593
0.496035
0.491476
0.479423
0.433155
0.357747
0.281872
0.336407
0.276682
0.0456674
0.00126551
0.0131443
0.0109432
0.246775
0.0343167
0.0257845
0.0231092
0.172948
0.011455
0.0415797
0.0300481
0.0838105
0.125528
0.0833656
0.120845
0.148862
0.499942
0.500017
0.500109
0.500286
0.500407
0.500518
0.500422
0.499313
0.497265
0.493345
0.484
0.450813
0.362521
0.256546
0.229165
0.390521
0.0660755
0.0238073
0.0109012
0.0133339
0.15554
0.0713336
0.0266956
0.0235287
0.058082
0.0573058
0.0442851
0.00398099
0.0727296
0.117805
0.0882863
0.0401264
0.223252
0.0853768
0.499946
0.499956
0.500053
0.500168
0.500422
0.500618
0.500985
0.500857
0.49858
0.495379
0.486965
0.463981
0.389694
0.247533
0.195329
0.158598
0.100073
0.0383783
0.00857389
0.019771
0.0788478
0.238645
0.0258829
0.0255004
0.0103264
0.296108
0.0240345
0.0243168
0.0588279
0.106435
0.104164
0.0304673
0.175253
0.093409
0.136897
0.499923
0.499917
0.499929
0.500098
0.500254
0.500639
0.501149
0.502153
0.501597
0.497593
0.491242
0.47277
0.421047
0.271501
0.172797
0.110337
0.0518699
0.0518995
0.023774
0.00335839
0.0387676
0.251811
0.0262137
0.027014
0.0098223
0.154566
0.021325
0.0448742
0.0385365
0.0959292
0.109558
0.00138139
0.178746
0.0380596
0.0527682
0.0653947
0.499868
0.499891
0.499851
0.499905
0.500108
0.500426
0.501169
0.502502
0.504334
0.50262
0.495714
0.482788
0.444704
0.319118
0.178955
0.0845167
0.00351104
0.108334
0.0237228
0.0163829
0.0240582
0.0881602
0.0482619
0.0308267
0.0149694
0.050861
0.0670446
0.0494632
0.01121
0.0849521
0.109338
0.0240457
0.169126
0.0712745
0.0827586
0.0324974
0.0196814
0.499882
0.49989
0.499825
0.499781
0.499864
0.500163
0.500794
0.502533
0.504999
0.507129
0.505154
0.492372
0.465877
0.377167
0.211435
0.0673936
0.0025738
0.187308
0.00411844
0.0305481
0.00695943
0.0537535
0.401476
0.0304122
0.023149
0.0116432
0.289099
0.0307038
0.0193153
0.0710034
0.106509
0.043898
0.154388
0.0842267
0.0583133
0.0559797
0.00274527
0.0025257
0.499922
0.499943
0.499819
0.499747
0.499641
0.499764
0.500317
0.501735
0.504968
0.508048
0.513596
0.510719
0.486839
0.432654
0.270607
0.0712311
0.0105844
0.143552
0.108945
0.0292356
0.0180873
0.0402642
0.165353
0.0229155
0.0295073
0.00975812
0.177518
0.0146221
0.0433133
0.051569
0.101012
0.0657703
0.128358
0.0984263
0.0497537
0.0485303
0.0180582
0.0189421
0.00536346
0.499946
0.499985
0.499888
0.499702
0.49957
0.499412
0.499554
0.500679
0.503437
0.507955
0.515591
0.527536
0.527202
0.478632
0.351468
0.08776
0.0115132
0.0981425
0.440583
0.0192172
0.031955
0.014171
0.07588
0.10815
0.0369974
0.0187934
0.0725461
0.0665237
0.0526073
0.0255146
0.0926457
0.0861565
0.107499
0.110581
0.0383983
0.0469923
0.0180345
0.00118094
0.0169821
0.0196148
0.500047
0.500031
0.499972
0.4998
0.499584
0.499306
0.498925
0.499013
0.501355
0.505551
0.5152
0.532472
0.566366
0.560043
0.428125
0.120347
0.0148324
0.0585422
0.0949519
0.0633272
0.0258311
0.0149819
0.0510807
0.251248
0.0355536
0.0271556
0.0217666
0.0534014
0.0397522
0.00573411
0.0811984
0.097864
0.0804855
0.117737
0.029279
0.0445008
0.0200885
0.00345
0.00238046
0.00298115
0.0377032
0.500077
0.500117
0.500093
0.499963
0.499739
0.499371
0.498709
0.497582
0.498133
0.502189
0.51064
0.532321
0.581156
0.636188
0.539679
0.161605
0.022899
0.0580393
0.0508136
0.205802
0.00258299
0.0340554
0.0278916
0.130792
0.0327805
0.0319808
0.0032881
0.237812
0.00115365
0.0343317
0.0650702
0.101175
0.0327558
0.121465
0.0227009
0.0438615
0.0210603
0.00142382
0.00620772
0.0104024
0.0158212
0.0558692
0.500028
0.50012
0.500222
0.500172
0.499972
0.499606
0.498742
0.497167
0.49552
0.496893
0.504405
0.522093
0.583644
0.656446
0.706018
0.24357
0.0437826
0.0557753
0.0409791
0.134349
0.00619381
0.0298582
0.00696031
0.0871152
0.426169
0.0306797
0.0167275
0.100212
0.0601983
0.0516361
0.0427572
0.0979782
0.0193922
0.120899
0.0146944
0.0439321
0.0217357
0.000624431
0.00603128
0.0061484
0.028575
0.0349476
0.0745286
0.499987
0.500063
0.500228
0.500323
0.500269
0.499959
0.499202
0.497328
0.494709
0.492784
0.494359
0.50903
0.555851
0.634702
0.791887
0.429047
0.0626768
0.0665627
0.0323863
0.0693775
0.247056
5.98911e-05
0.0340732
0.0507377
0.190732
0.0133413
0.027754
0.0300067
0.0752552
0.0500249
0.0141296
0.0901039
0.0561075
0.114405
0.00371513
0.0445599
0.0223913
0.000230874
0.00679013
0.00558887
0.0245668
0.0481951
0.052416
0.131429
0.499909
0.500027
0.50015
0.500338
0.500474
0.500435
0.499911
0.498254
0.494909
0.491313
0.486502
0.488835
0.521678
0.570736
0.597494
0.774255
0.139577
0.104354
0.0233357
0.041009
0.21878
0.0468629
0.0432733
0.019462
0.115004
0.0148154
0.0383506
0.00376977
0.390917
0.0227747
0.0172701
0.0776119
0.0735303
0.100197
0.00921722
0.0449487
0.0234992
0.00102863
0.00734195
0.0040957
0.0238393
0.0452633
0.0647613
0.0978353
0.272025
0.499914
0.499909
0.500063
0.50024
0.500481
0.50075
0.500864
0.499798
0.496617
0.491099
0.484296
0.473404
0.47455
0.51437
0.472748
0.397217
0.287039
0.228691
0.0148447
0.0261251
0.0799136
0.0896825
0.0249037
0.0190232
0.0795574
0.672213
0.0392263
0.0154828
0.135446
0.0317156
0.041839
0.0588185
0.0817145
0.075621
0.0225519
0.0440853
0.0252112
0.0021165
0.00803056
0.00290744
0.0221726
0.0454055
0.0619867
0.103764
0.240909
0.387872
0.499905
0.499869
0.499843
0.500078
0.500335
0.500755
0.501517
0.501896
0.499611
0.494333
0.485121
0.469505
0.442145
0.448228
0.409086
0.271872
0.126063
0.323326
0.00217939
0.0121493
0.045946
0.114269
0.0156097
0.0428119
0.04501
0.212829
0.0191938
0.027977
0.0487528
0.0836289
0.0517181
0.0338764
0.0843138
0.0375548
0.0336877
0.0410687
0.0276352
0.00325367
0.00875116
0.00165778
0.0206953
0.0445198
0.0625957
0.0948473
0.23847
0.373555
0.434307
0.499859
0.499882
0.499744
0.499778
0.500104
0.500542
0.501501
0.503282
0.503571
0.49963
0.490851
0.471359
0.436197
0.410953
0.356416
0.244021
0.0785868
0.154749
0.0245544
0.0171857
0.025477
0.0716428
0.0637983
0.0431246
0.00574624
0.135514
0.0241388
0.0415938
0.0166888
0.0111855
0.0396987
0.00528718
0.0880371
0.0107504
0.0457797
0.0352947
0.0305804
0.00498245
0.00952479
0.000320698
0.019161
0.0438183
0.0625885
0.0901815
0.224178
0.373293
0.42734
0.450533
0.499847
0.499874
0.499762
0.499615
0.499667
0.500178
0.501042
0.50325
0.506166
0.506318
0.499896
0.482533
0.440892
0.410212
0.352476
0.249195
0.0605113
0.076987
0.0983736
0.0230791
0.0124635
0.0507417
0.0902617
0.0154078
0.032641
0.0900351
0.305749
0.046454
0.00901435
0.221488
0.00270183
0.023214
0.0746929
0.0447611
0.0514712
0.026892
0.0337661
0.00728837
0.0102246
0.00119775
0.0176886
0.0428372
0.0630004
0.085902
0.211401
0.366544
0.429834
0.445339
0.458263
0.499946
0.499964
0.499763
0.499637
0.499435
0.499511
0.500336
0.502257
0.506147
0.510766
0.510855
0.501078
0.463853
0.414286
0.368763
0.325059
0.0703811
0.0435482
0.057645
0.0307194
0.0182981
0.0327163
0.0274409
0.0296655
0.0550598
0.0508351
0.265736
0.0348306
0.0208099
0.0842267
0.0724342
0.0457399
0.053334
0.0618471
0.0576985
0.0171203
0.0369182
0.0102572
0.0106504
0.002952
0.0162398
0.0417869
0.0635509
0.0827958
0.197627
0.360336
0.428132
0.449129
0.453105
0.463626
0.500057
0.500066
0.499964
0.499719
0.49951
0.499086
0.49906
0.500741
0.504159
0.510819
0.518063
0.522931
0.503733
0.434097
0.35668
0.410926
0.145107
0.0238462
0.12411
0.0157096
0.032226
0.0434232
0.0519877
0.0690108
0.0509681
0.00941988
0.145269
0.00490205
0.0343591
0.0186426
0.140829
0.055662
0.0284401
0.0612236
0.0478238
0.00888176
0.0389896
0.0136241
0.0105426
0.00482256
0.0147251
0.0405224
0.064312
0.0804591
0.183909
0.353359
0.427215
0.449022
0.457501
0.458197
0.467666
0.50009
0.500114
0.500148
0.499977
0.499652
0.499181
0.498173
0.497902
0.501365
0.507272
0.518616
0.537151
0.548505
0.486969
0.327412
0.348024
0.339842
0.00651306
0.175538
0.0616732
0.0561927
0.0362845
0.0446733
0.0786712
0.0180944
0.0306254
0.0938522
0.0237048
0.0463398
0.00257927
0.163347
0.0455018
3.895e-05
0.0537639
0.0254639
0.000271562
0.0391089
0.0172303
0.0097548
0.0067565
0.0130676
0.039269
0.0650423
0.0785679
0.170557
0.346051
0.426109
0.449683
0.457791
0.462978
0.461857
0.470767
0.500065
0.500136
0.500227
0.500223
0.500003
0.499434
0.49832
0.496144
0.49621
0.502439
0.512587
0.538161
0.576935
0.557359
0.334268
0.273948
0.151427
0.0280845
0.176429
0.0838638
0.113709
0.0342262
0.0182515
0.199157
0.035519
0.0557309
0.0573983
0.36029
0.0487504
0.0199708
0.0201833
0.00793548
0.0270727
0.0469664
0.00968248
0.00540835
0.036472
0.0207328
0.00824471
0.00832835
0.0110464
0.0378096
0.0656979
0.0776455
0.157846
0.338288
0.425002
0.450145
0.458837
0.463389
0.466909
0.464525
0.473256
0.499985
0.500078
0.500235
0.500323
0.500329
0.500021
0.498904
0.496625
0.492873
0.493664
0.504245
0.524856
0.576122
0.623829
0.408444
0.2522
0.0722712
0.0672399
0.228048
0.0757323
0.211019
0.0174767
0.0200817
0.015539
0.0842888
0.054702
0.0110823
0.192122
0.030359
0.0252013
0.0114602
0.0651953
0.0432472
0.0325109
0.0517759
0.0114113
0.031275
0.0239851
0.00600507
0.00948483
0.00871103
0.0361469
0.0662979
0.0772942
0.145699
0.330052
0.423704
0.450607
0.459676
0.464534
0.467374
0.469743
0.466551
0.475398
0.499924
0.499999
0.500093
0.50027
0.500444
0.500569
0.500086
0.497787
0.493758
0.487934
0.489892
0.507787
0.543249
0.616885
0.642893
0.31225
0.060405
0.00292839
0.318939
0.0745209
0.50849
0.000607292
0.0373803
0.0244232
0.112478
0.0274699
0.0299989
0.124001
0.00351421
0.0383566
0.00667702
0.174591
0.0513075
0.0149771
0.0647744
0.0225065
0.0255352
0.0268668
0.00327681
0.00992079
0.0062833
0.0341177
0.0668748
0.077596
0.134371
0.321282
0.422199
0.451015
0.460545
0.465468
0.468556
0.470246
0.471855
0.468244
0.47738
0.499909
0.499917
0.499959
0.500099
0.500344
0.500721
0.501122
0.500227
0.496017
0.489679
0.480018
0.48291
0.509939
0.535069
0.580982
0.536994
0.0593368
0.052096
0.745081
0.0758668
0.156676
0.0658528
0.0444635
0.00676141
0.0806496
0.0215499
0.0594155
0.0774409
0.310755
0.052678
0.0142511
0.153623
0.0518605
0.0132277
0.0491145
0.0118806
0.0170904
0.0291112
0.000333131
0.009706
0.00400627
0.0315576
0.067368
0.078434
0.123824
0.312091
0.420557
0.451419
0.461413
0.466446
0.469542
0.471438
0.472386
0.473559
0.469841
0.479339
0.499889
0.499879
0.49985
0.499917
0.500127
0.500542
0.501357
0.502233
0.500523
0.493578
0.48274
0.467442
0.470321
0.489338
0.354106
0.394155
0.0403733
0.0853426
0.330837
0.0907498
0.0802068
0.111669
0.0210774
0.0264461
0.0781523
0.069866
0.0656441
0.0281264
0.327174
0.0650658
0.0131188
0.103731
0.0424115
0.0354977
0.0304862
0.0037411
0.013556
0.0299906
0.00253633
0.00897252
0.00223334
0.0284686
0.0676315
0.0797546
0.114224
0.302516
0.418749
0.451807
0.4623
0.467422
0.470561
0.472435
0.473557
0.474111
0.475101
0.471527
0.481354
0.49992
0.499906
0.499802
0.499787
0.499865
0.50016
0.501017
0.502641
0.504214
0.500906
0.489593
0.471412
0.45147
0.445651
0.317555
0.21178
0.0110446
0.108041
0.145675
0.100344
0.085968
0.122555
0.0184025
0.033832
0.0472387
0.106745
0.0459923
0.0149726
0.17404
0.0662785
0.00820633
0.0944426
0.0159202
0.0483432
0.0158898
0.0372006
0.0123621
0.0287978
0.00498108
0.00801828
0.00123551
0.0250463
0.0674058
0.0816934
0.105605
0.292599
0.416771
0.452152
0.463183
0.468402
0.471568
0.473463
0.474549
0.475229
0.475646
0.476663
0.47343
0.48346
0.500032
0.499982
0.49988
0.499768
0.499672
0.499742
0.500177
0.501884
0.504871
0.506978
0.501639
0.482226
0.455595
0.43836
0.334367
0.1614
0.0396665
0.180102
0.107882
0.206222
0.0969533
0.0337407
0.0584409
0.0422516
0.00475315
0.122111
0.00374899
0.0470575
0.0973365
0.083516
0.0153802
0.0626146
0.0019024
0.051659
0.00710473
0.0655131
0.0122262
0.025551
0.0069209
0.00706717
0.00106169
0.0216946
0.0665085
0.0841092
0.0980167
0.282273
0.41455
0.452411
0.464034
0.469368
0.472561
0.47446
0.475553
0.476189
0.476702
0.477165
0.478363
0.475626
0.485638
0.500083
0.500081
0.499997
0.499873
0.499685
0.499476
0.499452
0.500211
0.503326
0.508227
0.510937
0.501324
0.465308
0.437337
0.419053
0.173171
0.0196236
0.223327
0.140541
0.18584
0.108345
0.035369
0.16025
0.0393005
0.0303112
0.187668
0.0486728
0.0646318
0.0530982
0.331772
0.02677
0.0341288
0.0428487
0.0507832
0.0259733
0.0703063
0.00595868
0.021546
0.00820831
0.00622047
0.00149361
0.0189317
0.0648163
0.0867782
0.0918331
0.271384
0.412031
0.452542
0.464819
0.470294
0.473523
0.475431
0.476519
0.477153
0.477603
0.478136
0.478797
0.480265
0.478124
0.487851
0.500023
0.500105
0.500134
0.500015
0.499851
0.499531
0.499123
0.498883
0.500267
0.505415
0.51246
0.514958
0.492152
0.426825
0.388799
0.402208
0.00753611
0.127022
0.118286
0.093817
0.46871
0.0575664
0.0725041
0.0224127
0.0535012
0.0508889
0.0931543
0.060298
0.00659896
0.351688
0.0368733
0.0144651
0.0682999
0.0462756
0.0479971
0.0455678
0.0210287
0.0186393
0.00866341
0.00553394
0.0022083
0.0170192
0.0625215
0.0894331
0.0871357
0.259783
0.409124
0.452523
0.46552
0.471164
0.474445
0.476364
0.477447
0.478072
0.478506
0.478963
0.479656
0.480598
0.482383
0.480877
0.490028
0.499966
0.500038
0.500163
0.500154
0.500035
0.499794
0.499227
0.498409
0.497807
0.499854
0.507491
0.516848
0.515743
0.455347
0.280717
0.219166
0.0121404
0.0547348
0.291394
0.0624786
0.0980034
0.104626
0.0157671
0.039532
0.0648978
0.00034248
0.115524
0.0349159
0.0323957
0.141142
0.0496267
0.0084054
0.0756775
0.0414966
0.0641015
0.0204826
0.0411712
0.0186036
0.00783508
0.00519608
0.00302473
0.0160184
0.0601761
0.0917067
0.0839485
0.247418
0.405742
0.452341
0.466128
0.471967
0.475317
0.477256
0.478338
0.478947
0.479359
0.47979
0.48039
0.481334
0.482601
0.484671
0.483776
0.492073
0.49994
0.49997
0.500074
0.500183
0.500187
0.500054
0.499676
0.498677
0.497083
0.495995
0.498935
0.508923
0.521767
0.5018
0.285487
0.070145
0.0055564
0.0621806
0.351548
0.0992332
0.066745
0.18973
0.0443354
0.199694
0.0600614
0.000869843
0.110105
0.0089116
0.0548021
0.0771616
0.104126
0.00528067
0.0583566
0.027499
0.0699713
0.00703979
0.0724317
0.0218076
0.00527299
0.00530488
0.00362531
0.0157999
0.0583316
0.0935174
0.0817888
0.234535
0.401865
0.451985
0.466633
0.472693
0.476129
0.478102
0.479184
0.47978
0.480172
0.480564
0.481118
0.481959
0.483194
0.484772
0.48705
0.486704
0.493905
0.499981
0.499947
0.499952
0.500096
0.500225
0.500252
0.500102
0.499497
0.497798
0.495519
0.493647
0.496679
0.508159
0.513893
0.383721
0.0366993
0.138639
0.0600988
0.145208
0.257761
0.00404835
0.793197
0.0557806
0.170557
0.0324126
0.0232168
0.108231
0.0569077
0.0620124
0.0368972
0.229773
0.00043081
0.0504846
0.00610296
0.0686967
0.0183612
0.0905303
0.0240455
0.00121978
0.00584407
0.00411405
0.0160423
0.0572771
0.0948413
0.079724
0.221605
0.397546
0.45142
0.467018
0.473325
0.476867
0.478892
0.47999
0.480575
0.480941
0.481296
0.481802
0.482577
0.483699
0.485225
0.487032
0.489414
0.489488
0.495472
0.500053
0.499981
0.499905
0.499958
0.500128
0.500294
0.500385
0.500178
0.499178
0.497083
0.494387
0.491329
0.48976
0.484401
0.457345
0.0115355
0.0112136
0.0137791
0.131211
0.131782
0.00415866
0.108514
0.0451799
0.0642497
0.00595531
0.0432448
0.0680011
0.103507
0.0529356
0.00244224
0.229859
0.00313578
0.0393344
0.0350418
0.0585419
0.0372683
0.0750798
0.0177905
0.00239465
0.00681575
0.00447397
0.016509
0.0571773
0.0961826
0.0777458
0.208868
0.392951
0.450564
0.467228
0.473841
0.477507
0.479606
0.48074
0.481324
0.481669
0.481988
0.482446
0.483156
0.484198
0.485598
0.487356
0.489301
0.491641
0.491999
0.496742
0.500027
0.500045
0.499966
0.499887
0.499966
0.500176
0.500459
0.500597
0.500109
0.499151
0.497403
0.494506
0.485702
0.461498
0.40873
0.0408962
0.00162512
0.227073
0.124461
0.069274
0.0979437
0.00242156
0.0406292
0.0337014
0.0206721
0.0497786
0.00224823
0.166492
0.027732
0.0367716
0.100883
0.0188194
0.034529
0.0400555
0.0590702
0.0576798
0.0471029
0.0427004
0.00342392
0.00834463
0.00467294
0.0170982
0.0576269
0.0981043
0.0754165
0.195988
0.388206
0.449368
0.467194
0.474209
0.478025
0.480219
0.481413
0.48202
0.482354
0.482642
0.483049
0.483699
0.484665
0.485975
0.487606
0.489497
0.491468
0.493632
0.494138
0.497727
0.499978
0.500046
0.500073
0.499949
0.499858
0.499984
0.500326
0.5008
0.500618
0.499986
0.499503
0.498778
0.494753
0.475818
0.399379
0.230022
0.024822
0.0861359
0.111076
0.0799283
0.095609
0.00110354
0.10798
0.0563194
0.121652
0.0581281
0.0314928
0.310166
0.0106325
0.0616106
0.0537214
0.0722158
0.0289401
0.0360742
0.0462498
0.0670921
0.025687
0.0697062
0.000597849
0.0109295
0.0045364
0.0176985
0.0585414
0.100518
0.0729738
0.182673
0.383322
0.447992
0.46689
0.47441
0.478415
0.480716
0.481985
0.482642
0.482985
0.483252
0.483617
0.484206
0.4851
0.486322
0.487861
0.489641
0.491563
0.493426
0.495321
0.495859
0.498455
0.499952
0.499988
0.500091
0.500068
0.499922
0.499841
0.500063
0.500678
0.50117
0.500048
0.499436
0.500349
0.50341
0.495611
0.451101
0.17072
0.0535222
0.110393
0.184273
0.105819
0.0927083
0.0186085
0.000617127
0.0778273
0.0209813
0.0697469
0.0383504
0.197762
0.0524205
0.0667082
0.0243134
0.129243
0.0239112
0.0252184
0.0263382
0.0649929
0.00610185
0.0969078
0.00444857
0.014969
0.00398165
0.018337
0.0597393
0.103203
0.0712631
0.168729
0.378241
0.446806
0.466437
0.474461
0.478703
0.481108
0.482453
0.483167
0.483546
0.48381
0.484145
0.484682
0.485503
0.486645
0.488096
0.48979
0.491616
0.49345
0.495113
0.496683
0.497174
0.498972
0.499998
0.499944
0.499992
0.500097
0.500062
0.4999
0.499802
0.500283
0.501569
0.500964
0.498461
0.498221
0.504979
0.51566
0.482923
0.166024
0.0667286
0.139304
0.206925
0.149282
0.152622
0.0276819
0.0465856
0.121545
0.00771669
0.0999057
0.0320554
0.102435
0.093253
0.0544295
0.0011041
0.165711
0.0185277
0.0184837
0.00382684
0.0600601
0.0185154
0.0968788
0.00439606
0.0192813
0.00333463
0.0188728
0.0611402
0.105821
0.0704673
0.15479
0.372805
0.446056
0.466142
0.474419
0.478938
0.481444
0.48284
0.483602
0.484019
0.484304
0.484623
0.485121
0.485877
0.486948
0.488313
0.489923
0.491674
0.493439
0.495088
0.496491
0.497725
0.49813
0.499326
0.500033
0.499986
0.499888
0.500012
0.500139
0.500096
0.49978
0.499709
0.501135
0.50261
0.499562
0.495645
0.496753
0.524527
0.512367
0.15562
0.306843
0.154302
0.0847863
0.701274
0.155402
0.196386
0.0654758
0.409525
0.0471781
0.211028
0.0270934
0.0547957
0.125969
0.0296041
0.0343175
0.132094
0.00587856
0.0141518
0.0171439
0.049315
0.0387651
0.0754213
0.00726411
0.0216068
0.00297094
0.0190435
0.0626057
0.108193
0.0708242
0.142005
0.367279
0.445696
0.466436
0.474445
0.479173
0.481801
0.483213
0.483979
0.484414
0.484722
0.485045
0.485513
0.486224
0.487222
0.488511
0.490045
0.491728
0.493434
0.49504
0.496443
0.497561
0.498485
0.498793
0.499562
0.500034
0.500015
0.499925
0.49989
0.500074
0.50022
0.500108
0.499414
0.499754
0.502664
0.503605
0.496522
0.487584
0.497454
0.505389
0.0338105
0.214625
0.246635
0.0897905
0.180038
0.168767
0.0010453
0.0640925
0.0829099
0.062041
0.568506
0.0340937
0.0394792
0.122927
0.00241911
0.0524275
0.0588001
0.0193079
0.0117895
0.0195733
0.0426545
0.0477916
0.0504259
0.0403724
0.0203886
0.00266141
0.018584
0.0637862
0.110643
0.0723781
0.131699
0.3628
0.445521
0.467581
0.474925
0.479488
0.482265
0.483664
0.484367
0.484773
0.485072
0.485399
0.48585
0.486531
0.487471
0.488689
0.490151
0.491769
0.493424
0.494995
0.496377
0.497506
0.498355
0.499018
0.499236
0.499716
0.499994
0.500085
0.500007
0.499892
0.499884
0.500158
0.500399
0.500021
0.498939
0.500381
0.505715
0.504154
0.487543
0.464049
0.501292
0.0191511
0.139352
0.46918
0.125406
0.0427626
0.180064
0.0967824
0.0678587
0.0363307
0.0292754
0.106308
0.045801
0.0452067
0.111005
0.0175007
0.0621996
0.010105
0.0771717
0.010811
0.0143858
0.0389686
0.0527728
0.0260814
0.0738783
0.015947
0.00136296
0.0170951
0.0642858
0.11403
0.0754095
0.124616
0.361088
0.445644
0.469355
0.476365
0.480122
0.482881
0.484269
0.484841
0.485148
0.485384
0.485682
0.486125
0.486784
0.487685
0.488849
0.490244
0.491797
0.493405
0.494942
0.496311
0.497438
0.498303
0.498919
0.499377
0.499523
0.499815
0.499885
0.500053
0.500251
0.500005
0.499819
0.49989
0.500328
0.500953
0.499729
0.498219
0.50231
0.510687
0.502467
0.455923
0.463878
0.0270198
0.0433583
0.413325
0.189218
0.125089
0.281616
0.0879485
0.134993
0.050638
0.0255564
0.0182035
0.0493585
0.045316
0.0767471
0.0308486
0.0526477
0.0117047
0.123907
0.00930146
0.00659788
0.0112321
0.0458522
0.000278899
0.0875222
0.0141121
0.00124234
0.0148395
0.0641455
0.119912
0.0807291
0.121247
0.363648
0.446878
0.471223
0.478872
0.481475
0.483609
0.484955
0.485401
0.485577
0.485706
0.485934
0.486356
0.486991
0.487861
0.48898
0.490319
0.491816
0.493378
0.494888
0.496241
0.497369
0.498244
0.498876
0.499305
0.499612
0.499703
0.499878
0.499984
0.499777
0.500204
0.500322
0.499999
0.49968
0.499813
0.500887
0.501666
0.498694
0.497317
0.507369
0.51896
0.485094
0.363929
0.0672305
0.0231478
0.337363
0.220371
0.188486
0.32855
0.149006
0.00450179
0.0811087
0.150345
0.0227677
0.0557093
0.041655
0.046936
0.0296616
0.039643
0.028781
0.144711
0.00483333
0.000420877
0.00686931
0.0382686
0.019672
0.0782913
0.0097529
0.00346424
0.012835
0.0642804
0.130097
0.0900859
0.120853
0.371836
0.450015
0.472896
0.481641
0.48373
0.484441
0.485588
0.486191
0.486294
0.486283
0.486359
0.486654
0.4872
0.48801
0.489078
0.490374
0.491822
0.493341
0.494822
0.496167
0.497297
0.498182
0.498829
0.499272
0.49956
0.499761
0.499815
0.499918
0.500372
0.499952
0.499465
0.50029
0.500442
0.499916
0.499401
0.499624
0.502005
0.502434
0.496788
0.497481
0.521535
0.520427
0.365822
0.0340363
0.044674
0.138008
0.169295
0.161184
0.394892
0.49973
0.101365
0.111859
0.095166
0.0287837
0.058577
0.0321407
0.0283346
0.0411444
0.0283968
0.0485149
0.097785
0.00383457
0.00659209
0.0223453
0.0308925
0.0359189
0.0603191
0.0142529
0.00315663
0.0119332
0.0667672
0.145864
0.104663
0.125794
0.383407
0.454942
0.474753
0.483539
0.486208
0.485926
0.486423
0.487302
0.487341
0.4871
0.486935
0.487031
0.487434
0.48816
0.489162
0.490405
0.491811
0.493292
0.494749
0.496085
0.497218
0.498116
0.498779
0.499237
0.499537
0.499724
0.499854
0.499884
0.499944
0.498497
0.500842
0.499842
0.499412
0.500432
0.500714
0.49979
0.498748
0.499553
0.503708
0.502747
0.492782
0.50238
0.518938
0.497845
0.0646083
0.270383
0.0707478
0.229278
0.102991
0.608075
0.269538
0.151349
0.24912
0.0868115
0.0448898
0.04942
0.021935
0.0152689
0.037264
0.0189441
0.0521459
0.0393297
0.0288374
0.0109954
0.0314664
0.0323972
0.0384405
0.039865
0.0520105
0.000832668
0.0121467
0.0736596
0.166203
0.12677
0.137309
0.402809
0.462278
0.477744
0.484522
0.488007
0.488662
0.48795
0.488197
0.488348
0.487959
0.487566
0.487449
0.487693
0.488308
0.489237
0.490426
0.491787
0.493235
0.494671
0.495993
0.497134
0.498045
0.498725
0.4992
0.499513
0.499709
0.499828
0.499911
0.499926
0.499961
0.499832
0.499368
0.502141
0.499773
0.499255
0.500776
0.501324
0.499416
0.497438
0.499723
0.505782
0.500999
0.484772
0.539476
0.349512
0.0587245
0.112834
0.0827949
0.310789
0.091253
0.480195
0.0745789
0.107717
0.0235744
0.106834
0.0537449
0.0402758
0.0120993
0.00428491
0.0222757
0.0152987
0.051967
0.00433317
0.081852
0.0152572
0.028809
0.0391963
0.030803
0.0102922
0.0638105
0.0033295
0.0125872
0.0848342
0.186718
0.157052
0.159746
0.424827
0.472677
0.482345
0.486269
0.49004
0.492085
0.490839
0.489103
0.489109
0.488824
0.488364
0.488051
0.488076
0.488514
0.489332
0.490437
0.491746
0.493164
0.494578
0.495896
0.497041
0.497968
0.498666
0.499159
0.499486
0.499693
0.499818
0.499893
0.499946
0.499952
0.499972
0.560373
0.499709
0.499034
0.50263
0.49965
0.498849
0.501614
0.502504
0.498648
0.496019
0.501248
0.509344
0.49202
0.467228
0.302346
0.137717
0.050502
0.193186
0.162223
0.0656837
0.258329
0.0958562
0.157709
0.014436
0.0829734
0.0510134
0.0273696
0.00409657
0.0028272
0.010282
0.00918395
0.0424099
0.0124486
0.123714
0.0177169
0.0212526
0.0116822
0.0197653
0.0172879
0.0618748
0.00242929
0.0108941
0.0949987
0.202613
0.183003
0.200563
0.451042
0.480844
0.488153
0.488917
0.492411
0.494426
0.494343
0.491606
0.489838
0.489707
0.489278
0.488858
0.488678
0.488878
0.489494
0.490472
0.491708
0.493077
0.494475
0.495788
0.496941
0.497883
0.498603
0.499115
0.499457
0.499676
0.499808
0.499887
0.499933
0.499967
0.499968
0.49998
0.106315
0.537607
0.501718
0.499937
0.503383
0.49928
0.498182
0.50351
0.50455
0.497918
0.495147
0.505504
0.512372
0.444895
0.517895
0.0649951
0.0463962
0.120456
0.148609
0.441068
0.0589725
0.07056
0.15647
0.0556896
0.0572385
0.0411531
0.0168872
0.00183798
0.00729629
0.00459617
0.0193052
0.0281064
0.0216228