/*--------------------------------*- C++ -*----------------------------------*\
| =========                 |                                                 |
| \\      /  F ield         | OpenFOAM: The Open Source CFD Toolbox           |
|  \\    /   O peration     | Version:  v2012                                 |
|   \\  /    A nd           | Website:  www.openfoam.com                      |
|    \\/     M anipulation  |                                                 |
\*---------------------------------------------------------------------------*/
FoamFile
{
    version     2.0;
    format      ascii;
    class       volScalarField;
    location    "12000";
    object      q2;
}
// * * * * * * * * * * * * * * * * * * * * * * * * * * * * * * * * * * * * * //

dimensions      [0 0 0 0 0 0 0];


internalField   nonuniform List<scalar> 
27324
(
2.17941e-11
1.18225e-11
1.48135e-12
7.5175e-12
7.87958e-13
6.13715e-13
4.31653e-12
5.02531e-13
3.45869e-13
3.58855e-13
2.48782e-12
2.9907e-13
2.29697e-13
2.0607e-13
1.60627e-13
1.41633e-12
1.78856e-13
1.42173e-13
1.3465e-13
9.22273e-14
4.50739e-14
8.60156e-13
1.05154e-13
8.69907e-14
8.15219e-14
5.68458e-14
2.54321e-14
1.11658e-14
4.45591e-13
6.35055e-14
5.24248e-14
4.77904e-14
3.25672e-14
1.40887e-14
5.33937e-15
2.13859e-15
8.01241e-14
3.36747e-14
2.77268e-14
2.72714e-14
1.78993e-14
7.28647e-15
2.23582e-15
6.66677e-16
2.443e-16
1.41932e-14
2.05019e-14
1.20127e-14
1.24033e-14
9.45063e-15
3.69323e-15
8.41674e-16
2.23451e-16
9.15889e-17
8.88739e-17
4.66288e-15
9.56553e-15
7.92017e-15
5.55891e-15
5.00681e-15
2.02469e-15
3.28331e-16
7.87442e-17
6.64938e-17
5.73256e-17
1.00773e-16
3.38237e-14
5.67085e-15
5.7425e-15
3.42108e-15
2.52749e-15
1.44998e-15
1.89141e-16
3.77522e-17
4.78589e-17
9.44453e-17
6.14533e-17
1.51721e-16
8.13006e-14
1.8239e-14
6.11107e-15
2.99099e-15
1.31588e-15
6.23765e-16
1.46069e-16
3.00066e-17
4.12288e-17
1.07291e-16
1.47576e-16
6.40035e-17
2.33492e-16
6.75137e-14
1.87075e-14
2.32794e-14
4.3191e-15
1.12099e-15
2.65665e-16
3.77485e-17
1.74769e-17
4.59276e-17
1.09941e-16
2.29208e-16
1.62016e-16
6.84227e-17
3.75971e-16
4.4376e-14
1.54567e-14
2.39498e-14
2.38605e-14
1.84388e-15
2.17581e-16
1.25209e-17
2.4035e-18
1.15628e-17
1.20646e-16
2.51637e-16
3.72944e-16
1.32539e-16
1.13443e-16
5.44981e-16
3.71985e-14
1.20258e-14
2.06354e-14
2.76325e-14
1.31052e-14
3.85992e-16
1.23245e-17
7.27462e-19
7.18322e-19
5.81991e-18
1.15314e-16
4.36414e-16
6.57706e-16
1.03429e-16
3.1978e-16
9.51588e-16
2.96008e-14
1.06362e-14
1.78769e-14
2.44482e-14
1.69678e-14
2.98186e-15
2.55292e-17
9.64051e-19
2.99434e-19
3.64535e-19
1.74148e-18
2.63141e-17
2.5197e-16
8.20063e-16
1.15028e-16
3.37196e-15
4.15247e-15
2.52773e-14
9.15172e-15
1.58995e-14
2.11424e-14
1.47514e-14
3.92292e-15
2.6025e-16
2.01672e-18
5.38598e-19
2.81613e-19
2.2749e-19
5.17161e-19
3.50597e-18
3.13071e-17
1.43597e-16
1.19128e-16
3.88095e-16
9.78146e-16
2.24128e-14
8.13418e-15
1.38135e-14
1.79523e-14
1.24234e-14
3.23786e-15
4.73538e-16
1.87899e-17
9.51635e-19
7.72202e-19
3.86387e-19
1.96594e-19
2.12802e-19
5.24184e-19
1.79668e-18
5.00927e-18
6.98456e-18
7.96562e-18
1.19165e-17
1.98702e-14
7.24662e-15
1.18862e-14
1.48089e-14
9.88745e-15
2.63116e-15
4.0296e-16
1.33164e-16
3.7001e-18
1.21836e-18
1.7426e-18
8.10127e-19
2.87815e-19
1.72638e-19
1.89028e-19
2.90879e-19
4.73364e-19
5.41211e-19
6.82051e-19
9.68938e-19
1.69704e-14
6.36603e-15
9.95243e-15
1.20116e-14
7.82321e-15
2.04825e-15
3.44352e-16
1.42592e-16
7.52571e-17
1.6746e-18
2.39142e-18
5.68617e-18
2.84967e-18
9.00458e-19
4.15261e-19
3.0825e-19
3.25665e-19
4.17477e-19
5.83829e-19
8.21571e-19
1.50786e-18
1.42748e-14
5.48044e-15
8.15576e-15
9.55021e-15
6.13188e-15
1.63603e-15
2.90386e-16
1.32672e-16
2.07995e-16
2.74307e-17
1.10435e-18
6.81944e-18
3.43769e-17
2.36662e-17
8.83519e-18
4.09427e-18
2.75529e-18
2.66949e-18
3.57207e-18
7.09798e-18
1.61371e-17
7.86697e-18
1.15166e-14
4.64886e-15
6.61279e-15
7.53388e-15
4.79445e-15
1.29331e-15
2.41691e-16
1.21002e-16
1.93125e-16
4.82475e-16
8.23339e-18
1.03178e-18
2.75373e-17
1.1647e-15
1.72529e-15
6.85588e-16
2.74472e-16
1.73096e-16
2.17698e-16
4.96886e-16
2.32089e-15
9.11209e-16
1.70926e-17
8.74103e-15
3.83243e-15
5.266e-15
5.96012e-15
3.79217e-15
1.03045e-15
1.98078e-16
1.07915e-16
1.74628e-16
5.45471e-16
4.23859e-16
2.83047e-18
1.46141e-18
1.00054e-16
5.05481e-15
1.06711e-14
3.06702e-15
7.82535e-16
7.53384e-16
3.83235e-15
4.34856e-14
1.48213e-13
6.99342e-17
2.10321e-17
6.27768e-15
3.06844e-15
4.17266e-15
4.7386e-15
3.06479e-15
8.29075e-16
1.59859e-16
9.46237e-17
1.73883e-16
4.82342e-16
1.72174e-15
9.00444e-17
1.37651e-18
3.28579e-18
3.65685e-16
1.03283e-15
2.26717e-15
9.48132e-16
4.19343e-16
7.65949e-16
4.64554e-15
6.27125e-14
1.17196e-15
1.66192e-17
7.34476e-17
4.53627e-15
2.43856e-15
3.33646e-15
3.83803e-15
2.52787e-15
6.82096e-16
1.2855e-16
8.13465e-17
1.66238e-16
4.69911e-16
1.35691e-15
7.54483e-15
1.5413e-17
1.08458e-18
1.19193e-17
4.93168e-15
4.77268e-15
2.47718e-15
6.1962e-16
5.60746e-16
2.34224e-15
3.6247e-14
3.8381e-14
5.98922e-17
1.8947e-17
6.02143e-16
3.14778e-15
1.89293e-15
2.65592e-15
3.10771e-15
2.10954e-15
5.67308e-16
1.07103e-16
7.13044e-17
1.5833e-16
4.29659e-16
1.15016e-15
9.46981e-15
1.52077e-15
3.78524e-18
1.55442e-18
6.872e-17
1.45844e-13
3.3726e-14
2.02414e-15
5.52613e-16
1.21654e-15
1.76201e-14
2.09728e-12
3.73194e-16
2.10354e-17
8.69339e-17
7.3028e-15
2.19457e-15
1.48824e-15
2.12302e-15
2.55186e-15
1.75922e-15
4.73319e-16
9.1621e-17
6.61988e-17
1.53072e-16
3.82419e-16
1.01535e-15
5.50402e-15
7.95015e-14
1.08389e-16
1.61765e-18
4.72148e-18
1.00841e-15
1.82739e-12
1.27827e-14
8.71985e-16
7.72969e-16
4.76664e-15
9.20263e-13
5.90484e-15
3.77075e-17
4.14586e-17
9.86964e-16
6.64373e-14
1.60412e-15
1.18323e-15
1.76094e-15
2.176e-15
1.48652e-15
4.03293e-16
8.00736e-17
6.36956e-17
1.52358e-16
3.44278e-16
8.82907e-16
4.97595e-15
4.02778e-14
2.68631e-14
1.29039e-17
1.40652e-18
3.15523e-17
1.98622e-14
5.3196e-14
2.68785e-15
6.92578e-16
1.87289e-15
6.24436e-14
2.97375e-13
1.41142e-16
2.68378e-17
3.16634e-16
1.29513e-14
2.74719e-13
1.25427e-15
9.67327e-16
1.47705e-15
1.87117e-15
1.25419e-15
3.37938e-16
7.12612e-17
6.20282e-17
1.51888e-16
3.25969e-16
8.01184e-16
4.30471e-15
2.9353e-14
6.25309e-13
7.11331e-16
3.06173e-18
2.81384e-18
4.25097e-16
8.67849e-14
1.82691e-14
1.0457e-15
1.05072e-15
1.15228e-14
3.80523e-11
1.13713e-15
3.179e-17
1.02676e-16
4.58449e-15
9.63604e-14
5.96059e-13
9.79564e-16
8.1221e-16
1.2437e-15
1.6003e-15
1.04176e-15
2.82391e-16
6.43546e-17
6.05123e-17
1.49785e-16
3.17749e-16
8.02841e-16
3.81501e-15
2.32989e-14
2.81959e-13
2.92231e-13
4.06777e-17
1.68877e-18
1.39559e-17
1.13983e-14
1.22108e-12
3.49983e-15
8.75457e-16
3.31805e-15
3.37977e-13
2.39906e-14
6.87711e-17
4.9173e-17
1.21214e-15
5.42801e-14
3.17054e-13
8.90225e-13
8.10245e-16
6.96589e-16
1.03772e-15
1.34814e-15
8.56988e-16
2.36013e-16
5.81302e-17
6.06547e-17
1.47818e-16
3.12867e-16
8.66036e-16
3.84769e-15
1.69864e-14
1.81074e-13
3.21382e-12
3.06319e-15
5.6648e-18
2.61189e-18
1.75586e-16
4.66811e-13
4.0166e-14
1.20422e-15
1.52187e-15
3.00747e-14
5.94802e-12
2.85297e-16
3.69762e-17
3.62776e-16
1.84525e-14
3.04625e-13
5.27501e-13
1.30345e-12
6.92834e-16
6.16115e-16
8.87711e-16
1.12024e-15
7.02939e-16
1.98921e-16
5.34362e-17
5.90293e-17
1.42075e-16
3.11129e-16
9.55946e-16
4.39388e-15
1.48588e-14
8.85214e-14
1.2122e-12
1.45744e-12
9.49052e-17
2.228e-18
1.2197e-17
6.36729e-15
6.30007e-12
3.40118e-15
1.02782e-15
6.36115e-15
1.54576e-12
2.50186e-15
4.69719e-17
1.32791e-16
5.724e-15
1.66844e-13
6.87246e-13
7.70381e-13
4.53183e-12
5.87686e-16
5.36057e-16
7.33882e-16
9.0321e-16
5.76965e-16
1.69614e-16
4.96566e-17
5.84335e-17
1.42633e-16
3.02996e-16
1.00728e-15
5.25219e-15
1.63156e-14
5.52725e-14
3.54469e-13
2.51549e-11
7.09017e-15
8.95695e-18
2.84628e-18
1.60037e-16
5.83833e-13
2.91202e-14
1.11486e-15
2.27027e-15
9.12682e-14
6.05812e-14
1.03802e-16
6.7591e-17
1.68862e-15
7.64148e-14
5.6821e-13
1.01449e-12
2.15718e-12
1.16647e-11
4.67665e-16
4.53216e-16
5.7764e-16
7.03897e-16
4.64804e-16
1.45938e-16
4.63651e-17
5.812e-17
1.47495e-16
3.1814e-16
1.13622e-15
5.84638e-15
2.18471e-14
4.84758e-14
1.50713e-13
2.2454e-12
1.15948e-12
1.49127e-16
2.87218e-18
1.34329e-17
4.28007e-15
1.34041e-12
2.25919e-15
1.23875e-15
1.47506e-14
8.77733e-11
4.13466e-16
5.21636e-17
5.36849e-16
2.84027e-14
4.18493e-13
1.01303e-12
2.88971e-12
4.17632e-12
1.91004e-12
3.42139e-16
3.65107e-16
4.45937e-16
5.53194e-16
3.79939e-16
1.26874e-16
4.3552e-17
5.84843e-17
1.55163e-16
3.29289e-16
1.24224e-15
6.3524e-15
2.98281e-14
6.64105e-14
8.34029e-14
6.89653e-13
1.78102e-11
9.55735e-15
1.10407e-17
3.70727e-18
2.12166e-16
3.21397e-13
1.09368e-14
1.02344e-15
4.38952e-15
7.45443e-13
3.22267e-15
6.44842e-17
2.04959e-16
9.34765e-15
2.45153e-13
1.06258e-12
2.65537e-12
4.87302e-12
9.67316e-13
1.43523e-12
2.52083e-16
2.88685e-16
3.4592e-16
4.42986e-16
3.19179e-16
1.11543e-16
4.09539e-17
5.91589e-17
1.64594e-16
3.40147e-16
1.3175e-15
6.60412e-15
3.64004e-14
1.16957e-13
8.71175e-14
2.06323e-13
3.74069e-12
1.0059e-12
1.52421e-16
3.52258e-18
2.06746e-17
1.28364e-14
1.74375e-13
1.45474e-15
1.92164e-15
6.83702e-14
6.12697e-14
1.31336e-16
1.0405e-16
2.94875e-15
1.17259e-13
1.00428e-12
2.86532e-12
3.55318e-12
7.41315e-13
7.92967e-13
5.32777e-12
1.77448e-16
2.21191e-16
2.7278e-16
3.67524e-16
2.70292e-16
9.73892e-17
3.81771e-17
5.95072e-17
1.69994e-16
3.46072e-16
1.3878e-15
7.01728e-15
4.34894e-14
2.11511e-13
1.40153e-13
1.23703e-13
7.98694e-13
7.14566e-12
7.47111e-15
1.11556e-17
5.39318e-18
4.46746e-16
4.53426e-12
4.25998e-15
1.24137e-15
1.3569e-14
4.92154e-11
4.54208e-16
7.60792e-17
9.76211e-16
4.78142e-14
7.82183e-13
3.39534e-12
2.65786e-12
5.31776e-13
5.28945e-13
2.76443e-12
7.31384e-11
1.22171e-16
1.7009e-16
2.14428e-16
3.06183e-16
2.2825e-16
8.43836e-17
3.54566e-17
6.01741e-17
1.70656e-16
3.43681e-16
1.43526e-15
7.5647e-15
5.5395e-14
3.25436e-13
3.30811e-13
1.36817e-13
2.08044e-13
3.48561e-12
1.33099e-12
1.11236e-16
4.22822e-18
4.30771e-17
4.96623e-14
3.49401e-14
1.23129e-15
4.32426e-15
7.37301e-13
2.83922e-15
8.43843e-17
3.73865e-16
1.73015e-14
4.84243e-13
4.45668e-12
1.85207e-12
3.99171e-13
3.44813e-13
1.64764e-12
3.63423e-11
2.00031e-09
9.14068e-17
1.31928e-16
1.78794e-16
2.66551e-16
1.94141e-16
7.17103e-17
3.2696e-17
5.99297e-17
1.68204e-16
3.40252e-16
1.4495e-15
8.26559e-15
7.24095e-14
4.57468e-13
9.03349e-13
2.54004e-13
1.22782e-13
4.90682e-13
2.85021e-10
3.8747e-15
9.72884e-18
9.50905e-18
1.63641e-15
2.4045e-12
2.16518e-15
2.01749e-15
7.04939e-14
3.86238e-14
1.46158e-16
1.81087e-16
5.90396e-15
2.50992e-13
5.02696e-12
1.28423e-12
3.03338e-13
2.38589e-13
9.49381e-13
2.02028e-11
1.01297e-09
7.23226e-08
7.1814e-17
1.07626e-16
1.53408e-16
2.37309e-16
1.63697e-16
6.13879e-17
3.02995e-17
5.84761e-17
1.59282e-16
3.2706e-16
1.43602e-15
8.7342e-15
9.41479e-14
6.04076e-13
1.9632e-12
7.78992e-13
1.21493e-13
1.51296e-13
3.62625e-12
9.12218e-13
6.15597e-17
5.40861e-18
1.25995e-16
3.45912e-13
8.24284e-15
1.37175e-15
1.48345e-14
6.32803e-12
4.03918e-16
1.19378e-16
2.05503e-15
1.09106e-13
4.16643e-12
9.10536e-13
2.35028e-13
1.72947e-13
5.70223e-13
1.0653e-11
5.7078e-10
3.84702e-08
2.78435e-06
5.96182e-17
8.92995e-17
1.32533e-16
2.0541e-16
1.36563e-16
5.17646e-17
2.82882e-17
5.66568e-17
1.5115e-16
3.2009e-16
1.42758e-15
8.80046e-15
1.14889e-13
7.24339e-13
3.10136e-12
2.63365e-12
2.21548e-13
8.9673e-14
4.35873e-13
2.51456e-11
1.14038e-15
8.2198e-18
2.12024e-17
7.24828e-15
9.27116e-14
1.44426e-15
4.70098e-15
1.40906e-12
1.85205e-15
1.12803e-16
7.898e-16
4.17834e-14
2.67997e-12
6.62158e-13
1.85898e-13
1.30938e-13
3.54429e-13
5.68504e-12
3.01291e-10
2.28691e-08
1.57504e-06
9.75171e-05
5.23023e-17
7.59495e-17
1.12967e-16
1.74385e-16
1.13167e-16
4.3813e-17
2.75273e-17
5.52985e-17
1.45396e-16
3.20188e-16
1.33999e-15
8.51407e-15
1.23661e-13
7.86875e-13
4.96753e-12
4.68952e-12
6.71216e-13
9.3243e-14
1.50146e-13
1.94093e-12
7.76342e-14
3.05097e-17
8.28958e-18
5.10424e-16
2.44056e-11
2.64054e-15
2.25608e-15
1.05823e-13
1.5644e-14
1.57645e-16
3.61994e-16
1.50256e-14
1.3244e-12
4.86105e-13
1.50563e-13
1.02787e-13
2.3022e-13
3.04737e-12
1.58781e-10
1.26822e-08
1.00234e-06
5.9692e-05
0.00249806
4.63586e-17
6.69457e-17
9.55596e-17
1.46619e-16
9.4882e-17
3.82035e-17
2.63306e-17
5.43203e-17
1.43391e-16
3.27226e-16
1.29371e-15
7.92456e-15
1.14008e-13
7.00026e-13
6.38755e-12
2.03153e-11
2.30485e-12
1.83545e-13
1.01123e-13
5.08204e-13
6.1191e-11
2.72831e-16
7.72523e-18
6.77235e-17
9.50561e-14
9.77118e-15
1.52649e-15
2.16269e-14
4.31508e-13
3.32371e-16
2.11686e-16
5.42598e-15
5.27847e-13
3.63457e-13
1.23758e-13
8.27831e-14
1.56805e-13
1.65991e-12
8.26151e-11
7.00897e-09
5.93395e-07
4.12431e-05
0.00168263
0.0350226
3.84912e-17
5.56664e-17
7.84747e-17
1.22334e-16
8.06515e-17
3.38223e-17
2.56385e-17
5.45067e-17
1.42552e-16
3.3222e-16
1.22736e-15
7.18417e-15
9.28515e-14
5.39269e-13
4.42686e-12
8.51033e-11
2.67363e-11
7.37401e-13
1.20823e-13
2.5333e-13
3.2574e-11
6.21993e-15
1.65655e-17
1.77936e-17
3.96491e-15
9.32703e-14
1.58477e-15
6.56953e-15
1.6307e-11
1.08213e-15
1.66712e-16
2.0919e-15
1.84797e-13
2.78221e-13
1.02993e-13
6.7979e-14
1.11992e-13
9.27142e-13
4.26498e-11
3.81282e-09
3.50415e-07
2.6397e-05
0.0012864
0.0270855
0.187432
3.01515e-17
4.48386e-17
6.16192e-17
9.87305e-17
6.8784e-17
3.01929e-17
2.49044e-17
5.58696e-17
1.4956e-16
3.68525e-16
1.17856e-15
6.47559e-15
7.09055e-14
3.7516e-13
1.89532e-12
1.02407e-11
1.5327e-10
8.91959e-12
2.83547e-13
1.64574e-13
2.74288e-12
3.64865e-13
7.55062e-17
9.93913e-18
3.77243e-16
4.28845e-11
2.72615e-15
3.00514e-15
2.43435e-13
5.67446e-15
1.83977e-16
9.12655e-16
6.01685e-14
2.20632e-13
8.64654e-14
5.67662e-14
8.36251e-14
5.36895e-13
2.18729e-11
2.04812e-09
2.03796e-07
1.68418e-05
0.000908392
0.0234477
0.172855
0.423065
2.41887e-17
3.56012e-17
5.0627e-17
8.42781e-17
5.87024e-17
2.70298e-17
2.40624e-17
5.7335e-17
1.54661e-16
3.92486e-16
1.15845e-15
6.18527e-15
5.67201e-14
2.69099e-13
1.16348e-12
2.04838e-12
7.69674e-12
3.79583e-11
1.4827e-12
1.73775e-13
6.2275e-13
2.08993e-10
7.45726e-16
1.19361e-17
6.44073e-17
8.21815e-14
9.00744e-15
1.87614e-15
4.00963e-14
5.57469e-14
2.91608e-16
4.74119e-16
2.08371e-14
1.78877e-13
7.24741e-14
4.799e-14
6.50385e-14
3.2584e-13
1.12021e-11
1.08469e-09
1.17131e-07
1.05791e-05
0.000639433
0.0188457
0.164547
0.40824
0.846203
1.8149e-17
2.85181e-17
4.3546e-17
7.33874e-17
5.12442e-17
2.40855e-17
2.30653e-17
5.83062e-17
1.57789e-16
4.13384e-16
1.17065e-15
6.16448e-15
5.1343e-14
2.1633e-13
8.27592e-13
1.0732e-12
1.83151e-12
6.72685e-12
1.31598e-11
3.03333e-13
2.52099e-13
2.52892e-11
1.71222e-14
2.90566e-17
2.0958e-17
4.00713e-15
7.00174e-14
1.72391e-15
1.15024e-14
5.70921e-12
6.70475e-16
3.1287e-16
7.62341e-15
1.40331e-13
6.06066e-14
4.09666e-14
5.24505e-14
2.08614e-13
5.76722e-12
5.66658e-10
6.64503e-08
6.56602e-06
0.000443382
0.015065
0.150321
0.393807
0.813628
0.999753
1.51554e-17
2.28985e-17
3.82889e-17
6.44619e-17
4.34759e-17
2.13059e-17
2.22783e-17
5.81283e-17
1.58846e-16
4.34875e-16
1.2329e-15
6.74903e-15
5.02045e-14
2.00324e-13
9.65038e-13
1.01952e-12
1.0629e-12
2.65258e-12
1.44263e-11
9.39766e-13
1.68451e-13
1.85989e-12
1.14123e-12
1.36394e-16
1.35519e-17
4.33362e-16
2.07239e-11
2.46791e-15
4.54458e-15
1.79078e-12
2.27557e-15
2.7535e-16
3.01356e-15
9.46636e-14
4.92969e-14
3.53042e-14
4.37144e-14
1.41285e-13
3.01367e-12
2.91995e-10
3.72365e-08
4.02509e-06
0.000303934
0.0118359
0.136209
0.376777
0.786899
0.999381
1
1.34325e-17
1.97507e-17
3.62941e-17
5.74292e-17
3.65673e-17
1.87457e-17
2.09914e-17
5.79293e-17
1.5775e-16
4.51795e-16
1.31974e-15
7.69953e-15
5.98232e-14
1.98443e-13
1.18884e-12
2.44962e-12
1.45667e-12
2.02298e-12
1.41518e-11
5.39861e-12
1.82269e-13
4.5229e-13
1.39e-09
1.29637e-15
1.72742e-17
8.09585e-17
1.26977e-13
6.02299e-15
2.58638e-15
1.17456e-13
1.2145e-14
3.29273e-16
1.37397e-15
4.95675e-14
4.01597e-14
3.07994e-14
3.74619e-14
1.00995e-13
1.61673e-12
1.48679e-10
2.06e-08
2.43972e-06
0.000205583
0.00916123
0.121652
0.360821
0.75649
0.998918
1
1
1.2218e-17
1.72107e-17
3.37976e-17
5.01453e-17
3.028e-17
1.66161e-17
1.99727e-17
5.52696e-17
1.53207e-16
4.56353e-16
1.41345e-15
8.71409e-15
6.99632e-14
2.63583e-13
1.21011e-12
4.64937e-12
8.77095e-12
2.81927e-12
1.57714e-11
4.79878e-11
3.21005e-13
2.09423e-13
4.66192e-12
2.89767e-14
4.03744e-17
2.88289e-17
6.1934e-15
2.84078e-14
2.00981e-15
2.64104e-14
1.46129e-13
5.42778e-16
7.70246e-16
2.20316e-14
3.36805e-14
2.7417e-14
3.2844e-14
7.58706e-14
9.00337e-13
7.50665e-11
1.12529e-08
1.46243e-06
0.000137117
0.00697804
0.107331
0.346072
0.726256
0.998056
1
1
1
1.15809e-17
1.52537e-17
3.02822e-17
4.29083e-17
2.50675e-17
1.49306e-17
1.90399e-17
5.29235e-17
1.48643e-16
4.54087e-16
1.47357e-15
9.38191e-15
8.09856e-14
3.46355e-13
1.13748e-12
2.46062e-12
1.6018e-10
7.5171e-12
1.74752e-11
1.51277e-10
9.40356e-13
1.50167e-13
8.32588e-13
2.49049e-12
1.66182e-16
1.8577e-17
7.11524e-16
4.52017e-13
2.27057e-15
8.98705e-15
4.02868e-11
1.25793e-15
5.47371e-16
9.00248e-15
3.01544e-14
2.51037e-14
2.91839e-14
5.9533e-14
5.2593e-13
3.77937e-11
6.07075e-09
8.67483e-07
9.02528e-05
0.00524495
0.0938702
0.332882
0.696443
0.996681
1
1
1
1
9.82567e-18
1.32062e-17
2.69366e-17
3.67003e-17
2.12302e-17
1.38881e-17
1.90157e-17
5.1088e-17
1.46164e-16
4.3715e-16
1.47445e-15
9.65399e-15
8.24808e-14
4.628e-13
1.30464e-12
1.10352e-12
8.51077e-12
2.81859e-11
1.21808e-11
4.44559e-11
3.6703e-12
2.05291e-13
3.00244e-13
8.89986e-11
1.19967e-15
2.21478e-17
1.39096e-16
8.81946e-13
3.85848e-15
4.46587e-15
3.43195e-13
4.22523e-15
5.03187e-16
3.86498e-15
2.78085e-14
2.2968e-14
2.60203e-14
4.85418e-14
3.24556e-13
1.9129e-11
3.23445e-09
5.10025e-07
5.86606e-05
0.0038924
0.0815499
0.320955
0.667322
0.994537
1
1
1
1
1
8.05454e-18
1.05879e-17
2.23459e-17
3.11281e-17
1.82985e-17
1.29688e-17
1.87118e-17
5.00933e-17
1.44249e-16
4.23725e-16
1.43933e-15
8.7554e-15
7.76729e-14
5.76775e-13
2.62683e-12
9.24323e-13
2.03372e-12
1.41407e-11
1.43766e-11
2.46986e-11
2.95412e-11
5.37785e-13
1.89132e-13
9.07088e-12
1.603e-14
4.51834e-17
4.72893e-17
1.82224e-14
1.06426e-14
2.85833e-15
4.96794e-14
2.20047e-14
6.05961e-16
2.04804e-15
2.35572e-14
2.08388e-14
2.31348e-14
4.09496e-14
2.12537e-13
9.82168e-12
1.70484e-09
2.97467e-07
3.77102e-05
0.00285232
0.0702564
0.309331
0.639025
0.991328
1
1
1
1
1
1
6.93671e-18
8.59013e-18
1.89404e-17
2.61727e-17
1.57944e-17
1.21544e-17
1.85975e-17
4.93224e-17
1.47182e-16
4.12669e-16
1.38354e-15
7.41759e-15
5.59212e-14
5.7239e-13
9.48994e-12
2.60342e-12
1.50592e-12
7.1336e-12
4.58631e-11
1.10477e-11
1.15895e-09
4.15455e-12
1.67327e-13
1.91874e-12
4.27531e-13
1.5161e-16
2.77149e-17
1.72507e-15
5.27237e-14
2.52155e-15
1.59135e-14
2.21943e-13
9.76199e-16
1.23372e-15
1.57233e-14
1.87331e-14
2.05682e-14
3.56046e-14
1.47775e-13
5.16281e-12
8.9138e-10
1.72353e-07
2.40123e-05
0.00206364
0.0600953
0.298212
0.612102
0.986705
1
1
1
1
1
1
1
6.00303e-18
7.21251e-18
1.6786e-17
2.2714e-17
1.38002e-17
1.12767e-17
1.8237e-17
4.89531e-17
1.5131e-16
4.18173e-16
1.33963e-15
6.46975e-15
4.24471e-14
3.27429e-13
7.96936e-12
2.17903e-11
5.19667e-12
5.51751e-12
3.47548e-10
6.32252e-12
3.23426e-11
1.65547e-10
2.47148e-13
6.39449e-13
9.92478e-11
8.1984e-16
2.81171e-17
3.14805e-16
3.93658e-12
2.93131e-15
6.71345e-15
2.47979e-13
2.04233e-15
8.99046e-16
8.73807e-15
1.59352e-14
1.86599e-14
3.17287e-14
1.08821e-13
2.80023e-12
4.65012e-10
9.92965e-08
1.51993e-05
0.00147477
0.051102
0.287575
0.586913
0.980355
1
1
1
1
1
1
1
1
5.62186e-18
6.16564e-18
1.45961e-17
1.95665e-17
1.20641e-17
1.05477e-17
1.76518e-17
4.8021e-17
1.54471e-16
4.40992e-16
1.36735e-15
5.74629e-15
3.34476e-14
2.2111e-13
1.56605e-12
9.97534e-12
1.96907e-10
8.21872e-12
7.5426e-11
6.93691e-12
4.46607e-12
7.18509e-11
6.16697e-13
3.00405e-13
2.5487e-11
7.52614e-15
4.71683e-17
9.00467e-17
1.25941e-13
4.48549e-15
4.18997e-15
4.25849e-14
5.38923e-15
8.36022e-16
4.48338e-15
1.4339e-14
1.72841e-14
2.87606e-14
8.43561e-14
1.57868e-12
2.43605e-10
5.70358e-08
9.59547e-06
0.00104299
0.0432139
0.277477
0.563636
0.972032
1
1
1
1
1
1
1
1
1
5.30963e-18
5.51448e-18
1.30535e-17
1.65375e-17
1.04243e-17
9.69175e-18
1.69265e-17
4.70255e-17
1.58019e-16
4.71124e-16
1.49923e-15
5.45682e-15
2.85036e-14
1.66518e-13
1.01661e-12
1.89027e-12
2.90241e-11
2.05854e-11
1.31507e-11
1.53038e-11
2.15987e-12
2.41555e-11
2.84296e-12
2.19416e-13
2.82418e-12
1.38133e-13
1.20335e-16
4.60886e-17
6.01803e-15
9.70283e-15
3.03137e-15
1.27698e-14
1.55015e-14
9.98098e-16
2.44763e-15
1.32901e-14
1.65355e-14
2.62616e-14
6.83347e-14
9.30669e-13
1.2909e-10
3.27864e-08
6.06393e-06
0.000731987
0.0363392
0.267921
0.542184
0.961496
1
1
1
1
1
1
1
1
1
1
4.82362e-18
4.88267e-18
1.15739e-17
1.40894e-17
9.26144e-18
8.95371e-18
1.59213e-17
4.46575e-17
1.58775e-16
5.06277e-16
1.60346e-15
5.89628e-15
2.57782e-14
1.57443e-13
1.25778e-12
1.06133e-12
4.46974e-12
5.28235e-11
6.58218e-12
9.31171e-11
3.47901e-12
1.04135e-11
2.74741e-11
2.66521e-13
8.11233e-13
1.15971e-11
4.50058e-16
3.81003e-17
8.47641e-16
2.98247e-14
2.55387e-15
5.98166e-15
3.2998e-14
1.49857e-15
1.60886e-15
1.1369e-14
1.57088e-14
2.3957e-14
5.73951e-14
5.76964e-13
6.95905e-11
1.89886e-08
3.84643e-06
0.000512379
0.0303759
0.258886
0.522702
0.948603
0.999999
1
1
1
1
1
1
1
1
1
1
4.19057e-18
4.1936e-18
1.01676e-17
1.1978e-17
8.25118e-18
8.47226e-18
1.51508e-17
4.30219e-17
1.59022e-16
5.27278e-16
1.69573e-15
6.15147e-15
2.80669e-14
1.38839e-13
3.11004e-12
2.67718e-12
2.12719e-12
3.88103e-11
6.1041e-12
3.23793e-11
1.98476e-11
5.91767e-12
9.3049e-10
5.70451e-13
3.33627e-13
1.39435e-10
2.42982e-15
4.97919e-17
2.18777e-16
3.64243e-13
2.49363e-15
3.508e-15
2.48006e-14
2.67211e-15
1.2318e-15
7.84373e-15
1.47725e-14
2.18544e-14
4.96488e-14
3.77601e-13
3.83686e-11
1.11618e-08
2.45909e-06
0.000359476
0.0252314
0.250065
0.504988
0.933323
0.999997
1
1
1
1
1
1
1
1
1
1
1
3.60971e-18
3.56357e-18
8.89001e-18
1.02913e-17
7.38569e-18
8.01482e-18
1.42679e-17
4.16354e-17
1.5829e-16
5.36515e-16
1.72639e-15
6.22502e-15
3.0994e-14
1.2703e-13
2.20533e-12
2.02271e-10
2.74788e-12
2.5252e-11
2.37768e-11
5.787e-12
4.25116e-09
5.31329e-12
9.34513e-11
2.21637e-12
2.4189e-13
6.82186e-12
1.95518e-14
9.5808e-17
9.19664e-17
1.37322e-13
2.82937e-15
2.40375e-15
1.12497e-14
5.21374e-15
1.13665e-15
4.75087e-15
1.30477e-14
2.02245e-14
4.40087e-14
2.61065e-13
2.17329e-11
6.70897e-09
1.59359e-06
0.000253811
0.0208378
0.241031
0.488881
0.91571
0.999992
1
1
1
1
1
1
1
1
1
1
1
1
3.10381e-18
3.04515e-18
7.96032e-18
8.91897e-18
6.61373e-18
7.58611e-18
1.34281e-17
4.04217e-17
1.57148e-16
5.34326e-16
1.61139e-15
5.96215e-15
3.27422e-14
1.54765e-13
7.61196e-13
3.76129e-11
1.20655e-11
7.20269e-12
1.7408e-10
3.4385e-12
5.56886e-11
1.08557e-11
1.12666e-11
2.92269e-11
2.39348e-13
1.64011e-12
2.38249e-13
2.59181e-16
6.18112e-17
5.15476e-15
3.61565e-15
1.83391e-15
5.60022e-15
9.89372e-15
1.28167e-15
2.81231e-15
1.19352e-14
1.92339e-14
3.9708e-14
1.90317e-13
1.26886e-11
4.14602e-09
1.05558e-06
0.000180696
0.0171289
0.231475
0.474499
0.89596
0.99998
1
1
1
1
1
1
1
1
1
1
1
1
1
2.83826e-18
2.59931e-18
7.28068e-18
7.76862e-18
6.0035e-18
7.16983e-18
1.26864e-17
3.95303e-17
1.65816e-16
5.32088e-16
1.52318e-15
5.12156e-15
3.28382e-14
2.07087e-13
8.4087e-13
4.14034e-12
1.08438e-10
4.81004e-12
1.89209e-10
8.0678e-12
7.29686e-12
7.33315e-11
3.56905e-12
5.20142e-10
3.69008e-13
6.8388e-13
9.54564e-12
9.36734e-16
6.22434e-17
8.28895e-16
5.8e-15
1.52024e-15
3.18842e-15
1.3228e-14
1.73743e-15
1.85592e-15
1.10024e-14
1.8761e-14
3.61908e-14
1.45631e-13
7.66749e-12
2.64409e-09
7.21057e-07
0.000129849
0.0140261
0.221433
0.461915
0.874435
0.99995
1
1
1
1
1
1
1
1
1
1
1
1
1
1
2.60629e-18
2.28027e-18
6.68478e-18
6.89346e-18
5.44182e-18
6.7429e-18
1.20142e-17
3.88684e-17
1.78204e-16
5.42435e-16
1.47385e-15
4.48183e-15
2.61385e-14
2.43688e-13
2.19461e-12
2.83981e-12
1.86835e-10
1.06625e-11
1.14043e-11
2.23615e-10
3.54716e-12
2.42861e-09
2.1858e-12
3.03418e-11
8.7023e-13
3.59934e-13
1.94485e-10
4.48741e-15
9.11219e-17
2.52498e-16
1.32304e-14
1.33833e-15
2.09221e-15
1.07131e-14
2.67941e-15
1.44708e-15
8.95815e-15
1.79106e-14
3.31343e-14
1.16521e-13
4.8077e-12
1.74597e-09
5.11426e-07
9.48139e-05
0.0114889
0.211618
0.451716
0.851476
0.999885
1
1
1
1
1
1
1
1
1
1
1
1
1
1
1
2.34728e-18
1.99411e-18
6.07066e-18
6.2438e-18
4.9872e-18
6.28462e-18
1.11657e-17
3.84901e-17
1.90951e-16
5.48613e-16
1.46411e-15
4.07205e-15
2.22608e-14
2.15679e-13
3.43545e-12
8.6155e-12
1.22294e-11
6.01336e-11
2.79124e-12
6.70009e-11
8.73284e-12
4.22894e-11
3.53555e-12
7.62386e-12
3.23667e-12
2.99198e-13
6.25534e-12
3.0394e-14
1.80027e-16
1.33696e-16
2.27461e-14
1.20828e-15
1.51861e-15
6.58244e-15
4.31922e-15
1.30074e-15
5.93955e-15
1.64813e-14
3.06605e-14
9.73057e-14
3.13728e-12
1.19648e-09
3.77672e-07
7.09797e-05
0.00941112
0.202461
0.444261
0.827496
0.999748
1
1
1
1
1
1
1
1
1
1
1
1
1
1
1
1
2.14005e-18
1.73053e-18
5.48993e-18
5.71382e-18
4.65691e-18
5.74559e-18
1.04599e-17
3.83366e-17
2.05402e-16
5.47705e-16
1.4557e-15
3.88899e-15
2.09514e-14
2.11024e-13
2.36384e-12
6.80966e-11
8.18763e-12
6.54436e-10
2.98588e-12
5.79646e-12
4.86581e-11
7.1961e-12
1.17691e-11
3.23531e-12
2.34328e-11
3.62797e-13
1.36709e-12
3.29491e-13
4.69389e-16
1.04338e-16
4.61496e-15
1.13807e-15
1.20544e-15
4.00995e-15
7.01604e-15
1.37533e-15
3.68011e-15
1.43229e-14
2.94048e-14
8.47394e-14
2.13082e-12
8.52441e-10
2.90341e-07
5.49484e-05
0.00770953
0.193614
0.439059
0.803126
0.999475
1
1
1
1
1
1
1
1
1
1
1
1
1
1
1
1
1
2.07206e-18
1.53418e-18
5.04717e-18
5.30228e-18
4.36872e-18
5.15434e-18
9.88423e-18
3.90112e-17
2.16634e-16
5.4347e-16
1.43861e-15
3.8373e-15
2.08555e-14
2.6895e-13
2.04584e-12
1.45261e-10
1.53451e-11
3.76155e-11
6.24619e-12
2.62749e-12
7.0595e-10
6.43031e-12
7.03644e-10
3.09258e-12
1.87391e-09
6.35155e-13
5.52693e-13
8.90033e-12
1.65056e-15
1.13553e-16
1.06182e-15
1.42176e-15
1.01063e-15
2.50164e-15
8.48609e-15
1.67944e-15
2.40429e-15
1.35163e-14
2.97108e-14
7.64919e-14
1.50472e-12
6.31546e-10
2.31893e-07
4.42031e-05
0.00637152
0.184991
0.436306
0.779572
0.99896
1
1
1
1
1
1
1
1
1
1
1
1
1
1
1
1
1
1
2.08989e-18
1.42762e-18
4.85291e-18
4.94193e-18
4.08901e-18
4.63622e-18
9.34478e-18
4.08152e-17
2.25457e-16
5.23471e-16
1.40242e-15
3.73758e-15
2.23364e-14
3.53434e-13
2.91538e-12
8.76446e-11
1.05456e-10
1.60412e-11
5.3085e-11
4.32794e-12
2.88051e-11
1.26681e-11
2.31834e-11
5.37599e-12
1.44685e-11
1.36996e-12
3.2543e-13
3.86474e-12
7.79507e-15
1.65264e-16
3.94839e-16
2.0494e-15
8.64452e-16
1.71005e-15
7.45514e-15
2.33378e-15
1.74862e-15
1.19843e-14
2.99984e-14
7.07538e-14
1.10341e-12
4.86387e-10
1.91998e-07
3.6952e-05
0.00538507
0.17689
0.43588
0.758301
0.998069
1
1
1
1
1
1
1
1
1
1
1
1
1
1
1
1
1
1
1
2.08463e-18
1.37827e-18
4.79169e-18
4.56705e-18
3.77619e-18
4.13517e-18
8.9376e-18
4.32804e-17
2.25114e-16
5.08318e-16
1.31858e-15
3.60533e-15
2.25401e-14
4.88074e-13
3.97973e-12
1.39935e-10
2.70428e-09
1.60067e-11
4.45176e-11
4.14096e-11
5.66994e-12
9.41434e-11
4.6735e-12
3.34625e-11
2.65362e-12
4.10589e-12
2.53964e-13
5.45119e-13
4.76713e-14
3.23193e-16
2.10424e-16
2.98296e-15
7.47162e-16
1.24856e-15
5.54988e-15
3.63541e-15
1.49526e-15
8.99508e-15
2.86981e-14
6.67635e-14
8.43539e-13
3.88799e-10
1.64547e-07
3.20761e-05
0.00472672
0.170864
0.437818
0.740382
0.996678
1
1
1
1
1
1
1
1
1
1
1
1
1
1
1
1
1
1
1
1
2.03073e-18
1.34786e-18
4.76395e-18
4.17514e-18
3.41506e-18
3.7091e-18
8.70541e-18
4.50297e-17
2.18087e-16
4.96698e-16
1.28779e-15
3.43608e-15
2.13995e-14
5.36917e-13
4.59756e-12
1.60147e-10
2.4953e-08
4.41703e-11
7.17178e-12
1.86832e-09
3.31594e-12
2.47167e-10
2.77074e-12
5.91568e-10
1.34078e-12
2.74473e-11
1.87389e-13
1.83452e-13
1.62085e-13
7.81601e-16
1.62302e-16
2.2369e-15
6.89867e-16
9.76592e-16
3.81841e-15
5.82925e-15
1.4582e-15
5.74262e-15
2.70219e-14
6.58962e-14
6.78548e-13
3.22007e-10
1.45923e-07
2.89987e-05
0.00436023
0.170182
0.444091
0.725989
0.994764
1
1
1
1
1
1
1
1
1
1
1
1
1
1
1
1
1
1
1
1
1
1.97322e-18
1.29222e-18
4.74908e-18
3.69028e-18
3.03189e-18
3.42075e-18
8.63565e-18
4.68392e-17
2.03641e-16
4.97325e-16
1.29395e-15
3.46792e-15
2.08701e-14
4.57956e-13
4.20673e-12
6.23977e-11
2.9394e-09
4.74942e-10
1.14388e-11
1.71922e-10
6.19619e-12
1.51502e-11
5.53895e-12
1.76712e-11
1.19638e-12
2.3769e-10
1.4342e-13
9.37549e-14
8.04585e-14
2.17947e-15
1.69783e-16
9.42923e-16
6.971e-16
8.11777e-16
2.65879e-15
7.80157e-15
1.62844e-15
3.63914e-15
2.60313e-14
6.9781e-14
5.76386e-13
2.75448e-10
1.34242e-07
2.7545e-05
0.00428459
0.17901
0.459824
0.714895
0.992409
1
1
1
1
1
1
1
1
1
1
1
1
1
1
1
1
1
1
1
1
1
1
1.85161e-18
1.22707e-18
4.62572e-18
3.16406e-18
2.64935e-18
3.21592e-18
8.60432e-18
4.85905e-17
1.87484e-16
4.88218e-16
1.29657e-15
3.68733e-15
2.20646e-14
3.7008e-13
4.0433e-12
1.36687e-11
1.81677e-10
2.50137e-09
4.03818e-11
4.57143e-11
1.56094e-11
5.34756e-12
2.4165e-11
3.98026e-12
3.47526e-12
1.22187e-11
1.07778e-13
5.57824e-14
2.92802e-14
5.73572e-15
2.25815e-16
4.27844e-16
8.37714e-16
7.30569e-16
1.91001e-15
8.40515e-15
2.15764e-15
2.49481e-15
2.59067e-14
7.60781e-14
5.12324e-13
2.43779e-10
1.29209e-07
2.79638e-05
0.00456707
0.203671
0.492101
0.708598
0.989679
1
1
1
1
1
1
1
1
1
1
1
1
1
1
1
1
1
1
1
1
1
1
1
1.62635e-18
1.12107e-18
4.50329e-18
2.73695e-18
2.31176e-18
3.09455e-18
8.70544e-18
4.85093e-17
1.78185e-16
4.87667e-16
1.24802e-15
3.96583e-15
2.51918e-14
3.08145e-13
4.21581e-12
1.12763e-11
2.8779e-11
3.23405e-09
7.61062e-11
8.27019e-11
8.1698e-11
7.96118e-12
9.40952e-10
2.79023e-12
6.57994e-11
2.26803e-12
7.66607e-14
3.26345e-14
1.31591e-14
8.78314e-15
3.62058e-16
2.52443e-16
1.12337e-15
6.64232e-16
1.43456e-15
7.02164e-15
3.13134e-15
1.94803e-15
2.1619e-14
7.76519e-14
4.73552e-13
2.27202e-10
1.32511e-07
3.10281e-05
0.00539825
0.255809
0.546192
0.710004
0.986445
1
1
1
1
1
1
1
1
1
1
1
1
1
1
1
1
1
1
1
1
1
1
1
1
1.47256e-18
9.25269e-19
4.25303e-18
2.43875e-18
2.05285e-18
3.08302e-18
8.75528e-18
4.7799e-17
1.7385e-16
5.04412e-16
1.21934e-15
3.86417e-15
2.85766e-14
3.22126e-13
2.1034e-12
2.40238e-10
6.68371e-12
5.9968e-10
3.2617e-11
8.90085e-11
9.31617e-11
5.03468e-11
2.34435e-11
5.42801e-12
2.93217e-11
1.18113e-12
5.94528e-14
1.84902e-14
6.90988e-15
6.4008e-15
6.40473e-16
1.85597e-16
1.27132e-15
6.21195e-16
1.11931e-15
5.38736e-15
4.99864e-15
1.71222e-15