/*--------------------------------*- C++ -*----------------------------------*\
| =========                 |                                                 |
| \\      /  F ield         | OpenFOAM: The Open Source CFD Toolbox           |
|  \\    /   O peration     | Version:  v2012                                 |
|   \\  /    A nd           | Website:  www.openfoam.com                      |
|    \\/     M anipulation  |                                                 |
\*---------------------------------------------------------------------------*/
FoamFile
{
    version     2.0;
    format      ascii;
    class       volScalarField;
    location    "12000";
    object      q3;
}
// * * * * * * * * * * * * * * * * * * * * * * * * * * * * * * * * * * * * * //

dimensions      [0 0 0 0 0 0 0];


internalField   nonuniform List<scalar> 
27324
(
2
2
2
2
2
2
2
2
2
2
2
2
2
2
2
2
2
2
2
2
2
2
2
2
2
2
2
2
2
2
2
2
2
2
2
2
2
2
2
2
2
2
2
2
2
2
2
2
2
2
2
2
2
2
2
2
2
2
2
2
2
2
2
2
2
2
2
2
2
2
2
2
2
2
2
2
2
2
2
2
2
2
2
2
2
2
2
2
2
2
2
2
2
2
2
2
2
2
2
2
2
2
2
2
2
2
2
2
2
2
2
2
2
2
2
2
2
2
2
2
2
2
2
2
2
2
2
2
2
2
2
2
2
2
2
2
2
2
2
2
2
2
2
2
2
2
2
2
2
2
2
2
2
2
2
2
2
2
2
2
2
2
2
2
2
2
2
2
2
2
2
2
2
2
2
2
2
2
2
2
2
2
2
2
2
2
2
2
2
2
2
2
2
2
2
2
2
2
2
2
2
2
2
2
2
2
2
2
2
2
2
2
2
2
2
2
2
2
2
2
2
2
2
2
2
2
2
2
2
1.82339
1.43135
2
2
2
2
2
2
2
2
2
2
2
2
2
2
2
2
2
2
2
1.63791
1.25749
1.05354
2
2
2
2
2
2
2
2
2
2
2
2
2
2
2
2
2
2
2
1.60605
1.22916
0.982022
0.897666
2
2
2
2
2
2
2
2
2
2
2
2
2
2
2
2
2
2
2
1.64803
1.25652
0.98543
0.832621
0.836621
2
2
2
2
2
2
2
2
2
2
2
2
2
2
2
2
2
2
2
1.7308
1.30409
1.00733
0.811968
0.763336
0.793257
2
2
2
2
2
2
2
2
2
2
2
2
2
2
2
2
2
2
2
1.82395
1.35664
1.03674
0.817644
0.716098
0.742031
0.746705
2
2
2
2
2
2
2
2
2
2
2
2
2
2
2
2
2
2
2
1.92383
1.41495
1.06709
0.831576
0.687634
0.688943
0.721296
0.724671
2
2
2
2
2
2
2
2
2
2
2
2
2
2
2
2
2
2
2
2
1.48034
1.10137
0.848522
0.68087
0.637305
0.688146
0.698903
0.786008
2
2
2
2
2
2
2
2
2
2
2
2
2
2
2
2
2
2
2
2
1.55279
1.14184
0.867243
0.686588
0.5999
0.640756
0.67764
0.728017
1.02826
2
2
2
2
2
2
2
2
2
2
2
2
2
2
2
2
2
2
2
2
1.63045
1.18815
0.890043
0.696547
0.58035
0.590199
0.651463
0.687336
0.896105
1.59497
2
2
2
2
2
2
2
2
2
2
2
2
2
2
2
2
2
2
2
2
1.70994
1.23958
0.916825
0.708218
0.577533
0.546036
0.61546
0.656101
0.796632
1.33753
2
2
2
2
2
2
2
2
2
2
2
2
2
2
2
2
2
2
2
2
2
1.78782
1.29446
0.948455
0.722376
0.582025
0.515595
0.569813
0.628924
0.722254
1.13088
2
2
2
2
2
2
2
2
2
2
2
2
2
2
2
2
2
2
2
2
2
2
1.86413
1.35038
0.984423
0.739903
0.588901
0.501817
0.52334
0.599764
0.667535
0.965986
1.86103
2
2
2
2
2
2
2
2
2
2
2
2
2
2
2
2
2
2
2
2
2
2
1.94155
1.40489
1.02373
0.76129
0.597695
0.500073
0.483815
0.563705
0.626438
0.837386
1.54651
2
2
2
2
2
2
2
2
2
2
2
2
2
2
2
2
2
2
2
2
2
2
2
2
1.45711
1.06446
0.786565
0.608742
0.503281
0.456413
0.520283
0.592994
0.739255
1.28871
2
2
2
2
2
2
2
2
2
2
2
2
2
2
2
2
2
2
2
2
2
2
2
2
2
1.50967
1.10428
0.81508
0.622759
0.507942
0.443809
0.476938
0.561276
0.665912
1.08011
2
2
2
2
2
2
2
2
2
2
2
2
2
2
2
2
2
2
2
2
2
2
2
2
2
2
1.5606
1.14182
0.845484
0.639692
0.514161
0.441148
0.439781
0.526258
0.611305
0.914304
1.83098
2
2
2
2
2
2
2
2
2
2
2
2
2
2
2
2
2
2
2
2
2
2
2
2
2
1.98875
1.60751
1.17809
0.875506
0.659437
0.522255
0.442769
0.413237
0.485671
0.569279
0.785154
1.50857
2
2
2
2
2
2
2
2
2
2
2
2
2
2
2
2
2
2
2
2
2
2
2
2
2
1.97591
1.82634
1.61485
1.21514
0.90315
0.681092
0.532865
0.445654
0.39989
0.444904
0.533652
0.686964
1.24491
2
2
2
2
2
2
2
2
2
2
2
2
2
2
2
2
2
2
2
2
2
2
2
2
2
2
1.91291
1.65321
1.56403
1.24563
0.928394
0.703195
0.545819
0.450036
0.395927
0.408798
0.498962
0.613627
1.03245
2
2
2
2
2
2
2
2
2
2
2
2
2
2
2
2
2
2
2
2
2
2
2
2
2
2
2
1.89674
1.53534
1.45379
1.26374
0.952839
0.723714
0.561013
0.456103
0.396338
0.381359
0.46168
0.558877
0.864195
1.80616
2
2
2
2
2
2
2
2
2
2
2
2
2
2
2
2
2
2
2
2
2
2
2
2
2
2
2
1.8934
1.47686
1.31779
1.23931
0.975495
0.741536
0.577597
0.464341
0.398162
0.36533
0.423005
0.51632
0.733872
1.47437
2
2
2
2
2
2
2
2
2
2
2
2
2
2
2
2
2
2
2
2
2
2
2
2
2
2
2
2
1.89261
1.45607
1.20842
1.17196
0.990586
0.757501
0.594329
0.474766
0.401083
0.358921
0.387412
0.479895
0.635376
1.20429
2
2
2
2
2
2
2
2
2
2
2
2
2
2
2
2
2
2
2
2
2
2
2
2
2
2
2
2
2
1.89369
1.45278
1.14634
1.07146
0.988818
0.773191
0.609452
0.487094
0.405568
0.357774
0.358351
0.444792
0.56236
0.987658
2
2
2
2
2
2
2
2
2
2
2
2
2
2
2
2
2
2
2
2
2
2
2
2
2
2
2
2
2
2
1.89637
1.45133
1.11508
0.971804
0.952897
0.786819
0.622002
0.500581
0.41183
0.358648
0.338318
0.408605
0.50837
0.816916
1.81084
2
2
2
2
2
2
2
2
2
2
2
2
2
2
2
2
2
2
2
2
2
2
2
2
2
2
2
2
2
2
1.90017
1.44986
1.10704
0.902607
0.887848
0.793644
0.632738
0.513909
0.420096
0.360417
0.328212
0.373766
0.46689
0.6856
1.46606
2
2
2
2
2
2
2
2
2
2
2
2
2
2
2
2
2
2
2
2
2
2
2
2
2
2
2
2
2
2
2
1.90494
1.44948
1.10438
0.865361
0.806722
0.784108
0.643107
0.525569
0.429997
0.363616
0.324697
0.343157
0.432013
0.587234
1.18728
2
2
2
2
2
2
2
2
2
2
2
2
2
2
2
2
2
2
2
2
2
2
2
2
2
2
2
2
2
2
2
2
1.90988
1.45131
1.10283
0.849177
0.734903
0.74919
0.651196
0.534707
0.44122
0.368351
0.324352
0.319094
0.399219
0.515859
0.964204
2
2
2
2
2
2
2
2
2
2
2
2
2
2
2
2
2
2
2
2
2
2
2
2
2
2
2
2
2
2
2
2
2
1.91404
1.45463
1.10229
0.845408
0.687923
0.693644
0.653749
0.541973
0.452643
0.374854
0.325197
0.303579
0.366727
0.464685
0.788881
1.86234
2
2
2
2
2
2
2
2
2
2
2
2
2
2
2
2
2
2
2
2
2
2
2
2
2
2
2
2
2
2
2
2
2
1.91645
1.45938
1.1033
0.844238
0.662767
0.629398
0.64342
0.548754
0.462906
0.382988
0.327179
0.295795
0.336581
0.426331
0.654468
1.49365
2
2
2
2
2
2
2
2
2
2
2
2
2
2
2
2
2
2
2
2
2
2
2
2
2
2
2
2
2
2
2
2
2
2
1.91808
1.46467
1.10594
0.843495
0.653103
0.574286
0.612436
0.554254
0.470841
0.392439
0.330374
0.292956
0.310696
0.395087
0.555701
1.19653
2
2
2
2
2
2
2
2
2
2
2
2
2
2
2
2
2
2
2
2
2
2
2
2
2
2
2
2
2
2
2
2
2
2
2
1.91952
1.46897
1.10995
0.844601
0.651115
0.537961
0.566605
0.555173
0.476601
0.402594
0.335237
0.292549
0.290528
0.366888
0.485202
0.961087
2
2
2
2
2
2
2
2
2
2
2
2
2
2
2
2
2
2
2
2
2
2
2
2
2
2
2
2
2
2
2
2
2
2
2
2
1.92089
1.47222
1.1146
0.846238
0.650675
0.517776
0.51349
0.546835
0.481518
0.412485
0.341605
0.293052
0.277903
0.339908
0.435749
0.778771
2
2
2
2
2
2
2
2
2
2
2
2
2
2
2
2
2
2
2
2
2
2
2
2
2
2
2
2
2
2
2
2
2
2
2
2
2
1.92193
1.47469
1.11851
0.848906
0.650358
0.509234
0.466684
0.522049
0.485834
0.420822
0.349176
0.295736
0.271679
0.314899
0.400429
0.642185
1.59634
2
2
2
2
2
2
2
2
2
2
2
2
2
2
2
2
2
2
2
2
2
2
2
2
2
2
2
2
2
2
2
2
2
2
2
2
2
1.92232
1.47621
1.12085
0.85213
0.650257
0.506813
0.434105
0.485035
0.48734
0.427061
0.357731
0.299366
0.2693
0.293488
0.37359
0.542014
1.26256
2
2
2
2
2
2
2
2
2
2
2
2
2
2
2
2
2
2
2
2
2
2
2
2
2
2
2
2
2
2
2
2
2
2
2
2
2
2
1.92075
1.47695
1.12182
0.855527
0.650535
0.505932
0.415186
0.440824
0.482356
0.431616
0.366642
0.304542
0.268822
0.277287
0.349927
0.470881
0.999685
2
2
2
2
2
2
2
2
2
2
2
2
2
2
2
2
2
2
2
2
2
2
2
2
2
2
2
2
2
2
2
2
2
2
2
2
2
2
2
1.91819
1.47576
1.12191
0.858386
0.651701
0.505518
0.406023
0.399272
0.466236
0.43548
0.375349
0.310684
0.270113
0.267307
0.327725
0.423151
0.798625
2
2
2
2
2
2
2
2
2
2
2
2
2
2
2
2
2
2
2
2
2
2
2
2
2
2
2
2
2
2
2
2
2
2
2
2
2
2
2
2
1.91535
1.47381
1.12175
0.860138
0.653699
0.505756
0.403446
0.367808
0.436558
0.438265
0.382799
0.317704
0.274005
0.262491
0.307097
0.390206
0.650217
1.81481
2
2
2
2
2
2
2
2
2
2
2
2
2
2
2
2
2
2
2
2
2
2
2
2
2
2
2
2
2
2
2
2
2
2
2
2
2
2
2
2
1.91303
1.47122
1.12135
0.861072
0.656239
0.506414
0.40291
0.34771
0.399855
0.436703
0.388446
0.32563
0.279231
0.260405
0.28944
0.365741
0.545571
1.41845
2
2
2
2
2
2
2
2
2
2
2
2
2
2
2
2
2
2
2
2
2
2
2
2
2
2
2
2
2
2
2
2
2
2
2
2
2
2
2
2
2
1.91186
1.46908
1.12074
0.861735
0.658546
0.50767
0.402843
0.33598
0.361972
0.427203
0.392779
0.334361
0.285438
0.259847
0.276635
0.345287
0.475498
1.10627
2
2
2
2
2
2
2
2
2
2
2
2
2
2
2
2
2
2
2
2
2
2
2
2
2
2
2
2
2
2
2
2
2
2
2
2
2
2
2
2
2
2
1.91264
1.46785
1.11983
0.862235
0.660072
0.509524
0.402892
0.331313
0.329894
0.406465
0.396378
0.343447
0.292194
0.26276
0.268856
0.326081
0.426538
0.86921
2
2
2
2
2
2
2
2
2
2
2
2
2
2
2
2
2
2
2
2
2
2
2
2
2
2
2
2
2
2
2
2
2
2
2
2
2
2
2
2
2
2
2
1.91482
1.46731
1.11883
0.862099
0.660809
0.511688
0.403174
0.329778
0.306826
0.377673
0.397394
0.352289
0.299622
0.267333
0.264971
0.308215
0.395526
0.697184
2
2
2
2
2
2
2
2
2
2
2
2
2
2
2
2
2
2
2
2
2
2
2
2
2
2
2
2
2
2
2
2
2
2
2
2
2
2
2
2
2
2
2
2
1.91704
1.46821
1.1181
0.861382
0.661146
0.513871
0.403792
0.329275
0.292204
0.345196
0.394117
0.360194
0.307555
0.273699
0.263264
0.29316
0.373136
0.578839
1.74654
2
2
2
2
2
2
2
2
2
2
2
2
2
2
2
2
2
2
2
2
2
2
2
2
2
2
2
2
2
2
2
2
2
2
2
2
2
2
2
2
2
2
2
2
1.91833
1.46949
1.11765
0.859944
0.661085
0.51557
0.404891
0.329141
0.284071
0.314491
0.384054
0.36631
0.316062
0.280988
0.263903
0.282554
0.354968
0.501665
1.34626
2
2
2
2
2
2
2
2
2
2
2
2
2
2
2
2
2
2
2
2
2
2
2
2
2
2
2
2
2
2
2
2
2
2
2
2
2
2
2
2
2
2
2
2
2
1.91856
1.4709
1.1175
0.858215
0.660922
0.516663
0.4064
0.32908
0.280903
0.289449
0.363659
0.370075
0.325513
0.289061
0.267554
0.276423
0.337177
0.451433
1.04406
2
2
2
2
2
2
2
2
2
2
2
2
2
2
2
2
2
2
2
2
2
2
2
2
2
2
2
2
2
2
2
2
2
2
2
2
2
2
2
2
2
2
2
2
2
2
1.91659
1.4714
1.11778
0.856819
0.660443
0.517324
0.408072
0.329689
0.279984
0.271359
0.338867
0.371287
0.336135
0.297756
0.273162
0.273105
0.320131
0.419697
0.829058
2
2
2
2
2
2
2
2
2
2
2
2
2
2
2
2
2
2
2
2
2
2
2
2
2
2
2
2
2
2
2
2
2
2
2
2
2
2
2
2
2
2
2
2
2
2
2
1.91403
1.4714
1.11875
0.855892
0.659583
0.51775
0.409583
0.330531
0.279806
0.259502
0.312397
0.367004
0.346703
0.306928
0.28049
0.271932
0.30587
0.397755
0.686278
2
2
2
2
2
2
2
2
2
2
2
2
2
2
2
2
2
2
2
2
2
2
2
2
2
2
2
2
2
2
2
2
2
2
2
2
2
2
2
2
2
2
2
2
2
2
2
2
1.91107
1.47109
1.11945
0.85557
0.658795
0.518061
0.410695
0.331751
0.279885
0.253424
0.287677
0.358124
0.355958
0.31659
0.288822
0.273155
0.295581
0.380066
0.597282
1.93785
2
2
2
2
2
2
2
2
2
2
2
2
2
2
2
2
2
2
2
2
2
2
2
2
2
2
2
2
2
2
2
2
2
2
2
2
2
2
2
2
2
2
2
2
2
2
2
2
1.90899
1.46943
1.11982
0.856781
0.658268
0.517483
0.411363
0.333147
0.280592
0.251247
0.267964
0.343953
0.362345
0.32704
0.298104
0.27702
0.289692
0.362358
0.543051
1.51105
2
2
2
2
2
2
2
2
2
2
2
2
2
2
2
2
2
2
2
2
2
2
2
2
2
2
2
2
2
2
2
2
2
2
2
2
2
2
2
2
2
2
2
2
2
2
2
2
2
1.9083
1.4673
1.11996
0.85815
0.658085
0.516569
0.411764
0.334787
0.281987
0.250833
0.254179
0.325302
0.364729
0.338505
0.308168
0.282868
0.286452
0.344404
0.509107
1.22179
2
2
2
2
2
2
2
2
2
2
2
2
2
2
2
2
2
2
2
2
2
2
2
2
2
2
2
2
2
2
2
2
2
2
2
2
2
2
2
2
2
2
2
2
2
2
2
2
2
2
1.90846
1.46485
1.11944
0.859521
0.658381
0.515293
0.412039
0.336645
0.283567
0.251535
0.245701
0.305483
0.362104
0.351065
0.31885
0.290457
0.286359
0.3292
0.486027
1.05197
2
2
2
2
2
2
2
2
2
2
2
2
2
2
2
2
2
2
2
2
2
2
2
2
2
2
2
2
2
2
2
2
2
2
2
2
2
2
2
2
2
2
2
2
2
2
2
2
2
2
2
1.90891
1.46307
1.11861
0.86029
0.65894
0.514141
0.411898
0.338634
0.285389
0.253856
0.242193
0.286953
0.354506
0.363272
0.330092
0.2994
0.287379
0.319049
0.468267
0.968569
2
2
2
2
2
2
2
2
2
2
2
2
2
2
2
2
2
2
2
2
2
2
2
2
2
2
2
2
2
2
2
2
2
2
2
2
2
2
2
2
2
2
2
2
2
2
2
2
2
2
2
2
1.90974
1.46189
1.11734
0.860596
0.659983
0.513462
0.41164
0.340738
0.287445
0.257118
0.240853
0.271714
0.342879
0.373536
0.341884
0.309321
0.290377
0.311949
0.449984
0.932444
2
2
2
2
2
2
2
2
2
2
2
2
2
2
2
2
2
2
2
2
2
2
2
2
2
2
2
2
2
2
2
2
2
2
2
2
2
2
2
2
2
2
2
2
2
2
2
2
2
2
2
2
2
1.91045
1.46214
1.11656
0.860207
0.660951
0.513294
0.411363
0.342916
0.289833
0.260913
0.242086
0.261939
0.330366
0.379751
0.354532
0.320245
0.295647
0.308055
0.43419
0.917045
2
2
2
2
2
2
2
2
2
2
2
2
2
2
2
2
2
2
2
2
2
2
2
2
2
2
2
2
2
2
2
2
2
2
2
2
2
2
2
2
2
2
2
2
2
2
2
2
2
2
2
2
2
2
1.91122
1.46276
1.11651
0.859052
0.661365
0.514169
0.411188
0.344998
0.29267
0.265096
0.244712
0.25643
0.315164
0.380581
0.368281
0.332087
0.302632
0.308045
0.417683
0.912437
2
2
2
2
2
2
2
2
2
2
2
2
2
2
2
2
2
2
2
2
2
2
2
2
2
2
2
2
2
2
2
2
2
2
2
2
2
2
2
2
2
2
2
2
2
2
2
2
2
2
2
2
2
2
2
1.91223
1.46302
1.11702
0.857929
0.661506
0.516099
0.411112
0.347105
0.296103
0.269715
0.24946
0.254204
0.300582
0.377774
0.38312
0.344693
0.311163
0.309577
0.403389
0.906994
2
2
2
2
2
2
2
2
2
2
2
2
2
2
2
2
2
2
2
2
2
2
2
2
2
2
2
2
2
2
2
2
2
2
2
2
2
2
2
2
2
2
2
2
2
2
2
2
2
2
2
2
2
2
2
2
1.91511
1.46288
1.11742
0.8574
0.661089
0.518296
0.412357
0.34936
0.30025
0.274776
0.255478
0.253826
0.288827
0.368762
0.396911
0.357907
0.321097
0.312596
0.392764
0.894787
2
2
2
2
2
2
2
2
2
2
2
2
2
2
2
2
2
2
2
2
2
2
2
2
2
2
2
2
2
2
2
2
2
2
2
2
2
2
2
2
2
2
2
2
2
2
2
2
2
2
2
2
2
2
2
2
2
1.91937
1.46279
1.11764
0.857372
0.660879
0.520562
0.414228
0.351984
0.305142
0.280309
0.26203
0.254854
0.280818
0.359519
0.407701
0.37176
0.331977
0.316501
0.387161
0.876508
2
2
2
2
2
2
2
2
2
2
2
2
2
2
2
2
2
2
2
2
2
2
2
2
2
2
2
2
2
2
2
2
2
2
2
2
2
2
2
2
2
2
2
2
2
2
2
2
2
2
2
2
2
2
2
2
2
2
1.9236
1.46393
1.11653
0.859116
0.661046
0.522642
0.417507
0.3554
0.310776
0.286271
0.26893
0.258393
0.276002
0.348446
0.41373
0.386557
0.343739
0.32219
0.38642
0.854013
2
2
2
2
2
2
2
2
2
2
2
2
2
2
2
2
2
2
2
2
2
2
2
2
2
2
2
2
2
2
2
2
2
2
2
2
2
2
2
2
2
2
2
2
2
2
2
2
2
2
2
2
2
2
2
2
2
2
2
1.92696
1.46819
1.11525
0.860612
0.662711
0.524606
0.422253
0.359906
0.317047
0.292598
0.27606
0.263511
0.275407
0.335291
0.415135
0.402468
0.35625
0.329178
0.39053
0.831345
2
2
2
2
2
2
2
2
2
2
2
2
2
2
2
2
2
2
2
2
2
2
2
2
2
2
2
2
2
2
2
2
2
2
2
2
2
2
2
2
2
2
2
2
2
2
2
2
2
2
2
2
2
2
2
2
2
2
2
2
1.92353
1.4723
1.11518
0.860721
0.667342
0.527297
0.428513
0.36559
0.323819
0.299219
0.283301
0.269921
0.275413
0.322564
0.413582
0.418685
0.369426
0.337203
0.397196
0.813312
2
2
2
2
2
2
2
2
2
2
2
2
2
2
2
2
2
2
2
2
2
2
2
2
2
2
2
2
2
2
2
2
2
2
2
2
2
2
2
2
2
2
2
2
2
2
2
2
2
2
2
2
2
2
2
2
2
2
2
2
2
1.91751
1.47513
1.12127
0.860035
0.674137
0.531433
0.436106
0.372338
0.330917
0.306239
0.290579
0.277258
0.276717
0.311535
0.408677
0.432931
0.383049
0.346333
0.406283
0.802406
2
2
2
2
2
2
2
2
2
2
2
2
2
2
2
2
2
2
2
2
2
2
2
2
2
2
2
2
2
2
2
2
2
2
2
2
2
2
2
2
2
2
2
2
2
2
2
2
2
2
2
2
2
2
2
2
2
2
2
2
2
2
1.91503
1.4748
1.13226
0.860349
0.683128
0.537954
0.444667
0.379827
0.33886
0.313919
0.298175
0.284919
0.2792
0.303584
0.402861
0.443817
0.397039
0.356558
0.416515
0.800577
2
2
2
2
2
2
2
2
2
2
2
2
2
2
2
2
2
2
2
2
2
2
2
2
2
2
2
2
2
2
2
2
2
2
2
2
2
2
2
2
2
2
2
2
2
2
2
2
2
2
2
2
2
2
2
2
2
2
2
2
2
2
2
1.92438
1.47243
1.14645
0.866268
0.692618
0.547076
0.453861
0.388979
0.347716
0.322211
0.306108
0.292732
0.283572
0.299341
0.391021
0.450434
0.411432
0.367738
0.42718
0.807879
2
2
2
2
2
2
2
2
2
2
2
2
2
2
2
2
2
2
2
2
2
2
2
2
2
2
2
2
2
2
2
2
2
2
2
2
2
2
2
2
2
2
2
2
2
2
2
2
2
2
2
2
2
2
2
2
2
2
2
2
2
2
2
2
1.95017
1.47085
1.1603
0.876952
0.703071
0.558463
0.465119
0.399669
0.357422
0.331063
0.314369
0.300673
0.289519
0.298492
0.377098
0.454015
0.425894
0.379306
0.43816
0.823196
2
2
2
2
2
2
2
2
2
2
2
2
2
2
2
2
2
2
2
2
2
2
2
2
2
2
2
2
2
2
2
2
2
2
2
2
2
2
2
2
2
2
2
2
2
2
2
2
2
2
2
2
2
2
2
2
2
2
2
2
2
2
2
2
2
1.97731
1.48154
1.17285
0.894016
0.715455
0.574342
0.478707
0.411657
0.367853
0.340406
0.322909
0.308689
0.296373
0.29862
0.360914
0.455456
0.438992
0.391026
0.449601
0.844235
2
2
2
2
2
2
2
2
2
2
2
2
2
2
2
2
2
2
2
2
2
2
2
2
2
2
2
2
2
2
2
2
2
2
2
2
2
2
2
2
2
2
2
2
2
2
2
2
2
2
2
2
2
2
1.27832
2
2
2
2
2
2
2
2
2
2
2
1.99517
1.50534
1.18919
0.91903
0.735362
0.594207
0.494467
0.424661
0.378852
0.350122
0.331616
0.316694
0.303649
0.300195
0.345058
0.454389
0.448707
0.402223
0.461517
0.870285
2
2
2
2
2
2
2
2
2
2
2
2
2
2
2
2
2
2
2
2
2
2
2
2
2
2
2
2
2
2
2
2
2
2
2
2
2
2
2
2
2
2
2
2
2
2
2
2
2
2
2
2
2
2
2
0.764075
0.731978
2
2
2
2
2
2
2
2
2
2
2
1.55347
1.22102
0.956145
0.763223
0.617263
0.511811
0.438292
0.390182
0.360012
0.340256
0.324534
0.310879
0.303016
0.33074
0.443202
0.454271
0.413014
0.474644
0.900172
2
2
2
2
2
2
2
2
2
2
2
2
2
2
2
2
2
2
2
2
2
2
2
2
2
2
2
2
2
2
2
2
2
2
2
2
2
2
2
2
2
2
2
2
2
2
2
2
2
2
2
2
2
2
2
2
0.765238
0.707843
0.565223
2
2
2
2
2
2
2
2
2
2
1.6303
1.2772
1.00363
0.797326
0.642282
0.529812
0.452
0.401466
0.36973
0.348416
0.331991
0.317607
0.306178
0.318588
0.42507
0.457531
0.423475
0.489229
0.932955
2
2
2
2
2
2
2
2
2
2
2
2
2
2
2
2
2
2
2
2
2
2
2
2
2
2
2
2
2
2
2
2
2
2
2
2
2
2
2
2
2
2
2
2
2
2
2
2
2
1.99193
2
2
2
2
2
2
2
0.76748
0.706709
0.559907
0.519766
2
2
2
2
2
2
2
2
2
1.73927
1.35281
1.05792
0.834436
0.667462
0.547248
0.465015
0.412115
0.378698
0.355796
0.338762
0.323398
0.309024
0.308658
0.402423
0.459612
0.433023
0.505409
0.967858
2
2
2
2
2
2
2
2
2
2
2
2
2
2
2
2
2
2
2
2
2
2
2
2
2
2
2
2
2
2
2
2
2
2
2
2
2
2
2
2
2
2
2
2
2
2
2
2
2
2
1.61505
2
2
2
2
2
2
2
0.769786
0.706646
0.563242
0.519205
0.504117
2
2
2
2
2
2
2
2
1.8668
1.43818
1.11396
0.870429
0.690404
0.562513
0.476241
0.421248
0.386062
0.362299
0.344501
0.327933
0.311227
0.301615
0.377917
0.459245
0.440625
0.52313
1.00829
2
2
2
2
2
2
2
2
2
2
2
2
2
2
2
2
2
2
2
2
2
2
2
2
2
2
2
2
2
2
2
2
2
2
2
2
2
2
2
2
2
2
2
2
2
2
2
2
2
2
1.64806
1.29274
2
2
2
2
2
2
2
0.772666
0.707007
0.5674
0.522749
0.506883
0.498968
2
2
2
2
2
2
2
1.99333
1.51855
1.1634
0.899822
0.707664
0.573363
0.484135
0.427632
0.391349
0.367496
0.348908
0.331119
0.312754
0.297569
0.353683
0.452335
0.446122
0.5428
1.05307
2
2
2
2
2
2
2
2
2
2
2
2
2
2
2
2
2
2
2
2
2
2
2
2
2
2
2
2
2
2
2
2
2
2
2
2
2
2
2
2
2
2
2
2
2
2
2
2
2
2
1.67038
1.32003
1.01702
2
2
2
2
2
2
2
0.768559
0.708254
0.571591
0.526682
0.510501
0.502433
0.497147
2
2
2
2
2
2
2
1.57255
1.1933
0.914738
0.714432
0.576816
0.486726
0.429851
0.394805
0.371097
0.35186
0.333123
0.313764
0.295588
0.331738
0.440768
0.451282
0.564615
1.10294
2
2
2
2
2
2
2
2
2
2
2
2
2
2
2
2
2
2
2
2
2
2
2
2
2
2
2
2
2
2
2
2
2
2
2
2
2
2
2
2
2
2
2
2
2
2
2
2
2
2
1.69359
1.33812
1.03935
0.780458
2
2
2
2
2
2
2
0.768231
0.711257
0.57603
0.530651
0.514305
0.506201
0.500573
0.492504
2
2
2
2
2
2
1.568
1.18548
0.904771
0.704787
0.569577
0.482126
0.429058
0.396204
0.373107
0.353547
0.334302
0.314475
0.29487
0.313167
0.42178
0.455243
0.587301
1.15783
2
2
2
2
2
2
2
2
2
2
2
2
2
2
2
2
2
2
2
2
2
2
2
2
2
2
2
2
2
2
2
2
2
2
2
2
2
2
2
2
2
2
2
2
2
2
2
2
2
2
1.71615
1.35713
1.05384
0.798552
0.576328
2
2
2
2
2
2
1.92968
0.767939
0.71551
0.580594
0.534766
0.518123
0.510076
0.504351
0.495768
0.489507
2
2
2
2
1.91111
1.46971
1.12063
0.859878
0.673881
0.549582
0.472352
0.425622
0.395907
0.373841
0.354393
0.335045
0.315073
0.294827
0.298464
0.397416
0.458098
0.610391
1.21678
2
2
2
2
2
2
2
2
2
2
2
2
2
2
2
2
2
2
2
2
2
2
2
2
2
2
2
2
2
2
2
2
2
2
2
2
2
2
2
2
2
2
2
2
2
2
2
2
2
2
1.73862
1.37559
1.06924
0.810037
0.590755
0.398918
2
2
2
2
2
2
1.86688
0.765311
0.721421
0.585105
0.539099
0.522201
0.513923
0.508171
0.499604
0.493059
0.487593
1.63151
1.95085
1.848
1.571
1.26323
0.991101
0.777437
0.624104
0.522553
0.459438
0.42062
0.394546
0.373879
0.354854
0.335626
0.315641
0.295092
0.287452
0.370499
0.459383
0.632964
1.27962
2
2
2
2
2
2
2
2
2
2
2
2
2
2
2
2
2
2
2
2
2
2
2
2
2
2
2
2
2
2
2
2
2
2
2
2
2
2
2
2
2
2
2
2
2
2
2
2
2
2
1.76075
1.39397
1.08419
0.822375
0.599718
0.410092
0.244288
2
2
2
2
2
2
1.79207
0.764992
0.727793
0.589969
0.543442
0.526375
0.517932
0.511977
0.503501
0.497091
0.491288
0.484235
0.997448
1.18423
1.14029
0.9923
0.823934
0.677333
0.567439
0.493399
0.446179
0.415397
0.392961
0.373746
0.355229
0.336185
0.316216
0.295487
0.280989
0.343924
0.45887
0.653775
1.34614
2
2
2
2
2
2
2
2
2
2
2
2
2
2
2
2
2
2
2
2
2
2
2
2
2
2
2
2
2
2
2
2
2
2
2
2
2
2
2
2
2
2
2
2
2
2
2
2
2
2
1.78258
1.41208
1.09905
0.834347
0.609446
0.416911
0.25237
0.112391
2
2
2
2
2
2
1.70222
0.763309
0.735346
0.594459
0.5483
0.530725
0.522074
0.515853
0.507362
0.501184
0.495436
0.488143
0.479339
0.66537
0.751972
0.7319
0.660856
0.581669
0.515591
0.467867
0.434966
0.411139
0.391749
0.373752
0.35566
0.336761
0.316794
0.295925
0.277664
0.319782
0.450261
0.671626
1.41536
2
2
2
2
2
2
2
2
2
2
2
2
2
2
2
2
2
2
2
2
2
2
2
2
2
2
2
2
2
2
2
2
2
2
2
2
2
2
2
2
2
2
2
2
2
2
2
2
2
2
1.80399
1.42991
1.1137
0.846252
0.618887
0.42438
0.257242
0.11722
0.028781
2
2
2
2
2
2
1.68196
0.761081
0.742909
0.599686
0.552923
0.535337
0.526329
0.519853
0.51133
0.505277
0.49963
0.492427
0.483432
0.474359
0.524769
0.551627
0.540362
0.510031
0.477271
0.449487
0.427179
0.408373
0.391138
0.373984
0.35618
0.337357
0.317364
0.296365
0.276229
0.299266
0.434229
0.68717
1.48715
2
2
2
2
2
2
2
2
2
2
2
2
2
2
2
2
2
2
2
2
2
2
2
2
2
2
2
2
2
2
2
2
2
2
2
2
2
2
2
2
2
2
2
2
2
2
2
2
2
2
1.82488
1.4474
1.12813
0.857991
0.628273
0.431631
0.262634
0.120115
0.0301095
0.00234901
2
2
2
2
2
2
1.66276
0.759302
0.74974
0.604519
0.557812
0.539953
0.530921
0.523994
0.515366
0.509437
0.503815
0.496757
0.487764
0.478611
0.46989
0.476174
0.478503
0.469816
0.454977
0.438772
0.422817
0.407042
0.391093
0.374428
0.356777
0.33797
0.317886
0.296782
0.275758
0.283036
0.410539
0.70059
1.56055
2
2
2
2
2
2
2
2
2
2
2
2
2
2
2
2
2
2
2
2
2
2
2
2
2
2
2
2
2
2
2
2
2
2
2
2
2
2
2
2
2
2
2
2
2
2
2
2
2
2
1.84514
1.46448
1.14227
0.869538
0.637521
0.438843
0.267877
0.123378
0.0309067
0.0024419
2
2
2
2
2
2
1.64403
0.761466
0.755801
0.608996
0.562425
0.544769
0.535579
0.528374
0.519512
0.513604
0.508022
0.501065
0.492118
0.483045
0.474203
0.464801
0.459496
0.454117
0.445274
0.434014
0.421072
0.406801
0.391475
0.375031
0.357425
0.338551
0.318384
0.297159
0.275717
0.270974
0.383236
0.711863
1.63242
2
2
2
2
2
2
2
2
2
2
2
2
2
2
2
2
2
2
2
2
2
2
2
2
2
2
2
2
2
2
2
2
2
2
2
2
2
2
2
2
2
2
2
2
2
2
2
2
2
2
1.8647
1.48101
1.15608
0.880862
0.646625
0.445953
0.273102
0.126571
0.0318188
0.0024975
2
2
2
2
2
2
1.63192
0.763397
0.75997
0.613712
0.566906
0.549341
0.540299
0.532813
0.52391
0.51787
0.51225
0.505352
0.496476
0.487485
0.478693
0.469194
0.459397
0.450948
0.4428
0.432851
0.420973
0.407269
0.392126
0.37573
0.35806
0.339109
0.318808
0.297477
0.275861
0.263458
0.355228
0.720772
1.6981
2
2
2
2
2
2
2
2
2
2
2
2
2
2
2
2
2
2
2
2
2
2
2
2
2
2
2
2
2
2
2
2
2
2
2
2
2
2
2
2
2
2
2
2
2
2
2
2
2
2
1.88358
1.49696
1.16946
0.891915
0.655553
0.452957
0.27826
0.129773
0.0327156
0.00256166
2
2
2
2
2
2
1.62801
0.765077
0.762339
0.617831
0.571128
0.553789
0.544854
0.537299
0.528354
0.522378
0.516558
0.509613
0.500823
0.491919
0.483244
0.473701
0.463782
0.45344
0.443372
0.43347
0.421741
0.408113
0.392916
0.376467
0.35868
0.339598
0.31915
0.297758
0.276094
0.259772
0.329407
0.713593
1.75408
2
2
2
2
2
2
2
2
2
2
2
2
2
2
2
2
2
2
2
2
2
2
2
2
2
2
2
2
2
2
2
2
2
2
2
2
2
2
2
2
2
2
2
2
2
2
2
2
2
2
1.90166
1.51232
1.18235
0.902606
0.664261
0.459819
0.283349
0.132953
0.03362
0.00262424
2
2
2
2
2
2
1.62746
0.76723
0.763015
0.621464
0.574757
0.557944
0.549295
0.541625
0.53275
0.526868
0.520914
0.513865
0.505125
0.496292
0.487843
0.478268
0.468295
0.45784
0.446426
0.434697
0.422839
0.409099
0.393755
0.377145
0.35923
0.339983
0.319431
0.298051
0.2764
0.258434
0.308059
0.695735
1.80347
2
2
2
2
2
2
2
2
2
2
2
2
2
2
2
2
2
2
2
2
2
2
2
2
2
2
2
2
2
2
2
2
2
2
2
2
2
2
2
2
2
2
2
2
2
2
2
2
2
2
1.91887
1.527
1.19475
0.91289
0.672684
0.466515
0.288339
0.136107
0.0345227
0.00268692
2
2
2
2
2
2
1.62968
0.769596
0.764223
0.625099
0.578197
0.561556
0.553538
0.545799
0.537057
0.531321
0.525252
0.518075
0.509234
0.500611
0.49233
0.482834
0.472834
0.462243
0.450722
0.437615
0.423987
0.410083
0.394533
0.37775
0.359647
0.34027
0.319726
0.298405
0.276772
0.258338
0.291998
0.662525
1.84546
2
2
2
2
2
2
2
2
2
2
2
2
2
2
2
2
2
2
2
2
2
2
2
2
2
2
2
2
2
2
2
2
2
2
2
2
2
2
2
2
2
2
2
2
2
2
2
2
2
2
1.93514
1.54094
1.20659
0.922778
0.680782
0.472987
0.293216
0.139215
0.0354219
0.00274899
2
2
2
2
2
2
1.63789
0.772019
0.764585
0.628893
0.581333
0.564786
0.557119
0.549585
0.541195
0.535738
0.52957
0.522234
0.513233
0.504694
0.496674
0.487304
0.477314
0.466614
0.454897
0.44182
0.42671
0.410959
0.395214
0.378203
0.359948
0.340543
0.320107
0.298811
0.277185
0.258813
0.281224
0.622947
1.87958
2
2
2
2
2
2
2
2
2
2
2
2
2
2
2
2
2
2
2
2
2
2
2
2
2
2
2
2
2
2
2
2
2
2
2
2
2
2
2
2
2
2
2
2
2
2
2
2
2
2
1.95038
1.55405
1.2178
0.93221
0.688566
0.479203
0.297926
0.142265
0.0363127
0.00281033
2
2
2
2
2
2
1.63036
0.77539
0.76508
0.632717
0.584575
0.567839
0.560275
0.552983
0.545159
0.53992
0.533662
0.526306
0.517131
0.508588
0.500725
0.491645
0.481677
0.470924
0.459021
0.445806
0.430602
0.41324
0.395724
0.378515
0.360214
0.340905
0.320574
0.299251
0.277676
0.259526
0.27548
0.580752
1.8998
2
2
2
2
2
2
2
2
2
2
2
2
2
2
2
2
2
2
2
2
2
2
2
2
2
2
2
2
2
2
2
2
2
2
2
2
2
2
2
2
2
2
2
2
2
2
2
2
2
2
1.96445
1.56623
1.22832
0.941149
0.695993
0.485182
0.302445
0.145216
0.037189
0.00287052
2
2
2
2
2
2
1.64517
0.778551
0.767378
0.636791
0.587569
0.57092
0.563314
0.556169
0.548715
0.543815
0.537627
0.530182
0.520854
0.51222
0.504542
0.495588
0.48585
0.475115
0.463027
0.449621
0.434312
0.416882
0.397586
0.378775
0.360562
0.341389
0.32109
0.299762
0.278182
0.260385
0.274719
0.543962
1.90094
2
2
2
2
2
2
2
2
2
2
2
2
2
2
2
2
2
2
2
2
2
2
2
2
2
2
2
2
2
2
2
2
2
2
2
2
2
2
2
2
2
2
2
2
2
2
2
2
2
2
1.97724
1.57739
1.23805
0.949502
0.703031
0.490889
0.306793
0.148036
0.0380357
0.00292907
2
2
2
2
2
2
1.59344
0.779764
0.770404
0.641171
0.590772
0.573685
0.566265
0.55928
0.552184
0.547503
0.541354
0.534003
0.52443
0.515659
0.508002
0.499198
0.489674
0.479029
0.466815
0.453205
0.437766
0.420305
0.401031
0.380601
0.361051
0.341952
0.32165
0.300303
0.278702
0.261297
0.276981
0.516406
1.84529
2
2
2
2
2
2
2
2
2
2
2
2
2
2
2
2
2
2
2
2
2
2
2
2
2
2
2
2
2
2
2
2
2
2
2
2
2
2
2
2
2
2
2
2
2
2
2
2
2
2
1.9886
1.5874
1.2469
0.957213
0.709604
0.496289
0.310947
0.150758
0.038835
0.00298484
2
2
2
2
2
2
1.54818
0.783488
0.774331
0.645382
0.594297
0.576651
0.569007
0.562369
0.555684
0.551196
0.545049
0.537689
0.527953
0.518978
0.511249
0.502514
0.49322
0.482719
0.470418
0.456654
0.441091
0.4237
0.404619
0.384186
0.363082
0.342607
0.322271
0.300868
0.279213
0.262257
0.280897
0.499976
1.75509
2
2
2
2
2
2
2
2
2
2
2
2
2
2
2
2
2
2
2
2
2
2
2
2
2
2
2
2
2
2
2
2
2
2
2
2
2
2
2
2
2
2
2
2
2
2
2
2
2
2
1.99836
1.59612
1.25475
0.964186
0.715659
0.501342
0.314884
0.15336
0.0396089
0.0030365
2
2
2
2
2
2
1.49738
0.783928
0.780215
0.650203
0.598099
0.579948
0.571998
0.565393
0.559027
0.554896
0.548829
0.541441
0.531531
0.522358
0.514422
0.505647
0.496544
0.486259
0.473962
0.460148
0.444512
0.427246
0.408398
0.387905
0.366711
0.344696
0.322941
0.301424
0.279693
0.263271
0.285728
0.494468
1.64296
2
2
2
2
2
2
2
2
2
2
2
2
2
2
2
2
2
2
2
2
2
2
2
2
2
2
2
2
2
2
2
2
2
2
2
2
2
2
2
2
2
2
2
2
2
2
2
2
2
2
2
1.60342
1.26151
0.970338
0.72113
0.505994
0.318567
0.155827
0.0403468
0.0030858
2
2
2
2
2
2
1.43314
0.781097
0.787259
0.655831
0.602214
0.583478
0.575349
0.568591
0.562287
0.558501
0.552586
0.545297
0.535291
0.525946
0.517769
0.508815
0.499806
0.489763
0.477612
0.463851
0.448153
0.43098
0.412265
0.391832
0.370557
0.348313
0.324903
0.301925
0.280128
0.264305
0.291186
0.499063
1.52842
2
2
2
2
2
2
2
2
2
2
2
2
2
2
2
2
2
2
2
2
2
2
2
2
2
2
2
2
2
2
2
2
2
2
2
2
2
2
2
2
2
2
2
2
2
2
2
2
2
2
2
1.60926
1.26704
0.975562
0.725934
0.510193
0.32196
0.158136
0.0410435
0.00313195
2
2
2
2
2
2
1.3573
0.779329
0.795207
0.661356
0.607069
0.587507
0.579077
0.572094
0.565734
0.562088
0.556323
0.549196
0.539254
0.52982
0.521397
0.512188
0.503173
0.493355
0.481482
0.467785
0.452022
0.434833
0.416278
0.395897
0.374473
0.351906
0.328255
0.303598
0.280502
0.265372
0.297177
0.513926
1.43251
2
2
2
2
2
2
2
2
2
2
2
2
2
2
2
2
2
2
2
2
2
2
2
2
2
2
2
2
2
2
2
2
2
2
2
2
2
2
2
2
2
2
2
2
2
2
2
2
2
2
2
1.61392
1.2713
0.979779
0.72999
0.513872
0.325021
0.16026
0.0416908
0.00317462
2
2
2
2
2
2
1.32883
0.776718
0.803822
0.666904
0.612153
0.592523
0.583537
0.575991
0.569413
0.56576
0.560111
0.553164
0.543371
0.533903
0.525313
0.515854
0.506714
0.497073
0.485524
0.471863
0.456057
0.438843
0.420379
0.400088
0.378394
0.355438
0.33156
0.306569
0.281944
0.266487
0.303745
0.535099
1.36854
2
2
2
2
2
2
2
2
2
2
2
2
2
2
2
2
2
2
2
2
2
2
2
2
2
2
2
2
2
2
2
2
2
2
2
2
2
2
2
2
2
2
2
2
2
2
2
2
2
2
2
1.61731
1.27444
0.982922
0.733239
0.516979
0.327708
0.162172
0.0422812
0.00321315
2
2
2
2
2
2
1.29616
0.776268
0.81208
0.672014
0.61727
0.597795
0.58861
0.580265
0.573312
0.569479
0.563909
0.557156
0.547619
0.538231
0.529399
0.5198
0.510479
0.500907
0.489656
0.476175
0.460422
0.443086
0.424548
0.404307
0.382225
0.358918
0.334649
0.309416
0.284592
0.268803
0.310958
0.560034
1.34099
2
2
2
2
2
2
2
2
2
2
2
2
2
2
2
2
2
2
2
2
2
2
2
2
2
2
2
2
2
2
2
2
2
2
2
2
2
2
2
2
2
2
2
2
2
2
2
2
2
2
2
1.61921
1.27643
0.985061
0.735622
0.519458
0.329969
0.16384
0.0428059
0.00324698
2
2
2
2
2
2
1.28024
0.780421
0.819237
0.676506
0.622489
0.603301
0.593864
0.585054
0.577707
0.5734
0.56777
0.561125
0.551907
0.542778
0.533942
0.524117
0.514456
0.504916
0.493946
0.480651
0.464979
0.447575
0.428733
0.408398
0.385952
0.362251
0.337638
0.312122
0.287244
0.272038
0.320171
0.587502
1.34689
2
2
2
2
2
2
2
2
2
2
2
2
2
2
2
2
2
2
2
2
2
2
2
2
2
2
2
2
2
2
2
2
2
2
2
2
2
2
2
2
2
2
2
2
2
2
2
2
2
2
2
1.61566
1.27733
0.986174
0.737136
0.521269
0.331774
0.165235
0.0432546
0.00327556
2
2
2
2
2
2
1.2732
0.783275
0.824646
0.680889
0.627685
0.608812
0.599139
0.58996
0.582577
0.577906
0.571828
0.565197
0.556252
0.547504
0.538746
0.528853
0.518806
0.509248
0.498333
0.485368
0.469753
0.452089
0.432759
0.412298
0.38957
0.365483
0.340449
0.314812
0.289999
0.275376
0.32828
0.619585
1.38463
2
2
2
2
2
2
2
2
2
2
2
2
2
2
2
2
2
2
2
2
2
2
2
2
2
2
2
2
2
2
2
2
2
2
2
2
2
2
2
2
2
2
2
2
2
2
2
2
2
2
2
1.62603
1.27426
0.986478
0.737754
0.522367
0.333101
0.166338
0.0436189
0.00329826
2
2
2
2
2
2
1.27014
0.786074
0.826551
0.684898
0.63276
0.614173
0.604309
0.594919
0.58752
0.582586
0.576097
0.569468
0.560669
0.552273
0.543819
0.53388
0.523697
0.513927
0.502847
0.490058
0.474507
0.456447
0.436687
0.416093
0.392984
0.368502
0.343189
0.317585
0.292838
0.278793
0.336782
0.646296
1.45135
2
2
2
2
2
2
2
2
2
2
2
2
2
2
2
2
2
2
2
2
2
2
2
2
2
2
2
2
2
2
2
2
2
2
2
2
2
2
2
2
2
2
2
2
2
2
2
2
2
2
2
1.62371
1.2813
0.984018
0.73777
0.522707
0.333885
0.167138
0.0438943
0.00331465
2
2
2
2
2
2
1.27299
0.786772
0.826254
0.687301
0.637515
0.619285
0.609336
0.599913
0.592468
0.587289
0.580356
0.573662
0.565018
0.556891
0.54892
0.539116
0.528824
0.51875
0.507365
0.494593
0.479085
0.460597
0.440456
0.419376
0.396082
0.371462
0.346022
0.320489
0.29573
0.282384
0.345607
0.674093
1.51739
2
2
2
2
2
2
2
2
2
2
2
2
2
2
2
2
2
2
2
2
2
2
2
2
2
2
2
2
2
2
2
2
2
2
2
2
2
2
2
2
2
2
2
2
2
2
2
2
2
2
2
1.61434
1.27924
0.988668
0.735922
0.522602
0.334061
0.167574
0.0440815
0.00332462
2
2
2
2
2
2
1.27585
0.786667
0.824931
0.689827
0.641025