/*--------------------------------*- C++ -*----------------------------------*\
| =========                 |                                                 |
| \\      /  F ield         | OpenFOAM: The Open Source CFD Toolbox           |
|  \\    /   O peration     | Version:  v2012                                 |
|   \\  /    A nd           | Website:  www.openfoam.com                      |
|    \\/     M anipulation  |                                                 |
\*---------------------------------------------------------------------------*/
FoamFile
{
    version     2.0;
    format      ascii;
    class       volScalarField;
    location    "12000";
    object      q4;
}
// * * * * * * * * * * * * * * * * * * * * * * * * * * * * * * * * * * * * * //

dimensions      [0 0 0 0 0 0 0];


internalField   uniform 0;

boundaryField
{
    top
    {
        type            calculated;
        value           uniform 0;
    }
    base
    {
        type            calculated;
        value           nonuniform List<scalar> 
276
(
0.0197427
0.0217091
0.0256312
0.0260785
0.0259179
0.0256799
0.0254565
0.0252598
0.0250866
0.0249345
0.0248026
0.0246869
0.0245844
0.0244921
0.024409
0.0243344
0.0242673
0.0242067
0.024152
0.0241019
0.0240558
0.0240137
0.0239753
0.0239403
0.0239086
0.0238801
0.0238547
0.023832
0.0238126
0.0237954
0.0237808
0.0237687
0.0237583
0.02375
0.0237436
0.023739
0.0237359
0.0237344
0.0237342
0.023735
0.0237369
0.0237396
0.0237429
0.0237471
0.0237518
0.023757
0.0237626
0.0237683
0.0237742
0.0237802
0.0237858
0.0237912
0.0237959
0.0238001
0.0238038
0.023807
0.0238097
0.023812
0.023814
0.0238155
0.0238167
0.0238175
0.0238181
0.0238184
0.0238185
0.0238185
0.0238181
0.0238177
0.0238169
0.023816
0.0238151
0.023814
0.0238129
0.0238116
0.0238103
0.023809
0.023807
0.023806
0.0238046
0.0238044
0.0238044
0.0238044
0.0238045
0.0238046
0.0238046
0.0238043
0.023804
0.0238038
0.0238035
0.0238034
0.0238032
0.023803
0.0238024
0.0238017
0.0238008
0.0237997
0.0237991
0.023798
0.0237969
0.0237961
0.0237951
0.0237942
0.0237934
0.0237924
0.0237915
0.0237903
0.023789
0.0237878
0.0237865
0.023785
0.0237838
0.0237824
0.0237809
0.0237794
0.0237777
0.0237765
0.023775
0.023773
0.023771
0.0237698
0.0237688
0.0237665
0.0237646
0.0237628
0.0237607
0.023758
0.0237537
0.0237539
0.0237523
0.0237502
0.023748
0.0237452
0.0237425
0.0237405
0.023738
0.023735
0.0237326
0.0237299
0.0237271
0.0237237
0.0237211
0.0237185
0.0237143
0.0237112
0.0237083
0.0237053
0.0237029
0.0236983
0.0236944
0.0236907
0.0236875
0.0236839
0.0236787
0.023675
0.0236718
0.0236671
0.0236627
0.0236582
0.0236538
0.023648
0.023643
0.0236392
0.0236347
0.0236303
0.0236234
0.0236165
0.0236123
0.0236075
0.023601
0.0235952
0.023589
0.0235828
0.0235768
0.0235693
0.0235647
0.023545
0.0228397
0.014893
0.00951893
0.0149156
0.0164063
0.0168711
0.0172683
0.0177175
0.0181127
0.0184525
0.0187552
0.0190049
0.0193863
0.0204678
0.0227053
0.0253611
0.0262628
0.026225
0.0250967
0.0230844
0.0200329
0.0152676
0.0061572
0.0137408
0.0206805
0.0258983
0.0302361
0.0339818
0.0371734
0.0400037
0.0425999
0.0450317
0.0473306
0.0494457
0.0513763
0.0530901
0.0546693
0.0560622
0.0572866
0.0584133
0.0594634
0.0604504
0.0614022
0.0623514
0.0633133
0.0642749
0.0652112
0.0660989
0.0669143
0.0676402
0.0682647
0.0688252
0.0693295
0.0697838
0.0702094
0.0706119
0.0709928
0.0713551
0.0716915
0.0719945
0.0723045
0.0727148
0.0728855
0.0729433
0.0736395
0.0737021
0.0738258
0.0743862
0.0745202
0.074592
0.0750971
0.0753854
0.0756284
0.0756306
0.0755975
0.0756507
0.0757421
0.0757258
0.0755964
0.0753761
0.0750862
0.0747287
0.0743062
0.0738253
0.0732923
0.0727143
0.0720966
0.071443
0.0707595
0.0700486
0.0693098
0.0685463
0.0677641
0.0669648
0.0661527
0.0653278
0.0644989
0.0636367
0.0629375
0.0615137
)
;
    }
    frontAndBack
    {
        type            empty;
    }
    inlet
    {
        type            calculated;
        value           uniform 0;
    }
    outlet
    {
        type            calculated;
        value           uniform 0;
    }
}


// ************************************************************************* //
