/*--------------------------------*- C++ -*----------------------------------*\
| =========                 |                                                 |
| \\      /  F ield         | OpenFOAM: The Open Source CFD Toolbox           |
|  \\    /   O peration     | Version:  v2012                                 |
|   \\  /    A nd           | Website:  www.openfoam.com                      |
|    \\/     M anipulation  |                                                 |
\*---------------------------------------------------------------------------*/
FoamFile
{
    version     2.0;
    format      ascii;
    class       volScalarField;
    location    "12000";
    object      Rekd;
}
// * * * * * * * * * * * * * * * * * * * * * * * * * * * * * * * * * * * * * //

dimensions      [0 0 0 0 0 0 0];


internalField   nonuniform List<scalar> 
27324
(
2730.77
2759.99
2917.39
2736.11
2982.36
3167.64
2688.99
2987.15
3263.09
3256.08
2615.64
2968.07
3281.59
3331
2933.83
2515.34
2916.23
3266.82
3306.85
2900.15
1997.07
2398.33
2825.82
3201.51
3229.03
2759.24
1831.41
951.43
2248.77
2702.98
3073.33
3075.63
2559.47
1615.69
791.211
364.017
1938.79
2525.94
2888.8
2835.84
2301.46
1390.36
638.465
279.239
134.176
1429.23
2146.15
2592.78
2525.48
2007.56
1174.2
508.088
211.422
101.195
56.5304
894.465
1590.15
2129.48
2189.36
1735.47
1003.09
405.731
162.385
79.1356
47.0696
31.4549
566.105
1053.25
1587.57
1778.06
1488.37
880.412
350.604
129.379
66.5379
41.9546
29.5043
21.7356
502.195
716.143
1129.7
1383.98
1234.36
776.638
324.527
115.945
59.7663
39.6226
28.4672
21.4203
16.2391
481.085
645.053
828.205
1071.42
1029.76
674.99
299.47
112.664
57.4171
38.4509
27.9767
21.1645
16.1835
12.4396
466.462
624.056
752.559
857.218
882.391
609.399
271.446
106.635
56.5846
37.9957
27.6646
21.0145
16.0684
12.4142
9.53593
454.194
610.958
726.418
789.725
788.159
577.372
259.18
98.3815
53.2553
37.3594
27.4894
20.8751
15.9778
12.3316
9.47632
7.34284
442.033
599.936
708.732
763.278
746.755
572.309
261.672
95.6142
48.6469
34.613
26.6982
20.7239
15.8511
12.2511
9.3698
7.27625
5.63598
430.436
589.299
695.181
745.407
725.183
558.14
274.662
98.2236
46.6289
31.388
24.2407
19.5426
15.5616
12.1001
9.27826
7.13333
5.55099
4.33004
419.48
579.445
683.285
732.778
707.706
541.717
271.335
104.36
46.8942
30.2201
22.0379
17.3927
14.2001
11.4226
8.97001
6.96217
5.29875
4.2696
3.17874
408.999
570.658
673.281
722.321
694.369
523.719
264.341
103.068
48.1375
30.4093
21.6361
16.0923
12.5552
10.0733
8.05549
6.3292
4.90503
3.83146
2.85776
2.24239
398.44
562.765
664.732
713.47
681.847
507.38
255.728
102.082
47.0343
30.6684
22.1109
16.2477
12.0339
9.11856
7.04601
5.47901
4.22626
3.2315
2.43008
1.82339
1.43135
387.967
554.921
656.545
705.22
669.6
490.506
246.305
100.666
46.4
29.4233
22.3035
16.9206
12.5056
9.14481
6.76924
5.08067
3.82919
2.88947
2.17546
1.63791
1.25749
1.05354
377.678
547.247
647.1
695.975
656.723
473.656
235.299
98.0082
46.2203
28.4589
21.0574
17.2941
13.2796
9.71846
7.06518
5.19502
3.84356
2.85539
2.12907
1.60605
1.22916
0.982022
0.897666
367.388
539.834
636.175
684.049
642.156
456.506
223.761
93.9501
45.6856
28.3669
20.131
16.1465
13.8516
10.5844
7.64889
5.54917
4.06608
2.99058
2.20646
1.64803
1.25652
0.98543
0.832621
0.836621
356.725
532.527
623.445
669.425
625.287
439.106
211.802
89.2876
44.6402
28.2959
19.9437
15.1817
12.9151
11.2043
8.34571
6.01344
4.36373
3.19275
2.34203
1.7308
1.30409
1.00733
0.811968
0.763336
0.793257
345.407
524.4
608.755
652.261
606.869
422.275
199.961
84.2696
43.431
28.1236
19.934
14.7556
11.9235
10.6295
8.91402
6.52548
4.69105
3.40973
2.48977
1.82395
1.35664
1.03674
0.817644
0.716098
0.742031
0.746705
333.381
515.091
591.789
633.289
587.814
406.341
190.045
79.3287
42.1616
27.9162
19.9114
14.7159
11.4145
9.73766
8.70356
6.96382
5.02718
3.63248
2.64149
1.92383
1.41495
1.06709
0.831576
0.687634
0.688943
0.721296
0.724671
320.613
504.182
572.885
612.913
568.88
391.399
181.877
75.6289
40.9818
27.6938
19.8686
14.7189
11.3026
9.12411
8.05384
7.03233
5.32948
3.85783
2.79448
2.02995
1.48034
1.10137
0.848522
0.68087
0.637305
0.688146
0.698903
0.786008
307.384
491.571
552.282
591.906
550.029
377.211
175.088
72.9746
40.1888
27.483
19.8056
14.7042
11.2935
8.87168
7.382
6.71047
5.58884
4.08918
2.95114
2.14018
1.55279
1.14184
0.867243
0.686588
0.5999
0.640756
0.67764
0.728017
1.02826
294.168
477.627
531.307
571.585
532.077
363.798
169.261
71.1201
39.6817
27.3543
19.7323
14.6748
11.2852
8.83566
7.0319
6.09852
5.53474
4.32742
3.1161
2.25162
1.63045
1.18815
0.890043
0.696547
0.58035
0.590199
0.651463
0.687336
0.896105
1.59497
281.297
463.213
511.063
552.936
515.335
351.129
164.117
69.81
39.3663
27.2811
19.6876
14.6395
11.2696
8.82472
6.90848
5.64097
5.1357
4.42367
3.28765
2.3629
1.70994
1.23958
0.916825
0.708218
0.577533
0.546036
0.61546
0.656101
0.796632
1.33753
2.69698
269.381
449.273
492.407
536.285
499.615
339.201
159.325
68.8233
39.1692
27.2378
19.6653
14.6242
11.2512
8.81062
6.88564
5.43392
4.65058
4.28106
3.41493
2.47534
1.78782
1.29446
0.948455
0.722376
0.582025
0.515595
0.569813
0.628924
0.722254
1.13088
2.2399
4.68529
258.338
436.696
475.443
521.498
484.668
327.837
154.856
67.933
39.0269
27.2117
19.6583
14.6247
11.2475
8.79599
6.86947
5.37678
4.34268
3.92392
3.45199
2.58267
1.86413
1.35038
0.984423
0.739903
0.588901
0.501817
0.52334
0.599764
0.667535
0.965986
1.86103
3.90544
8.14037
248.273
426.17
460.806
507.916
470.256
317.013
150.661
67.0949
38.8843
27.197
19.6627
14.6361
11.2555
8.79253
6.85359
5.35858
4.2001
3.5553
3.30136
2.67868
1.94155
1.40489
1.02373
0.76129
0.597695
0.500073
0.483815
0.563705
0.626438
0.837386
1.54651
3.24757
6.84452
14.0371
238.974
417.66
447.823
495.143
456.145
306.591
146.715
66.294
38.7425
27.1696
19.672
14.6524
11.2713
8.79894
6.84561
5.34335
4.16382
3.33871
3.00826
2.67586
2.01634
1.45711
1.06446
0.786565
0.608742
0.503281
0.456413
0.520283
0.592994
0.739255
1.28871
2.68987
5.73542
11.9418
23.8732
230.076
410.409
435.158
481.796
442.018
296.473
142.893
65.5287
38.6109
27.1485
19.6803
14.6718
11.2896
8.81363
6.84574
5.33347
4.14873
3.23672
2.72743
2.55335
2.07113
1.50967
1.10428
0.81508
0.622759
0.507942
0.443809
0.476938
0.561276
0.665912
1.08011
2.2215
4.78094
10.1158
20.5786
40.0783
221.056
403.044
421.728
467.164
427.621
286.707
139.139
64.7809
38.4995
27.1335
19.6965
14.688
11.3083
8.83238
6.85537
5.32864
4.13806
3.21123
2.56365
2.32963
2.07623
1.5606
1.14182
0.845484
0.639692
0.514161
0.441148
0.439781
0.526258
0.611305
0.914304
1.83098
3.96653
8.52294
17.6404
35.097
66.4761
211.391
394.611
406.767
451.327
413.319
277.093
135.327
64.0514
38.4059
27.1264
19.7174
14.7074
11.3255
8.85176
6.87074
5.33316
4.12989
3.20029
2.48698
2.11029
1.98875
1.60751
1.17809
0.875506
0.659437
0.522255
0.442769
0.413237
0.485671
0.569279
0.785154
1.50857
3.27563
7.14497
15.0382
30.5271
59.1589
108.907
201.279
384.099
390.67
434.965
399.276
267.755
131.256
63.264
38.3219
27.12
19.7426
14.7287
11.3446
8.8689
6.88933
5.34496
4.13098
3.19333
2.46811
1.97591
1.82634
1.61485
1.21514
0.90315
0.681092
0.532865
0.445654
0.39989
0.444904
0.533652
0.686964
1.24491
2.69439
5.95878
12.7552
26.3977
52.2443
98.3955
175.843
190.915
371.735
373.169
418.629
385.629
258.728
127.144
62.3167
38.2218
27.1069
19.7655
14.7519
11.3654
8.88687
6.90608
5.36129
4.13894
3.19098
2.46182
1.91291
1.65321
1.56403
1.24563
0.928394
0.703195
0.545819
0.450036
0.395927
0.408798
0.498962
0.613627
1.03245
2.20909
4.94365
10.7679
22.7046
45.887
88.1765
161.105
279.105
180.692
357.868
356.043
403.047
372.592
250.094
123.163
61.345
38.0744
27.0838
19.7829
14.7722
11.3868
8.90528
6.92204
5.3771
4.15249
3.19465
2.45943
1.89674
1.53534
1.45379
1.26374
0.952839
0.723714
0.561013
0.456103
0.396338
0.381359
0.46168
0.558877
0.864195
1.80616
4.07964
9.04693
19.426
40.0905
78.6476
146.362
259.04
434.248
171.031
343.941
340.315
389.609
360.114
242.028
119.665
60.3926
37.8911
27.0282
19.7923
14.7883
11.4043
8.92319
6.93763
5.39088
4.16891
3.20369
2.46108
1.8934
1.47686
1.31779
1.23931
0.975495
0.741536
0.577597
0.464341
0.398162
0.36533
0.423005
0.51632
0.733872
1.47437
3.35127
7.56488
16.5396
34.8385
69.8187
132.449
238.349
407.984
659.58
162.533
330.802
326.637
377.974
348.597
234.064
116.708
59.6098
37.6761
26.9506
19.7863
14.7985
11.4168
8.93718
6.9524
5.40305
4.1829
3.2161
2.46601
1.89261
1.45607
1.20842
1.17196
0.990586
0.757501
0.594329
0.474766
0.401083
0.358921
0.387412
0.479895
0.635376
1.20429
2.7403
6.29483
14.0151
30.1185
61.6797
119.38
218.6
379.936
627.213
970.921
154.936
319.222
314.864
367.72
337.538
226.371
114.001
58.999
37.4758
26.8543
19.7662
14.7977
11.4225
8.94578
6.96331
5.41367
4.19378
3.22926
2.4742
1.89369
1.45278
1.14634
1.07146
0.988818
0.773191
0.609452
0.487094
0.405568
0.357774
0.358351
0.444792
0.56236
0.987658
2.23138
5.21087
11.823
25.9064
54.2265
107.161
199.812
352.842
591.042
934.974
1367.68
148.102
309.565
304.669
358.353
326.897
218.862
111.486
58.4166
37.3155
26.7609
19.7355
14.7884
11.4208
8.94678
6.96861
5.4208
4.20206
3.23977
2.4839
1.89637
1.45133
1.11508
0.971804
0.952897
0.786819
0.622002
0.500581
0.41183
0.358648
0.338318
0.408605
0.50837
0.816916
1.81084
4.29033
9.92907
22.1794
47.4403
95.7964
182.024
326.721
555.609
892.025
1335.6
1812.74
141.631
300.802
295.361
349.716
316.584
211.581
109.099
57.8547
37.1295
26.6724
19.7061
14.7731
11.4137
8.94089
6.9672
5.42363
4.20717
3.24619
2.49294
1.90017
1.44986
1.10704
0.902607
0.887848
0.793644
0.632738
0.513909
0.420096
0.360417
0.328212
0.373766
0.46689
0.6856
1.46606
3.51267
8.3008
18.9042
41.3084
85.2723
165.263
301.673
520.901
849.154
1291.75
1796.01
2214.6
135.097
291.828
285.737
340.919
306.867
204.41
106.815
57.3193
36.9575
26.5873
19.6818
14.7619
11.4036
8.93074
6.95997
5.42118
4.20916
3.2496
2.49968
1.90494
1.44948
1.10438
0.865361
0.806722
0.784108
0.643107
0.525569
0.429997
0.363616
0.324697
0.343157
0.432013
0.587234
1.18728
2.85889
6.90686
16.0462
35.8039
75.5858
149.529
277.769
487.122
806.289
1246.77
1762.04
2227.18
2460.53
128.268
281.805
275.817
332.221
297.365
197.498
104.54
56.8137
36.794
26.5124
19.6539
14.757
11.3982
8.91896
6.94967
5.41358
4.20645
3.24999
2.50337
1.90988
1.45131
1.10283
0.849177
0.734903
0.74919
0.651196
0.534707
0.44122
0.368351
0.324352
0.319094
0.399219
0.515859
0.964204
2.31352
5.71649
13.5673
30.9014
66.7173
134.835
255.042
454.4
763.754
1200.38
1725.76
2217.38
2504.06
2504.31
121.173
270.906
266.169
323.826
288.317
190.546
102.241
56.3054
36.6345
26.4406
19.6282
14.7565
11.3991
8.91218
6.93923
5.40354
4.20176
3.24814
2.5049
1.91404
1.45463
1.10229
0.845408
0.687923
0.693644
0.653749
0.541973
0.452643
0.374854
0.325197
0.303579
0.366727
0.464685
0.788881
1.86234
4.70401
11.4247
26.5672
58.6518
121.172
233.556
422.835
721.738
1153.04
1686.5
2205.31
2523.86
2568.41
2381.13
114.177
259.605
256.985
315.607
279.341
183.686
99.7143
55.7537
36.461
26.3692
19.6023
14.7595
11.4061
8.91144
6.93406
5.39443
4.19586
3.24526
2.50541
1.91645
1.45938
1.1033
0.844238
0.662767
0.629398
0.64342
0.548754
0.462906
0.382988
0.327179
0.295795
0.336581
0.426331
0.654468
1.49365
3.84547
9.57967
22.7576
51.3688
108.532
213.32
392.572
680.419
1104.96
1644.87
2189.42
2542.9
2610.88
2453.05
2159.44
107.831
249.16
249.24
307.59
270.179
176.936
97.1326
55.0729
36.2666
26.2857
19.5745
14.7648
11.416
8.91936
6.93377
5.39018
4.19113
3.24208
2.50576
1.91808
1.46467
1.10594
0.843495
0.653103
0.574286
0.612436
0.554254
0.470841
0.392439
0.330374
0.292956
0.310696
0.395087
0.555701
1.19653
3.12154
7.99252
19.4288
44.8334
96.9078
194.366
363.689
640.046
1056.35
1601.1
2170.24
2559.11
2654.25
2506.65
2230.15
1898.69
102.272
240.101
243.002
300.038
260.606
170.653
94.617
54.3179
36.0043
26.1911
19.5376
14.7685
11.4266
8.92932
6.94201
5.39037
4.18952
3.23972
2.50615
1.91952
1.46897
1.10995
0.844601
0.651115
0.537961
0.566605
0.555173
0.476601
0.402594
0.335237
0.292549
0.290528
0.366888
0.485202
0.961087
2.5145
6.63017
16.5293
39.0122
86.2703
176.702
336.293
600.808
1007.63
1555.41
2147.55
2573.08
2696.3
2562.18
2285.9
1963.44
1635.9
97.3978
232.45
237.786
292.425
250.806
164.535
92.4728
53.5395
35.7031
26.0656
19.4896
14.7646
11.4339
8.9399
6.95168
5.39833
4.19
3.23862
2.5065
1.92089
1.47222
1.1146
0.846238
0.650675
0.517776
0.51349
0.546835
0.481518
0.412485
0.341605
0.293052
0.277903
0.339908
0.435749
0.778771
2.01029
5.46207
14.0112
33.8536
76.603
160.31
310.473
562.92
959.025
1507.75
2121.26
2584.54
2737.69
2617.62
2344.02
2016.17
1692.91
1390.47
92.7585
225.815
233.253
284.512
240.862
158.822
90.5858
52.9047
35.3794
25.9154
19.4212
14.7491
11.4348
8.94717
6.96124
5.40681
4.19623
3.23838
2.50649
1.92193
1.47469
1.11851
0.848906
0.650358
0.509234
0.466684
0.522049
0.485834
0.420822
0.349176
0.295736
0.271679
0.314899
0.400429
0.642185
1.59634
4.46459
11.8246
29.3063
67.8674
145.185
286.264
526.618
910.871
1458.33
2091.56
2593.28
2778.12
2673.65
2402.73
2071.21
1740.25
1439.52
1170.93
88.0373
218.94
228.431
276.219
230.919
153.463
88.8492
52.328
35.1022
25.7492
19.3402
14.7199
11.4229
8.94839
6.96717
5.41502
4.20289
3.24106
2.5064
1.92232
1.47621
1.12085
0.85213
0.650257
0.506813
0.434105
0.485035
0.48734
0.427061
0.357731
0.299366
0.2693
0.293488
0.37359
0.542014
1.26256
3.61666
9.9274
25.3054
60.0266
131.295
263.714
492.077
863.518
1407.49
2058.47
2599.03
2817.48
2730.02
2462.76
2127.14
1789.69
1480.75
1212.56
979.734
83.2792
211.495
222.867
267.282
221.126
148.413
87.2583
51.7706
34.8441
25.6016
19.2525
14.6819
11.4021
8.93718
6.96834
5.41938
4.20924
3.24312
2.50603
1.92075
1.47695
1.12182
0.855527
0.650535
0.505932
0.415186
0.440824
0.482356
0.431616
0.366642
0.304542
0.268822
0.277287
0.349927
0.470881
0.999685
2.90173
8.27969
21.7904
53.0214
118.628
242.811
459.505
817.296
1355.58
2022.08
2601.44
2855.63
2786.64
2523.88
2184.6
1840.07
1523.81
1247.81
1014.76
816.045
78.6117
203.763
216.829
258.016
211.561
143.637
85.7366
51.2309
34.5994
25.4639
19.1852
14.6412
11.3765
8.91857
6.9584
5.4197
4.21251
3.24481
2.5052
1.91819
1.47576
1.12191
0.858386
0.651701
0.505518
0.406023
0.399272
0.466236
0.43548
0.375349
0.310684
0.270113
0.267307
0.327725
0.423151
0.798625
2.30556
6.85036
18.697
46.7891
107.142
223.562
429.014
772.648
1302.94
1982.54
2600.29
2892.38
2843.44
2586.1
2243.39
1891.94
1567.75
1284.6
1044.56
845.377
677.506
74.2335
196.126
210.124
248.396
202.295
139.033
84.2508
50.6736
34.3585
25.334
19.1313
14.6185
11.3504
8.89779
6.94263
5.41184
4.21273
3.24568
2.50422
1.91535
1.47381
1.12175
0.860138
0.653699
0.505756
0.403446
0.367808
0.436558
0.438265
0.382799
0.317704
0.274005
0.262491
0.307097
0.390206
0.650217
1.81481
5.61453
15.9707
41.2485
96.8004
205.936
400.713
729.927
1250.05
1940
2595.49
2927.48
2900.43
2649.34
2303.53
1945.12
1613.02
1322.19
1075.62
870.347
701.972
561.166
70.2562
189.133
203.073
238.122
193.324
134.619
82.6898
50.0932
34.1026
25.2113
19.0897
14.6106
11.3383
8.87953
6.92573
5.40083
4.20775
3.24563
2.50389
1.91303
1.47122
1.12135
0.861072
0.656239
0.506414
0.40291
0.34771
0.399855
0.436703
0.388446
0.32563
0.279231
0.260405
0.28944
0.365741
0.545571
1.41845
4.55138
13.564
36.3191
87.5333
189.935
374.623
689.536
1197.42
1894.71
2586.91
2960.7
2957.39
2713.51
2364.98
1999.67
1659.52
1360.94
1107.38
896.38
722.808
581.517
464.003
66.551
182.67
195.74
227.607
184.741
130.5
81.0791
49.41
33.8347
25.0846
19.055
14.6085
11.3409
8.87154
6.91202
5.3883
4.20223
3.24397
2.50494
1.91186
1.46908
1.12074
0.861735
0.658546
0.50767
0.402843
0.33598
0.361972
0.427203
0.392779
0.334361
0.285438
0.259847
0.276635
0.345287
0.475498
1.10627
3.64612
11.4356
31.9216
79.2611
175.525
350.787
651.742
1145.7
1846.94
2574.51
2991.82
3014.16
2778.56
2427.69
2055.54
1707.25
1400.73
1140.12
923.006
744.514
598.844
480.899
383.175
62.9243
176.276
188.072
216.868
176.757
126.736
79.5593
48.668
33.5196
24.9474
19.0161
14.609
11.3474
8.87852
6.90554
5.37905
4.19601
3.24237
2.50567
1.91264
1.46785
1.11983
0.862235
0.660072
0.509524
0.402892
0.331313
0.329894
0.406465
0.396378
0.343447
0.292194
0.26276
0.268856
0.326081
0.426538
0.86921
2.88481
9.5562
27.978
71.8857
162.676
329.2
616.773
1095.52
1797.23
2558.24
3020.61
3070.49
2844.28
2491.63
2112.7
1756.2
1441.63
1173.76
950.454
766.72
616.882
495.274
397.18
316.128
59.194
169.602
180.012
206.12
169.308
123.353
78.0953
47.9691
33.1771
24.7942
18.9695
14.6049
11.354
8.88705
6.91158
5.37495
4.1908
3.24069
2.50621
1.91482
1.46731
1.11883
0.862099
0.660809
0.511688
0.403174
0.329778
0.306826
0.377673
0.397394
0.352289
0.299622
0.267333
0.264971
0.308215
0.395526
0.697184
2.25572
7.9008
24.4275
65.2901
151.328
309.889
584.746
1047.56
1746.22
2538.12
3046.85
3126.09
2910.61
2556.69
2171.15
1806.35
1483.57
1208.33
978.669
789.616
635.344
510.227
409.079
327.717
260.637
55.3122
162.564
171.772
195.55
162.326
120.246
76.6672
47.302
32.8516
24.6342
18.9107
14.5897
11.3546
8.89406
6.91996
5.37814
4.18682
3.23789
2.50648
1.91704
1.46821
1.1181
0.861382
0.661146
0.513871
0.403792
0.329275
0.292204
0.345196
0.394117
0.360194
0.307555
0.273699
0.263264
0.29316
0.373136
0.578839
1.74654
6.45337
21.2164
59.3715
141.377
292.876
555.775
1002.34
1694.92
2514.2
3070.35
3180.71
2977.27
2622.82
2230.81
1857.67
1526.58
1243.81
1007.66
813.149
654.375
525.535
421.453
337.557
270.213
214.789
51.3735
155.014
163.56
185.331
155.841
117.3
75.2277
46.6535
32.5524
24.488
18.8479
14.5652
11.3448
8.89606
6.92557
5.38195
4.18491
3.23443
2.5062
1.91833
1.46949
1.11765
0.859944
0.661085
0.51557
0.404891
0.329141
0.284071
0.314491
0.384054
0.36631
0.316062
0.280988
0.263903
0.282554
0.354968
0.501665
1.34626
5.20007
18.3085
54.0266
132.704
278.14
529.979
960.404
1644.36
2486.73
3090.85
3233.97
3044.05
2689.84
2291.63
1910.15
1570.63
1280.19
1037.41
837.336
673.935
541.315
434.127
347.782
278.336
222.692
176.969
47.3693
147.11
155.549
175.764
149.796
114.474
73.7295
46.0068
32.289
24.3649
18.7967
14.5377
11.3287
8.88843
6.92695
5.38579
4.18313
3.2314
2.5024
1.91856
1.4709
1.1175
0.858215
0.660922
0.516663
0.4064
0.32908
0.280903
0.289449
0.363659
0.370075
0.325513
0.289061
0.267554
0.276423
0.337177
0.451433
1.04406
4.13188
15.6731
49.1792
125.163
265.627
507.473
922.103
1595.29
2456.24
3108.19
3285.55
3110.65
2757.62
2353.53
1963.71
1615.67
1317.46
1067.93
862.152
694.042
557.541
447.19
358.259
286.774
229.388
183.476
145.809
43.3653
138.796
147.737
167.144
144.251
111.686
72.1429
45.3517
32.0527
24.2654
18.7614
14.5186
11.3118
8.87768
6.92221
5.38681
4.18363
3.22863
2.49728
1.91659
1.4714
1.11778
0.856819
0.660443
0.517324
0.408072
0.329689
0.279984
0.271359
0.338867
0.371287
0.336135
0.297756
0.273162
0.273105
0.320131
0.419697
0.829058
3.23862
13.2922
44.765
118.628
255.2
488.405
887.76
1548.58
2423.85
3122.08
3335.02
3176.72
2825.89
2416.34
2018.3
1661.68
1355.58
1099.19
887.614
714.674
574.214
460.621
369.057
295.423
236.343
188.987
151.158
120.171
39.7143
129.998
140.17
159.507
139.289
108.878
70.4919
44.6922
31.8349
24.1812
18.7398
14.5092
11.3033
8.86874
6.91641
5.3851
4.18435
3.22691
2.49221
1.91403
1.4714
1.11875
0.855892
0.659583
0.51775
0.409583
0.330531
0.279806
0.259502
0.312397
0.367004
0.346703
0.306928
0.28049
0.271932
0.30587
0.397755
0.686278
2.51068
11.1493
40.7488
112.984
246.698
472.819
857.856
1504.88
2390.79
3132.25
3382.04
3241.86
2894.45
2479.91
2073.81
1708.61
1394.52
1131.16
913.692
735.841
591.325
474.425
380.159
304.339
243.474
194.71
155.684
124.556
99.1015
36.4072
121.012
133.003
152.888
134.822
105.991
68.8277
44.0486
31.6327
24.1042
18.7258
14.5063
11.3003
8.86654
6.91205
5.38309
4.18411
3.22639
2.48809
1.91107
1.47109
1.11945
0.85557
0.658795
0.518061
0.410695
0.331751
0.279885
0.253424
0.287677
0.358124
0.355958
0.31659
0.288822
0.273155
0.295581
0.380066
0.597282
1.93785
9.2347
37.1121
108.151
239.94
460.669
832.902
1464.92
2358.02
3139.22
3426.19
3305.7
2962.97
2544.01
2130.1
1756.37
1434.26
1163.83
940.37
757.524
608.879
488.598
391.575
313.508
250.825
200.581
160.386
128.263
102.684
81.8099
33.4202
112.37
126.599
147.178
130.781
102.971
67.1718
43.4717
31.4508
24.0302
18.7118
14.5076
11.3007
8.86788
6.91131
5.38208
4.18375
3.22805
2.48603
1.90899
1.46943
1.11982
0.856781
0.658268
0.517483
0.411363
0.333147
0.280592
0.251247
0.267964
0.343953
0.362345
0.32704
0.298104
0.27702
0.289692
0.362358
0.543051
1.51105
7.54057
33.8645
104.074
234.775
451.787
813.352
1429.56
2326.22
3143.75
3467.13
3367.78
3031.08
2608.39
2186.98
1804.84
1474.71
1197.17
967.63
779.699
626.865
503.132
403.292
322.932
258.388
206.636
165.209
132.115
105.712
84.7255
67.6366
30.6209
104.449
121.199
142.27
127.037
99.7689
65.533
42.9835
31.3047
23.9582
18.6967
14.5088
11.3038
8.87041
6.91241
5.38273
4.18414
3.22964
2.48764
1.9083
1.4673
1.11996
0.85815
0.658085
0.516569
0.411764
0.334787
0.281987
0.250833
0.254179
0.325302
0.364729
0.338505
0.308168
0.282868
0.286452
0.344404
0.509107
1.22179
6.05735
31.0401
100.733
231.075
445.966
799.386
1400.02
2295.74
3146.56
3504.97
3427.38
3098.19
2672.65
2244.19
1853.89
1515.8
1231.13
995.45
802.368
645.262
518.023
415.311
332.611
266.163
212.864
170.187
136.072
108.859
87.1874
69.9963
56.0318
27.9839
97.3385
116.764
138.03
123.44
96.4064
63.9167
42.5654
31.1927
23.8982
18.6783
14.5101
11.3079
8.87412
6.91373
5.38428
4.18393
3.23087
2.48929
1.90846
1.46485
1.11944
0.859521
0.658381
0.515293
0.412039
0.336645
0.283567
0.251535
0.245701
0.305483
0.362104
0.351065
0.31885
0.290457
0.286359
0.3292
0.486027
1.05197
4.77617
28.6922
98.1433
228.763
442.979
790.902
1377.38
2267.3
3147.4
3540.18
3483.72
3163.43
2736.24
2301.37
1903.23
1557.38
1265.63
1023.79
825.505
664.068
533.257
427.625
342.539
274.147
219.269
175.31
140.154
112.093
89.7482
71.9884
57.93
46.5385
25.5527
90.9294
113.099
134.14
119.942
93.0141
62.3756
42.203
31.1077
23.8575
18.6611
14.5091
11.3144
8.87944
6.91447
5.38525
4.18437
3.23136
2.48988
1.90891
1.46307
1.11861
0.86029
0.65894
0.514141
0.411898
0.338634
0.285389
0.253856
0.242193
0.286953
0.354506
0.363272
0.330092
0.2994
0.287379
0.319049
0.468267
0.968569
3.69073
26.8993
96.3542
227.79
442.615
787.524
1362.24
2242.15
3145.31
3572.82
3536.55
3225.38
2798.19
2357.99
1952.62
1599.26
1300.55
1052.59
849.079
683.26
548.831
440.227
352.714
282.341
225.849
180.58
144.36
115.435
92.3836
74.0612
59.5311
48.0548
38.7737
23.4252
85.205
109.966
130.193
116.36
89.7362
60.9261
41.8925
31.0305
23.8332
18.652
14.5075
11.3231
8.88927
6.91726
5.38507
4.18501
3.23278
2.4901
1.90974
1.46189
1.11734
0.860596
0.659983
0.513462
0.41164
0.340738
0.287445
0.257118
0.240853
0.271714
0.342879
0.373536
0.341884
0.309321
0.290377
0.311949
0.449984
0.932444
2.82875
25.7551
95.4535
228.119
444.649
788.672
1354.48
2221.63
3139.75
3600.83
3584.49
3282.39
2857.43
2413.48
2001.67
1641.23
1335.78
1081.79
873.041
702.824
564.731
453.11
363.124
290.737
232.602
185.995
148.688
118.879
95.1085
76.1984
61.1996
49.3322
39.9759
32.417
21.4231
80.1202
107.394
126.044
112.544
86.6081
59.5885
41.6181
30.9577
23.8175
18.6517
14.5092
11.3307
8.90204
6.92378
5.38533
4.18513
3.23499
2.49025
1.91045
1.46214
1.11656
0.860207
0.660951
0.513294
0.411363
0.342916
0.289833
0.260913
0.242086
0.261939
0.330366
0.379751
0.354532
0.320245
0.295647
0.308055
0.43419
0.917045
2.31523
25.3596
95.5456
229.719
448.785
792.907
1352.32
2205.95
3129.5
3619.76
3627.31
3335.18
2913.1
2467.21
2049.94
1682.94
1371.1
1111.23
897.333
722.706
580.941
466.264
373.771
299.331
239.525
191.553
153.138
122.425
97.9202
78.4118
62.9229
50.6646
40.9868
33.3636
27.2012
19.1983
74.722
105.542
121.864
108.535
83.7266
58.2943
41.3698
30.8895
23.8071
18.6592
14.5179
11.3365
8.91554
6.93629
5.3883
4.18457
3.23763
2.49129
1.91122
1.46276
1.11651
0.859052
0.661365
0.514169
0.411188
0.344998
0.29267
0.265096
0.244712
0.25643
0.315164
0.380581
0.368281
0.332087
0.302632
0.308045
0.417683
0.912437
2.34296
25.6058
96.3959
231.786
452.579
796.638
1349.92
2188.82
3112.98
3629.29
3664.51
3384.9
2964.95
2518.14
2096.6
1723.63
1405.86
1140.49
921.7
742.829
597.417
479.675
384.644
308.121
246.611
197.255
157.707
126.073
100.818
80.6976
64.7104
52.045
42.0423
34.1575
27.943
22.9037
17.5424
68.7308
103.535
117.964
104.346
81.089
57.0652
41.1143
30.831
23.8024
18.6684
14.5347
11.3472
8.92193
6.9485
5.39665
4.18481
3.23922
2.49359
1.91223
1.46302
1.11702
0.857929
0.661506
0.516099
0.411112
0.347105
0.296103
0.269715
0.24946
0.254204
0.300582
0.377774
0.38312
0.344693
0.311163
0.309577
0.403389
0.906994
2.36463
25.8524
97.2249
233.601
455.965
800.544
1348.23
2173.11
3093.4
3633.31
3694.11
3431.65
3013.62
2564.62
2140.07
1762.88
1440.18
1169.74
946.237
763.152
614.107
493.301
395.731
317.097
253.862
203.092
162.395
129.823
103.801
83.0574
66.5603
53.4792
43.1387
34.9861
28.5621
23.4844
19.3431
16.3531
63.2833
101.106
113.894
100.122
78.6194
55.9165
40.8224
30.7763
23.8065
18.6791
14.5571
11.3657
8.92807
6.95837
5.40895
4.18733
3.23824
2.4962
1.91511
1.46288
1.11742
0.8574
0.661089
0.518296
0.412357
0.34936
0.30025
0.274776
0.255478
0.253826
0.288827
0.368762
0.396911
0.357907
0.321097
0.312596
0.392764
0.894787
2.38262
26.1454
98.1615
235.403
459.041
804.332
1346.64
2157.45
3074.17
3629.08
3715.68
3472.69
3059.16
2606.59
2180.6
1800.86
1473.52
1198.4
970.517
783.463
630.928
507.129
407.004
326.248
261.267
209.065
167.197
133.671
106.87
85.4887
68.4719
54.9666
44.2807
35.8494
29.2073
23.965
19.7988
16.3735
15.0735
59.5113
98.9753
109.659
95.7071
76.212
54.8758
40.526
30.7273
23.8187
18.6912
14.5795
11.3936
8.93956
6.96094
5.4195
4.19596
3.23759
2.49787
1.91937
1.46279
1.11764
0.857372
0.660879
0.520562
0.414228
0.351984
0.305142
0.280309
0.26203
0.254854
0.280818
0.359519
0.407701
0.37176
0.331977
0.316501
0.387161
0.876508
2.40028
26.4815
99.1556
237.156
461.743
807.673
1344.47
2141.74
3053.22
3622.2
3727.78
3504.48
3098.13
2646.52
2217.38
1835.78
1505.27
1226.19
994.342
803.614
647.765
521.051
418.429
335.567
268.821
215.169
172.112
137.615
110.021
87.9918
70.4452
56.5067
45.4675
36.7509
29.8815
24.4646
20.1722
16.7339
13.8796
14.2908
55.2136
98.1033
106.041
91.4032
73.6274
53.8701
40.2498
30.7019
23.8395
18.7102
14.5966
11.4191
8.96276
6.96609
5.42335
4.20671
3.23941
2.49574
1.9236
1.46393
1.11653
0.859116
0.661046
0.522642
0.417507
0.3554
0.310776
0.286271
0.26893
0.258393
0.276002
0.348446
0.41373
0.386557
0.343739
0.32219
0.38642
0.854013
2.41845
26.8253
100.145
238.918
464.314
810.264
1341.66
2126.12
3031.46
3615.06
3730.86
3524.63
3130.98
2684.22
2251.37
1866.53
1534.75
1252.69
1017.43
823.361
664.44
534.972
429.936
345.004
276.509
221.396
177.136
141.653
113.254
90.5656
72.4795
58.0993
46.6997
37.6902
30.5866
24.9872
20.5581
17.0253
14.1676
11.7718
29.8388
61.2257
96.1515
104.314
87.6788
71.1599
52.9052
39.9416
30.6973
23.8676
18.7384
14.6176
11.4358
8.98522
6.98069
5.42218
4.21508
3.25027
2.49409
1.92696
1.46819
1.11525
0.860612
0.662711
0.524606
0.422253
0.359906
0.317047
0.292598
0.27606
0.263511
0.275407
0.335291
0.415135
0.402468
0.35625
0.329178
0.39053
0.831345
2.42617
27.147
101.173
240.729
466.157
811.214
1338.1
2107.86
3007.43
3602.99
3735.43
3535.29
3161.71
2715.47
2284.83
1893.91
1560.48
1277.32
1039.44
842.492
680.783
548.766
441.442
354.507
284.297
227.734
182.264
145.783
116.566
93.2079
74.5735
59.7437
47.9761
38.6675
31.3231
25.5348
20.9617
17.3241
14.3972
12.005
9.98132
30.2516
125.713
120.019
102.513
85.1747
68.8053
52.13
39.6765
30.67
23.8984
18.7691
14.6542
11.4534
9.00215
7.00211
5.42674
4.21687
3.26459
2.49528
1.92353
1.4723
1.11518
0.860721
0.667342
0.527297
0.428513
0.36559
0.323819
0.299219
0.283301
0.269921
0.275413
0.322564
0.413582
0.418685
0.369426
0.337203
0.397196
0.813312
2.41724
27.442
102.22
242.223
467.427
810.88
1331.5
2089.75
2983.63
3588.52
3736.99
3547.42
3172.38
2747.12
2310.69
1923.34
1582.27
1298.74
1059.88
860.724
696.619
562.276
452.838
364.009
292.137
234.154
187.483
149.999
119.954
95.9173
76.7258
61.4394
49.2974
39.683
32.0915
26.1074
21.3844
17.6358
14.6303
12.1881
10.1723
8.45426
27.8968
124.98
244.631
135.038
84.6641
67.1094
51.3215
39.529
30.6583
23.9031
18.8001
14.6922
11.488
9.01108
7.01895
5.44541
4.21422
3.27422
2.50248
1.91751
1.47513
1.12127
0.860035
0.674137
0.531433
0.436106
0.372338
0.330917
0.306239
0.290579
0.277258
0.276717
0.311535
0.408677
0.432931
0.383049
0.346333
0.406283
0.802406
2.39189
27.6426
102.994
243.503
468.3
809.764
1323.83
2070.86
2959.52
3574.21
3734.75
3561.43
3185.25
2759.59
2339.67
1944.29
1607.88
1316.06
1077.66
877.588
711.712
575.367
464
373.416
299.976
240.618
192.771
154.291
123.415
98.6912
78.9353
63.1847
50.6626
40.7364
32.892
26.706
21.8266
17.9616
14.8725
12.3723
10.3204
8.61252
7.14871
26.125
115.978
259.567
215.802
113.101
69.0117
51.0988
39.306
30.7174
23.9127
18.8131
14.7263
11.5245
9.03486
7.02491
5.4678
4.21753
3.27081
2.51291
1.91503
1.4748
1.13226
0.860349
0.683128
0.537954
0.444667
0.379827
0.33886
0.313919
0.298175
0.284919
0.2792
0.303584
0.402861
0.443817
0.397039
0.356558
0.416515
0.800577
2.35009
27.7812
103.718
244.736
469.145
808.56
1315.65
2051.39
2935.85
3560.1
3734.13
3570.4
3206.97
2769.33
2353.97
1969.47
1624.62
1338.34
1091.48
892.378
725.603
587.853
474.816
382.632
307.74
247.082
198.096
158.642
126.939
101.526
81.2
64.9795
52.0704
41.8273
33.7245
27.331
22.2893
18.3019
15.1244
12.5622
10.4678
8.73361
7.2809
6.03094
24.49
107.991
239.597
223.676
86.9556
90.5658
55.2953
39.9286
30.7462
23.9884
18.8102
14.7534
11.552
9.06691
7.03325
5.4826
4.23889
3.26114
2.51915
1.92438
1.47243
1.14645
0.866268
0.692618
0.547076
0.453861
0.388979
0.347716
0.322211
0.306108
0.292732
0.283572
0.299341
0.391021
0.450434
0.411432
0.367738
0.42718
0.807879
2.29646
27.811
104.333
246.017
470.264
807.577
1308.13
2031.21
2911.99
3546.73
3733.08
3580.97
3220.42
2792.7
2359.22
1985.08
1645.67
1351.69
1110.82
903.558
737.881
599.298
485.135
391.561
315.343
253.483
203.42
163.024
130.515
104.415
83.516
66.8211
53.5207
42.9551
34.5888
27.9827
22.773
18.6576
15.3866
12.7586
10.6188
8.85342
7.38087
6.14194
5.07324
22.9428
100.064
219.113
205.943
76.2993
23.7668
72.2351
45.3695
32.0266
24.177
18.9288
14.7726
11.5758
9.08794
7.06803
5.47551
4.25678
3.25942
2.51579
1.95017
1.47085
1.1603
0.876952
0.703071
0.558463
0.465119