/*--------------------------------*- C++ -*----------------------------------*\
| =========                 |                                                 |
| \\      /  F ield         | OpenFOAM: The Open Source CFD Toolbox           |
|  \\    /   O peration     | Version:  v2012                                 |
|   \\  /    A nd           | Website:  www.openfoam.com                      |
|    \\/     M anipulation  |                                                 |
\*---------------------------------------------------------------------------*/
FoamFile
{
    version     2.0;
    format      ascii;
    class       volScalarField;
    location    "12000";
    object      Res;
}
// * * * * * * * * * * * * * * * * * * * * * * * * * * * * * * * * * * * * * //

dimensions      [0 0 0 0 0 0 0];


internalField   nonuniform List<scalar> 
27324
(
128508
153690
298607
175241
366894
398649
208736
424869
481585
476376
249074
504642
551020
572287
623071
300092
598056
646472
658548
748923
954695
356309
713513
760739
778574
878742
1.15516e+06
1.54052e+06
479666
846904
900081
929549
1.05872e+06
1.40367e+06
1.9746e+06
2.81181e+06
1.02422e+06
1.06511e+06
1.11732e+06
1.11973e+06
1.29151e+06
1.75169e+06
2.62529e+06
4.16736e+06
6.38699e+06
1.91571e+06
1.37931e+06
1.49839e+06
1.46402e+06
1.59586e+06
2.1958e+06
3.64752e+06
5.88018e+06
8.85872e+06
9.71639e+06
2.79968e+06
1.97448e+06
1.8318e+06
1.95234e+06
1.9929e+06
2.67604e+06
4.98956e+06
8.3236e+06
9.473e+06
1.13116e+07
9.86699e+06
1.30811e+06
2.45704e+06
2.24256e+06
2.44595e+06
2.60117e+06
3.06599e+06
5.96057e+06
1.06048e+07
1.04466e+07
9.28219e+06
1.17063e+07
8.83918e+06
792485
1.37667e+06
2.32487e+06
2.794e+06
3.51767e+06
4.39292e+06
6.89612e+06
1.13148e+07
1.09584e+07
8.71172e+06
8.66044e+06
1.18031e+07
7.71797e+06
825838
1.25995e+06
1.21937e+06
2.58366e+06
3.99655e+06
6.51297e+06
1.22842e+07
1.52079e+07
1.04572e+07
8.68453e+06
7.33445e+06
8.67589e+06
1.16202e+07
6.58765e+06
950239
1.34727e+06
1.15062e+06
1.18423e+06
3.43931e+06
7.29989e+06
1.9366e+07
3.34916e+07
1.95068e+07
8.55075e+06
7.12915e+06
6.5271e+06
9.33398e+06
9.83066e+06
5.76783e+06
1.00913e+06
1.46738e+06
1.22139e+06
1.08579e+06
1.41606e+06
5.96744e+06
1.99532e+07
5.16101e+07
5.20346e+07
2.60531e+07
9.57417e+06
6.20204e+06
5.4724e+06
1.01291e+07
6.93799e+06
4.77134e+06
1.09004e+06
1.53003e+06
1.28493e+06
1.15141e+06
1.26233e+06
2.31617e+06
1.54556e+07
4.76515e+07
7.0407e+07
6.61071e+07
3.94135e+07
1.59591e+07
7.53294e+06
5.05542e+06
9.7518e+06
3.16722e+06
2.9589e+06
1.15028e+06
1.60917e+06
1.33765e+06
1.21406e+06
1.3589e+06
2.02262e+06
5.70314e+06
3.69995e+07
5.8304e+07
7.23643e+07
7.77356e+07
5.91899e+07
3.13221e+07
1.50999e+07
9.04695e+06
9.65902e+06
6.5239e+06
4.77769e+06
1.19798e+06
1.67433e+06
1.40249e+06
1.28403e+06
1.44828e+06
2.24362e+06
3.93576e+06
1.62102e+07
4.79843e+07
5.18551e+07
6.52979e+07
8.17696e+07
7.96128e+07
5.89906e+07
3.91291e+07
2.77914e+07
2.48703e+07
2.37027e+07
2.0829e+07
1.24485e+06
1.74101e+06
1.47524e+06
1.36998e+06
1.56569e+06
2.42664e+06
4.43934e+06
5.83138e+06
2.99148e+07
4.43702e+07
3.95412e+07
5.1051e+07
7.20775e+07
8.54375e+07
8.28649e+07
7.17764e+07
6.10311e+07
5.8382e+07
5.40527e+07
4.80828e+07
1.31058e+06
1.81754e+06
1.56643e+06
1.4699e+06
1.69426e+06
2.6442e+06
4.76145e+06
6.03777e+06
8.77468e+06
3.97477e+07
3.54941e+07
2.66297e+07
3.35558e+07
4.92611e+07
6.37814e+07
7.04512e+07
6.91721e+07
6.36755e+07
5.69207e+07
5.06987e+07
4.14651e+07
1.3877e+06
1.90991e+06
1.674e+06
1.5884e+06
1.8389e+06
2.85333e+06
5.06226e+06
6.46918e+06
4.85065e+06
1.46802e+07
4.59324e+07
2.50736e+07
1.46241e+07
1.65534e+07
2.29648e+07
2.97005e+07
3.39138e+07
3.42754e+07
3.11031e+07
2.474e+07
1.86253e+07
2.39165e+07
1.49055e+06
2.01717e+06
1.79448e+06
1.71951e+06
1.99895e+06
3.08895e+06
5.39398e+06
6.74769e+06
5.55649e+06
3.34793e+06
2.31803e+07
4.70708e+07
1.57587e+07
4.52322e+06
3.91361e+06
5.33216e+06
7.26919e+06
8.50325e+06
7.88488e+06
6.00044e+06
3.59449e+06
4.90846e+06
1.84508e+07
1.63415e+06
2.15091e+06
1.93545e+06
1.8583e+06
2.16263e+06
3.33909e+06
5.77405e+06
7.04973e+06
5.91985e+06
3.68679e+06
4.8686e+06
3.35853e+07
4.1925e+07
1.02512e+07
2.76537e+06
2.15157e+06
3.26564e+06
5.16057e+06
5.22496e+06
3.03645e+06
1.35262e+06
892746
1.14328e+07
1.72281e+07
1.82508e+06
2.31631e+06
2.09105e+06
2.00524e+06
2.32056e+06
3.59356e+06
6.2261e+06
7.39355e+06
6.00743e+06
4.14651e+06
2.1016e+06
1.0215e+07
4.27821e+07
3.20027e+07
6.63573e+06
4.70476e+06
3.62233e+06
4.84379e+06
6.35776e+06
5.20125e+06
2.85203e+06
1.19694e+06
4.51369e+06
1.85546e+07
1.13582e+07
2.03397e+06
2.50074e+06
2.25278e+06
2.15054e+06
2.47334e+06
3.83259e+06
6.70774e+06
7.83806e+06
6.14493e+06
4.31061e+06
2.82697e+06
1.02533e+06
1.90226e+07
4.63074e+07
2.0832e+07
2.76013e+06
2.82645e+06
3.51722e+06
5.5823e+06
5.77064e+06
3.58207e+06
1.43722e+06
1.41084e+06
1.21625e+07
1.7836e+07
5.63126e+06
2.2974e+06
2.72083e+06
2.43074e+06
2.30709e+06
2.62608e+06
4.07247e+06
7.12e+06
8.22003e+06
6.34309e+06
4.49899e+06
3.18874e+06
1.273e+06
3.82973e+06
3.05211e+07
4.10673e+07
1.16188e+07
900855
1.47287e+06
3.76214e+06
5.79901e+06
4.45569e+06
1.82829e+06
367963
6.6094e+06
1.72383e+07
1.07429e+07
2.44881e+06
2.59043e+06
2.94778e+06
2.61885e+06
2.46367e+06
2.78966e+06
4.32408e+06
7.49082e+06
8.40612e+06
6.4619e+06
4.79068e+06
3.3934e+06
1.87834e+06
217302
9.89988e+06
4.05406e+07
2.83637e+07
4.74574e+06
370102
2.03498e+06
4.98086e+06
5.18426e+06
2.8259e+06
489221
2.63172e+06
1.41825e+07
1.37491e+07
4.77818e+06
1.16645e+06
2.87511e+06
3.18158e+06
2.78703e+06
2.59769e+06
2.95066e+06
4.56044e+06
7.82841e+06
8.49216e+06
6.44287e+06
5.02112e+06
3.67685e+06
2.03691e+06
928143
1.41504e+06
2.02692e+07
4.24699e+07
1.50607e+07
1.75364e+06
1.26497e+06
3.42216e+06
5.37781e+06
3.85989e+06
1.19921e+06
712171
9.1373e+06
1.58932e+07
6.97465e+06
2.02433e+06
716241
3.12014e+06
3.40221e+06
2.95466e+06
2.73136e+06
3.12189e+06
4.83615e+06
8.13555e+06
8.55142e+06
6.41299e+06
5.08144e+06
3.87955e+06
2.25317e+06
1.1649e+06
304790
5.28543e+06
3.27732e+07
3.37044e+07
6.32935e+06
1.06723e+06
1.80569e+06
4.68753e+06
4.67984e+06
2.10666e+06
140434
4.5595e+06
1.50136e+07
1.01598e+07
2.85629e+06
1.03454e+06
552105
3.38783e+06
3.60584e+06
3.12832e+06
2.87655e+06
3.32029e+06
5.13284e+06
8.41286e+06
8.61457e+06
6.41493e+06
5.07743e+06
3.86413e+06
2.44078e+06
1.35313e+06
575310
639101
1.38187e+07
3.99609e+07
1.97659e+07
2.11328e+06
438973
3.13248e+06
4.97358e+06
3.18946e+06
683023
1.648e+06
1.16053e+07
1.299e+07
4.45461e+06
1.24686e+06
695800
491940
3.60956e+06
3.79529e+06
3.3225e+06
3.04489e+06
3.5418e+06
5.44703e+06
8.69815e+06
8.59969e+06
6.42907e+06
5.0623e+06
3.72591e+06
2.44406e+06
1.59328e+06
736367
219584
3.25883e+06
2.66925e+07
3.45523e+07
8.49873e+06
610732
1.38607e+06
4.4718e+06
4.13601e+06
1.53027e+06
262607
7.22651e+06
1.42811e+07
6.66399e+06
1.7915e+06
697935
588885
435359
3.80309e+06
3.95437e+06
3.50011e+06
3.23827e+06
3.78233e+06
5.76207e+06
8.93966e+06
8.66702e+06
6.50008e+06
5.05016e+06
3.55367e+06
2.30872e+06
1.69114e+06
994011
398105
392048
1.04215e+07
3.64377e+07
2.06728e+07
2.5675e+06
244869
3.16256e+06
4.71409e+06
2.56777e+06
402885
3.50541e+06
1.31775e+07
9.32376e+06
2.64939e+06
855703
537068
514307
283284
4.01799e+06
4.14243e+06
3.72996e+06
3.47933e+06
4.03897e+06
6.07301e+06
9.14776e+06
8.68392e+06
6.47585e+06
5.07651e+06
3.4627e+06
2.11618e+06
1.63108e+06
1.18102e+06
644573
136758
2.47107e+06
2.2909e+07
3.35792e+07
8.7648e+06
559991
1.54234e+06
4.58796e+06
3.61996e+06
1.05501e+06
1.20951e+06
1.01155e+07
1.1683e+07
3.98425e+06
1.11163e+06
571908
473218
353990
208936
4.33586e+06
4.38138e+06
4.04025e+06
3.78174e+06
4.3406e+06
6.38382e+06
9.34874e+06
8.67267e+06
6.38722e+06
4.97483e+06
3.30787e+06
1.9974e+06
1.43483e+06
1.23985e+06
869040
357144
450228
8.96722e+06
3.34787e+07
2.0016e+07
2.92048e+06
411870
3.62564e+06
4.42975e+06
1.94042e+06
98708.1
6.38622e+06
1.2733e+07
5.8442e+06
1.54885e+06
631990
473625
326824
293967
378832
4.81216e+06
4.70912e+06
4.40532e+06
4.09855e+06
4.64389e+06
6.68849e+06
9.54269e+06
8.63209e+06
6.24242e+06
4.89661e+06
3.18479e+06
1.91315e+06
1.24106e+06
1.10121e+06
1.06624e+06
534561
181963
2.2392e+06
2.13662e+07
3.07493e+07
7.9728e+06
658477
2.14323e+06
4.72063e+06
2.90644e+06
516311
3.22117e+06
1.18547e+07
8.06525e+06
2.24659e+06
754710
466375
335813
280489
480463
420876
5.32853e+06
5.09285e+06
4.79526e+06
4.4153e+06
4.92307e+06
6.98484e+06
9.73997e+06
8.5931e+06
6.08703e+06
4.79547e+06
3.09586e+06
1.85429e+06
1.12087e+06
881170
1.04892e+06
801980
306574
471508
8.90661e+06
3.12734e+07
1.73345e+07
2.02312e+06
850752
4.19798e+06
3.8275e+06
1.16219e+06
1.20408e+06
9.34991e+06
1.01177e+07
3.30455e+06
965070
475086
328334
310962
523714
513877
272429
5.98989e+06
5.56562e+06
5.19064e+06
4.70005e+06
5.20612e+06
7.31187e+06
9.97812e+06
8.57577e+06
6.01372e+06
4.7243e+06
2.98567e+06
1.78433e+06
1.01986e+06
683240
884937
952646
512933
240770
2.43439e+06
2.12884e+07
2.71371e+07
6.2154e+06
238787
2.93431e+06
4.4269e+06
1.99515e+06
120297
6.18803e+06
1.12292e+07
4.78347e+06
1.30198e+06
515975
311488
342123
586293
587430
339093
113799
6.78295e+06
6.07432e+06
5.62432e+06
4.99536e+06
5.51038e+06
7.67585e+06
1.02369e+07
8.55773e+06
6.00632e+06
4.72627e+06
2.90111e+06
1.67712e+06
905698
550165
645148
920878
803118
309561
429446
9.89107e+06
2.94259e+07
1.35641e+07
1.27005e+06
1.45533e+06
4.43815e+06
2.92099e+06
514937
3.36053e+06
1.0839e+07
6.59644e+06
1.82854e+06
604544
286106
385239
645468
677793
402867
143649
37770.3
7.47127e+06
6.61061e+06
5.97476e+06
5.23206e+06
5.81668e+06
8.10943e+06
1.05333e+07
8.58756e+06
6.05419e+06
4.743e+06
2.87938e+06
1.57033e+06
762324
454986
432832
748012
957445
599836
56811.4
3.02942e+06
2.22809e+07
2.24611e+07
4.025e+06
352650
3.67596e+06
3.76564e+06
1.14854e+06
1.40433e+06
9.02083e+06
8.409e+06
2.61952e+06
751128
275820
434487
707729
766381
484138
174737
47379.6
11420.3
8.09525e+06
7.07415e+06
6.28659e+06
5.43764e+06
6.1568e+06
8.54244e+06
1.08175e+07
8.687e+06
6.19115e+06
4.82973e+06
2.89076e+06
1.52472e+06
635963
347783
304258
512449
960777
891405
308077
489590
1.20486e+07
2.71088e+07
9.4793e+06
642734
2.35434e+06
4.28149e+06
1.93638e+06
256887
6.43259e+06
9.66512e+06
3.72872e+06
990146
294630
486695
770818
853259
573785
216286
57371.8
14097.6
3380.24
8.61286e+06
7.52701e+06
6.5991e+06
5.70381e+06
6.53817e+06
9.04084e+06
1.10728e+07
8.804e+06
6.34094e+06
4.89786e+06
2.92438e+06
1.5214e+06
572378
263063
211780
338388
786286
1.06124e+06
626779
157249
4.55517e+06
2.35667e+07
1.71876e+07
2.43173e+06
1.0509e+06
4.20795e+06
2.84091e+06
405234
3.87529e+06
9.84332e+06
5.13611e+06
1.36287e+06
342423
540866
833643
936219
672324
266651
70988.1
16765.4
4089.8
1032.13
8.99794e+06
7.94441e+06
6.95821e+06
6.02127e+06
6.95758e+06
9.55319e+06
1.11732e+07
8.8828e+06
6.45673e+06
4.94941e+06
3.02538e+06
1.57366e+06
554751
239028
107216
270639
542975
1.04768e+06
894585
377008
1.11557e+06
1.52231e+07
2.35144e+07
5.92803e+06
131717
3.44145e+06
3.62806e+06
999968
1.89897e+06
8.7967e+06
6.67097e+06
1.91734e+06
433276
599621
894473
1.01489e+06
776308
328257
87885.1
20407.2
4753.31
1216.93
349.61
9.3679e+06
8.28663e+06
7.35728e+06
6.37769e+06
7.37416e+06
9.99252e+06
1.13295e+07
8.93296e+06
6.49702e+06
4.95339e+06
3.12301e+06
1.65716e+06
612672
267361
65194.5
139433
359478
835295
1.02093e+06
594711
114751
7.33766e+06
2.40592e+07
1.16589e+07
1.01498e+06
2.22587e+06
4.13156e+06
1.70733e+06
627710
6.86088e+06
7.98448e+06
2.69511e+06
587832
661369
954980
1.09078e+06
882312
401940
109268
24867.4
5661.57
1375.67
399.512
143.802
9.96855e+06
8.8129e+06
7.85779e+06
6.7743e+06
7.7814e+06
1.03967e+07
1.14144e+07
8.90639e+06
6.50719e+06
4.9425e+06
3.22672e+06
1.78251e+06
710265
351445
161935
30284.7
157102
523230
962383
751444
143495
2.58466e+06
1.86499e+07
1.82256e+07
2.98178e+06
1.04928e+06
4.0787e+06
2.54102e+06
157940
4.63423e+06
8.64569e+06
3.70803e+06
832901
724518
1.01524e+06
1.1648e+06
987040
488060
136209
30462.8
6748.36
1596.55
436.54
157.532
77.5897
1.08138e+07
9.47406e+06
8.51883e+06
7.27748e+06
8.20527e+06
1.07908e+07
1.15035e+07
8.80624e+06
6.38245e+06
4.77654e+06
3.28427e+06
1.89878e+06
853322
452993
286319
182993
82492.9
220011
724321
868118
338705
662797
1.12561e+07
2.21305e+07
6.56194e+06
59591.6
3.40391e+06
3.29747e+06
753002
2.66674e+06
8.35963e+06
4.89674e+06
1.20972e+06
784967
1.07595e+06
1.23698e+06
1.08792e+06
585542
170166
37474.5
8084.98
1854.53
490.326
165.16
81.1576
52.4041
1.16382e+07
1.02321e+07
9.09948e+06
7.67423e+06
8.65295e+06
1.11962e+07
1.16209e+07
8.69389e+06
6.27409e+06
4.64799e+06
3.29805e+06
1.94145e+06
970714
572150
372031
351057
238569
127771
417353
852761
556649
79535.5
5.24736e+06
2.08034e+07
1.18594e+07
1.05668e+06
2.28685e+06
3.85704e+06
1.38862e+06
1.24065e+06
7.16602e+06
6.09948e+06
1.72217e+06
843996
1.14077e+06
1.3084e+06
1.18292e+06
691595
212686
46318.4
9724.5
2165.55
551.177
177.854
82.6273
54.0087
35.112
1.28089e+07
1.10172e+07
9.57003e+06
8.04129e+06
9.05806e+06
1.16399e+07
1.17864e+07
8.62117e+06
6.18288e+06
4.52075e+06
3.25087e+06
1.93726e+06
1.01274e+06
650182
443435
442358
387566
247985
201512
708189
753096
161655
1.84217e+06
1.54644e+07
1.7261e+07
2.9601e+06
1.15431e+06
3.96529e+06
2.10797e+06
266258
5.4328e+06
7.01016e+06
2.4069e+06
915754
1.21018e+06
1.37961e+06
1.27074e+06
802421
265367
57510.7
11747.4
2538.83
622.726
191.749
85.7698
54.7585
36.5363
22.2914
1.36025e+07
1.18535e+07
9.98901e+06
8.39924e+06
9.57665e+06
1.21344e+07
1.19346e+07
8.63051e+06
6.13659e+06
4.38526e+06
3.13897e+06
1.8418e+06
1.01299e+06
667724
422980
448778
465363
342605
194343
485730
861647
386432
453180
9.24424e+06
1.995e+07
6.2583e+06
158564
3.51748e+06
2.87303e+06
376942
3.61819e+06
7.31315e+06
3.28412e+06
1.04308e+06
1.29602e+06
1.45016e+06
1.35015e+06
913717
329458
71734.9
14249.4
2988.79
706.235
207.908
89.1557
56.0793
37.2329
23.3
14.6091
1.4158e+07
1.24502e+07
1.01687e+07
8.7286e+06
1.015e+07
1.26804e+07
1.21909e+07
8.65775e+06
6.151e+06
4.29015e+06
3.00062e+06
1.70052e+06
920236
666124
387902
318072
418628
375903
196385
271150
839221
619634
42626.4
4.36257e+06
1.83789e+07
1.09853e+07
890336
2.61398e+06
3.46625e+06
967686
2.06413e+06
6.88396e+06
4.27408e+06
1.29275e+06
1.38712e+06
1.51801e+06
1.42126e+06
1.02188e+06
405463
89833.3
17358.3
3531.8
804.505
226.519
93.1052
57.3556
38.2513
23.7191
15.2559
10.076
1.46091e+07
1.30322e+07
1.0409e+07
9.13077e+06
1.08072e+07
1.32117e+07
1.24263e+07
8.82132e+06
6.23647e+06
4.27535e+06
2.88836e+06
1.55867e+06
810557
588934
390580
233861
227513
336781
187895
130945
694669
800572
284456
1.54519e+06
1.38525e+07
1.55201e+07
2.55483e+06
1.55969e+06
3.76874e+06
1.59779e+06
891634
5.82409e+06
5.18951e+06
1.69402e+06
1.4718e+06
1.57821e+06
1.48484e+06
1.12406e+06
492829
112815
21235
4189
920.737
248.096
97.566
58.6531
39.2127
24.3733
15.4464
10.5259
7.19408
1.48713e+07
1.35659e+07
1.07932e+07
9.61273e+06
1.15064e+07
1.36886e+07
1.26483e+07
9.00062e+06
6.33534e+06
4.31406e+06
2.84515e+06
1.47294e+06
699070
491503
409917
310980
77912.4
242938
179372
89124.1
484905
894725
505325
349824
8.65474e+06
1.79603e+07
5.30244e+06
619930
3.61658e+06
2.28901e+06
136253
4.40363e+06
5.81784e+06
2.28403e+06
1.52847e+06
1.62534e+06
1.54448e+06
1.21862e+06
589556
141810
26085.8
4985.85
1058.41
272.919
102.469
59.9139
40.1744
25.0086
15.8033
10.6145
7.52662
5.26225
1.57096e+07
1.4233e+07
1.12209e+07
1.01218e+07
1.21531e+07
1.40158e+07
1.265e+07
9.13884e+06
6.43666e+06
4.41233e+06
2.88129e+06
1.45556e+06
646515
382635
389228
430884
229470
156314
202249
133783
306015
806231
710595
103442
4.47584e+06
1.6917e+07
9.16813e+06
432396
3.03027e+06
2.88933e+06
679594
2.94369e+06
5.98105e+06
3.02887e+06
1.57076e+06
1.6742e+06
1.60487e+06
1.30433e+06
692486
177941
32178.2
5951.91
1221.81
301.474
107.786
61.1525
41.1255
25.6759
16.148
10.8284
7.56698
5.51682
3.93245
1.67883e+07
1.53227e+07
1.19418e+07
1.06908e+07
1.27619e+07
1.43226e+07
1.27034e+07
9.19022e+06
6.50737e+06
4.53677e+06
2.95508e+06
1.54965e+06
661018
295230
283831
462937
374494
196294
187702
162871
148723
585128
828914
228166
1.87951e+06
1.33394e+07
1.31595e+07
1.75944e+06
2.16252e+06
3.35227e+06
1.2945e+06
1.6942e+06
5.6182e+06
3.74539e+06
1.65768e+06
1.7293e+06
1.66932e+06
1.3803e+06
797449
222215
39836.1
7124.22
1415.61
334.403
113.631
62.4275
42.0801
26.3663
16.5138
11.0332
7.70642
5.53029
4.13245
3.00379
1.76477e+07
1.64314e+07
1.26221e+07
1.13281e+07
1.34005e+07
1.46196e+07
1.26993e+07
9.21664e+06
6.45273e+06
4.62775e+06
3.08044e+06
1.69844e+06
800889
302400
109152
315000
414343
247220
120405
212991
31488.5
296038
862992
382866
626719
8.92154e+06
1.57185e+07
3.92897e+06
1.26916e+06
3.49372e+06
1.89201e+06
769019
4.79044e+06
4.43676e+06
1.89511e+06
1.79145e+06
1.73636e+06
1.44607e+06
900161
275342
49449.2
8546.31
1645.38
372.488
120.014
63.725
43.0267
27.0819
16.8927
11.2504
7.83803
5.62379
4.12967
3.16391
2.3486
1.85195e+07
1.74201e+07
1.3144e+07
1.18802e+07
1.40199e+07
1.49849e+07
1.27559e+07
9.19496e+06
6.36527e+06
4.59201e+06
3.17212e+06
1.86661e+06
945335
452884
139371
111263
274211
268918
21911.8
256508
146857
86458.1
757530
552387
102396
5.08363e+06
1.56195e+07
6.97135e+06
274768
3.3202e+06
2.52248e+06
745324
3.7454e+06
4.93048e+06
2.30748e+06
1.89106e+06
1.79399e+06
1.5026e+06
996822
337627
61427.7
10271.8
1916.25
416.595
126.947
65.0362
43.9516
27.8129
17.2865
11.4747
7.97884
5.71111
4.19219
3.15077
2.47812
1.88231
1.89297e+07
1.83564e+07
1.3774e+07
1.24904e+07
1.46689e+07
1.53279e+07
1.28893e+07
9.21685e+06
6.26522e+06
4.47752e+06
3.13469e+06
1.9969e+06
1.1045e+06
568245
359352
185312
81730.6
234804
100971
248303
287896
113581
558982
710329
161137
2.42164e+06
1.31392e+07
1.06133e+07
853840
2.87874e+06
2.95175e+06
1.35378e+06
2.71178e+06
5.04842e+06
2.88474e+06
1.9589e+06
1.84048e+06
1.55256e+06
1.08513e+06
408702
76200.7
12358.1
2233.71
467.524
134.475
66.3496
44.8506
28.5527
17.6944
11.7075
8.12436
5.80461
4.24988
3.19252
2.45895
1.98769
1.54876
1.92925e+07
1.90511e+07
1.42978e+07
1.3214e+07
1.54091e+07
1.57786e+07
1.30798e+07
9.27378e+06
6.17181e+06
4.31692e+06
3.0008e+06
2.01743e+06
1.20291e+06
674190
429119
371716
154849
172388
198754
190504
366551
163050
335884
788558
336273
914135
9.6284e+06
1.32721e+07
2.56018e+06
2.22569e+06
3.28822e+06
2.02509e+06
1.90842e+06
4.75596e+06
3.53088e+06
2.00765e+06
1.86788e+06
1.60038e+06
1.16405e+06
487427
94165.3
14864.4
2602.99
525.988
142.668
67.6574
45.725
29.3025
18.1173
11.9483
8.27558
5.90192
4.31243
3.22994
2.4864
1.96551
1.63441
1.30967
1.99154e+07
1.98368e+07
1.48805e+07
1.39394e+07
1.60349e+07
1.62142e+07
1.33719e+07
9.4493e+06
6.15376e+06
4.16293e+06
2.86567e+06
1.92772e+06
1.23548e+06
694776
393968
458149
288663
123884
252104
101624
312283
217800
157415
738793
510272
208247
6.21007e+06
1.41259e+07
4.99967e+06
1.52827e+06
3.48126e+06
2.61586e+06
1.48374e+06
4.1526e+06
4.06136e+06
2.1113e+06
1.90009e+06
1.6503e+06
1.23373e+06
571647
115701
17834.1
3029.73
592.245
151.619
68.959
46.5715
30.0629
18.558
12.1992
8.4327
6.00338
4.37754
3.27143
2.51052
1.9828
1.61054
1.37862
1.13927
2.08694e+07
2.08645e+07
1.55336e+07
1.47115e+07
1.66639e+07
1.65245e+07
1.36146e+07
9.59977e+06
6.16993e+06
4.09635e+06
2.7596e+06
1.83173e+06
1.18132e+06
725657
264424
335460
369970
135090
256991
145570
174490
262934
47883.4
573350
685841
89421.4
3.53533e+06
1.29053e+07
7.8857e+06
596867
3.50817e+06
3.13015e+06
1.6303e+06
3.42466e+06
4.43801e+06
2.38841e+06
1.93953e+06
1.70178e+06
1.29481e+06
658419
141101
21291
3517.42
666.316
161.424
70.2843
47.3972
30.8341
19.0182
12.4614
8.59702
6.10984
4.44589
3.31448
2.5371
1.99758
1.62086
1.35403
1.19387
1.02071
2.19363e+07
2.2027e+07
1.62401e+07
1.54705e+07
1.72851e+07
1.68312e+07
1.38989e+07
9.73093e+06
6.21762e+06
4.0963e+06
2.73442e+06
1.77382e+06
1.08799e+06
759313
308494
67265.3
339764
160524
164033
263667
22030.2
272224
104553
364917
762588
250571
1.75731e+06
1.03792e+07
1.05431e+07
810829
3.36234e+06
3.55232e+06
2.11826e+06
2.74133e+06
4.55437e+06
2.82772e+06
2.02105e+06
1.74643e+06
1.34791e+06
744617
170536
25229.3
4065.37
748.056
172.153
71.6801
48.2099
31.6165
19.5012
12.736
8.76938
6.22134
4.51772
3.36031
2.56532
2.01415
1.62872
1.35899
1.16896
1.0622
0.942657
2.30713e+07
2.32151e+07
1.68483e+07
1.62219e+07
1.79265e+07
1.71335e+07
1.41799e+07
9.83664e+06
6.26326e+06
4.14826e+06
2.82706e+06
1.79228e+06
1.01827e+06
680050
485555
136755
207479
246016
78827.8
314608
123894
213481
212260
154369
764661
403550
761211
7.4594e+06
1.20298e+07
2.71852e+06
3.09648e+06
3.88789e+06
2.67098e+06
2.21477e+06
4.371e+06
3.37085e+06
2.08055e+06
1.77591e+06
1.39492e+06
827352
204040
29620.2
4664.49
837.537
183.844
73.1847
49.0063
32.4085
20.0085
13.0243
8.94951
6.3381
4.5935
3.4087
2.5956
2.03224
1.63836
1.36189
1.1698
1.03714
0.971583
0.897402
2.37707e+07
2.44764e+07
1.73601e+07
1.69851e+07
1.85087e+07
1.74498e+07
1.44381e+07
9.90475e+06
6.161e+06
4.18597e+06
2.93099e+06
1.91712e+06
1.00417e+06
566745
468220
295537
99797.8
281311
72876.8
235858
244739
110705
311079
57415.9
662154
540168
222649
4.86369e+06
1.19884e+07
5.04866e+06
2.63107e+06
4.13884e+06
3.22724e+06
2.01149e+06
3.94755e+06
3.8725e+06
2.13324e+06
1.79059e+06
1.43874e+06
904548
241343
34411.8
5297.05
934.855
196.555
74.795
49.779
33.2062
20.5404
13.3274
9.13897
6.46049
4.67263
3.45966
2.62784
2.05163
1.64904
1.36636
1.16862
1.03445
0.946362
0.914898
0.880962
2.4454e+07
2.55696e+07
1.78657e+07
1.76785e+07
1.91233e+07
1.78035e+07
1.46899e+07
9.9444e+06
6.00629e+06
4.16309e+06
2.99436e+06
2.05457e+06
1.11526e+06
523588
310879
335823
82189.4
215783
208444
74067.9
312051
8932.35
366068
149457
498197
668845
81542.7
2.88006e+06
1.05528e+07
7.52404e+06
1.9282e+06
4.31851e+06
3.7157e+06
2.15878e+06
3.41715e+06
4.20677e+06
2.28021e+06
1.81839e+06
1.48171e+06
974347
281972
39517.2
5940.11
1037.99
210.119
76.4207
50.4929
34.0101
21.0992
13.6462
9.33848
6.58965
4.75633
3.51344
2.66203
2.07266
1.66092
1.37167
1.16904
1.02986
0.940007
0.888947
0.887149
0.891662
2.53186e+07
2.67367e+07
1.84506e+07
1.82766e+07
1.96914e+07
1.82246e+07
1.50445e+07
9.9633e+06
5.85346e+06
4.13464e+06
2.99666e+06
2.14357e+06
1.22051e+06
578365
241171
232131
206550
121462
334215
115846
231100
135597
312045
241236
321723
710820
257604
1.5149e+06
8.41523e+06
9.30712e+06
1.6095e+06
4.46818e+06
4.13692e+06
2.5377e+06
2.91664e+06
4.35646e+06
2.61926e+06
1.86977e+06
1.52053e+06
1.03466e+06
325087
44822.1
6571.84
1142.96
224.612
78.0004
51.1128
34.8228
21.6883
13.9831
9.54959
6.72573
4.84451
3.57016
2.69823
2.09518
1.67412
1.3781
1.17027
1.02673
0.932427
0.878769
0.859655
0.886042
0.929081
2.61122e+07
2.80269e+07
1.90772e+07
1.88277e+07
2.01529e+07
1.8782e+07
1.53733e+07
9.96821e+06
5.70222e+06
4.11998e+06
2.98466e+06
2.16329e+06
1.25508e+06
606965
293877
116436
236122
52592.5
327206
264201
129596
246503
209035
321578
166271
666355
428800
675686
6.12117e+06
1.01016e+07
2.84064e+06
4.55743e+06
4.46886e+06
2.99294e+06
2.48106e+06
4.27145e+06
3.07873e+06
1.95771e+06
1.54187e+06
1.08346e+06
369830
50184.4
7173.68
1244.47
240.106
79.586
51.6443
35.6386
22.3161
14.3409
9.77384
6.87053
4.93765
3.63
2.73647
2.11923
1.68842
1.38556
1.17253
1.02455
0.926107
0.867723
0.845399
0.855888
0.911212
0.995393
2.63973e+07
2.91749e+07
1.96153e+07
1.93003e+07
2.05911e+07
1.94818e+07
1.56703e+07
9.90638e+06
5.59622e+06
4.12377e+06
2.98395e+06
2.15472e+06
1.23531e+06
545911
312171
86744.7
191451
141410
256421
343592
53151.8
255924
53118.5
326069
38236.7
552591
579604
209446
4.02674e+06
9.80669e+06
4.65736e+06
4.21958e+06
4.74022e+06
3.50329e+06
2.33047e+06
3.99344e+06
3.55121e+06
1.9923e+06
1.53656e+06
1.12105e+06
415304
55460.5
7731.35
1337.65
255.916
81.1977
52.0721
36.4228
22.9814
14.7209
10.0119
7.02453
5.03682
3.69372
2.7771
2.14493
1.70407
1.39403
1.1756
1.02315
0.92066
0.858205
0.830678
0.836815
0.876995
0.963535
1.09357
2.63233e+07
2.98869e+07
1.98729e+07
1.97538e+07
2.10476e+07
2.01879e+07
1.59746e+07
9.76062e+06
5.51612e+06
4.17511e+06
3.0098e+06
2.16691e+06
1.18674e+06
480121
257374
104938
100571
187266
123516
290007
154446
204115
166903
270704
195261
427303
691340
294446
2.39654e+06
8.65014e+06
6.48506e+06
3.70608e+06
4.99434e+06
3.97839e+06
2.43526e+06
3.57922e+06
3.95017e+06
2.06775e+06
1.53162e+06
1.15051e+06
460547
60504.2
8232.82
1419.45
270.717
82.7924
52.4006
37.1196
23.6647
15.1238
10.2634
7.18778
5.14229
3.76116
2.82029
2.17225
1.72091
1.40362
1.17962
1.02253
0.915983
0.849592
0.817607
0.817998
0.852238
0.924051
1.04597
1.22768
2.6343e+07
3.0242e+07
1.99611e+07
2.02789e+07
2.16074e+07
2.09699e+07
1.6222e+07
9.57924e+06
5.5145e+06
4.20846e+06
3.07825e+06
2.20241e+06
1.17938e+06
413822
219476
89903
34072
186412
129930
135489
262662
104572
284309
146291
343740
295389
751093
578827
1.30563e+06
6.92336e+06
8.00124e+06
3.24268e+06
5.24373e+06
4.41885e+06
2.68797e+06
3.08878e+06
4.16108e+06
2.27529e+06
1.55442e+06
1.17289e+06
503676
65192.9
8666.42
1487.45
282.764
84.0843
52.6343
37.6889
24.3286
15.5466
10.5271
7.35955
5.2538
3.83306
2.86613
2.20136
1.73893
1.41417
1.18452
1.02312
0.912381
0.841873
0.805421
0.800688
0.828151
0.892107
0.998954
1.16224
1.40329
2.65722e+07
3.04652e+07
2.00039e+07
2.08981e+07
2.23402e+07
2.17354e+07
1.63657e+07
9.46441e+06
5.57796e+06
4.22699e+06
3.0958e+06
2.24941e+06
1.21995e+06
393253
197313
86184.5
14892.1
132445
245730
15143.1
313875
73665.3
338008
46584.5
431060
152412
831329
836154
863927
5.16407e+06
8.71915e+06
3.5975e+06
5.38592e+06
4.7963e+06
3.04436e+06
2.64079e+06
4.19337e+06
2.64878e+06
1.58589e+06
1.17796e+06
541577
69420.1
9019.48
1537.76
290.465
84.4501
52.6658
38.1311
24.9228
15.9763
10.8018
7.53735
5.37018
3.90873
2.91484
2.23261
1.75861
1.42582
1.19048
1.02441
0.909739
0.835314
0.794642
0.784716
0.806034
0.861731
0.95816
1.10507
1.31692
1.62573
2.68279e+07
3.08946e+07
2.00233e+07
2.17813e+07
2.32473e+07
2.23242e+07
1.63989e+07
9.34644e+06
5.72268e+06
4.22475e+06
3.06583e+06
2.23864e+06
1.25223e+06
438800
206203
119913
32047.7
57969.6
210197
83596.4
253927
192331
268347
181970
447319
46448.3
908620
1.04671e+06
1.09171e+06
3.6706e+06
8.58145e+06
4.84378e+06
5.36628e+06
5.10128e+06
3.43459e+06
2.39716e+06
4.04004e+06
3.08966e+06
1.60438e+06
1.15571e+06
571851
73130.4
9273
1563.77
292.124
83.1871
52.2081
38.4658
25.4156
16.3843
11.0827
7.71815
5.48901
3.98698
2.96629
2.26575
1.7799
1.43867
1.19744
1.02667
0.907909
0.829581
0.784875
0.770281
0.785614
0.833614
0.91983
1.05356
1.24775
1.51551
1.89838
2.7405e+07
3.14275e+07
2.01964e+07
2.29273e+07
2.43255e+07
2.27912e+07
1.64092e+07
9.22158e+06
5.89213e+06
4.27043e+06
3.05062e+06
2.16005e+06
1.22931e+06
501123
210687
199005
82947.4
26268.5
137312
132965
185994
270598
164177
300084
314048
205177
998877
1.24414e+06
1.53216e+06
2.65822e+06
7.79803e+06
6.31545e+06
5.03088e+06
5.28375e+06
3.83529e+06
2.33875e+06
3.67725e+06
3.50769e+06
1.60327e+06
1.123e+06
594758
76171.3
9391.51
1555.09
285.892
79.7047
50.9154
38.6425
25.8226
16.7273
11.3563
7.89954
5.60748
4.06631
3.0191
2.30068
1.80261
1.45289
1.20528
1.02973
0.907017
0.824942
0.77606
0.756884
0.766532
0.807399
0.884239
1.00543
1.18279
1.43146
1.7626
2.22108
2.86221e+07
3.23905e+07
2.03679e+07
2.40573e+07
2.54595e+07
2.30978e+07
1.63478e+07
9.20951e+06
5.98346e+06
4.2905e+06
3.11113e+06
2.08008e+06
1.14227e+06
540047
222780
212145
155138
26308.1
109362
108133
102112
237239
47985.3
337566
117842
362158
1.11879e+06
1.48756e+06
2.00887e+06
2.30543e+06
6.66694e+06
7.52958e+06
4.53295e+06
5.45419e+06
4.21962e+06
2.48512e+06
3.24921e+06
3.81057e+06
1.70055e+06
1.11539e+06
610566
77983.4
9312.94
1500.64
270.252
73.7119
48.6429
38.5255
26.2006
17.0024
11.5995
8.08273
5.72782
4.14709
3.07344
2.33745
1.82676
1.46837
1.2142
1.03387
0.907044
0.821185
0.76845
0.744804
0.749242
0.783193
0.851139
0.960716
1.12257
1.35078
1.66106
2.05943
2.58873
2.95799e+07
3.45497e+07
2.07618e+07
2.49846e+07
2.64782e+07
2.31362e+07
1.63335e+07
9.25612e+06
6.00938e+06
4.23848e+06
3.16678e+06
2.11264e+06
1.0582e+06
505317
322395
76357.2
252577
50292.2
143334
103825
94297.3
126952
166281
269747
151972
450097
1.21724e+06
1.79804e+06
2.49559e+06
2.56197e+06
5.51635e+06
8.33952e+06
4.33153e+06
5.57752e+06
4.58358e+06
2.71469e+06
2.78117e+06
3.97724e+06
1.96958e+06
1.13678e+06
613023
77501.9
8958.85
1393.81
245.373
65.4236
45.5924
38.1207
26.579
17.2713
11.7972
8.26666
5.85419
4.22358
3.12174
2.36914
1.84826
1.48286
1.22369
1.03887
0.907924
0.818415
0.761738
0.733962
0.733275
0.761001
0.820771
0.919218
1.06646
1.27587
1.56231
1.93983
2.40338
2.98918
3.05114e+07
3.62714e+07
2.18413e+07
2.57637e+07
2.74327e+07
2.31357e+07
1.63092e+07
9.41666e+06
6.03446e+06
4.10635e+06
3.16924e+06
2.18699e+06
1.04462e+06
464797
312648
152861
253131
163956
181094
135443
81237.6
28343.4
221162
169854
427823
579415
1.40787e+06
2.1771e+06
2.99087e+06
3.12592e+06
4.63598e+06
8.50305e+06
4.9564e+06
5.62839e+06
4.88296e+06
2.98737e+06
2.35978e+06
3.9313e+06
2.32903e+06
1.1392e+06
592889
74111.2
8334.35
1252.46
213.844
55.4974
41.1026
37.8147
26.9045
17.6023
11.9861
8.42177
5.96755
4.28807
3.16437
2.39816
1.86842
1.49653
1.23246
1.04377
0.909574
0.8165
0.756166
0.724157
0.71874
0.740468
0.792306
0.880542
1.01439
1.20575
1.47011
1.82087
2.26601
2.78554
3.40496
3.24351e+07
3.84184e+07
2.24837e+07
2.64301e+07
2.81362e+07
2.31567e+07
1.61509e+07
9.69883e+06
6.07216e+06
4.05432e+06
3.08322e+06
2.22512e+06
1.15395e+06
471130
166590
330789
72930.8
359086
146134
229535
30639.4
55378.4
188340
137407
649012
770415
1.70091e+06
2.66298e+06
3.51238e+06
3.73695e+06
4.11059e+06
8.14681e+06
6.193e+06
5.47844e+06
5.08166e+06
3.26757e+06
2.07521e+06
3.66447e+06
2.74283e+06
1.12427e+06
560235
68538.8
7493.24
1093.65
177.542
44.4359
36.8218
35.9322
27.1129
17.951
12.2141
8.51752
6.06005
4.35746
3.20334
2.42661
1.8899
1.51211
1.24301
1.04989
0.911762
0.815201
0.75166
0.715762
0.705771
0.721638
0.766305
0.844816
0.965787
1.14065
1.38397
1.70986
2.12754
2.63401
3.19082
3.81441
3.32881e+07
4.2108e+07
2.31787e+07
2.68093e+07
2.88057e+07
2.33535e+07
1.5887e+07
9.75959e+06
6.03014e+06
4.11748e+06
3.05658e+06
2.12402e+06
1.24908e+06
470952
297969
211737
223420
404879
111557
338451
62647
52942.8
60350.8
231832
860430
1.1044e+06