/*--------------------------------*- C++ -*----------------------------------*\
| =========                 |                                                 |
| \\      /  F ield         | OpenFOAM: The Open Source CFD Toolbox           |
|  \\    /   O peration     | Version:  v2012                                 |
|   \\  /    A nd           | Website:  www.openfoam.com                      |
|    \\/     M anipulation  |                                                 |
\*---------------------------------------------------------------------------*/
FoamFile
{
    version     2.0;
    format      ascii;
    class       volScalarField;
    location    "12000";
    object      Rew;
}
// * * * * * * * * * * * * * * * * * * * * * * * * * * * * * * * * * * * * * //

dimensions      [0 0 0 0 0 0 0];


internalField   nonuniform List<scalar> 
27324
(
111865
141497
291760
168256
361766
393314
204601
421669
477217
470711
247628
501775
547946
567161
615028
299215
596489
643053
654559
740704
936379
351366
712407
758219
773611
871647
1.13338e+06
1.46986e+06
397679
840024
898203
925075
1.04881e+06
1.38289e+06
1.87481e+06
2.39547e+06
411811
1.01855e+06
1.10633e+06
1.11625e+06
1.28138e+06
1.71978e+06
2.52069e+06
3.50872e+06
4.14271e+06
440053
1.05879e+06
1.43973e+06
1.44345e+06
1.58748e+06
2.15817e+06
3.47884e+06
5.18943e+06
5.74376e+06
4.39526e+06
525875
1.06189e+06
1.53124e+06
1.84549e+06
1.9409e+06
2.64394e+06
4.76372e+06
7.34843e+06
6.94661e+06
4.93823e+06
2.68895e+06
674081
1.04169e+06
1.42609e+06
1.99822e+06
2.33243e+06
2.87736e+06
5.76265e+06
9.42313e+06
7.91749e+06
4.80101e+06
2.89871e+06
1.2196e+06
760793
1.17196e+06
1.17085e+06
1.76176e+06
2.54699e+06
3.42436e+06
5.83975e+06
1.0321e+07
8.34815e+06
4.94102e+06
2.46966e+06
1.49565e+06
404466
827037
1.27532e+06
1.13628e+06
1.36547e+06
2.23962e+06
3.51945e+06
7.09704e+06
1.02482e+07
8.20048e+06
4.82373e+06
2.58425e+06
968441
598962
285280
950787
1.3546e+06
1.18405e+06
1.15339e+06
1.79816e+06
3.05281e+06
6.70801e+06
1.18562e+07
7.90035e+06
4.43242e+06
2.44925e+06
1.05379e+06
54173.5
77357.4
823537
1.00705e+06
1.47026e+06
1.23235e+06
1.13975e+06
1.43852e+06
2.6669e+06
5.13387e+06
1.16827e+07
1.07791e+07
4.6088e+06
1.98366e+06
948572
9231.48
438078
545469
803062
1.08567e+06
1.53035e+06
1.28906e+06
1.16747e+06
1.35518e+06
2.35963e+06
4.72799e+06
7.08315e+06
1.01569e+07
8.25601e+06
3.35842e+06
1.14602e+06
167905
542055
812870
202147
107993
1.143e+06
1.60846e+06
1.3389e+06
1.21992e+06
1.38524e+06
2.23931e+06
4.79968e+06
7.06576e+06
4.69272e+06
5.917e+06
5.90213e+06
3.4406e+06
555595
21754.2
864079
501646
84076.5
398193
1.18911e+06
1.67224e+06
1.40253e+06
1.28634e+06
1.45767e+06
2.30533e+06
4.66794e+06
7.59474e+06
6.20356e+06
1.37986e+06
2.35561e+06
3.54135e+06
3.99915e+06
1.98033e+06
1.18494e+06
1.12306e+06
1.14738e+06
2.45595e+06
524448
1.24002e+06
1.73696e+06
1.47386e+06
1.37073e+06
1.57006e+06
2.44846e+06
4.66981e+06
7.26967e+06
7.20112e+06
4.09171e+06
728440
60572.4
656989
2.32946e+06
3.12894e+06
2.68222e+06
2.02645e+06
1.3764e+06
1.15798e+06
1.03293e+06
1.30845e+06
1.81391e+06
1.56249e+06
1.4689e+06
1.69608e+06
2.65539e+06
4.8404e+06
6.82106e+06
7.07575e+06
5.11994e+06
2.58338e+06
1.34064e+06
902292
1.4837e+06
1.01235e+06
1608.25
147244
322568
1.52917e+06
3.40542e+06
1.7484e+06
1.38677e+06
1.90747e+06
1.66961e+06
1.58384e+06
1.8382e+06
2.85848e+06
5.10121e+06
6.72442e+06
6.40222e+06
5.78815e+06
3.17429e+06
1.06314e+06
599961
864120
1.60211e+06
1.68662e+06
1.49796e+06
1.46677e+06
1.35488e+06
1.07589e+06
2.78722e+06
766089
1.48976e+06
2.01546e+06
1.79124e+06
1.71367e+06
1.99244e+06
3.0884e+06
5.41082e+06
6.8592e+06
6.07564e+06
5.06058e+06
4.25905e+06
1.57343e+06
178704
17443.8
654580
835297
886177
784864
643585
312155
2465.52
64645.6
946214
1.63311e+06
2.14986e+06
1.93306e+06
1.85379e+06
2.15329e+06
3.32429e+06
5.77177e+06
7.08679e+06
6.11959e+06
4.50926e+06
4.05406e+06
1.97973e+06
1.00735e+06
42638.5
205969
208523
254472
199317
233552
168465
44145.1
108184
1.64948e+06
664894
1.82334e+06
2.31529e+06
2.08949e+06
2.00177e+06
2.31288e+06
3.57069e+06
6.17483e+06
7.3761e+06
6.05077e+06
4.43072e+06
3.36893e+06
2.8969e+06
46376.4
761304
507166
177284
49099
71752.3
72821.1
42529.3
29210.6
46827.4
43410.4
1.87298e+06
362410
2.03175e+06
2.49953e+06
2.25132e+06
2.14813e+06
2.46733e+06
3.81318e+06
6.62765e+06
7.69436e+06
6.09533e+06
4.34628e+06
3.23839e+06
2.19918e+06
1.95869e+06
1.0792e+06
285369
445871
31617.7
13785.6
5773.37
81049.6
102547
48005.7
7255.67
171249
745017
226288
2.29496e+06
2.71992e+06
2.42922e+06
2.30492e+06
2.62169e+06
4.05764e+06
7.05201e+06
8.00909e+06
6.09529e+06
4.41993e+06
3.23478e+06
1.85458e+06
1.56835e+06
980319
1.14671e+06
17447.9
76765.9
18934.6
21222.3
65332.2
145672
46530.4
53240.2
99083.3
243252
37684.1
142909
2.58867e+06
2.94717e+06
2.61779e+06
2.46146e+06
2.78558e+06
4.31205e+06
7.43837e+06
8.23042e+06
6.11501e+06
4.47635e+06
3.30224e+06
1.93319e+06
1.08524e+06
1.27352e+06
171249
497517
23177.2
120629
40836.3
74127
119306
104270
7198.14
82620.6
521090
193146
129494
141814
2.87432e+06
3.1817e+06
2.7864e+06
2.5961e+06
2.94656e+06
4.54911e+06
7.7865e+06
8.35994e+06
6.15516e+06
4.5712e+06
3.33019e+06
1.90308e+06
1.03251e+06
722994
917808
705463
39388.4
113322
33237.4
68326.9
111935
86925.3
29481.8
34289.7
242070
268857
328345
94307.6
151470
3.12066e+06
3.40307e+06
2.95514e+06
2.73041e+06
3.11903e+06
4.82639e+06
8.09818e+06
8.45057e+06
6.19947e+06
4.69012e+06
3.34735e+06
1.86603e+06
1.01153e+06
465652
697712
259786
600321
6981.47
128323
67948.3
105116
114061
39133.4
17262.2
12435.5
532734
266134
220407
85396.1
122314
3.389e+06
3.60769e+06
3.13012e+06
2.87746e+06
3.31889e+06
5.12573e+06
8.38201e+06
8.52831e+06
6.25714e+06
4.78112e+06
3.35977e+06
1.82181e+06
972352
442433
325366
729112
474289
193749
76605.6
74524.2
113406
111137
90997.5
16382
83142.7
495925
47696.9
280897
158729
54468.2
52328.2
3.6098e+06
3.7971e+06
3.32528e+06
3.04756e+06
3.54384e+06
5.44374e+06
8.67597e+06
8.52984e+06
6.29929e+06
4.84945e+06
3.32349e+06
1.80288e+06
942841
406689
236182
343748
483851
576436
38256.9
58125.3
99516.8
112605
108077
14533.3
5383.16
197013
334171
343124
184335
114683
11603.5
16459.9
3.80299e+06
3.95515e+06
3.50282e+06
3.2421e+06
3.78712e+06
5.76743e+06
8.92901e+06
8.61839e+06
6.3978e+06
4.88086e+06
3.27273e+06
1.76421e+06
941999
390158
201819
149965
498695
46170.8
275348
28407.7
80225
112385
124768
60742.8
84249
40619.6
571690
288840
242359
122834
48845
70694.7
49545.6
4.01706e+06
4.14271e+06
3.73158e+06
3.48331e+06
4.04555e+06
6.08559e+06
9.16321e+06
8.66009e+06
6.40539e+06
4.94315e+06
3.24796e+06
1.73711e+06
927563
407536
191628
87627.2
174829
558704
370088
118448
103144
118472
125838
87225
65055.9
73525.2
468723
46695.9
312501
148442
55381
19782.3
101744
19503.4
4.33493e+06
4.3806e+06
4.04111e+06
3.78428e+06
4.34794e+06
6.39961e+06
9.38564e+06
8.70246e+06
6.35104e+06
4.88371e+06
3.13978e+06
1.72896e+06
916174
407864
210955
67318.8
50065.8
357882
289525
403717
249984
129100
96335.4
115916
20246.7
41523.8
157269
317344
365291
184489
73485.3
14883.5
69447.8
30288.3
60086.5
4.81068e+06
4.70755e+06
4.40407e+06
4.10015e+06
4.64861e+06
6.7056e+06
9.58665e+06
8.70676e+06
6.28243e+06
4.84969e+06
3.07514e+06
1.71553e+06
902563
410404
222730
66297.2
9954.78
122575
520331
103616
321552
221617
57694.4
131064
28831.2
94394.2
70188.4
556966
323264
238381
92858.1
645.139
73089.6
11097.7
26765.6
29448.9
5.32572e+06
5.09062e+06
4.79239e+06
4.41362e+06
4.92519e+06
6.99675e+06
9.78562e+06
8.67953e+06
6.19348e+06
4.84598e+06
3.04323e+06
1.73087e+06
897635
412989
228622
74038.1
1080.19
57286.5
216424
520883
427317
195603
43141
133526
58165.9
62277.7
86528.4
486543
114705
306791
118473
11705.2
66832.9
23864.6
47252.4
17260.6
5469.43
5.98707e+06
5.56317e+06
5.18702e+06
4.69593e+06
5.2033e+06
7.31664e+06
1.00099e+07
8.66309e+06
6.13519e+06
4.86096e+06
3.04787e+06
1.73071e+06
889553
413746
237275
68841.7
1323.59
55492.3
10067.4
670813
190182
353079
160173
92037.9
104907
23503.6
48920.8
196015
221167
365602
155204
23690.2
56870.1
31466.2
36305.8
34834.2
933.464
288.15
6.78084e+06
6.07293e+06
5.62026e+06
4.9903e+06
5.50248e+06
7.6686e+06
1.02498e+07
8.61732e+06
6.12688e+06
4.8809e+06
3.06329e+06
1.75061e+06
859242
419551
239352
70625.9
8591.42
51886.5
52506.2
297880
542039
569061
251612
34131.8
134939
28784.3
111140
49867.2
490729
358668
205458
42560.2
42131.8
42057.2
33795.9
34571.3
7408.84
2773.56
203.672
7.46966e+06
6.6102e+06
5.97208e+06
5.22582e+06
5.80667e+06
8.09038e+06
1.05145e+07
8.6109e+06
6.13799e+06
4.89637e+06
3.06473e+06
1.75337e+06
850042
417692
234571
71960.8
11151.7
65275.7
44743.2
59357.6
735487
322872
330495
42764.1
141226
72124.5
89839.8
100079
500913
220170
267467
70815.8
33221.5
54019.8
28260.8
37789.8
8891.56
206.598
818.505
228.489
8.09676e+06
7.07503e+06
6.2859e+06
5.43328e+06
6.14656e+06
8.51876e+06
1.07711e+07
8.65278e+06
6.22481e+06
4.93818e+06
3.07203e+06
1.73652e+06
830625
442710
227778
70109.5
14465.2
55429.8
32321.5
33100.5
319482
412319
510274
215673
86790.9
119512
43086.2
14492.1
266296
55740.5
329523
107411
25789.1
64948.6
23249.5
39739.1
11762.8
748.771
136.897
42.1527
132.439
8.61552e+06
7.53054e+06
6.60155e+06
5.70298e+06
6.53134e+06
9.01812e+06
1.10158e+07
8.71926e+06
6.29376e+06
4.94094e+06
3.05155e+06
1.73169e+06
794188
460011
248290
65225.8
18427.1
65388.5
33553.9
40748.3
11796.4
830870
493144
365908
35616.6
139019
9372
126438
4475.88
349953
357468
153410
11596.2
74779.8
19364
42947.7
14464
380.204
443.427
176.234
65.7455
61.0768
8.99893e+06
7.94821e+06
6.9644e+06
6.02541e+06
6.9568e+06
9.53814e+06
1.11171e+07
8.7827e+06
6.34205e+06
4.88829e+06
3.07916e+06
1.71916e+06
777643
456723
257487
87145.5
24861.4
61886.2
38225.7
58511.5
6952.68
468524
164815
565702
97822.5
108924
61720.8
111369
121637
478959
297973
208262
8568.35
82463.1
13339.8
46634.9
17248.5
205.102
533.276
126.248
139.821
44.0688
28.1542
9.3674e+06
8.28873e+06
7.364e+06
6.38594e+06
7.38209e+06
9.99089e+06
1.12934e+07
8.83798e+06
6.36095e+06
4.81245e+06
3.05333e+06
1.71811e+06
766757
464538
248070
104779
24037.6
59564.2
34170.8
44335.5
37652
439.487
848692
623162
239215
30097.6
117940
52816
51082.7
361288
114434
266888
34942.3
85438.6
3561.11
50871.8
20208.6
92.8189
747.015
139.762
142.589
69.6579
22.0992
21.7595
9.96494e+06
8.81387e+06
7.86251e+06
6.78348e+06
7.79616e+06
1.04148e+07
1.14103e+07
8.84442e+06
6.376e+06
4.77369e+06
3.05708e+06
1.70464e+06
774645
467270
240382
103870
25484.9
60963.1
22994.5
32133.7
40185.6
127080
843547
361746
387478
15779.3
162659
9615.29
101368
108003
151936
312003
66104.2
80678.6
9444.72
54820.2
23752.8
502.548
1007.43
125.28
164.805
75.6914
30.2286
17.0836
28.9932
1.08101e+07
9.4706e+06
8.521e+06
7.28449e+06
8.22108e+06
1.08232e+07
1.15433e+07
8.79914e+06
6.29667e+06
4.60944e+06
3.08425e+06
1.70698e+06
770663
479801
256722
120587
33211.7
65232.6
10914.4
23288.1
29418
65297.3
287477
429157
567173
122208
138974
51856.8
117969
87347.7
365031
306018
107648
64216.1
24824.6
57047.8
28137.3
1241.93
1377.59
109.272
183.33
88.2114
32.4022
19.1217
25.7565
33.2056
1.16338e+07
1.02268e+07
9.09375e+06
7.67662e+06
8.66456e+06
1.123e+07
1.16916e+07
8.76008e+06
6.26434e+06
4.54382e+06
3.10744e+06
1.71825e+06
769370
464783
257554
131079
34413.1
61051.1
911.563
10487.9
26807.5
10260.9
83208.9
930467
558949
285697
44752.5
111014
71169
113222
390825
213873
158573
32932.9
39769.6
56035.7
33619.4
2257.57
1877.68
76.9131
205.505
100.902
36.8052
18.6366
25.8744
32.2059
26.9569
1.28017e+07
1.1012e+07
9.56024e+06
8.03416e+06
9.06183e+06
1.16652e+07
1.18573e+07
8.73509e+06
6.27182e+06
4.51406e+06
3.13405e+06
1.72735e+06
783524
453605
245573
142788
33055.3
45401.2
5072.56
12383.5
19688.2
12475.1
125536
696953
99758.8
464014
28552.7
172089
35776.4
3011.93
224591
37261
232352
9951.67
58059.6
50474.3
40085.5
4018.04
2551.87
18.4495
229.488
116.345
41.5778
19.0062
24.7836
32.6165
27.2647
18.2778
1.35941e+07
1.18476e+07
9.97952e+06
8.38633e+06
9.5639e+06
1.21431e+07
1.19844e+07
8.74345e+06
6.28983e+06
4.4975e+06
3.13767e+06
1.71746e+06
798807
464418
230247
148951
29973.4
28576.2
21204.1
11475.1
10874.7
20656.4
44963.2
144662
673160
619218
69831.8
171361
26134
107240
9802.22
173803
265102
48877.3
70327.4
40075.2
47182.6
6708.4
3403.38
86.0236
256.589
133.761
47.4847
19.5381
23.9
32.4498
28.069
18.7076
12.358
1.41549e+07
1.24484e+07
1.01591e+07
8.71595e+06
1.01271e+07
1.26556e+07
1.22073e+07
8.73627e+06
6.30412e+06
4.47897e+06
3.13379e+06
1.70786e+06
796152
471161
226609
153187
31694.1
17115.2
12013.1
8593.57
15642.4
20957.8
1202.71
133375
1.0709e+06
588348
322220
94332.1
73665.5
89001.2
161189
329964
240796
85223.7
84935.2
26441.6
54481.8
10590.3
4364.82
265.973
286.548
154.019
54.5967
20.4478
22.9321
32.3096
28.637
19.3384
12.6396
8.70938
1.46124e+07
1.30356e+07
1.04075e+07
9.12052e+06
1.07861e+07
1.31634e+07
1.23797e+07
8.84752e+06
6.34108e+06
4.46446e+06
3.10486e+06
1.70851e+06
822753
451764
216552
163137
38617.4
8227.11
26623.9
2089.94
23131.8
36341.5
15599.2
114539
743953
147587
434215
7683.34
134098
30352.8
146150
343289
151911
110478
73922.3
14142.9
60242.1
15525.9
5251.06
546.695
317.361
176.917
63.2844
21.7082
21.9868
32.0511
29.247
19.8632
13.0263
8.90163
6.32013
1.48766e+07
1.35721e+07
1.07996e+07
9.61185e+06
1.14904e+07
1.36438e+07
1.25563e+07
8.9254e+06
6.37003e+06
4.44139e+06
3.0652e+06
1.70939e+06
849274
466535
199545
166001
40108.4
1592.65
38190.6
5857.84
28870.4
33687
23630.2
29871.1
159488
567419
549188
15052.1
175735
5919.24
26601.8
209925
226.613
129776
39937.8
441.5
62861.3
21365.4
5807.65
964.654
345.391
203.792
73.6305
23.271
21.0706
31.7047
29.8291
20.4354
13.3428
9.15098
6.45965
4.68091
1.57136e+07
1.42408e+07
1.12311e+07
1.01308e+07
1.21532e+07
1.39841e+07
1.25653e+07
8.99897e+06
6.33982e+06
4.45559e+06
3.0301e+06
1.6961e+06
881655
481803
195433
162578
40948.6
4516.85
43326.7
12246.6
39261.2
28572.2
13210.6
25724.5
164832
998445
558279
243529
155298
58877.9
13999
23546.4
166429
149265
15357.5
9103.9
60748.5
27614.8
5756.81
1494.4
359.423
233.883
85.9145
25.3786
20.2025
31.2631
30.3974
21.0199
13.6915
9.35082
6.62756
4.78585
3.53313
1.67873e+07
1.53275e+07
1.19531e+07
1.07046e+07
1.27787e+07
1.43238e+07
1.26478e+07
9.06697e+06
6.32446e+06
4.42322e+06
3.00569e+06
1.71179e+06
898434
489600
195974
156129
29173.5
14150.2
55450.2
13345.3
39776.9
10408
16987.2
3601.45
173004
771919
147472
418414
67707.4
86665.7
15007.2
118157
253954
125858
90514.5
19961.2
53893.7
33920.3
4817.67
2127.86
350.063
267.176
100.516
28.0127
19.3795
30.7551
30.9381
21.6254
14.049
9.57162
6.7623
4.89915
3.61421
2.72205
1.76424e+07
1.64313e+07
1.26268e+07
1.13403e+07
1.34243e+07
1.46529e+07
1.27037e+07
9.13542e+06
6.29361e+06
4.40965e+06
2.95836e+06
1.75218e+06
952560
486919
196505
143015
26637.4
726.085
56385.4
17150.3
32576.3
179.891
33511.5
9584.93
79425.6
251996
486120
556161
4475.84
139352
12717.9
162663
259078
67460.4
131257
41247.4
45500.3
39923.8
2959.35
2758.98
312.669
301.88
117.92
31.3351
18.6297
30.1653
31.4396
22.2489
14.4217
9.79682
6.91053
4.99207
3.68952
2.78602
2.1453
1.85128e+07
1.74143e+07
1.31418e+07
1.18849e+07
1.40393e+07
1.50282e+07
1.28133e+07
9.20332e+06
6.26465e+06
4.40626e+06
2.92833e+06
1.74323e+06
983679
521206
193242
129043
17297.2
14779.5
64044.2
21058
27283.7
6094.87
35249.8
3760.34
8982.66
111964
986664
585185
123883
184627
36467.9
135281
204863
66093.1
119184
22737.1
31193
45054.1
332.183
3309.12
247.085
334.717
138.419
35.4562
17.9406
29.5056
31.8998
22.8869
14.8095
10.0315
7.06258
5.09388
3.75337
2.83427
2.19618
1.73291
1.89213e+07
1.83475e+07
1.37657e+07
1.24862e+07
1.46764e+07
1.53612e+07
1.29595e+07
9.29952e+06
6.27835e+06
4.36396e+06
2.92549e+06
1.75274e+06
980723
544517
197012
120561
3438.56
21908.5
49920.5
24782.4
25104.8
14277.9
12035.5
19295.7
13660.8
181899
923110
307154
415196
200343
39238.2
156681
120105
185803
90709.9
7355.96
25292.5
48001.8
2759.24
3700.28
170.563
362.128
162.027
40.5188
17.341
28.7774
32.3116
23.5325
15.2132
10.2752
7.22087
5.19803
3.82294
2.87819
2.22566
1.7735
1.43741
1.92863e+07
1.9044e+07
1.42865e+07
1.32028e+07
1.54007e+07
1.57887e+07
1.31331e+07
9.37226e+06
6.27673e+06
4.33259e+06
2.87842e+06
1.79921e+06
990065
541994
199677
99873.2
1729.34
20881
33890.5
21248.1
34475.4
22773.7
6296.98
27612.7
16672.7
109240
464181
201740
539462
157986
27207.5
211202
30873.9
241598
57010.9
77571.6
23380
47454.1
5827.23
3939.92
116.486
381.863
188.138
46.7924
16.8454
27.9849
32.6747
24.184
15.6322
10.5279
7.38506
5.30701
3.89467
2.92501
2.25544
1.79022
1.46947
1.2258
1.99179e+07
1.98353e+07
1.48734e+07
1.39265e+07
1.60139e+07
1.61975e+07
1.33814e+07
9.52079e+06
6.27485e+06
4.28077e+06
2.88452e+06
1.79537e+06
1.03393e+06
542274
197902
88176.8
11923.2
27212.8
30486.5
26401.7
33527.4
7605.36
9770.47
32592.2
2436.98
28966.3
23369.1
697557
539127
139266
54378.7
174732
2828.05
226205
29061.4
148015
23518.3
43272.4
8598.03
4068.69
122.97
395.483
215.859
54.3878
16.4761
27.1207
32.9768
24.8375
16.0673
10.7907
7.55532
5.41988
3.96942
2.97401
2.28698
1.80961
1.47694
1.25046
1.07565
2.08764e+07
2.08713e+07
1.55334e+07
1.4704e+07
1.66429e+07
1.64899e+07
1.35848e+07
9.60787e+06
6.25256e+06
4.2334e+06
2.88303e+06
1.84145e+06
1.02802e+06
564025
190736
70258.8
7405.48
38844.2
42023.9
33227.6
21202.3
9640.7
9137.59
23454.7
21438.5
20658.4
180878
891727
442197
296342
96496.7
110603
72983.4
183219
118343
180619
11626.3
37474
10716.1
4121.31
211.065
410.852
243.787
63.3162
16.3231
26.1784
33.2145
25.4882
16.5178
11.0637
7.73232
5.53752
4.04704
3.0248
2.31955
1.8302
1.48898
1.2512
1.09378
0.972281
2.19383e+07
2.20362e+07
1.62489e+07
1.54714e+07
1.72749e+07
1.67997e+07
1.38502e+07
9.68754e+06
6.22427e+06
4.186e+06
2.87419e+06
1.88322e+06
1.05436e+06
565437
196240
45257.7
2579.94
23356.9
22005.8
27297.4
19435.3
16628.1
8173.12
8366.29
43105.6
13435
180517
666002
70035.9
439849
128727
52139.1
155283
133012
229617
135005
43412.9
33170.6
11779.5
4143.6
377.428
436.817
271.124
73.4717
16.4325
25.1565
33.3806
26.1329
16.9851
11.3471
7.91657
5.65969
4.12776
3.07796
2.35385
1.85151
1.50137
1.25746
1.08939
0.983946
0.905792
2.30681e+07
2.32187e+07
1.68593e+07
1.62319e+07
1.7929e+07
1.71194e+07
1.41361e+07
9.77422e+06
6.20857e+06
4.14583e+06
2.91306e+06
1.91728e+06
1.08447e+06
568543
189499
38384.6
2549.84
14245.4
32415.7
20966.2
13461.3
24945.5
3400.34
6353.69
53068.8
138.255
99423.6
269874
402760
446752
161693
32956.3
218682
95884.4
299378
70487.7
89336.9
33664.6
11015.6
4321.44
619.039
482.191
298.663
84.5627
16.8478
24.0601
33.4601
26.768
17.4696
11.6414
8.10746
5.78657
4.212
3.13325
2.38979
1.87433
1.51469
1.26386
1.09112
0.975438
0.910514
0.869393
2.3765e+07
2.44734e+07
1.73652e+07
1.69975e+07
1.85226e+07
1.74536e+07
1.44194e+07
9.85247e+06
6.08952e+06
4.11946e+06
2.91852e+06
1.9868e+06
1.09558e+06
570840
187080
22294.2
557.614
18651.9
39509.1
25983.4
17503.3
25922.3
14431.7
14326.6
42311.1
470.27
27548
43733
695084
422135
305806
21971.9
200002
56878
296996
27454.9
166580
39919
7626.69
4824.11
878.126
552.432
328.126
96.4443
17.5079
22.9169
33.4447
27.3873
17.9704
11.947
8.30613
5.91835
4.29912
3.19073
2.42737
1.8981
1.52903
1.27119
1.09262
0.973302
0.898577
0.867501
0.859742
2.44521e+07
2.55642e+07
1.78623e+07
1.76852e+07
1.91406e+07
1.78215e+07
1.46959e+07
9.9244e+06
5.95361e+06
4.08913e+06
2.91923e+06
2.02746e+06
1.15227e+06
553517
193567
12794
13228.7
13797.5
35409.3
25721.9
1268.42
34260.2
21625.8
30732.6
16688.8
15897.6
9896.58
173787
697668
288252
575218
1861.26
197559
13255.8
252063
78685.9
226976
44801.3
1809.56
5727.62
1164.84
644.283
360.904
108.759
18.2028
21.7566
33.3191
27.9866
18.4878
12.2639
8.51259
6.05582
4.39027
3.25065
2.46654
1.92318
1.54427
1.2793
1.09522
0.970738
0.892481
0.852084
0.850615
0.875658
2.5324e+07
2.67346e+07
1.84436e+07
1.82735e+07
1.97015e+07
1.82461e+07
1.50676e+07
9.97038e+06
5.83425e+06
4.08668e+06
2.93012e+06
2.07049e+06
1.17152e+06
543370
203257
2708.99
2342.44
1697.02
50475.8
17583.7
965.081
16505.2
14765.3
16563.6
1927.44
32128.7
18795.5
174907
470365
22785.9
480375
14055.3
169386
92154.9
181363
168643
212616
33866.5
3649.87
7100.4
1460.97
752.389
398.548
121.632
18.9347
20.593
33.086
28.5564
19.0201
12.5927
8.72738
6.19856
4.48513
3.31305
2.50738
1.94947
1.56056
1.28827
1.09856
0.969241
0.886432
0.841949
0.831385
0.858132
0.917053
2.6115e+07
2.80319e+07
1.90746e+07
1.88191e+07
2.01502e+07
1.87953e+07
1.54015e+07
9.99204e+06
5.70472e+06
4.106e+06
2.95381e+06
2.11627e+06
1.18529e+06
520171
203150
4964.82
384.35
15450.8
46513.4
19664.5
14071.3
598.371
8852.59
11215.6
3509.74
34907.9
966.214
134968
174594
385634
318727
87413.2
159823
124886
155757
261457
152186
87323.5
5297.36
9117.13
1736.31
872.989
438.676
135.368
19.585
19.4001
32.7703
29.0845
19.5679
12.934
8.95088
6.3476
4.5837
3.37799
2.54991
1.97702
1.57769
1.29807
1.10274
0.968641
0.881305
0.832019
0.817031
0.834359
0.890094
0.986383
2.6395e+07
2.91802e+07
1.9621e+07
1.92964e+07
2.05794e+07
1.94806e+07
1.56907e+07
9.93813e+06
5.61006e+06
4.12354e+06
2.97802e+06
2.14421e+06
1.20965e+06
495542
207576
25914
4873.16
13328.5
32041.3
29848.4
5619.01
282.734
6430.08
19460
5295.81
34103.4
18846.9
94172.1
43274.6
643866
264404
328439
141271
131108
113010
287197
93624.8
149281
919.182
12387.9
1892.57
999.255
480.748
149.483
20.1452
18.1477
32.3676
29.5596
20.1268
13.2874
9.18319
6.50281
4.6865
3.44587
2.59431
2.0059
1.59594
1.30865
1.10756
0.968667
0.877016
0.823367
0.803109
0.815096
0.860734
0.947707
1.08683
2.63183e+07
2.98854e+07
1.98801e+07
1.97591e+07
2.1041e+07
2.01751e+07
1.59786e+07
9.78711e+06
5.54201e+06
4.17591e+06
3.00301e+06
2.16994e+06
1.20303e+06
471764
211517
21603.2
5687.17
23238.1
27902.3
34320
15781.5
3870.3
103.064
22846.2
4184.62
32037.6
27570.5
72584.8
132578
618279
161603
550081
122346
102924
65875.2
248794
24251.3
221884
6843.99
17483.7
1841.07
1130.19
523.071
163.35
20.7724
16.8049
31.8774
29.981
20.6875
13.6539
9.42477
6.66439
4.79361
3.51616
2.64058
2.03599
1.61513
1.32017
1.11314
0.96933
0.873383
0.815591
0.790641
0.796844
0.83574
0.911872
1.03422
1.22264
2.63429e+07
3.02353e+07
1.99605e+07
2.02868e+07
2.16127e+07
2.09615e+07
1.62092e+07
9.59008e+06
5.54922e+06
4.22472e+06
3.05936e+06
2.1868e+06
1.20311e+06
440581
204980
17897.5
2436.14
30170.9
33900.8
23775.3
47308.3
2977.17
13891.9
20241.2
2673.16
32786.6
24874
66059.1
134275
398527
8843.9
644080
98988.3
83214.8
10326
197366
78497.7
244072
6863.48
23059.6
1685.19
1254.04
564.372
176.031
21.4361
15.3991
31.2859
30.3485
21.2427
14.0332
9.67608
6.83284
4.90515
3.58962
2.68859
2.06736
1.63516
1.33244
1.11945
0.971059
0.870703
0.80861
0.779038
0.779948
0.812039
0.879672
0.989904
1.15358
1.39951
2.65757e+07
3.04635e+07
1.9995e+07
2.08991e+07
2.23526e+07
2.17438e+07
1.63513e+07
9.4534e+06
5.60335e+06
4.27135e+06
3.09038e+06
2.21057e+06
1.20421e+06
433824
207321
15883.9
6592.35
24165.3
22764.6
35549.2
57751.7
18002.2
23682
32308.7
21343.6
40765.8
23150.7
48473.8
124513
157541
309853
547536
31848.6
68850.8
53102.5
136986
169112
216070
11604.3
26014
1613.78
1347.67
602.384
186.559
22.14
13.9772
30.5712
30.6599
21.7872
14.4226
9.9379
7.00794
5.02128
3.66602
2.73861
2.10022
1.65647
1.34552
1.12664
0.973355
0.868868
0.802703
0.768777
0.764373
0.790198
0.849557
0.948859
1.09839
1.31058
1.62289
2.68315e+07
3.08964e+07
2.00173e+07
2.17717e+07
2.32541e+07
2.23439e+07
1.6406e+07
9.32454e+06
5.71704e+06
4.27001e+06
3.11036e+06
2.20771e+06
1.19155e+06
434353
210696
4196.2
8757.89
18978
20735.5
18355.1
51555.2
201.255
18376.8
16451.1
29587.8
61196.9
32071.7
43021.6
153009
8901.12
474797
302608
105651
60858.9
68568.4
106805
202771
164073
67497.6
24053.8
1525.99
1384.79
631.788
194.544
22.7931
12.6174
29.7255
30.9071
22.3205
14.8194
10.2092
7.18937
5.14167
3.74523
2.79097
2.13438
1.6789
1.35949
1.13462
0.976475
0.867741
0.797531
0.759453
0.750282
0.770041
0.821618
0.9107
1.04665
1.24286
1.51088
1.89623
2.74043e+07
3.14382e+07
2.0197e+07
2.29174e+07
2.43142e+07
2.28057e+07
1.64355e+07
9.22235e+06
5.86717e+06
4.27694e+06
3.12116e+06
2.19625e+06
1.16954e+06
433893
211778
3885.58
13430.4
23218.2
19688.9
5939.95
40845.8
28995.4
11951.9
11313.3
9471.13
24406.7
47945.5
58906.6
191315
47349.3
517204
64469.2
420708
57746.9
55978.9
94833.4
204870
93935.2
127896
18198.7
811.739
1324.81
645.219
200.15
23.3173
11.3464
28.7754
31.0645
22.8401
15.2173
10.4879
7.37652
5.26539
3.827
2.84491
2.16999
1.70225
1.37443
1.1432
0.980222
0.867444
0.793365
0.751006
0.737177
0.75118
0.795574
0.875224
0.998629
1.17768
1.4279
1.75924
2.21944
2.8609e+07
3.23973e+07
2.03883e+07
2.40578e+07
2.54411e+07
2.30876e+07
1.63692e+07
9.24467e+06
5.97698e+06
4.26004e+06
3.14001e+06
2.17094e+06
1.15359e+06
452546
192760
5891.3
7031.39
18534.6
25522.5
15460.1
40029.2
22876.8
7488.6
18005.4
3090.59
6714.79
58088.8
70610.1
166991
73383
370505
89174.8
641099
51208.2
28025.5
28230.4
156143
1063.06
163112
15965.8
759.474
1174.67
638.329
204.462
23.7331
10.1704
27.7973
31.1255
23.3488
15.6237
10.7707
7.56962
5.39319
3.91179
2.9011
2.20751
1.72679
1.39036
1.15262
0.98486
0.867923
0.789989
0.7437
0.725332
0.734076
0.771504
0.84223
0.953992
1.11754
1.34703
1.65848
2.05699
2.58746
2.95781e+07
3.4519e+07
2.07787e+07
2.50168e+07
2.64781e+07
2.31067e+07
1.63213e+07
9.28902e+06
6.04957e+06
4.2164e+06
3.13297e+06
2.17585e+06
1.14162e+06
476060
184459
5503.54
5985.15
25604.9
40515
24114.9
46140.9
22229
751.95
23810
26891.2
10486.4
71812.3
78152.7
122901
78315.2
227712
247132
732875
27088.9
1929.94
18777
110667
79810.4
167299
11196.1
2131.04
1007.67
615.439
208.449
24.2931
8.99354
26.988
31.1915
23.8456
16.0479
11.0536
7.76771
5.52616
3.99655
2.95516
2.24262
1.75009
1.40575
1.1626
0.990211
0.869105
0.787497
0.73722
0.714669
0.718242
0.749421
0.811945
0.912558
1.06148
1.27216
1.55956
1.93797
2.4016
2.9882
3.05568e+07
3.62645e+07
2.17946e+07
2.57936e+07
2.74812e+07
2.31279e+07
1.62702e+07
9.40249e+06
6.08304e+06
4.14653e+06
3.12878e+06
2.16506e+06
1.13865e+06
504393
180350
5386.14
11837.2
26249.8
36906.4
26026.3
53015.5
28312.8
24946.7
21392.6
44996.4
17171.9
87600.1
72297
87216.1
134133
135495
433559
537191
21665.5
32402.5
68279.4
75223.3
146469
149503
16471.6
1877.46
895.066
596.272
213.888
24.9979
7.98581
25.5582
31.5626
24.3181
16.4802
11.3426
7.96064
5.65204
4.07566
3.0081
2.27753
1.77326
1.42086
1.17203
0.995479
0.870979
0.785752
0.731797
0.704985
0.703802
0.728961
0.783539
0.87393
1.00945
1.20208
1.46739
1.81886
2.26468
2.78425
3.4042
3.22407e+07
3.8548e+07
2.24695e+07
2.63679e+07
2.81849e+07
2.32229e+07
1.61373e+07
9.6504e+06
6.06131e+06
4.1149e+06
3.11728e+06
2.16179e+06
1.16499e+06
508225
165160
22847.9
27026.8
27338.7
43472.5
26354.3
47537.1
20434.4
33588.7
45587.8
61697.8
36209.2
88429.3
59722.4
54461.6
144644
79375.1
448194
253540
162675
56496.1
106159
69482.1
146495
113883
61682.1
466.878
842.756
595.838
218.001
25.7744
7.07256
24.8366
30.8908
24.8021
16.873
11.6418
8.13981
5.77483
4.15648
3.05744
2.31248
1.79819
1.43805
1.18329
1.00191
0.873336
0.784568
0.727365
0.696652
0.690884
0.710165
0.75757
0.838235
0.960873
1.13701
1.38128
1.70787
2.12608
2.63307
3.18987
3.81382
3.32657e+07
4.20017e+07
2.3378e+07
2.67849e+07
2.872e+07
2.34261e+07
1.59714e+07
9.73682e+06
5.96865e+06
4.11291e+06
3.1281e+06
2.13252e+06
1.17524e+06
551691
160101
13209.9
28415.8
36547.9
50304.9
33985.9
57873.2
4266.62
7285.55
5597.26
102918
62727.2
89286.2
39623.5
17551.1
98876.3
61333.1
409945
32186.8
446044
80045.1
105194
78951.4
102892
32858.2
79978.4
1771.55
777.526
604.376
217.627
26.0805
6.19613
23.5502
30.8453
25.066
17.1088
11.9017
8.32313
5.88106
4.23546
3.11308
2.34982
1.82268
1.45496
1.19457
1.00884
0.87671
0.784429
0.723486
0.689195
0.679043
0.693068
0.733591
0.805427
0.916124
1.07668
1.30066
1.60322
1.99565
2.47703
3.03058
3.59897
4.19752
3.60126e+07
4.29904e+07
2.46825e+07
2.67017e+07
2.87907e+07
2.38601e+07
1.58892e+07
9.77912e+06
5.86372e+06
4.13117e+06
3.17509e+06
2.13588e+06
1.17982e+06
540832
124853
32204.4
23150.8
38726.5
72423.8
22660.4
77418.3
18827.9
27771.4
5772.83
101870
86110.6
76330.6
16029.8
13233
50824.9
38728.3
299802
104635
629616
93864.6
82528.2
23336.7
55172
61179
89013.2
1219.88
577.003
590.824
213.907
24.6021
5.34138
22.7057
30.6486
25.3092
17.6267
12.0835
8.5027
5.9747
4.3064
3.16971
2.38432
1.8469
1.47122
1.20587
1.01634
0.880614
0.785116
0.720806
0.682713
0.668429
0.677355
0.711534
0.775006
0.87481
1.02068
1.22579
1.50508
1.87117
2.32858
2.86186
3.43865
3.99103
4.54097
3.11607e+07
4.53445e+07
2.51412e+07
2.6856e+07
2.84028e+07
2.39968e+07
1.56865e+07
9.80421e+06
5.84e+06
4.19811e+06
3.22045e+06
2.15478e+06
1.18989e+06
549549
186670
40092.3
12600.9
49048.9
90318.4
39986.3
30977.4
20862.6
38903.2
36724.6
88882.7
98176
59463.7
8520.08
38704.8
24877.6
89717.4
174826
194799
621013
127106
48773.2
21905.9
7572.26
101496
88661.3
8125.71
998.155
583.757
213.024
24.2519
4.62281
21.5974
30.3595
25.6572
17.8692
12.4051
8.62356
6.12793
4.35639
3.21695
2.42088
1.86942
1.48737
1.2167
1.02345
0.884851
0.786314
0.719095
0.677557
0.659226
0.663359
0.691564
0.747191
0.836584
0.968758
1.15622
1.41318
1.75382
2.18518
2.69888
3.26504
3.83787
4.35077
4.83738
6.04514e+07
1.82617e+07
2.7556e+07
2.87238e+07
2.84263e+07
2.40881e+07
1.57279e+07
9.72389e+06
5.87736e+06
4.32814e+06
3.24918e+06
2.16177e+06
1.19088e+06
505520
171557
18184.9
20303.2
48042.5
79080.6
13303.5
25078.4
22746.4
51055.4
45518.9
105125
89724.8
29701.4
30856.1
54768.6
9042.71
134896
73974.6
382620
414795
130446
14630.1
88858.4
10088.4
177225
93170
25325.3
1117.56
633.044
220.897
24.3089
3.61677
20.9137
30.0167
25.8117
18.2007
12.5867
8.80984
6.19328
4.47995
3.23285
2.45439
1.89209
1.50217
1.22701
1.03041
0.888924
0.787842
0.717888
0.673266
0.651236
0.650979
0.673258
0.721669
0.801263
0.920726
1.09126
1.32733
1.64304
2.04813
2.53988
3.09392
3.66718
4.2109
4.66806
5.088
2.50785e+07
7.20345e+07
3.25724e+07
3.16856e+07
2.9815e+07
2.46479e+07
1.59176e+07
9.77479e+06
6.09663e+06
4.4043e+06
3.24304e+06
2.16005e+06
1.20085e+06
505249
122096
9013.31
11353
58215.5
55850.8
51627.8
24776.9
6352.49
12064.8
79305.2
121539
68173.2
1282.95
48305.5
62133.6
3572.7
152218
25710.3
471922
163683
3259.96
53483.8
124323
9136.07
166255