/*--------------------------------*- C++ -*----------------------------------*\
| =========                 |                                                 |
| \\      /  F ield         | OpenFOAM: The Open Source CFD Toolbox           |
|  \\    /   O peration     | Version:  v2012                                 |
|   \\  /    A nd           | Website:  www.openfoam.com                      |
|    \\/     M anipulation  |                                                 |
\*---------------------------------------------------------------------------*/
FoamFile
{
    version     2.0;
    format      ascii;
    class       volScalarField;
    location    "12000";
    object      rho;
}
// * * * * * * * * * * * * * * * * * * * * * * * * * * * * * * * * * * * * * //

dimensions      [1 -3 0 0 0 0 0];


internalField   nonuniform List<scalar> 
27324
(
1.15641
1.19056
1.1613
1.20643
1.19646
1.17157
1.22064
1.21304
1.2087
1.18714
1.22921
1.22809
1.22656
1.22699
1.20856
1.23077
1.2377
1.24312
1.24666
1.25182
1.23515
1.22664
1.24012
1.25443
1.26528
1.27361
1.28028
1.25777
1.2056
1.23666
1.25846
1.27878
1.29426
1.30266
1.30167
1.2708
1.10734
1.21583
1.2565
1.28463
1.30956
1.32313
1.32325
1.31351
1.2779
0.922509
1.11678
1.23735
1.28529
1.3164
1.33826
1.34236
1.3348
1.32001
1.28215
0.739498
0.929965
1.1342
1.26667
1.318
1.34478
1.3566
1.35302
1.34159
1.32329
1.28475
0.629371
0.745137
0.943281
1.15723
1.29643
1.3438
1.36284
1.36689
1.35924
1.34539
1.3242
1.28609
0.608315
0.633621
0.754503
0.961288
1.1813
1.31656
1.3586
1.37352
1.3729
1.36242
1.34699
1.32274
1.28645
0.604297
0.61202
0.640633
0.768071
0.982264
1.1958
1.32574
1.36702
1.38019
1.37538
1.36335
1.34638
1.31949
1.2875
0.603558
0.607934
0.618178
0.650533
0.786519
1.00038
1.19733
1.32317
1.36935
1.38286
1.37522
1.36248
1.34362
1.31633
1.28791
0.605465
0.607439
0.614035
0.626519
0.664082
0.808771
1.01032
1.18696
1.30902
1.36414
1.38157
1.37251
1.35969
1.33836
1.31034
1.29262
0.607401
0.609348
0.613625
0.622174
0.637472
0.682788
0.830293
1.01299
1.16651
1.28197
1.34872
1.37482
1.36636
1.3539
1.3269
1.30938
1.29211
0.610028
0.611446
0.615657
0.621834
0.632671
0.65203
0.704601
0.849557
1.01094
1.13543
1.23926
1.31684
1.35633
1.35423
1.34182
1.31406
1.29988
1.29191
0.612864
0.614229
0.617903
0.623974
0.632329
0.646378
0.668302
0.725811
0.869433
1.00465
1.09708
1.18064
1.25945
1.31067
1.32093
1.3174
1.27578
1.29983
1.25496
0.615441
0.617188
0.620827
0.626424
0.634636
0.645869
0.661201
0.681816
0.749269
0.890165
0.996893
1.0573
1.11243
1.17369
1.22133
1.23917
1.23364
1.21837
1.18203
1.20019
0.616955
0.619865
0.623945
0.629527
0.637296
0.648346
0.66045
0.672478
0.693629
0.778302
0.912121
0.990082
1.02294
1.04885
1.07593
1.09565
1.09779
1.08387
1.05833
1.02625
1.05515
0.617737
0.621554
0.626794
0.632879
0.640581
0.651196
0.662885
0.671357
0.680527
0.707447
0.814695
0.932861
0.984765
0.99952
1.00649
1.00887
1.0024
0.986035
0.966055
0.947875
0.935358
0.998934
0.618003
0.622508
0.628638
0.635928
0.644154
0.654634
0.665617
0.673434
0.67882
0.687995
0.726109
0.857816
0.951963
0.983382
0.991018
0.990703
0.982472
0.963337
0.941171
0.927435
0.921793
0.929816
1.02719
0.617914
0.622897
0.629723
0.637909
0.647433
0.658336
0.668962
0.676172
0.680681
0.685198
0.695999
0.752998
0.904113
0.97381
0.989814
0.990474
0.988167
0.973772
0.949686
0.929266
0.920707
0.925187
0.95191
1.1111
0.617279
0.622953
0.630194
0.639128
0.649611
0.661742
0.672514
0.679293
0.6833
0.686506
0.69101
0.706186
0.791177
0.945874
0.990513
0.995666
0.995426
0.987453
0.967204
0.942825
0.928587
0.924971
0.935979
1.01869
1.18959
0.616358
0.622417
0.630281
0.63969
0.65093
0.66404
0.675819
0.682639
0.686282
0.689009
0.691597
0.696119
0.722378
0.841141
0.976125
1.00173
1.00194
0.998109
0.984082
0.958613
0.937433
0.929395
0.931366
0.972163
1.11679
1.23455
0.615242
0.621562
0.629766
0.639802
0.651613
0.665497
0.678091
0.685775
0.689422
0.691777
0.693873
0.695449
0.701884
0.75097
0.895622
0.991667
1.00444
1.00416
0.996659
0.974439
0.948595
0.933182
0.930858
0.943046
1.05641
1.19451
1.25531
0.614034
0.620587
0.629063
0.639455
0.651953
0.666329
0.67954
0.688017
0.692407
0.694663
0.696451
0.69746
0.699233
0.710867
0.79787
0.943773
0.996438
1.00587
1.00376
0.989295
0.962113
0.939302
0.931602
0.93234
0.996576
1.15272
1.23695
1.26533
0.612991
0.619539
0.628097
0.638801
0.651677
0.66666
0.680269
0.689459
0.694678
0.697464
0.699033
0.699615
0.700357
0.702628
0.730218
0.860844
0.980635
1.00499
1.00724
1.00093
0.977272
0.948929
0.933178
0.929777
0.955993
1.09469
1.21739
1.25665
1.27089
0.612294
0.61856
0.627065
0.637869
0.651033
0.666422
0.680481
0.690165
0.696193
0.699766
0.701573
0.701754
0.702081
0.702445
0.707855
0.769332
0.925317
1.00228
1.00954
1.00792
0.991981
0.961357
0.937909
0.92942
0.935748
1.03327
1.18491
1.24842
1.26569
1.27513
0.611891
0.6179
0.626161
0.636912
0.650191
0.66579
0.680186
0.690371
0.696929
0.701383
0.703829
0.703931
0.70377
0.70356
0.704334
0.720488
0.833963
0.972434
1.01048
1.01084
1.00342
0.975541
0.945378
0.929941
0.928909
0.980979
1.13967
1.23443
1.26173
1.27083
1.2801
0.612077
0.617713
0.625662
0.63613
0.6493
0.664976
0.679488
0.690045
0.697137
0.702177
0.705512
0.706109
0.705505
0.70464
0.704499
0.707002
0.753834
0.908073
0.9974
1.01132
1.00962
0.989485
0.956259
0.93269
0.927452
0.9474
1.08326
1.21323
1.25562
1.26824
1.27555
1.28576
0.612495
0.618062
0.625489
0.635757
0.648522
0.664046
0.678619
0.689419
0.696761
0.702401
0.7064
0.707926
0.707453
0.705818
0.705076
0.705184
0.716414
0.818032
0.967161
1.00781
1.01161
1.00063
0.969624
0.938571
0.927334
0.931969
1.02478
1.18133
1.2469
1.26488
1.27305
1.28049
1.29206
0.613035
0.61858
0.625816
0.635552
0.648146
0.663216
0.677667
0.68862
0.696117
0.702282
0.706666
0.709072
0.709255
0.707354
0.705728
0.705147
0.706655
0.746001
0.900107
0.999187
1.01188
1.00698
0.983983
0.947996
0.929061
0.92746
0.976151
1.13709
1.23365
1.26077
1.27026
1.27743
1.28689
1.30331
0.613442
0.619241
0.626436
0.636006
0.648085
0.662809
0.67686
0.687748
0.695282
0.701692
0.706483
0.709516
0.710542
0.708974
0.706799
0.70531
0.705028
0.714217
0.812382
0.964425
1.00905
1.00877
0.996728
0.960793
0.933285
0.92685
0.944894
1.08271
1.21356
1.25516
1.26743
1.27407
1.28371
1.30061
1.31367
0.613581
0.619919
0.627199
0.636771
0.648693
0.662733
0.676463
0.686979
0.69439
0.700991
0.705853
0.709537
0.711131
0.710386
0.708124
0.705894
0.704708
0.705882
0.744209
0.901113
0.996862
1.0088
1.00532
0.975795
0.941007
0.92696
0.930164
1.02612
1.18395
1.24712
1.26421
1.27094
1.28009
1.29889
1.3139
1.33069
0.613423
0.620258
0.62794
0.637569
0.649485
0.663309
0.676357
0.686586
0.693601
0.700248
0.705205
0.709144
0.711212
0.711302
0.70962
0.706714
0.704742
0.704268
0.713254
0.817537
0.968984
1.00639
1.00903
0.990874
0.95199
0.928987
0.925555
0.97807
1.14304
1.23523
1.26025
1.2679
1.27659
1.29695
1.31353
1.33622
1.35476
0.612475
0.620158
0.628168
0.638194
0.650365
0.664071
0.676856
0.686488
0.693185
0.699579
0.704553
0.708744
0.710975
0.711701
0.710853
0.708102
0.704908
0.703847
0.704787
0.749012
0.912065
1.0008
1.00985
1.0028
0.966026
0.933509
0.924791
0.945951
1.09214
1.21751
1.25505
1.26483
1.27324
1.29498
1.31332
1.33871
1.36613
1.3843
0.611389
0.619369
0.628168
0.638488
0.651111
0.664993
0.677574
0.686961
0.693074
0.699212
0.70398
0.708343
0.710693
0.711737
0.711724
0.709624
0.706097
0.70383
0.703107
0.715056
0.834145
0.976555
1.00993
1.00946
0.981454
0.941664
0.924725
0.929812
1.0373
1.1916
1.24789
1.26147
1.27023
1.29289
1.31326
1.34118
1.37193
1.40097
1.41539
0.610411
0.618533
0.627409
0.63851
0.651522
0.66582
0.678367
0.687555
0.69343
0.699096
0.703639
0.708003
0.710448
0.711728
0.712239
0.711032
0.707711
0.70447
0.702753
0.704921
0.763077
0.931697
1.00422
1.01171
0.995739
0.953051
0.926827
0.924307
0.987878
1.15557
1.23763
1.2576
1.26765
1.2906
1.3138
1.34343
1.37793
1.41001
1.43667
1.44482
0.609656
0.617618
0.626598
0.637642
0.651516
0.66624
0.679071
0.688319
0.694044
0.699403
0.703512
0.707788
0.71024
0.711737
0.712547
0.712111
0.709589
0.705899
0.703036
0.703232
0.722228
0.862237
0.991002
1.01205
1.00569
0.967494
0.93156
0.923259
0.951787
1.1095
1.22269
1.25286
1.26506
1.28828
1.31449
1.34578
1.38322
1.41971
1.44861
1.46993
1.47072
0.609263
0.617008
0.625679
0.636814
0.650607
0.666351
0.679404
0.688956
0.694758
0.699804
0.703736
0.707686
0.710057
0.711756
0.71282
0.712842
0.711396
0.707911
0.704148
0.703209
0.707613
0.788522
0.957235
1.00982
1.01018
0.983205
0.939924
0.923171
0.931237
1.05722
1.20112
1.24663
1.2624
1.28644
1.31546
1.34838
1.38813
1.42856
1.46173
1.48432
1.49883
1.4926
0.609666
0.61684
0.625129
0.635998
0.649803
0.66557
0.679447
0.689231
0.695325
0.700315
0.704134
0.707812
0.709868
0.711744
0.713068
0.713373
0.71278
0.710135
0.705812
0.703795
0.704588
0.73654
0.900809
1.00063
1.01112
0.997654
0.951954
0.92465
0.922718
1.00621
1.171
1.23806
1.25947
1.28507
1.3164
1.35137
1.3928
1.43688
1.47404
1.50037
1.51516
1.52295
1.51051
0.610311
0.617376
0.625021
0.635488
0.648944
0.664758
0.678712
0.689091
0.695569
0.700742
0.704594
0.707994
0.709754
0.711617
0.713166
0.713792
0.713696
0.712144
0.708015
0.704923
0.704435
0.712526
0.828922
0.980009
1.01096
1.00772
0.967068
0.928946
0.92047
0.964668
1.13138
1.22599
1.25595
1.28424
1.31729
1.35481
1.39747
1.44465
1.48593
1.51571
1.53355
1.54074
1.54237
1.5242
0.610973
0.618109
0.625423
0.635356
0.648354
0.66386
0.677956
0.688403
0.695656
0.700911
0.705011
0.708179
0.709683
0.71136
0.712974
0.713954
0.714257
0.71354
0.710276
0.706438
0.704597
0.705209
0.764606
0.939516
1.00783
1.01237
0.983648
0.936563
0.920061
0.937294
1.08372
1.20892
1.25134
1.28393
1.31809
1.35871
1.40237
1.45199
1.49722
1.5308
1.55133
1.56094
1.56116
1.55796
1.52875
0.6115
0.618998
0.626297
0.635975
0.648207
0.663275
0.677169
0.687602
0.695006
0.700764
0.705212
0.708305
0.709616
0.711044
0.712498
0.713776
0.714432
0.71424
0.712094
0.708128
0.704767
0.703645
0.72524
0.878499
0.997634
1.01352
0.998795
0.948096
0.920646
0.923412
1.03283
1.18523
1.24502
1.28389
1.31885
1.36296
1.40775
1.45904
1.50793
1.54545
1.56905
1.58064
1.58259
1.57779
1.56465
1.51317
0.611583
0.619745
0.627234
0.636906
0.64896
0.663122
0.676705
0.686783
0.694301
0.70019
0.705225
0.708312
0.709546
0.7107
0.7119
0.713179
0.714249
0.714411
0.713171
0.709878
0.705334
0.70328
0.708782
0.809468
0.973933
1.01362
1.00954
0.962726
0.924036
0.918407
0.986036
1.15343
1.23619
1.28417
1.31971
1.36745
1.41375
1.46601
1.51805
1.55961
1.58649
1.60047
1.60365
1.60031
1.58567
1.55258
1.47551
0.610767
0.619858
0.627842
0.637788
0.649869
0.663844
0.676612
0.686272
0.693585
0.699608
0.704884
0.708173
0.70949
0.710382
0.71126
0.712326
0.713471
0.714067
0.713553
0.711363
0.70661
0.70325
0.704089
0.753149
0.931855
1.0102
1.01468
0.97971
0.930534
0.917177
0.949817
1.11315
1.22436
1.28336
1.32095
1.37204
1.42044
1.47315
1.52768
1.5732
1.60359
1.62018
1.62501
1.62241
1.60951
1.57586
1.5156
1.43354
0.610013
0.619314
0.627988
0.63844
0.650891
0.664729
0.677354
0.686134
0.693116
0.699036
0.704512
0.707963
0.709458
0.71021
0.71072
0.711413
0.71253
0.713351
0.713415
0.712333
0.708161
0.703697
0.7031
0.720589
0.871336
1.00008
1.01603
0.996233
0.940844
0.917043
0.926801
1.06681
1.20821
1.28043
1.32297
1.37662
1.42777
1.48069
1.53694
1.58621
1.62029
1.63972
1.64642
1.64482
1.63291
1.60232
1.53964
1.47203
1.39576
0.609213
0.618683
0.627394
0.638586
0.651712
0.665747
0.678163
0.686705
0.692954
0.698696
0.704133
0.707724
0.70955
0.710187
0.710476
0.710687
0.711496
0.7125
0.713051
0.712753
0.709969
0.704786
0.702927
0.70734
0.805897
0.97722
1.01623
1.00924
0.954726
0.919014
0.915231
1.01939
1.1853
1.27476
1.32611
1.38117
1.4356
1.48885
1.54604
1.59861
1.63649
1.65902
1.66783
1.66731
1.65673
1.62832
1.56707
1.49532
1.43222
1.36332
0.608866
0.618021
0.626642
0.637847
0.651916
0.666585
0.679069
0.687508
0.693411
0.698598
0.703905
0.707539
0.709618
0.710591
0.710434
0.710395
0.710735
0.71164
0.712673
0.712861
0.711672
0.706506
0.702918
0.703761
0.753242
0.936258
1.0141
1.01657
0.971375
0.923572
0.910921
0.977095
1.15526
1.26684
1.33039
1.3857
1.44368
1.49776
1.55525
1.61046
1.65215
1.67798
1.68915
1.68988
1.68084
1.65467
1.59425
1.52183
1.45444
1.39789
1.3359
0.608925
0.617808
0.626064
0.63715
0.651426
0.666953
0.679758
0.688352
0.693997
0.699045
0.703826
0.707446
0.709712
0.710973
0.711058
0.71044
0.710442
0.711016
0.712333
0.712918
0.712987
0.708661
0.704182
0.703297
0.722048
0.878985
1.00523
1.01912
0.989084
0.932065
0.90981
0.944948
1.11853
1.2551
1.33472
1.39028
1.45179
1.50747
1.56483
1.62188
1.66718
1.69653
1.71031
1.71253
1.70526
1.68109
1.62201
1.54816
1.4796
1.4191
1.36882
1.31297
0.609028
0.617953
0.625776
0.636554
0.650809
0.666444
0.679897
0.689005
0.69467
0.699659
0.70404
0.707374
0.709776
0.711383
0.711686
0.71135
0.71048
0.710722
0.712086
0.712984
0.71388
0.710895
0.705585
0.703504
0.708439
0.815193
0.985335
1.01983
1.00522
0.94413
0.909666
0.924903
1.07734
1.23883
1.33833
1.39509
1.45978
1.51792
1.57503
1.63307
1.68159
1.7146
1.73119
1.73516
1.7297
1.70755
1.65012
1.57509
1.50458
1.443
1.38917
1.34454
1.29387
0.609125
0.618301
0.625936
0.636287
0.650252
0.665864
0.679342
0.689162
0.695208
0.700257
0.704324
0.707365
0.709779
0.711667
0.71232
0.712236
0.711358
0.710695
0.711866
0.713033
0.714479
0.712596
0.707628
0.703767
0.704008
0.761515
0.949343
1.01919
1.01681
0.959062
0.914918
0.915382
1.03568
1.21771
1.34024
1.40053
1.46766
1.52895
1.58602
1.6443
1.69538
1.73212
1.75173
1.75767
1.75414
1.7341
1.67855
1.60243
1.53011
1.4667
1.41196
1.36415
1.32435
1.27791
0.60904
0.618601
0.626425
0.636677
0.650068
0.665306
0.678756
0.688741
0.695357
0.70074
0.704574
0.707425
0.709527
0.71175
0.712712
0.713129
0.712229
0.711306
0.711791
0.712971
0.714752
0.7135
0.70982
0.704249
0.702786
0.726899
0.897391
1.01364
1.02307
0.976273
0.922066
0.91172
0.998835
1.192
1.33604
1.4072
1.47555
1.54033
1.59785
1.65584
1.70866
1.74903
1.77186
1.77995
1.7785
1.76069
1.70725
1.63021
1.55602
1.4909
1.43455
1.38603
1.34337
1.30756
1.2645
0.608471
0.61859
0.626687
0.637192
0.650444
0.665121
0.678246
0.688187
0.695067
0.7009
0.704736
0.70742
0.709333
0.711301
0.712841
0.713596
0.713099
0.711817
0.711841
0.712397
0.714783
0.713735
0.711924
0.704983
0.702393
0.710011
0.836496
0.998577
1.02536
0.993722
0.933465
0.910772
0.971513
1.15976
1.32546
1.41535
1.48365
1.55176
1.61048
1.66799
1.72165
1.76527
1.79152
1.8019
1.80266
1.78722
1.73617
1.65839
1.58232
1.5154
1.45758
1.4077
1.36451
1.3261
1.29352
1.25311
0.608135
0.618214
0.626705
0.637533
0.65085
0.6654
0.678101
0.687708
0.694757
0.700756
0.704801
0.707391
0.709104
0.710783
0.712208
0.71368
0.713553
0.712324
0.711902
0.711794
0.714085
0.713525
0.713497
0.706387
0.702333
0.703791
0.781
0.970022
1.02596
1.00976
0.947436
0.913885
0.955468
1.12419
1.31164
1.42443
1.49217
1.56299
1.62377
1.68094
1.73463
1.78084
1.81063
1.82347
1.82648
1.81358
1.76519
1.68693
1.60897
1.54023
1.48086
1.42975
1.38543
1.34665
1.31168
1.28168
1.24333
0.607818
0.617911
0.626285
0.637745
0.651138
0.665747
0.678341
0.68752
0.694517
0.700493
0.704699
0.707491
0.708905
0.710286
0.711438
0.712916
0.713636
0.712625
0.711994
0.711242
0.713201
0.713245
0.714346
0.708278
0.702987
0.702218
0.740933
0.92442
1.02425
1.02174
0.963735
0.924001
0.94869
1.08862
1.29246
1.43183
1.50126
1.57392
1.63752
1.69482
1.74792
1.79581
1.82908
1.84458
1.84983
1.83965
1.79422
1.71575
1.63595
1.56535
1.5044
1.452
1.40669
1.36699
1.33177
1.29952
1.27156
1.23481
0.607593
0.617701
0.625924
0.637363
0.651248
0.666014
0.678699
0.687697
0.694449
0.700284
0.704605
0.70773
0.708981
0.709961
0.710708
0.712037
0.71297
0.712716
0.712173
0.710896
0.712188
0.712844
0.714659
0.710389
0.703999
0.702018
0.717708
0.868526
1.01463
1.02867
0.982304
0.937464
0.945863
1.05737
1.26895
1.43605
1.51114
1.58463
1.65151
1.7096
1.76182
1.81039
1.84677
1.86517
1.87259
1.86527
1.82314
1.74479
1.6632
1.59072
1.52817
1.47448
1.42813
1.38763
1.35164
1.31925
1.28916
1.26279
1.22727
0.607402
0.617613
0.625648
0.637003
0.650836
0.665987
0.678886
0.687973
0.694737
0.700191
0.70456
0.707868
0.709512
0.709973
0.710262
0.711087
0.712311
0.712453
0.712552
0.710812
0.711521
0.712366
0.714807
0.712141
0.705604
0.702194
0.706815
0.81145
0.993121
1.03204
1.00248
0.953981
0.945512
1.03551
1.24146
1.4363
1.52233
1.59543
1.66549
1.72517
1.77656
1.82485
1.86366
1.88515
1.89466
1.89026
1.85181
1.77397
1.69069
1.61633
1.55214
1.49713
1.44974
1.40841
1.37179
1.33876
1.30861
1.2802
1.25507
1.22049
0.607149
0.617612
0.625499
0.636629
0.650511
0.665553
0.678788
0.688143
0.694999
0.700174
0.704484
0.708006
0.709976
0.710717
0.71019
0.710589
0.711553
0.712202
0.712799
0.711234
0.711266
0.711799
0.714871
0.713199
0.707729
0.702494
0.702584
0.764304
0.957705
1.03317
1.02271
0.972323
0.95514
1.02348
1.21013
1.42204
1.53504
1.60667
1.67926
1.74133
1.79224
1.83954
1.87979
1.90434
1.916
1.91451
1.88008
1.8032
1.71835
1.64211
1.57629
1.51993
1.4715
1.42935
1.39207
1.35853
1.32783
1.29943
1.27234
1.24817
1.21428
0.606762
0.617556
0.625373
0.636425
0.650258
0.665268
0.678276
0.688177
0.695075
0.700181
0.70437
0.708043
0.710374
0.711398
0.711036
0.710527
0.711092
0.711925
0.712964
0.711978
0.711243
0.711277
0.714523
0.713584
0.709996
0.703126
0.701122
0.731996
0.909989
1.02828
1.04125
0.992969
0.968739
1.01871
1.17896
1.40872
1.54821
1.6186
1.69269
1.75781
1.80881
1.85476
1.89532
1.92261
1.93654
1.93794
1.90774
1.83235
1.74611
1.66804
1.60056
1.54286
1.49337
1.4504
1.41248
1.37842
1.34731
1.31844
1.2914
1.26532
1.24187
1.20848
0.60657
0.617476
0.625247
0.636217
0.650165
0.66504
0.677918
0.687998
0.694937
0.700065
0.704242
0.70781
0.710529
0.711919
0.711887
0.711206
0.710942
0.711509
0.713071
0.712705
0.711786
0.711071
0.71384
0.713608
0.71214
0.704165
0.700603
0.713588
0.856201
1.01572
1.05642
1.01518
0.988012
1.01731
1.15269
1.38964
1.55818
1.63139
1.70583
1.77437
1.82614
1.87072
1.91055
1.93983
1.9562
1.9606
1.93458
1.86129
1.77388
1.69402
1.62492
1.56587
1.51532
1.47154
1.43299
1.39842
1.36689
1.33769
1.31024
1.28425
1.25895
1.23602
1.20295
0.606468
0.617557
0.625193
0.635928
0.650034
0.664856
0.677641
0.687972
0.694527
0.699771
0.703998
0.707558
0.710256
0.71212
0.712488
0.711816
0.711117
0.711158
0.713105
0.713105
0.712381
0.711033
0.712731
0.713295
0.713714
0.705781
0.700489
0.704641
0.806113
0.993083
1.06611
1.03901
1.01026
1.0218
1.1363
1.36777
1.56294
1.64528
1.71894
1.79078
1.84397
1.88748
1.92584
1.95604
1.97489
1.98254
1.96038
1.88981
1.80153
1.71999
1.6493
1.58892
1.53733
1.49274
1.45356
1.4185
1.38658
1.35703
1.32931
1.30297
1.27779
1.25305
1.23048
1.19759
0.606289
0.617662
0.625282
0.63573
0.649698
0.664646
0.677522
0.68801
0.694283
0.699406
0.703685
0.707229
0.709936
0.711719
0.712679
0.712325
0.71131
0.711026
0.712335
0.71318
0.713025
0.711163
0.711611
0.712945
0.714626
0.70781
0.70044
0.701033
0.766124
0.956231
1.0691
1.06516
1.03545
1.03498
1.12917
1.3395
1.55781
1.66096
1.73245
1.80683
1.86201
1.90494
1.94149
1.97147
1.99243
2.00351
1.98505
1.9177
1.82894
1.74584
1.67363
1.61196
1.55933
1.51395
1.47417
1.43864
1.40633
1.37648
1.34848
1.32191
1.29642
1.27182
1.24748
1.22513
1.19227
0.606103
0.617694
0.625368
0.635735
0.649316
0.664292
0.677424
0.688132
0.69415
0.699245
0.703396
0.706967
0.709595
0.71121
0.712309
0.712493
0.711744
0.710945
0.711561
0.712574
0.713281
0.711489
0.710843
0.712324
0.715052
0.709893
0.701584
0.699992
0.738585
0.911905
1.06591
1.09386
1.06301
1.05362
1.12667
1.31009
1.54882
1.67842
1.74665
1.82237
1.87993
1.92291
1.95767
1.98649
2.00874
2.02345
2.0087
1.94473
1.85593
1.77146
1.6978
1.6349
1.58129
1.53514
1.49478
1.4588
1.42614
1.39598
1.36774
1.34094
1.31526
1.29039
1.26622
1.24212
1.21986
1.18691
0.606082
0.617637
0.625324
0.635813
0.649095
0.663924
0.677323
0.688123
0.694072
0.699199
0.703282
0.706801
0.709413
0.710798
0.711866
0.712286
0.71199
0.711038
0.710921
0.711865
0.713319
0.712064
0.710429
0.711408
0.715214
0.71168
0.702933
0.699732
0.722352
0.864506
1.05153
1.1214
1.09234
1.07793
1.12807
1.28579
1.5357
1.69395
1.76156
1.83735
1.89744
1.94113
1.97442
2.00153
2.02398
2.04215
2.03141
1.97076
1.88233
1.79672
1.72173
1.65767
1.60313
1.55627
1.51534
1.47894
1.44595
1.41553
1.38705
1.36006
1.33419
1.30917
1.28476
1.26086
1.23687
1.21458
1.1814
0.606398
0.617622
0.625104
0.635803
0.648931
0.66382
0.677368
0.687801
0.693864
0.699205
0.703302
0.706747
0.709313
0.710636
0.711513
0.711999
0.712028
0.711138
0.710477
0.711102
0.713242
0.712469
0.710349
0.710664
0.715266
0.712897
0.704872
0.699814
0.714585
0.820706
1.03168
1.1439
1.1234
1.10577
1.13599
1.27119
1.51883
1.70429
1.77707
1.85193
1.9143
1.95929
1.99168
2.01691
2.03855
2.0594
2.0531
1.9958
1.90789
1.82147
1.74529
1.68016
1.62478
1.57726
1.53583
1.49903
1.46574
1.43508
1.4064
1.37924
1.35321
1.32804
1.3035
1.27939
1.25563
1.23163
1.20919
1.17566
0.606761
0.617809
0.624897
0.635529
0.648738
0.663877
0.677596
0.687465
0.693452
0.699108
0.703323
0.706832
0.709218
0.710535
0.711411
0.71177
0.711973
0.711496
0.710343
0.710734
0.712589
0.712654
0.711218
0.710283
0.714265
0.713513
0.706952
0.701204
0.711902
0.787054
1.00657
1.15759
1.15696
1.13737
1.15205
1.2663
1.49423
1.70789
1.79383
1.8665
1.93033
1.97708
2.00931
2.03284
2.05291
2.07522
2.07346
2.01988
1.93241
1.84543
1.76832
1.70226
1.64613
1.59804
1.55617
1.51903
1.48546
1.45459
1.42575
1.39844
1.37228
1.34698
1.32233
1.29812
1.27417
1.25043
1.22631
1.20361
1.16961
0.606715
0.61811
0.624888
0.635275
0.648563
0.663925
0.677965
0.687317
0.693123
0.698757
0.70331
0.706939
0.709205
0.71036
0.711345
0.711745
0.711988
0.711709
0.710982
0.710736
0.711835
0.712702
0.712084
0.710232
0.713009
0.713736
0.709358
0.703879
0.711608
0.765378
0.971177
1.16074
1.19344
1.17209
1.17415
1.26524
1.46476
1.70586
1.81221
1.88134
1.94546
1.9942
2.02711
2.04935
2.06744
2.08987
2.09206
2.04288
1.95579
1.86828
1.79056
1.72379
1.66705
1.61852
1.5763
1.53888
1.50509
1.47404
1.44506
1.41763
1.39137
1.36598
1.34123
1.31693
1.29291
1.26901
1.24517
1.22081
1.19775
1.16315
0.606147
0.61808
0.624932
0.63528
0.648537
0.663883
0.678202
0.687271
0.693054
0.698382
0.703055
0.707048
0.709208
0.7102
0.711179
0.711746
0.711878
0.711805
0.711429
0.710894
0.711066
0.712385
0.712964
0.710588
0.711425
0.713779
0.712124
0.706807
0.713457
0.754577
0.934119
1.15341
1.23251
1.20928
1.20211
1.27251
1.43873
1.70005
1.82978
1.89632
1.95966
2.01043
2.04487
2.06633
2.08226
2.10371
2.10856
2.06427
1.97802
1.88968
1.81165
1.74449
1.68735
1.63854
1.59611
1.55852
1.52457
1.49339
1.4643
1.43678
1.41045
1.38499
1.36018
1.33581
1.31173
1.28778
1.26381
1.23977
1.21507
1.19153
1.15622
0.605825
0.617606
0.624616
0.635452
0.649003
0.66394
0.678187
0.687166
0.693244
0.698276
0.702659
0.706902
0.709261
0.710098
0.710866
0.711561
0.711863
0.711722
0.711585
0.711067
0.710688
0.711962
0.713392
0.711103
0.710111
0.713215
0.715087
0.710288
0.719022
0.752062
0.900009
1.13895
1.26937
1.24858
1.23474
1.28106
1.42273
1.69058
1.84253
1.91115
1.97314
2.02571
2.06226
2.0835
2.09721
2.11696
2.12297
2.08319
1.99885
1.90946
1.8311
1.76399
1.70677
1.65792
1.61545
1.57782
1.54383
1.51259
1.48343
1.45586
1.42949
1.404
1.37915
1.35474
1.33062
1.30663
1.28264
1.2585
1.23414
1.20898
1.18488
1.14876
0.606462
0.617438
0.62397
0.635408
0.649714
0.664424
0.678114
0.686981
0.69344
0.698441
0.702457
0.706513
0.709252
0.710253
0.710668
0.711146
0.711775
0.711788
0.7116
0.711239
0.710498
0.711325
0.7135
0.712001
0.709378
0.71258
0.718245
0.71428
0.726599
0.751991
0.873314
1.11972
1.2994
1.28948
1.27102
1.2961
1.41486
1.66748
1.84828
1.92613
1.98636
2.04011
2.07886
2.10036
2.11182
2.12956
2.13541
2.09899
2.0175
1.92753
1.84845
1.78176
1.72497
1.67641
1.63414
1.59668
1.56279
1.53158
1.50242
1.47484
1.44845
1.42295
1.3981
1.37368
1.34955
1.32555
1.30155
1.27741
1.25298
1.22821
1.20249
1.17773
1.14073
0.606572
0.618512
0.623807
0.635032
0.650024
0.665099
0.678307
0.686812
0.693512
0.698617
0.702553
0.706138
0.708956
0.710484
0.710742
0.710728
0.711467
0.711935
0.711539
0.711289
0.710761
0.711074
0.713158
0.712796
0.709171
0.712035
0.72155
0.719058
0.735583
0.75785
0.859574
1.09893
1.31742
1.33294
1.3112
1.31873
1.41431
1.6399
1.8495
1.942
1.99976
2.05372
2.09405
2.11612
2.12546
2.14122
2.14587
2.11157
2.03283
1.94354
1.86358
1.79731
1.74158
1.69374
1.65194
1.61489
1.58128
1.55024
1.52118
1.49367
1.46731
1.44183
1.417
1.39261
1.36849
1.34451
1.32052
1.2964
1.27201
1.24719
1.22189
1.19552
1.17003
1.13214
0.604744
0.619105
0.625348
0.635116
0.649908
0.665537
0.678432
0.687062
0.693423
0.698626
0.702801
0.706059
0.708413
0.710574
0.711219
0.710579
0.710944
0.712006
0.711693
0.711285
0.711005
0.71116
0.712305
0.713057
0.710063
0.711758
0.7247
0.724923
0.745874
0.766947
0.855595
1.07063
1.32214
1.3793
1.35487
1.34691
1.42381
1.60764
1.84852
1.95735
2.01328
2.06641
2.10708
2.12974
2.13752
2.15139
2.15432
2.12128
2.04433
1.95671
1.87686
1.81054
1.75605
1.70932
1.66821
1.63183
1.5988
1.56824
1.53955
1.51227
1.48601
1.46061
1.43583
1.41148
1.38742
1.36347
1.33952
1.31544
1.2911
1.26635
1.24105
1.21513
1.18803
1.16178
1.123
0.605641
0.61819
0.626255
0.636802
0.649887
0.66563
0.678394
0.687566
0.693572
0.698419
0.702888
0.706242
0.708172
0.710059
0.711502
0.710988
0.710489
0.711748
0.712036
0.711333
0.711041
0.711431
0.711615
0.713107
0.711959
0.711811
0.728027
0.732272
0.757799
0.782215
0.859832
1.04446
1.32234
1.42817
1.40126
1.38041
1.43435
1.57942
1.84233
1.96857
2.02631
2.0778
2.11721
2.14019
2.14739
2.15958
2.16085
2.12764
2.05283
1.96639
1.88824
1.82171
1.76743
1.72208
1.68269
1.64772
1.61565
1.58579
1.55753
1.53051
1.50446
1.47923
1.45454
1.43028
1.40629
1.38242
1.35854
1.33452
1.31025
1.28558
1.26037
1.23448
1.20786
1.17999
1.15298
1.11337
0.614045
0.619837
0.625658
0.637695
0.65107
0.665668
0.678041
0.687825
0.693821
0.698383
0.702724
0.706451
0.708325
0.709534
0.711366
0.711716
0.710382
0.710932
0.712289
0.711934
0.71085
0.711484
0.711398
0.712647
0.714042
0.713878
0.731851
0.741522
0.771564
0.801181
0.86748
1.02523
1.31103
1.47231
1.44947
1.41866
1.44802
1.55885
1.82411
1.97403
2.03855
2.08736
2.12394
2.14677
2.15465
2.16542
2.1648
2.13205
2.05663
1.97252
1.89663
1.83056
1.7758
1.7325
1.69563
1.66204
1.63116
1.60227
1.57476
1.54829
1.52263
1.49761
1.47308
1.44896
1.42507
1.4013
1.37752
1.3536
1.32942
1.30485
1.27976
1.254
1.22743
1.20006
1.17139
1.14366
1.10334
0.61495
0.628266
0.627516
0.63722
0.651812
0.666805
0.677804
0.687739
0.693867
0.698574
0.702588
0.706389
0.708806
0.7095
0.710513
0.712023
0.711061
0.710185
0.712123
0.712864
0.710684
0.711339
0.711527
0.712496
0.716226
0.71674
0.736806
0.752983
0.787516
0.822438
0.878166
1.01599
1.3006
1.50627
1.49919
1.46
1.46294
1.54825
1.796
1.9769
2.05025
2.09424
2.12715
2.14954
2.15898
2.16849
2.16658
2.13378
2.05829
1.97402
1.90042
1.83529
1.78244
1.74009
1.7056
1.67426
1.64504
1.61749
1.59105
1.56539
1.5403
1.51567
1.49143
1.46748
1.44375
1.4201
1.39645
1.37265
1.34859
1.32415
1.29919
1.27357
1.24717
1.21987
1.19171
1.16227
1.13391
1.093
0.63115
0.63034
0.635785
0.638421
0.651329
0.667421
0.678587
0.687543
0.693674
0.698851
0.702757
0.706068
0.708957
0.710153
0.710081
0.711383
0.711907
0.709965
0.710923
0.713603
0.711022
0.710396
0.712571
0.712846
0.718282
0.721805
0.743832
0.766997
0.805795
0.84589
0.896434
1.01542
1.28362
1.52618
1.55126
1.50437
1.4838
1.54708
1.76024
1.97829
2.05877
2.09751
2.12766
2.14983
2.16015
2.16924
2.16695
2.13401
2.05888
1.97187
1.89851
1.83676
1.78694
1.74532
1.71202
1.68388
1.65695
1.6311
1.60605
1.5815
1.55726
1.53325
1.50943
1.48578
1.46226
1.43879
1.41528
1.39164
1.36773
1.34344
1.31864
1.29319
1.26696
1.23984
1.21176
1.18283
1.15269
1.1238
1.08244
1.25836
0.734327
0.638683
0.647357
0.651575
0.666959
0.679677
0.687589
0.69342
0.69898
0.703184
0.706107
0.70852
0.710517
0.710464
0.71018
0.712102
0.711287
0.709943
0.71382
0.712522
0.709396
0.713443
0.714494
0.720381
0.729195
0.753753
0.783757
0.826526
0.871316
0.919361
1.0275
1.26017
1.53524
1.60583
1.55109
1.50814
1.55529
1.72182
1.97043
2.06175
2.09835
2.12629
2.1455
2.15642
2.16813
2.16393
2.13217
2.05672
1.9702
1.89339
1.83692
1.78756
1.74927
1.71554
1.68971
1.66629
1.64275
1.61946
1.59634
1.57326
1.55013
1.52695
1.50375
1.48054
1.45731
1.434
1.41053
1.3868
1.36269
1.33807
1.31281
1.28678
1.25986
1.23199
1.20312
1.17347
1.14272
1.11343
1.07177
1.23957
1.27022
0.773967
0.655202
0.661367
0.665834
0.680286
0.688607
0.693353
0.699033
0.703432
0.706783
0.708362
0.710349
0.711197
0.709929
0.711182
0.712993
0.709831
0.711802
0.713771
0.70916
0.713029
0.718704
0.723847
0.739388
0.767201
0.80345
0.84978
0.898514
0.946793
1.04047
1.23811
1.54085
1.65975
1.59958
1.53543
1.56529
1.68542
1.95002
2.05952
2.09693
2.12031
2.13743
2.14892
2.16201
2.16065
2.13028
2.05358
1.96684
1.889
1.82743
1.78806
1.74809
1.71983
1.69178
1.67173
1.65187
1.63092
1.60962
1.58798
1.56604
1.54377
1.52122
1.49849
1.47559
1.45254
1.42929
1.40577
1.38187
1.35746
1.33242
1.30662
1.27992
1.25226
1.2236
1.19398
1.16369
1.13246
1.10289
1.06104
1.23798
1.24757
1.28933
0.837654
0.677532
0.676012
0.679076
0.689772
0.694499
0.699001
0.703503
0.707244
0.709168
0.709755
0.711269
0.71113
0.709855
0.713536
0.711106
0.709292
0.714132
0.712097
0.7124
0.724589
0.729904
0.752763
0.784577
0.826149
0.875596
0.927405
0.977679
1.0583
1.22075
1.54317
1.70507
1.64871
1.56617
1.57864
1.65406
1.918
2.04845
2.08839
2.11125
2.12689
2.13924
2.15442
2.1564
2.12808
2.05085
1.96247
1.88467
1.82024
1.77788
1.74876
1.71731
1.69675
1.67263
1.65707
1.63977
1.62097
1.60116
1.58068
1.55961
1.538
1.51594
1.49354
1.47085
1.44789
1.42461
1.40094
1.37677
1.35198
1.32643
1.29999
1.27257
1.24413
1.2147
1.18441
1.15359
1.122
1.09226
1.05033
1.23709
1.24595
1.2639
1.30488
0.908036
0.710794
0.692002
0.688505
0.69671
0.699968
0.703336
0.707335
0.709819
0.710382
0.710322
0.712304
0.709756
0.71151
0.712813
0.708251
0.712998
0.717531
0.712943
0.732708
0.740148
0.769677
0.806039
0.85198
0.904017
0.958144
1.01034
1.0783
1.21289
1.54382
1.73781
1.69813
1.60029
1.59123
1.62973
1.87482
2.03229
2.07821
2.10122
2.11584
2.12911
2.14589
2.15184
2.12651
2.04868
1.9595
1.87871
1.81565
1.76788
1.73958
1.71807
1.69308
1.67856
1.65704
1.64494
1.62959
1.61244
1.59379