/*--------------------------------*- C++ -*----------------------------------*\
| =========                 |                                                 |
| \\      /  F ield         | OpenFOAM: The Open Source CFD Toolbox           |
|  \\    /   O peration     | Version:  v2012                                 |
|   \\  /    A nd           | Website:  www.openfoam.com                      |
|    \\/     M anipulation  |                                                 |
\*---------------------------------------------------------------------------*/
FoamFile
{
    version     2.0;
    format      ascii;
    class       volScalarField::Internal;
    location    "12000";
    object      Rstream;
}
// * * * * * * * * * * * * * * * * * * * * * * * * * * * * * * * * * * * * * //

dimensions      [0 0 -1 0 0 0 0];


value           nonuniform List<scalar> 
27324
(
-3.11545e-09
-7.68704e-10
-2.79969e-09
-1.20652e-09
6.68595e-10
1.26615e-09
-4.0096e-10
-1.96216e-11
-7.20351e-11
1.16212e-09
1.95975e-10
8.2786e-10
-5.36853e-10
-7.42037e-10
-2.17611e-09
1.65916e-10
2.79087e-11
-4.19775e-10
5.57392e-10
-6.71176e-10
9.97885e-10
9.11274e-10
-8.99424e-11
-1.5064e-10
-5.99018e-10
1.14399e-09
4.84339e-10
1.67913e-09
2.5042e-09
5.32675e-11
1.72529e-11
2.71151e-10
-4.70455e-10
5.0421e-10
-5.6183e-10
-6.32605e-10
1.62287e-08
-2.07358e-09
2.52995e-10
-8.83243e-11
3.08612e-10
3.11958e-10
2.71458e-11
4.86048e-10
5.12863e-10
2.71676e-08
-6.84803e-12
5.6742e-10
-1.3949e-10
-1.32139e-10
-4.57024e-11
-2.53114e-10
-2.98766e-10
5.90296e-10
-2.89207e-10
1.45713e-08
-4.01038e-10
6.19959e-09
6.8121e-10
-4.35842e-11
-2.89415e-11
9.93148e-11
2.08019e-10
2.45702e-10
3.2717e-10
-3.22966e-10
7.87983e-09
-1.24988e-08
1.0336e-08
-5.79269e-09
2.09435e-09
-2.89408e-10
8.95205e-11
-4.18416e-11
3.65397e-10
2.83771e-10
-3.32144e-10
1.18881e-11
7.57764e-10
-3.3197e-10
1.70839e-09
-8.47868e-09
-8.22719e-09
-1.09222e-09
2.62992e-11
8.52854e-11
1.45659e-10
1.24642e-10
-1.4061e-10
-4.36965e-11
2.90784e-10
3.20279e-10
-7.69492e-10
3.82745e-09
1.11818e-08
-7.83416e-09
-4.35606e-09
2.14224e-09
6.4393e-10
-2.76121e-11
1.42595e-10
-2.16137e-10
-3.16331e-11
-1.73145e-10
-2.66474e-10
-1.03938e-10
1.05064e-11
1.43484e-11
-1.60045e-09
8.08394e-09
-1.09105e-09
1.26447e-09
-1.67035e-09
-2.26259e-10
-3.02668e-11
4.16601e-11
2.5561e-11
-2.34265e-10
1.74991e-10
-1.33677e-10
-3.71617e-10
1.9363e-10
-2.45868e-13
5.15315e-10
-5.04244e-09
-4.75832e-09
-4.3146e-11
2.65174e-09
-4.43353e-09
-8.87102e-10
3.2823e-10
4.38255e-11
-1.98709e-10
-3.28615e-10
6.63833e-11
1.71992e-11
-2.59146e-10
-4.00011e-13
-8.31088e-11
2.71575e-11
5.86223e-11
-2.96953e-09
5.33459e-09
3.26357e-09
-2.99977e-09
-1.55021e-09
4.02532e-10
1.07837e-10
8.70367e-12
5.28564e-11
-4.25327e-11
3.43317e-11
6.73544e-11
-5.97746e-10
2.16388e-10
-1.73344e-10
-5.81731e-11
-1.42796e-10
-4.08771e-10
-1.01047e-09
-4.26129e-09
-2.84724e-09
-3.15542e-09
2.03413e-09
1.43605e-10
4.48058e-10
5.35579e-10
2.85416e-10
1.82556e-10
1.79832e-10
-1.20269e-10
-6.0141e-10
8.13084e-12
-2.60839e-11
1.48617e-10
-7.50123e-11
-5.53386e-11
5.34537e-10
3.79094e-09
-3.83224e-09
-2.22871e-09
1.65128e-09
-3.6772e-10
7.62046e-10
-1.25025e-09
4.29172e-10
-1.29797e-09
-5.33393e-10
-4.59044e-11
-5.39173e-11
1.97938e-10
1.00163e-11
-2.34998e-10
-1.98545e-10
1.83767e-10
3.86694e-11
5.83024e-11
-5.90216e-10
6.97359e-10
-2.22161e-09
1.15971e-09
-2.9371e-10
-5.4921e-10
3.41146e-09
5.98195e-10
1.96873e-09
7.63092e-10
3.80752e-10
5.47603e-11
-1.23338e-09
-2.03377e-10
1.08908e-11
-2.3837e-10
2.21641e-10
-1.83441e-10
3.9271e-11
-1.01906e-10
1.65485e-10
-5.70282e-10
-1.50906e-09
1.31604e-09
-4.03566e-11
-3.12646e-10
-2.00738e-09
6.45361e-10
-1.63155e-09
-9.74687e-10
-6.40897e-10
-4.02091e-10
5.55985e-10
-4.00192e-10
-2.53685e-11
3.78471e-12
6.28385e-12
2.23806e-10
2.20963e-10
1.64582e-10
-1.92446e-14
6.15915e-11
-1.20086e-10
-6.89434e-10
3.85118e-09
1.285e-10
3.26787e-10
8.71589e-10
-2.20225e-10
5.27967e-10
1.06813e-09
-4.10428e-10
-3.93337e-10
-4.41365e-11
-2.83294e-10
-3.2641e-10
5.90278e-11
3.96438e-11
-1.01951e-10
1.43155e-11
2.1072e-10
1.16587e-11
-1.44294e-10
-7.8483e-11
9.17017e-11
-1.72897e-10
1.02126e-09
1.87489e-10
4.59408e-10
1.94119e-10
4.53103e-12
-1.98684e-10
-4.78455e-11
1.77853e-10
-1.37497e-10
-2.3292e-11
-2.08282e-11
-1.23275e-11
-3.39886e-10
6.27912e-11
8.77524e-13
-6.385e-12
1.289e-10
2.70726e-11
-8.84011e-12
-9.77688e-12
1.23535e-10
8.53878e-11
-3.14299e-11
4.55956e-10
-8.17796e-11
2.12555e-09
4.05012e-10
-2.852e-11
-1.7536e-12
-6.02115e-11
-5.48813e-11
-1.14118e-10
-9.3622e-12
2.14333e-11
-1.03868e-11
-1.14221e-10
-5.38068e-11
2.18931e-10
-6.68527e-11
-3.99482e-12
-5.5834e-11
2.04624e-10
2.40408e-10
2.82019e-12
-1.23976e-10
1.69156e-10
8.5648e-11
-9.1802e-11
8.11649e-11
3.13124e-10
7.21645e-10
9.75489e-11
-1.34947e-10
7.66111e-11
-7.50195e-11
-2.91293e-11
-5.12277e-12
1.47052e-11
8.30021e-12
3.69722e-11
-8.33753e-11
-1.20792e-10
1.39334e-10
-1.9048e-12
1.70498e-11
2.71381e-11
-5.4098e-11
8.38924e-11
-1.16374e-10
-1.13345e-10
8.84464e-11
7.57917e-11
-3.22972e-11
9.33825e-12
4.1342e-10
-2.73854e-10
3.59614e-10
1.45229e-10
8.09653e-11
1.9139e-11
5.27194e-12
-2.80068e-11
5.13394e-11
1.31338e-12
-8.79632e-12
1.08504e-10
-1.27336e-10
-5.0852e-11
3.05725e-10
-9.43924e-11
4.42059e-11
-2.88736e-13
7.05997e-11
4.9505e-11
1.07978e-11
1.14421e-10
6.12444e-11
7.94119e-11
-6.06548e-11
4.34386e-11
1.93446e-10
7.70038e-10
-1.52053e-09
-4.93548e-11
1.02434e-11
3.98169e-12
-2.94357e-11
3.68169e-11
8.02738e-11
1.48608e-12
2.20668e-11
1.22387e-11
-1.83255e-10
9.34439e-11
1.55154e-11
2.90935e-10
6.99236e-14
5.42843e-12
-3.25427e-11
-1.57176e-12
1.78584e-11
-2.97611e-11
-4.74576e-11
7.27415e-11
9.48963e-11
-5.44694e-11
-4.1103e-12
2.42023e-11
1.07843e-10
2.52197e-10
-4.74156e-10
-4.28855e-11
1.17792e-11
1.40865e-11
-1.94076e-12
-3.12472e-11
-3.89507e-11
-4.29239e-13
2.44346e-11
-3.36997e-11
-3.74483e-11
3.17893e-12
-1.313e-12
1.14859e-10
7.57819e-13
7.51211e-11
5.07908e-11
-2.96042e-11
-1.20986e-11
1.32725e-11
3.90921e-11
3.3517e-11
-1.25329e-10
-4.32739e-11
1.84545e-11
-5.51109e-12
2.35516e-11
4.48332e-10
1.85038e-12
2.83493e-10
-5.17208e-11
-1.52086e-11
1.61959e-11
-2.5986e-12
3.99963e-12
3.34168e-12
-9.43679e-12
1.8306e-11
1.0392e-10
-4.04641e-11
-1.31247e-12
9.45215e-12
1.5689e-10
-7.55387e-11
7.89919e-11
-7.03189e-11
4.00142e-11
-1.34389e-12
2.24134e-12
-1.32272e-11
7.10113e-11
6.13494e-11
-4.35952e-11
1.02581e-11
-1.82082e-11
1.52022e-11
1.01461e-10
-1.37383e-09
-2.07186e-10
7.23115e-11
1.41514e-11
1.06609e-11
-3.63094e-11
-9.02208e-12
-3.10409e-11
5.08209e-12
-7.08164e-11
2.34506e-11
-4.95507e-11
-1.57872e-11
4.29095e-13
1.0102e-11
-4.35804e-12
6.44111e-12
9.68277e-12
-6.86656e-11
-5.94727e-11
-2.71001e-11
4.31361e-12
3.45992e-12
1.3816e-11
3.84667e-11
-3.68567e-11
4.53258e-11
-1.94583e-11
-4.15031e-11
-8.18975e-12
2.59597e-10
2.46349e-10
1.32287e-10
1.61434e-11
-6.87907e-12
-1.9301e-11
-3.23499e-11
-2.1853e-11
1.5718e-11
1.01735e-11
-8.52056e-11
-1.74518e-11
-1.45889e-11
-4.40536e-12
1.13689e-11
-2.09886e-11
-5.5202e-11
-1.9031e-12
3.26293e-11
4.892e-11
-5.21148e-11
-5.21164e-12
3.07638e-11
1.51547e-11
-2.08121e-12
1.60447e-11
-4.52132e-11
1.80483e-11
-3.3454e-11
-3.19984e-11
-4.44226e-12
9.39484e-12
2.00221e-10
-5.69271e-10
8.69082e-11
-9.37382e-12
2.52735e-11
-2.22294e-11
-1.26045e-11
-2.08188e-11
9.5414e-12
5.10749e-11
2.88207e-11
1.84769e-11
-1.09862e-11
-1.37007e-12
-9.94306e-12
-2.727e-11
-4.8981e-11
1.06523e-12
2.56406e-12
-1.65503e-11
2.82904e-11
-1.25249e-12
-3.09466e-13
-2.76201e-11
-1.08813e-11
7.19463e-12
-1.14559e-12
-6.81482e-12
-2.64968e-11
2.56211e-11
-3.08458e-12
8.37581e-12
1.17328e-11
6.42102e-10
9.50538e-11
-7.52867e-12
-7.93388e-12
-1.05448e-11
-6.01017e-13
-1.38503e-11
5.94345e-12
5.40865e-11
-3.20889e-12
-5.08917e-11
-1.13457e-11
-7.7625e-12
8.59755e-12
-1.01554e-11
-7.98259e-12
-1.00329e-10
5.26221e-11
-3.19296e-11
-2.30335e-11
-2.80818e-12
-2.16203e-11
-6.02472e-12
2.44757e-11
-4.25591e-11
-1.12647e-11
1.57244e-11
-4.57605e-12
-4.51236e-12
-2.44729e-11
-4.88867e-13
1.70642e-12
-3.72491e-11
8.34527e-10
6.89739e-11
5.07742e-11
1.02605e-11
2.35277e-11
-3.41962e-11
-2.36293e-11
-1.03842e-11
-3.45279e-12
-7.74775e-11
-7.10183e-12
8.35463e-12
-8.36167e-12
-8.63611e-12
-1.75029e-11
-4.91816e-12
-6.34797e-12
-1.82706e-11
4.27043e-12
-2.44785e-12
4.69891e-11
-3.099e-11
1.0851e-11
2.33233e-11
3.22128e-11
-2.01617e-11
-7.55952e-12
1.62093e-11
-4.50629e-12
-1.49955e-11
3.10461e-11
-1.88986e-11
-2.59978e-12
-5.94675e-12
-4.98842e-12
3.85554e-10
1.38203e-10
-6.6018e-11
1.93313e-11
-2.39846e-11
-3.28909e-11
2.17538e-11
-8.30112e-13
-5.15507e-12
-8.16104e-11
-5.78674e-12
-1.01448e-11
-7.63956e-12
6.73124e-12
2.65908e-12
-4.29637e-12
-1.64524e-12
3.09018e-11
3.07855e-11
-6.54697e-11
-5.29887e-11
8.35372e-11
8.73825e-12
-5.75709e-12
-1.03675e-11
-1.60926e-11
-2.17525e-11
1.16499e-11
-5.73878e-12
-1.94047e-11
-1.29925e-11
8.33551e-12
8.30592e-12
3.27349e-12
-1.25925e-12
1.76919e-10
-1.29997e-10
-1.31392e-10
-2.73772e-11
-2.41405e-11
2.28687e-11
-1.66865e-11
3.87003e-12
3.36279e-11
2.05294e-11
-1.21237e-11
-1.0058e-12
3.44148e-12
-6.59057e-12
3.71725e-12
-1.43019e-11
1.60226e-12
2.58019e-12
1.56066e-10
1.99999e-12
-3.05424e-12
7.13102e-11
-5.55246e-11
4.36398e-11
-1.75722e-11
-5.09916e-12
-2.17919e-11
-2.03574e-11
1.18893e-11
-5.27208e-12
-5.94753e-12
4.20816e-12
3.67508e-11
1.14862e-11
-5.49959e-12
1.77978e-11
1.2053e-10
-6.12433e-12
-2.30617e-11
3.15228e-11
6.69853e-13
-5.81191e-11
6.36471e-11
9.04091e-12
6.67217e-12
-1.26061e-11
-2.65548e-11
1.66411e-11
-3.97003e-12
1.56654e-12
-1.28504e-11
2.09723e-12
1.6868e-11
2.15689e-12
-1.34801e-11
1.21726e-10
-4.11726e-14
-6.78391e-12
-4.5597e-11
5.98109e-11
4.37505e-11
-1.11994e-12
-5.90236e-12
9.82153e-13
-1.78838e-11
9.26819e-12
-1.70887e-12
-6.06785e-12
1.50005e-12
1.07609e-12
-1.59434e-11
3.61317e-12
2.88563e-12
-1.14985e-11
-3.7493e-11
-8.66756e-11
-7.55386e-11
-9.98587e-12
3.61637e-12
-1.14143e-11
-4.7121e-12
-9.40419e-12
2.33082e-12
2.77312e-11
-1.60122e-11
7.18442e-12
1.02524e-11
5.76458e-12
3.61805e-12
-4.02951e-12
-1.54281e-11
-1.5479e-11
1.35691e-11
2.40026e-10
-7.22261e-11
3.27309e-11
5.44414e-12
-3.98321e-11
6.00536e-12
-3.26372e-11
-1.68599e-11
5.21412e-12
-5.41241e-12
5.03325e-12
1.52376e-12
2.8292e-12
-3.89608e-12
-7.55533e-12
1.19638e-11
7.43704e-12
-1.38861e-12
1.2741e-13
8.97783e-11
-3.67577e-10
2.47603e-13
1.37312e-12
-2.09041e-11
1.91835e-11
-3.25747e-12
-6.9626e-12
1.49811e-11
1.75169e-11
2.92973e-11
3.99647e-12
-2.62027e-12
-5.44058e-12
6.00441e-12
9.80987e-12
6.07304e-12
-2.46843e-11
5.78484e-12
-8.4374e-13
1.21361e-10
-1.30837e-13
7.50442e-12
-2.82996e-11
5.92684e-12
2.61747e-11
2.55777e-13
3.07866e-11
2.04978e-11
-4.69183e-12
4.77473e-12
-2.32749e-12
3.52233e-12
8.27365e-13
2.60834e-12
-7.67684e-12
-1.83619e-11
3.33712e-12
-1.72377e-12
-3.42096e-11
1.33897e-10
8.98933e-11
1.35083e-11
-4.95972e-12
-3.83783e-11
-1.35807e-11
-1.82457e-11
-4.8186e-12
1.34787e-13
1.24804e-11
1.92751e-11
-9.6937e-14
-5.63786e-12
8.06098e-12
-9.12103e-12
-1.15473e-11
1.03722e-11
1.21996e-12
-1.45622e-11
-3.13678e-12
1.52255e-10
-7.28523e-11
7.85134e-11
5.41093e-11
-2.23603e-11
5.21497e-12
-2.25836e-11
-2.28657e-11
3.45722e-11
1.98947e-11
-3.66868e-12
-5.36051e-13
1.32623e-11
-3.64234e-12
-3.02176e-12
6.79369e-12
6.7354e-12
-3.50521e-11
-6.19904e-12
-2.68227e-13
-1.97411e-10
-3.43549e-10
8.95139e-11
5.76271e-12
4.08783e-12
-3.27923e-11
8.30289e-12
-4.75879e-13
-4.8417e-11
-2.56262e-11
-1.2959e-11
5.65311e-12
1.16762e-11
1.54944e-11
-1.24565e-12
1.38459e-11
-5.54561e-13
3.36714e-12
-7.35225e-13
-7.55367e-12
-1.01588e-11
-8.86267e-12
4.05572e-12
1.08314e-11
-6.72882e-11
4.28701e-11
5.81417e-12
-7.24999e-14
1.15085e-11
1.69211e-11
9.96679e-12
-6.33477e-12
1.06147e-11
1.43895e-11
8.51124e-12
5.83225e-13
-7.96183e-12
-2.55654e-11
-1.19766e-11
-4.48614e-12
1.31874e-12
-1.54394e-11
-2.92649e-11
1.51235e-10
1.29312e-11
-6.36699e-12
-1.30367e-11
7.05078e-12
-8.75784e-12
6.74728e-12
-3.33944e-11
2.82185e-12
7.60629e-12
-3.45653e-12
-4.97304e-12
6.42184e-12
-2.63996e-11
-1.16112e-11
1.7215e-11
-1.25459e-12
-1.18202e-11
1.2247e-11
-1.68742e-11
-9.40166e-11
1.05006e-11
2.76292e-11
6.13419e-11
-5.62724e-11
-2.83617e-11
1.4788e-12
-1.69679e-11
1.50165e-11
1.14122e-11
-1.3468e-11
-1.17469e-12
-1.25386e-11
-7.33919e-12
-3.46995e-12
-7.89273e-12
5.73836e-12
-4.53468e-11
5.86706e-13
-1.20554e-13
-1.38492e-11
-3.09218e-10
2.96415e-10
-1.59304e-11
1.00546e-11
4.20878e-11
-1.18244e-11
5.74655e-12
1.2066e-12
-6.52948e-13
-2.12602e-11
-1.05203e-11
-2.32794e-12
-2.17109e-12
6.34671e-12
1.577e-12
-7.23989e-12
-1.60419e-12
4.79269e-12
-3.77485e-12
3.15022e-12
-1.83422e-12
4.54686e-12
-1.55206e-10
-2.61075e-12
-1.05249e-12
-2.06182e-11
4.15127e-11
-3.83561e-13
3.36733e-11
1.64055e-11
-2.65352e-12
1.3498e-11
-7.91784e-12
3.08659e-12
4.59597e-13
2.37995e-12
-3.39179e-13
8.00723e-12
5.50215e-12
-1.03722e-11
-1.50851e-11
7.85886e-13
6.30491e-13
-7.4799e-11
1.45439e-11
6.44105e-11
-1.67794e-11
-1.9607e-11
1.53021e-11
-5.73874e-12
1.1382e-11
2.04623e-11
-1.02137e-11
-3.1336e-11
2.4133e-12
-5.64471e-12
2.47724e-11
-8.62506e-12
-1.85755e-11
1.53955e-12
-2.6983e-12
-3.8714e-12
4.3151e-12
-2.76987e-12
1.33502e-11
7.47923e-12
-8.88808e-11
-4.18793e-12
-5.54707e-11
-2.04279e-11
-2.41342e-11
-2.53716e-11
7.75175e-13
-3.28315e-11
-6.95837e-12
1.40466e-12
-3.91689e-12
4.48755e-13
9.64055e-13
6.99085e-12
-1.4138e-12
-7.40786e-13
-5.14637e-12
-7.75907e-12
-6.2503e-12
-6.6287e-12
1.49941e-12
-2.89985e-11
3.09293e-10
-1.71868e-10
2.51538e-11
1.66173e-11
2.89476e-11
1.57451e-11
1.91563e-13
4.17813e-11
1.54723e-11
1.02649e-12
-1.9893e-11
-9.3257e-12
-4.94827e-13
-1.48531e-11
-1.78437e-11
-5.0395e-12
2.27647e-11
-1.08808e-11
1.27188e-11
-1.56534e-12
-5.92041e-12
-5.35138e-12
-2.67504e-12
-5.40415e-12
8.94368e-11
-7.5818e-11
6.06818e-11
-2.50847e-11
2.09549e-12
2.65462e-11
2.65886e-11
-3.45614e-11
-7.91306e-12
2.13666e-12
9.19495e-13
9.65481e-13
-4.42288e-12
2.79431e-12
5.57621e-12
-2.93816e-13
3.28742e-12
-1.27837e-11
-4.52213e-14
-2.61557e-12
6.69557e-12
4.28568e-12
3.25042e-10
-7.07629e-11
-1.26868e-11
-1.61554e-12
6.16606e-12
-1.71505e-12
-1.68437e-11
3.25217e-11
3.01674e-12
-8.32389e-12
-1.43354e-12
3.79674e-13
1.57783e-12
-6.10399e-12
1.82225e-11
-2.84105e-12
-2.72582e-11
2.81507e-12
-8.58505e-12
3.53791e-12
1.54692e-12
1.11575e-11
2.63588e-12
4.79032e-11
-8.16105e-13
-6.64946e-12
7.00842e-11
9.31986e-11
1.47123e-11
7.05964e-12
-3.10857e-11
-2.07809e-11
-1.67775e-11
5.61891e-12
-2.32967e-13
-3.07347e-13
1.3735e-11
1.12155e-11
6.24029e-12
7.56342e-12
7.85614e-13
-1.18187e-11
4.61023e-12
8.60246e-12
-1.8375e-12
-1.10262e-11
-3.55207e-11
-4.66265e-12
-3.99277e-13
-2.64522e-12
-4.41511e-11
3.77089e-12
-1.45897e-12
2.60117e-11
3.32207e-11
-7.26078e-12
-1.51604e-11
-6.28832e-12
-2.38124e-12
-1.39273e-11
3.84384e-12
1.51256e-11
4.09557e-12
9.3244e-12
-1.9643e-12
-2.38226e-12
-3.42703e-12
-2.42552e-12
1.04269e-11
4.21896e-12
-1.2953e-10
-1.36216e-11
-3.10707e-11
-7.1186e-11
1.21134e-10
3.93948e-11
-1.7481e-11
9.49291e-12
-3.70377e-11
-1.81365e-11
2.78835e-12
-7.87583e-13
-9.63108e-12
-1.30602e-11
6.45133e-12
-1.80564e-11
-1.17822e-11
1.11638e-11
6.20335e-13
-1.74572e-11
1.16064e-11
-1.4802e-12
1.01595e-11
2.87309e-10
-4.38053e-11
-6.61074e-12
-8.13428e-12
2.52178e-12
-5.07973e-12
-2.49453e-12
-1.6976e-11
2.41457e-11
-1.88794e-11
1.58985e-11
7.45597e-12
1.55181e-11
-1.71592e-11
-1.50787e-11
2.58224e-11
-1.46016e-11
7.49266e-12
-1.07174e-11
-5.74609e-13
-1.88132e-12
3.72333e-12
-3.99699e-12
1.84049e-12
5.89864e-13
1.83981e-10
5.75678e-14
3.42542e-13
1.84248e-11
-5.67009e-11
4.7146e-11
-2.44626e-13
1.16963e-11
-7.5847e-12
-1.24557e-11
7.89764e-12
6.6464e-13
-7.84922e-12
5.62347e-12
4.83453e-12
8.35675e-12
1.40258e-11
1.1137e-12
4.68649e-12
1.5757e-12
8.72429e-12
-3.76774e-12
1.47851e-12
1.22503e-11
1.33049e-10
2.234e-11
5.21511e-12
-1.67787e-11
5.70241e-13
-4.42957e-13
1.17987e-11
-6.99007e-12
-5.69428e-12
-5.78081e-12
1.56713e-11
-2.1156e-11
-4.52382e-12
2.65887e-11
1.296e-12
-1.20542e-11
7.98174e-12
-1.9017e-12
-8.9745e-12
7.43846e-12
-1.05054e-11
1.05651e-11
-1.34042e-11
-9.09653e-12
-3.4184e-12
3.14162e-10
3.87492e-12
5.74917e-11
2.34621e-11
5.347e-11
4.23922e-11
7.89509e-13
-1.71294e-11
8.4532e-12
-5.21012e-12
8.5166e-12
-1.97018e-12
4.84223e-13
-1.50998e-12
-4.8887e-13
-1.02636e-11
-5.77553e-12
1.75937e-11
5.30249e-12
-1.31813e-12
6.26137e-12
2.79649e-12
-2.40118e-13
9.47907e-11
-7.94232e-11
-2.80958e-12
1.06535e-11
-1.97072e-11
1.12515e-11
-8.19449e-12
1.95662e-12
3.15795e-11
-1.24232e-11
1.38638e-11
-3.07787e-13
6.09997e-12
-3.26979e-11
-2.67649e-11
1.75202e-12
-2.93809e-12
-8.05686e-13
-4.14402e-12
1.97729e-12
4.66119e-12
7.80667e-12
-8.13755e-12
2.61864e-12
-1.3784e-11
-1.09724e-11
2.43418e-12
-9.63695e-15
-6.92238e-11
1.46275e-10
-5.63757e-11
1.61093e-11
2.86881e-11
-3.89334e-11
-2.82182e-11
2.57395e-11
5.53229e-12
4.65201e-12
-1.99679e-13
-1.94333e-12
1.91896e-12
2.61888e-12
2.82095e-12
7.29689e-12
4.12833e-12
2.93501e-12
1.12517e-12
1.19485e-11
-1.0375e-11
-3.16534e-12
2.18266e-11
1.76949e-11
1.64895e-10
9.19179e-13
8.97943e-12
2.4112e-11
-1.0554e-11
1.77958e-12
-8.21303e-12
3.78949e-11
-1.05264e-11
-3.97699e-12
-4.54308e-12
-4.22334e-12
2.07641e-11
9.38476e-12
-5.56831e-12
1.30125e-12
-8.34481e-12
-2.36591e-12
4.45264e-12
-5.4488e-12
1.76773e-12
-1.2853e-11
-1.01089e-11
-1.70898e-12
-1.44845e-12
-1.24813e-11
1.9255e-11
-2.54612e-12
6.02803e-11
-2.92143e-12
-2.43316e-12
-7.69823e-12
1.54409e-13
3.05512e-11
2.11846e-11
1.43397e-11
2.50564e-12
7.45276e-12
2.26978e-12
-1.2567e-11
6.30824e-12
-4.70728e-12
3.22211e-13
1.15483e-12
5.35619e-13
-2.17815e-13
9.06604e-12
1.27445e-11
-2.94032e-12
1.38734e-12
9.92676e-11
5.45385e-12
1.72271e-12
-9.9421e-12
1.02821e-11
-1.56344e-12
4.88299e-12
-4.04827e-12
2.0643e-11
-9.16072e-13
1.1956e-11
5.2033e-12
-6.92179e-12
-3.75085e-12
1.04143e-11
8.34317e-12
9.66292e-12
-7.83036e-12
-3.88835e-12
6.35468e-13
4.90999e-12
-6.03314e-12
9.6142e-12
-5.60098e-13
-8.39168e-12
-5.84393e-13
1.24776e-11
-6.05849e-12
-1.14602e-10
2.35384e-11
1.00155e-11
2.02004e-13
-4.91457e-11
-2.73832e-11
1.58938e-11
-1.99715e-11
4.32433e-11
1.49556e-11
-3.84783e-12
5.99155e-12
9.41833e-12
5.68503e-12
-5.18544e-12
1.46052e-11
7.55144e-12
3.28852e-13
-1.95348e-12
-2.77885e-12
7.23808e-13
3.71434e-12
-2.20771e-12
-3.15408e-12
-4.90064e-11
9.7366e-11
2.38657e-11
1.40928e-12
1.9117e-12
-1.9254e-11
-2.78212e-12
3.34862e-12
-1.79355e-11
2.26681e-11
2.02337e-11
-1.71886e-11
1.35177e-11
1.58879e-11
3.62938e-12
-2.05231e-11
1.16841e-11
-6.80677e-12
-5.09611e-12
9.616e-12
-1.32349e-11
8.61904e-14
-6.20733e-12
-1.03165e-11
-4.89188e-12
1.10384e-12
-4.21486e-12
9.32003e-12
2.42926e-12
5.41625e-14
5.49403e-11
-2.60121e-11
-9.15508e-12
-2.13452e-12
-4.0065e-11
1.51271e-12
-3.84279e-12
1.18815e-13
1.62736e-11
-4.58212e-12
5.70634e-12
1.80162e-12
-5.72602e-12
9.52026e-13
-1.24639e-11
-7.42438e-12
5.24279e-13
8.10072e-13
4.5176e-13
4.94265e-13
7.98956e-12
-6.92978e-12
9.98657e-13
3.26662e-12
-9.12915e-11
8.89174e-12
2.68153e-13
4.55278e-12
-3.16608e-12
1.14959e-12
1.97785e-12
-5.1054e-11
-1.20505e-11
7.19644e-12
-1.48919e-11
-1.01076e-11
1.32533e-11
5.4073e-12
-8.13344e-13
2.77197e-13
-1.39607e-13
9.4932e-12
4.9201e-12
-3.22342e-12
7.83365e-13
-5.91152e-12
6.83427e-12
-1.00903e-11
4.5341e-12
3.2181e-12
-1.09207e-11
-6.22148e-12
-6.48129e-12
-1.38024e-10
-2.40485e-12
-4.32e-11
9.93443e-13
-1.35892e-12
-2.26143e-11
2.94229e-11
1.55448e-11
-1.53983e-11
7.23876e-12
-8.42912e-12
9.76223e-14
8.10597e-12
-5.01613e-13
-3.28979e-12
1.20227e-11
9.51325e-12
-3.87063e-12
1.72289e-12
-4.92937e-13
9.08887e-13
-3.86034e-12
-5.8052e-13
-6.15315e-12
-8.96536e-12
3.13301e-11
6.07495e-11
2.71278e-13
2.13175e-12
-2.75601e-11
-8.38644e-12
-3.53975e-12
4.13455e-11
1.39724e-11
1.75529e-11
-4.3301e-12
-2.52281e-11
1.53478e-11
6.62008e-12
-1.87895e-11
1.44789e-11
-7.43229e-12
-2.91886e-12
4.18667e-12
6.14672e-12
-2.02069e-11
-1.55249e-11
4.93816e-12
-7.11506e-12
2.45176e-12
-6.01105e-12
1.11999e-12
-8.82647e-12
-1.20856e-11
4.38202e-12
-1.58073e-12
2.75625e-11
-2.84055e-11
-1.54752e-12
-3.42951e-12
5.79692e-12
3.33934e-11
-3.73036e-12
1.19101e-11
-9.01788e-12
-4.72982e-12
4.88409e-13
-4.62812e-12
1.53464e-11
-2.55448e-12
-2.21485e-12
-6.38366e-12
5.1313e-12
-1.05251e-13
-3.71789e-12
5.35908e-14
4.60395e-13
-1.59545e-12
4.20117e-12
2.40023e-12
-3.77287e-11
4.43689e-11
-2.53031e-11
9.14359e-12
1.03777e-13
1.01307e-11
5.08743e-12
-1.27739e-11
-2.5108e-11
-1.63424e-11
-2.226e-11
-4.9217e-12
1.23707e-11
-3.61075e-12
7.99036e-12
-1.32877e-11
1.17499e-12
-1.31682e-11
4.89995e-13
-1.20341e-11
9.31172e-12
-7.56069e-12
-9.32517e-12
-3.98368e-12
-3.35383e-12
1.98738e-11
-2.41263e-12
9.79459e-13
-4.88708e-12
2.99283e-12
2.53878e-12
1.6796e-10
-8.08672e-13
-7.74224e-12
3.20389e-11
-9.09676e-13
1.47748e-11
6.46284e-13
-1.96454e-11
-1.28142e-11
-6.39271e-12
-8.67031e-13
1.35446e-12
9.6745e-13
1.68774e-11
6.12719e-12
-6.5438e-12
-4.48579e-13
-6.78935e-12
-1.85099e-13
5.4775e-13
1.01739e-12
2.65054e-12
-2.53444e-13
-1.49103e-11
1.34734e-12
5.24139e-12
1.06128e-10
7.3734e-12
-1.43161e-12
-1.85536e-11
-1.05473e-11
-4.6852e-12
-6.95877e-12
1.85223e-11
-7.57264e-12
1.53926e-11
-2.11495e-11
-4.10834e-12
1.53935e-11
3.28028e-12
1.00296e-11
-4.11367e-12
5.19737e-12
7.7761e-12
1.44387e-11
3.19719e-12
2.93905e-12
-4.06781e-12
4.79854e-12
-2.21775e-12
-3.30876e-12
8.06719e-12
-1.15941e-11
-5.26216e-12
4.82381e-12
3.19873e-12
1.98054e-12
1.38054e-10
-4.84809e-11
4.56111e-11
7.00846e-14
2.42622e-11
1.92722e-11
-1.0799e-11
-4.52807e-12
7.49716e-13
3.87141e-12
-4.71572e-12
4.88294e-13
-8.88421e-13
-9.48522e-12
7.92868e-12
8.79082e-12
4.11994e-12
-4.68901e-12
4.71164e-13
3.63851e-14
-1.55112e-12
3.304e-12
1.11215e-12
1.55415e-12
-8.51602e-13
5.82336e-12
3.88947e-11
-2.79262e-11
-1.44314e-11
-1.96885e-11
1.15592e-11
8.54505e-12
-2.23725e-12
-1.18646e-11
-1.13202e-11
-9.41349e-12
4.50123e-12
1.20028e-12
7.6074e-12
-6.59474e-12
-7.7088e-12
4.77642e-12
-1.51718e-11
2.69458e-12
-1.2172e-11
-2.08242e-13
-2.34558e-11
-3.29739e-12
5.35982e-12
5.06997e-12
1.7261e-11
-1.3185e-11
-3.97521e-12
2.77066e-12
-2.62016e-12
3.67969e-14
-3.09719e-12
-1.06512e-11
-3.25843e-12
-9.93609e-11
3.54311e-11
-6.11795e-12
-1.95596e-12
5.72333e-12
-2.84839e-11
1.19104e-11
5.545e-12
-1.18463e-12
3.24767e-13
-1.18513e-11
-1.82572e-12
8.28275e-12
-2.92111e-12
1.06202e-11
-7.36949e-12
2.08227e-12
-2.26723e-12
-4.52837e-13
-2.87019e-12
-4.12429e-12
5.03514e-14
-1.22186e-11
4.14287e-12
2.10266e-14
-1.07071e-11
-2.42489e-12
-2.29687e-11
-1.96223e-11
9.93396e-12
1.05554e-11
-4.53591e-12
-5.20785e-12
2.22095e-11
7.5281e-12
-1.83965e-11
2.85395e-13
1.35811e-11
-2.31841e-13
-3.01569e-12
-2.62265e-11
1.57405e-11
1.05098e-11
1.07915e-11
3.14359e-12
-3.87807e-12
1.51094e-11
-4.87961e-12
-1.30079e-13
-1.2367e-12
2.49648e-11
-8.96896e-12
-9.66588e-12
-8.59507e-12
-4.33668e-12
1.02787e-11
6.53088e-12
-7.06731e-12
4.34709e-11
1.4729e-12
3.50351e-11
-8.86573e-13
-1.24651e-11
-3.80599e-12
-2.1293e-12
7.46262e-12
5.33571e-12
-6.12646e-12
1.09221e-13
1.60953e-13
-8.11302e-12
6.76413e-12
9.2168e-13
-1.32414e-11
-6.27742e-12
2.89263e-12
-5.04897e-13
8.77294e-13
-4.24658e-12
1.58558e-12
-3.45204e-13
-1.08708e-11
-1.00094e-11
-8.98296e-13
1.85471e-11
-1.88654e-11
-4.82055e-11
-5.06029e-13
1.03387e-11
8.62366e-12
-8.82509e-13
2.02159e-11
-9.37891e-12
-2.0763e-11
-4.64717e-12
1.20928e-11
1.3828e-13
-6.44395e-12
1.31888e-11
-5.29736e-12
-6.90048e-12
-1.0986e-11
-5.09068e-12
1.15278e-11
-9.42763e-12
-9.17086e-12
2.574e-12
7.75806e-12
7.96634e-12
-1.74413e-11
1.55784e-11
-4.25018e-12
-8.32616e-12
8.49377e-13
-1.50433e-11
-1.38623e-12
-1.30855e-13
2.24655e-12
-3.44692e-11
-4.93874e-12
3.7437e-11
1.07629e-12
1.75665e-12
-1.19132e-11
3.99665e-12
-1.81444e-12
-2.9101e-13
-1.26188e-12
-5.18254e-12
-7.23274e-12
1.83763e-11
-1.14955e-11
5.68146e-13
3.1707e-12
7.01459e-12
-1.41044e-12
8.26182e-13
-7.87401e-13
-4.18275e-13
-3.54199e-12
-6.13013e-13
2.16141e-12
-6.64256e-13
4.25389e-13
3.86792e-12
8.69779e-12
-3.36197e-11
-3.78587e-12
-7.27419e-12
3.21628e-11
1.43235e-11
7.05896e-12
-1.32054e-11
3.27211e-11
-3.36642e-11
-1.12537e-11
6.97603e-12
1.41558e-11
-1.07654e-11
-6.25448e-12
-2.08261e-11
2.29752e-12
2.52367e-11
5.10975e-13
6.54301e-12
-8.31811e-12
5.02099e-13
1.35927e-11
1.57727e-11
2.76048e-12
-9.09507e-12
-1.2176e-11
-1.06516e-13
-2.28848e-12
-4.37557e-12
2.89586e-12
-6.58928e-12
-3.45906e-12
-9.11954e-12
-5.9323e-11
1.14414e-12
6.14524e-12
-2.18119e-12
4.5048e-13
-1.52977e-11
7.90686e-12
-4.35211e-12
9.26274e-14
-2.68797e-12
5.63462e-12
-1.50594e-12
-7.30907e-13
-2.01572e-11
7.92602e-12
1.98019e-12
-4.41053e-12
-3.23269e-12
-2.17337e-12
3.95253e-12
8.13112e-13
-3.26903e-12
6.79306e-13
-8.19761e-13
6.33711e-12
6.08592e-13
5.42744e-12
-4.16385e-11
-7.52579e-12
1.21528e-11
4.23328e-12
-1.02109e-11
-1.0892e-11
1.89492e-11
5.76971e-11
-1.68771e-12
-3.5204e-12
1.46864e-12
-6.72604e-12
-3.55831e-11
6.84954e-12
-1.79398e-11
-3.17036e-12
1.43625e-11
-2.39427e-11
1.89424e-11
-1.45826e-11
-7.70442e-12
-9.06827e-12
7.66052e-12
-6.3166e-12
8.7645e-12
1.19436e-12
-1.09843e-11
3.04982e-12
2.75711e-12
-1.99396e-11
7.84718e-12
-7.24094e-12
-2.15552e-12
3.10327e-12
-7.58793e-12
2.65762e-11
2.59116e-11
-6.32694e-12
1.32096e-12
-1.59627e-11
-1.32807e-11
1.94231e-11
-9.38951e-13
-7.30785e-13
8.41611e-12
-6.39193e-12
9.44101e-12
1.92749e-13
4.18487e-12
-1.03188e-11
-1.37813e-12
-2.0878e-13
2.2766e-12
1.08484e-12
2.96652e-12
3.90596e-12
-1.14809e-12
1.45007e-12
-2.73618e-13
-3.38732e-12
-1.39253e-12
1.80165e-12
7.80658e-13
-7.73351e-11
8.34275e-12
3.17577e-13
2.09779e-11
1.68258e-11
1.69424e-11
6.63245e-11
-1.8519e-11
-2.65873e-11
-1.49645e-12
2.52162e-11
-4.41177e-12
2.78684e-12
9.33234e-12
-3.79331e-12
-6.85209e-12
-1.62634e-11
-1.36557e-11
1.13786e-11
8.39833e-12
6.73334e-12
-3.09956e-12
1.31108e-11
-8.2362e-12
-5.01857e-12
-4.87252e-12
1.61988e-11
3.01422e-12
8.65113e-12
-7.24658e-13
-1.0342e-11
-1.08679e-13
7.96701e-12
-7.08445e-13
-1.62009e-11
1.14192e-10
8.72892e-12
-1.30264e-11
-2.74751e-12
-5.31546e-14
-1.46314e-11
8.2733e-12
-2.20553e-12
-5.99406e-12
-1.05795e-11
1.85753e-13
1.69041e-11
-1.75463e-11
1.04308e-12
3.48822e-12
-1.70729e-12
1.33173e-14
4.3621e-12
3.15938e-12
-1.33597e-13
6.44573e-12
-2.29849e-13
2.29322e-12
3.07792e-12
2.65353e-12
7.9748e-14
2.34503e-13
-1.38921e-11
-1.51626e-10
-1.26054e-11
-6.36236e-12
-9.34034e-12
6.80913e-13
1.00628e-11
1.47731e-11
-5.91051e-12
-7.81421e-12
8.537e-12
-1.85949e-12
-1.929e-11
2.09738e-11
-2.3465e-11
-1.27315e-12
-8.98752e-13
9.03587e-13
-1.21723e-11
-3.43015e-11
1.98543e-12
3.0333e-12
6.71319e-12
-6.16852e-12
-7.97072e-13
-9.87107e-12
-7.20118e-12
8.24592e-12
1.4514e-11
-8.92777e-12
8.60252e-12
-1.07003e-11
-8.0151e-12
-2.272e-12
6.35178e-12
-1.85757e-12
5.15387e-12
3.75556e-11
5.58799e-13
-2.98099e-12
1.89906e-13
-9.36346e-12
-1.20788e-11
5.24298e-12
-4.1527e-12
2.79374e-13
2.53624e-12
-8.71191e-12
-1.45375e-14
-1.30115e-12
-2.54979e-12
1.50864e-13
-3.93872e-12
1.43361e-12
1.70957e-12
-6.29508e-12
-1.12554e-12
1.27863e-12
4.65493e-13
3.03744e-13
-2.04114e-12
-2.44977e-12
5.42115e-12
-1.11755e-12
-8.48516e-12
-3.46261e-11
3.48399e-11
-9.73562e-12
-5.09071e-12
1.08577e-11
1.24296e-11
-2.96278e-11
-6.68779e-11
4.28707e-12
1.44762e-11
2.62311e-11
1.86424e-11
-1.12487e-11
5.72329e-12
-2.94986e-11
-1.5833e-12
-5.54926e-12
1.93743e-11
-2.6205e-11
-1.47107e-12
-1.07138e-12
9.84044e-12
1.463e-11
-7.02096e-12
-8.71951e-12
-3.43095e-12
-2.32627e-12
9.43371e-12
1.07083e-11
6.30068e-12
-1.05021e-12
-1.25839e-11
-7.96411e-12
1.12178e-11
-1.78676e-12
-1.12807e-11
-3.11473e-12
-4.63857e-11
-2.93157e-13
6.18776e-12
1.1723e-12
1.64792e-13
-7.33831e-12
1.78323e-11
-7.41095e-13
-4.54585e-13
1.99316e-13
-5.97138e-14
1.27785e-11
-1.36376e-11
-6.75356e-12
1.8317e-12
8.02594e-13
5.43043e-13
9.05723e-13
5.75638e-13
4.41885e-13
4.47753e-13
1.69374e-12
-7.9989e-13
5.32446e-12
2.42659e-12
-8.74347e-13
5.19119e-13
1.4318e-13
-9.83252e-13
3.71349e-12
-9.30436e-12
1.05597e-11
-2.26011e-11
1.84094e-11
1.18458e-11
-1.4098e-11
-9.92581e-12
1.16334e-11
3.15788e-11
-1.93118e-11
1.82601e-11
-1.47706e-11
1.14158e-11
-6.59962e-14
-2.20155e-12
-1.92434e-11
-2.708e-11
1.58711e-11
-3.52409e-12
7.17397e-12
-4.96983e-12
6.53656e-12
6.71266e-13
-4.20463e-12
-6.16576e-12
-7.33239e-12
2.35541e-11
8.7934e-13
1.56336e-12
-2.45277e-12
-4.64274e-12
-2.83495e-12
8.75252e-12
-6.25167e-12
-1.36707e-12
-3.37985e-12
-4.81615e-11
1.24293e-11
7.09496e-12
-3.45388e-13
-2.53251e-13
-3.57106e-12
3.90919e-12
-1.21513e-11
-4.50912e-12
1.72931e-12
2.39912e-12
2.6845e-13
2.42785e-13
1.0382e-11
-4.67953e-12
-1.25788e-12
1.85954e-12
6.14234e-13
6.56616e-12
1.53219e-12
3.12826e-13
1.66339e-12
2.93038e-13
3.93795e-12
-6.92962e-14
-4.60569e-12
3.2126e-13
-1.52346e-12
-3.44516e-11
-5.32114e-14
1.7269e-12
1.4978e-11
2.14556e-11
2.20946e-11
-6.10847e-12
-2.36952e-11
-9.77171e-12
1.06526e-11
3.17364e-11
-6.55597e-12
-2.39368e-11
7.87324e-12
-1.89813e-11
-1.01154e-11
-1.70276e-11
-9.17836e-12
-1.27821e-11
-8.1816e-12
2.60691e-12
2.98804e-12
3.25326e-11
-2.08844e-11
-3.75679e-12
-3.16256e-12
8.5998e-12
3.74084e-12
-5.8197e-12
-9.72884e-12
-5.67627e-12
2.68947e-12
1.14608e-11
-6.85105e-13
-9.29031e-12
-1.10061e-11
6.24645e-12
2.785e-12
4.99997e-12
1.33209e-13
3.03651e-11
2.07226e-12
-1.12219e-11
-4.28403e-14
-6.9851e-13
8.05159e-13
7.28972e-12
1.20488e-11
1.64627e-12
-3.73897e-12
-5.55195e-12
-2.9674e-12
-2.81358e-12
3.04645e-12
1.1075e-12
-6.37248e-13
1.92446e-13
6.51463e-14
-3.72683e-13
-1.39448e-13
2.50481e-12
-6.11733e-13
-2.02113e-12
1.00363e-12
2.06164e-13
-2.84803e-12
8.97793e-13
-3.28421e-12
1.12253e-12
1.19327e-11
1.26422e-11
-8.88858e-12
2.90077e-11
1.57618e-11
-1.01205e-11
-1.91109e-11
-1.14221e-11
2.63682e-11
-5.91819e-12
1.03929e-11
-1.31209e-11
6.99068e-12
6.97713e-12
2.73535e-11
-1.95876e-11
-1.81932e-11
4.33967e-12
-1.28155e-11
6.32492e-12
-1.83275e-11
1.85483e-11
-3.36748e-12
-5.86872e-12
-6.30038e-12
-2.26716e-12
1.01116e-11
1.17518e-11
-9.3986e-12
-4.67167e-12
-3.0022e-12
5.75085e-12
-5.41323e-12
-4.22127e-12
7.01484e-12
-4.1759e-12
1.19969e-11
9.56195e-12
-1.09678e-10
9.65346e-13
-8.15056e-12