/*--------------------------------*- C++ -*----------------------------------*\
| =========                 |                                                 |
| \\      /  F ield         | OpenFOAM: The Open Source CFD Toolbox           |
|  \\    /   O peration     | Version:  v2012                                 |
|   \\  /    A nd           | Website:  www.openfoam.com                      |
|    \\/     M anipulation  |                                                 |
\*---------------------------------------------------------------------------*/
FoamFile
{
    version     2.0;
    format      ascii;
    class       volSymmTensorField;
    location    "12000";
    object      Sp;
}
// * * * * * * * * * * * * * * * * * * * * * * * * * * * * * * * * * * * * * //

dimensions      [0 0 -1 0 0 0 0];


internalField   nonuniform List<symmTensor> 
27324
(
(-162.435 -2866.04 -4.245e-09 1144.27 1.55858e-09 -981.837)
(298.526 -3450.2 -1.63709e-09 657.333 3.84603e-10 -955.859)
(-241.209 -8116.59 -9.57677e-09 1261.85 1.40621e-09 -1020.64)
(149.418 -3876.43 -3.39742e-09 573.34 6.03677e-10 -722.758)
(201.016 -9691.74 3.22962e-09 783.148 -3.35945e-10 -984.163)
(-366.43 -12008.5 6.44576e-09 1432.97 -6.41091e-10 -1066.54)
(243.967 -4416.75 -1.60617e-09 303.345 2.006e-10 -547.311)
(57.5033 -10782.3 8.18545e-11 691.124 9.77707e-12 -748.627)
(29.3381 -14131.9 -2.18279e-11 993.781 3.60387e-11 -1023.12)
(-532.63 -14454.6 6.80894e-09 1659.51 -5.94583e-10 -1126.88)
(464.961 -4956.12 -5.19594e-09 -339.624 -9.82112e-11 -125.337)
(130.52 -12152.7 9.98079e-09 456.292 -4.16719e-10 -586.813)
(-107.406 -15539.1 -5.73345e-09 901.334 2.72962e-10 -793.928)
(-200.507 -16682.6 -5.34237e-09 1277.77 3.79487e-10 -1077.26)
(-713.812 -15489.4 -1.25548e-08 1902.11 1.12496e-09 -1188.29)
(349.055 -5509.54 -3.02407e-09 -342.92 -8.30767e-11 -6.13533)
(294.758 -13529.7 8.18545e-10 -74.4265 -1.39195e-11 -220.331)
(-53.0331 -17287 -5.83168e-09 689.887 2.13163e-10 -636.854)
(-324.927 -18081.1 5.38967e-09 1181.22 -2.85809e-10 -856.291)
(-437.149 -17011.5 -4.53292e-09 1558.92 3.46517e-10 -1121.78)
(-799.893 -13259.8 4.56032e-09 2020.55 -5.17845e-10 -1220.66)
(458.221 -5960.12 -5.33055e-09 -728.892 -4.56225e-10 270.671)
(275.56 -14968.1 5.72254e-09 -263.714 4.55458e-11 -11.8468)
(74.5906 -18995.7 -6.40102e-09 227.34 7.55165e-11 -301.93)
(-291.128 -19713.3 -5.88443e-09 998.909 3.05363e-10 -707.781)
(-518.758 -17748.4 9.16407e-09 1419.09 -5.90717e-10 -900.335)
(-515.913 -13330.9 2.48656e-09 1651.99 -2.50793e-10 -1136.07)
(-733.449 -8088.02 5.38984e-09 1942.96 -8.69426e-10 -1209.51)
(507.451 -6257.89 -3.80987e-09 -2870.01 -1.25419e-09 2362.56)
(376.776 -16280.1 2.874e-10 -612.929 -2.65459e-11 236.153)
(126.072 -20556.2 -1.32604e-09 -102.516 -8.83205e-12 -23.5563)
(-147.328 -21140.9 7.16682e-09 525.498 -1.37391e-10 -378.17)
(-473.766 -18451.8 -4.42742e-09 1225.93 2.4238e-10 -752.167)
(-524.486 -13125.7 2.67573e-09 1423.28 -2.60002e-10 -898.794)
(-416.533 -7522.56 -1.48884e-09 1551.03 2.87855e-10 -1134.5)
(-662.883 -3889.06 -1.28657e-09 1841.96 3.25423e-10 -1179.08)
(2420.56 -5891.44 -5.75437e-09 -9958.49 -8.12452e-09 7537.93)
(473.48 -18163.8 6.83758e-09 -2792.12 1.04797e-09 2318.64)
(153.989 -22836.3 -6.85395e-09 -353.324 -1.29944e-10 199.336)
(-111.449 -22109.5 -5.97356e-09 180.87 4.33573e-11 -69.4204)
(-275.129 -18831.8 4.70027e-09 687.247 -1.57115e-10 -412.118)
(-449.672 -12873.1 2.47201e-09 1204.29 -1.6189e-10 -754.618)
(-409.096 -7121.5 -1.56433e-10 1274.03 -1.29603e-11 -864.934)
(-360.684 -3713.69 6.50743e-10 1498.74 -2.46928e-10 -1138.06)
(-638.558 -2000.3 4.31797e-10 1791.42 -2.60259e-10 -1152.86)
(5324.33 -5189.17 -5.91808e-09 -17496.5 -1.36006e-08 12172.1)
(2436.06 -16874.5 2.09184e-10 -9917.29 4.54747e-12 7481.23)
(432.07 -26020 -7.16682e-10 -2748.96 -2.85809e-10 2316.89)
(-146.573 -24155.4 8.33097e-09 -14.3277 7.46212e-11 160.901)
(-212.658 -18951.7 -4.89126e-09 289.907 6.61373e-11 -77.2492)
(-254.158 -12479.6 -5.45697e-11 689.388 2.29079e-11 -435.23)
(-344.954 -6868.01 -1.30603e-09 1068.17 1.3074e-10 -723.213)
(-355.647 -3582.52 -5.26597e-10 1192.1 1.51999e-10 -836.45)
(-378.77 -2112.13 1.46883e-10 1535.23 -2.96268e-10 -1156.46)
(-605.117 -1186.55 -3.84858e-10 1714.58 1.48788e-10 -1109.46)
(6383.07 -4118.46 -4.18822e-10 -18794.6 -7.28687e-09 12411.5)
(5393.62 -14215.2 1.56433e-10 -17526 2.01908e-10 12132.4)
(2753.06 -23860.6 -8.41464e-09 -10321.3 -3.18141e-09 7568.2)
(460.937 -26253 -5.28598e-09 -2814.91 -3.63343e-10 2353.97)
(-203.411 -19222.3 4.99858e-09 11.182 2.47411e-11 192.229)
(-84.0238 -12139.9 2.51748e-09 115.275 1.41469e-11 -31.2508)
(-195.839 -6645.01 -2.18279e-11 630.261 -4.96243e-11 -434.423)
(-307.342 -3635.73 6.98947e-10 1002.58 -1.06866e-10 -695.239)
(-344.256 -2052.57 1.73031e-10 1162.52 -1.23919e-10 -818.265)
(-405.413 -1359.18 6.03677e-11 1587.73 -1.64164e-10 -1182.31)
(-555.404 -668.757 -2.5382e-10 1602.04 1.6481e-10 -1046.63)
(903.704 -3451.26 -1.31604e-09 -4643.09 -3.94084e-09 3739.38)
(6531.61 -9949.36 2.27556e-09 -18983.9 6.27006e-09 12452.3)
(5792.76 -18977.2 -5.80076e-09 -17941.8 -5.26052e-09 12149.1)
(3195.01 -24573.1 7.5197e-09 -10819.2 3.00679e-09 7624.19)
(703.622 -20247.9 -4.56748e-09 -3261.57 -1.0748e-09 2557.94)
(-62.9784 -11648.8 -2.18279e-11 -231.288 1.44689e-10 294.266)
(21.4349 -6429.17 -1.43518e-09 -28.3336 -4.45795e-11 6.89868)
(-195.744 -3685.98 -4.4156e-10 640.816 2.18279e-11 -445.072)
(-294.766 -2153.19 6.92353e-10 962.734 -1.86219e-10 -667.969)
(-329.801 -1264.49 1.50067e-10 1138.51 -1.43018e-10 -808.708)
(-436.896 -914.443 -5.5303e-10 1651.96 1.72577e-10 -1215.06)
(-477.219 -327.835 -1.41164e-10 1418.33 -3.76232e-12 -941.116)
(207.401 -3617.54 -1.86992e-09 -952.802 -3.79146e-10 745.401)
(1029.26 -8020.97 -1.91267e-09 -4855.95 1.61435e-10 3826.7)
(6787.95 -11944.7 -1.62436e-09 -19169.4 -8.80391e-10 12381.4)
(6303.86 -19416.8 7.3378e-09 -18389.7 4.41651e-09 12085.9)
(3677.64 -20146.5 8.34552e-09 -11497.1 4.28645e-09 7819.44)
(1011.68 -13624 2.44836e-09 -3919.87 5.66615e-10 2908.19)
(31.2138 -6704.58 -2.99224e-10 -524.902 -1.34577e-11 493.688)
(25.3531 -3608.45 3.58796e-10 -61.2925 -4.26752e-11 35.9393)
(-216.998 -2271.56 5.3592e-10 683.483 -7.42943e-11 -466.485)
(-271.176 -1320.36 -3.52429e-12 906.075 -6.23004e-11 -634.899)
(-322.97 -845.333 -4.45652e-11 1136.54 7.07132e-11 -813.569)
(-467.315 -679.154 1.89686e-10 1695.41 1.90994e-11 -1228.1)
(-406.498 -95.1587 2.50751e-11 1233.91 -1.45862e-10 -827.417)
(82.9309 -3736.93 -2.95313e-09 -224.481 -1.60242e-10 141.55)
(221.506 -8381.66 3.96267e-09 -993.179 3.86649e-10 771.672)
(1148.25 -9142.19 -2.83399e-09 -4999.93 -1.92586e-09 3851.68)
(7168.25 -12204.2 -2.87037e-09 -19481.4 -5.66251e-09 12313.1)
(6655.11 -16744.2 4.80759e-09 -18578.4 4.07999e-09 11923.3)
(4010.91 -14117 3.14685e-09 -12073.7 2.26646e-09 8062.82)
(1377.03 -9566.11 -1.5043e-09 -4786.93 -1.08867e-09 3409.9)
(142.268 -4590.6 -6.97128e-10 -925.395 -3.23155e-10 783.127)
(25.2154 -2250.46 5.70026e-10 -110.314 1.37987e-11 85.0985)
(-213.932 -1480.6 9.14042e-11 676.719 -7.16227e-11 -462.787)
(-252.362 -881.664 -5.27962e-10 855.175 1.11982e-10 -602.813)
(-341.254 -675.43 1.57002e-10 1178.01 1.40972e-11 -836.751)
(-487.092 -516.97 -1.30797e-10 1700.68 8.89031e-11 -1213.59)
(-333.593 141.289 -6.17533e-11 1038.02 1.3452e-10 -704.426)
(-34.0811 -4073.01 -1.99316e-09 135.313 5.20117e-11 -101.232)
(32.6997 -8609.39 -4.91127e-11 -153.407 -5.25802e-12 120.707)
(224.833 -9625.07 -5.12955e-10 -1005.05 -7.61702e-12 780.213)
(1403.63 -8915.75 3.04135e-09 -5375.6 8.20364e-10 3971.97)
(7446.85 -11178.4 -2.76486e-09 -19573.4 -4.1382e-09 12126.6)
(6621.35 -11932.8 1.06047e-09 -18243.1 5.92991e-10 11621.8)
(4286.98 -10277 -7.80346e-10 -12524 -6.61203e-10 8237)
(1849.15 -7647.19 9.8953e-10 -5934.68 8.51287e-10 4085.53)
(362.226 -3646.56 3.39924e-10 -1615.27 1.14142e-10 1253.05)
(34.451 -1625.17 4.99881e-10 -219.321 1.52198e-11 184.87)
(-163.242 -1136.34 2.11003e-10 551.005 -2.1771e-11 -387.764)
(-236.568 -686.623 -3.23496e-10 794.513 -9.9476e-12 -557.945)
(-393.779 -660.094 -2.28539e-10 1293.01 1.20167e-10 -899.23)
(-389.04 -350.401 -4.13678e-11 1435.53 -8.66294e-11 -1046.49)
(-298.156 313.338 1.74353e-10 890.039 6.29168e-11 -591.883)
(-55.0623 -4081.86 -2.12458e-09 227.521 1.85878e-10 -172.458)
(-48.4049 -8969.99 5.97811e-09 140.735 -9.72022e-11 -92.3297)
(3.58897 -9772.92 -3.50246e-09 -100.558 -3.83693e-13 96.9687)
(263.595 -9600.14 -2.70302e-09 -1077.2 -2.61252e-10 813.603)
(1745.86 -8563.45 4.97857e-09 -5884.21 2.56841e-09 4138.34)
(7356.92 -7808.31 2.7394e-09 -19152.9 2.50475e-09 11796)
(6281.58 -7656.44 -7.69433e-10 -17367.7 -2.18279e-11 11086.1)
(4554.29 -8807.21 -1.13414e-09 -12930.6 -1.38061e-09 8376.36)
(2500.78 -7319.47 1.72122e-09 -7511.91 2.25646e-09 5011.13)
(763.668 -3655.47 1.32331e-10 -2807.47 4.44288e-10 2043.81)
(70.0388 -1634.81 1.29603e-11 -481.996 -1.64107e-10 411.957)
(-63.3351 -1069.97 8.77094e-11 276.773 -2.23679e-11 -213.438)
(-148.856 -665.793 -2.26237e-11 579.904 9.95897e-11 -431.049)
(-455.873 -806.219 -1.02034e-10 1398.08 1.65983e-10 -942.206)
(-256.987 -155.243 -1.76733e-10 1017.37 -2.88765e-11 -760.384)
(-249.767 318.4 -9.95328e-11 728.322 -6.10534e-12 -478.555)
(-84.5306 -4157.95 -1.90812e-09 313.002 1.2966e-10 -228.471)
(-75.9122 -8931.36 7.59428e-10 263.533 1.13687e-13 -187.62)
(-46.4835 -9792.8 -4.36285e-09 139.894 4.20641e-11 -93.4104)
(-1.48677 -9774.22 2.71302e-09 -83.928 -1.30598e-11 85.4148)
(324.829 -9733.18 -2.45473e-09 -1195.87 -3.39924e-11 871.045)
(2135.14 -7089.39 1.66074e-09 -6606.04 1.50658e-09 4470.9)
(6757.22 -3098.07 -1.15097e-09 -17919.1 -2.73758e-09 11161.9)
(5747.33 -5236.18 -1.90994e-11 -15911.8 -1.63709e-09 10164.4)
(4775.59 -8017.42 1.1637e-09 -13189.5 1.57161e-09 8413.94)
(3355.38 -7686.23 4.5975e-10 -9519.1 7.90351e-10 6163.72)
(1516.37 -4562.22 2.66027e-11 -4820.06 -2.00998e-10 3303.69)
(287.693 -2363.05 1.42904e-10 -1278.66 -5.36602e-11 990.964)
(-4.03742 -1359.27 1.4893e-10 -74.2446 -5.15854e-12 78.2821)
(-6.30401 -879.689 -5.85771e-11 182.619 -2.57785e-11 -176.315)
(-444.175 -999.572 -3.98472e-11 1283.83 2.20552e-11 -839.657)
(-62.8001 -154.27 8.20322e-12 419.011 -1.73941e-11 -356.211)
(-202.586 27.3798 -3.72893e-11 508.348 -3.26814e-11 -305.762)
(-110.466 -4135.5 -3.23962e-09 381.765 2.99053e-10 -271.299)
(-102.711 -8970.82 4.89581e-09 345.728 -1.0894e-10 -243.017)
(-82.2993 -9718.36 -3.5825e-09 283.417 8.74536e-11 -201.117)
(-43.7408 -9818.08 -2.85399e-09 139.465 2.9587e-11 -95.7238)
(-3.87504 -10144.5 5.03769e-09 -81.3635 7.2589e-11 85.2386)
(406.716 -9279.26 2.2801e-09 -1396.3 2.10434e-10 989.588)
(2453.72 -3119.1 -4.92946e-10 -7417.79 4.96584e-10 4964.07)
(5911.76 377.036 5.86397e-10 -16077.1 2.17733e-09 10165.4)
(4986.97 -3852.62 9.91122e-10 -13862.2 1.51158e-09 8875.28)
(4814.96 -7282.22 2.7876e-10 -12942.8 1.60253e-09 8127.88)
(4313.59 -8196.28 -6.02995e-10 -11657.8 -1.04592e-09 7344.25)
(2741.14 -6147.57 2.251e-10 -7878.71 -6.73026e-11 5137.57)
(1085.3 -3772.44 1.27329e-11 -3501.47 -2.23963e-10 2416.16)
(319.267 -2341.84 -2.88651e-10 -1154.26 -2.66425e-10 834.988)
(213.179 -1558 -3.01497e-10 -536.012 -1.3938e-10 322.833)
(-241.762 -1716.99 -4.76348e-11 587.964 -9.02105e-11 -346.202)
(410.528 -345.358 -5.9484e-11 -1063.12 -8.83347e-11 652.589)
(-95.8603 -885.647 1.5163e-10 291.578 5.58344e-11 -195.718)
(-107.161 -4070.1 -3.00361e-09 383.529 3.00872e-10 -276.368)
(-118.846 -8913.97 7.69433e-10 404.686 -4.20641e-12 -285.84)
(-111.615 -9732.04 -1.29694e-09 369.383 1.3415e-11 -257.768)
(-96.3338 -9911.47 2.68392e-09 309.906 -7.52323e-11 -213.572)
(-62.4658 -10274.9 -3.04226e-09 162.062 3.82556e-11 -99.5965)
(2.72749 -10005.4 2.52294e-09 -111.949 2.84182e-11 109.221)
(507.144 -6361.47 -1.82627e-09 -1727.35 -2.73985e-10 1220.21)
(2844.41 1168.11 2.6148e-11 -8415.48 -1.89539e-09 5571.07)
(4857.42 2354.33 1.24722e-09 -13680.6 2.02817e-09 8823.13)
(4044.98 -2793.46 2.88765e-10 -11309.8 1.14778e-09 7264.83)
(4461.92 -6377.14 -4.73392e-10 -11748.9 -8.71296e-10 7286.98)
(4978.77 -8330.5 2.02363e-10 -13008.6 1.9736e-10 8029.8)
(4295.84 -7995.47 -1.40972e-10 -11506.2 -3.86535e-10 7210.36)
(2753.28 -6351.09 3.10138e-10 -7727.76 6.3028e-10 4974.48)
(1596.81 -4707.85 -1.28011e-10 -4716.93 -2.14641e-10 3120.12)
(930.482 -4006.92 4.86125e-10 -2848.48 6.45059e-10 1918)
(1112.77 -3192.46 2.02363e-10 -3181.62 2.62162e-10 2068.85)
(1001.41 -3034.13 9.45874e-11 -2988.92 2.11458e-11 1987.51)
(1030.96 -2228.48 2.03499e-11 -3112.01 2.63753e-11 2081.05)
(-39.7103 -4020.17 3.21234e-09 228.417 -9.90781e-11 -188.707)
(-116.586 -8869.27 -3.18323e-11 410.438 -5.00222e-12 -293.852)
(-131.523 -9792.09 -4.00814e-09 431.462 1.1886e-10 -299.94)
(-134.621 -10118.1 -3.47609e-09 402.122 1.0084e-10 -267.501)
(-135.73 -10552.3 1.96633e-09 359.309 -9.28821e-11 -223.579)
(-91.4585 -10180.1 2.87855e-09 195.241 -2.03215e-11 -103.783)
(20.2508 -7336.42 -2.71939e-10 -180.966 -2.92601e-11 160.715)
(679.608 -2666.96 2.65572e-10 -2268.84 2.96495e-10 1589.23)
(3324.62 4051.19 2.15067e-10 -9560.93 -3.4197e-10 6236.3)
(3567.11 3486.78 1.65642e-10 -10678.4 1.13232e-09 7111.28)
(2929.12 -1873.86 -1.31877e-11 -8339.17 -5.84805e-10 5410.05)
(3630.38 -5088.35 -1.41654e-10 -9403.64 1.32786e-10 5773.26)
(4785.64 -7445.72 4.6839e-10 -12278.7 3.16504e-10 7493.02)
(5226.3 -8744.75 -7.36691e-10 -13580 -1.75623e-09 8353.65)
(4663 -9005.83 -1.9736e-10 -12267.1 -3.07409e-10 7604.06)
(3720.55 -8144.62 -5.33419e-10 -10223.4 -9.95897e-10 6502.82)
(3014.72 -7820.53 -3.04226e-10 -8341.34 -3.83807e-10 5326.62)
(2993.85 -6397.61 -1.4029e-10 -8824.48 -1.90539e-10 5830.63)
(2655.87 -7126.33 -4.61569e-11 -8025.76 -2.72848e-11 5369.89)
(2876.2 -4596.88 2.15209e-10 -8209.49 6.1732e-10 5333.3)
(4.39643 -4022.11 -4.45652e-09 106.707 1.01764e-10 -111.104)
(-52.8439 -8888.15 5.73891e-10 258.002 -5.51381e-12 -205.159)
(-134.976 -9965.76 -3.50246e-09 440.422 1.20394e-10 -305.447)
(-164.355 -10396.1 3.35785e-09 474.536 -1.12607e-10 -310.18)
(-180.539 -10847.9 -2.28465e-09 457.144 9.32232e-11 -276.605)
(-172.727 -10383.7 5.45697e-12 396.804 -1.96394e-11 -224.078)
(-92.8148 -7511.84 -1.87174e-09 186.894 5.1827e-11 -94.0788)
(62.1181 -4003.8 1.06866e-10 -297.565 -8.26788e-11 235.447)
(961.691 -195.686 3.56067e-10 -3111.41 2.87855e-10 2149.71)
(3662.62 6031.82 3.10365e-10 -10440.7 7.68523e-10 6778.12)
(2193.67 3889.03 4.84306e-11 -7391.3 -6.56655e-10 5197.62)
(1921.59 -1110.27 1.41313e-10 -5549.96 3.72893e-11 3628.37)
(2488.79 -3504.98 -1.8531e-10 -6348.35 1.35515e-10 3859.56)
(3507.04 -5419.32 4.33829e-10 -8917.23 1.05683e-09 5410.19)
(4328.41 -7225.48 -5.36602e-11 -11117.4 -3.29237e-10 6788.99)
(4542.59 -8562.25 3.75167e-10 -11799.2 8.47649e-10 7256.61)
(4308.83 -8895.44 3.41061e-10 -11421.9 5.09317e-10 7113.07)
(3891.09 -8377.55 1.30058e-10 -10728.9 3.27418e-10 6837.84)
(3581.17 -7796.71 6.84395e-11 -9993.75 2.04636e-10 6412.58)
(2921.05 -6826.54 -1.41426e-10 -9317.69 -2.86491e-10 6396.64)
(3578.46 -3724.8 1.91271e-10 -8934.77 2.11429e-10 5356.31)
(41.9566 -4047.1 -7.58519e-10 6.30651 1.26867e-11 -48.2631)
(-10.6202 -8978.1 1.88265e-10 134.844 -1.90425e-12 -124.224)
(-76.7114 -10222.7 -1.95541e-10 293.255 -3.09797e-12 -216.544)
(-175.725 -10761.5 1.82263e-09 490.638 -1.12891e-10 -314.913)
(-214.492 -11170.2 2.01362e-09 532.31 -1.12038e-10 -317.818)
(-214.58 -10451.1 3.04772e-09 490.465 -8.50946e-11 -275.885)
(-162.766 -7518.35 -2.84672e-10 383.362 2.84217e-13 -220.595)
(-67.5856 -4258.08 3.41515e-10 145.125 -3.09939e-11 -77.5398)
(106.671 -2054.62 2.83762e-10 -470.728 6.03109e-11 364.057)
(1409.07 1617.4 7.56586e-11 -4401.17 3.45608e-10 2992.1)
(3644.2 7255.97 8.79936e-10 -10562.2 -1.87902e-09 6918.02)
(921.194 3838.81 2.41698e-10 -4188.1 -3.5925e-11 3266.9)
(1029.28 -552.129 5.06901e-11 -3033.38 -1.58252e-10 2004.09)
(1238.81 -1850.68 -2.93198e-10 -3169.79 -4.76575e-10 1930.99)
(1670.62 -2873.49 -5.88898e-11 -4246.75 1.03682e-10 2576.13)
(2099.94 -4123.09 -3.02634e-10 -5324.87 -3.01043e-10 3224.92)
(2335.88 -5179.54 -3.76303e-10 -5953.01 -5.77074e-10 3617.13)
(2369.7 -5418.9 6.04814e-11 -6169.79 2.11912e-10 3800.09)
(2274.21 -4763.35 1.27102e-10 -6018.96 2.08729e-10 3744.75)
(1938.2 -3616.98 4.52474e-11 -5166.66 2.6148e-11 3228.46)
(783.182 -2879.7 1.28694e-10 -3548.19 1.54159e-10 2765.01)
(2443.42 111.395 5.61045e-11 -6006.91 1.69848e-10 3563.5)
(69.2099 -4132.15 -3.49246e-09 -66.5285 -2.95337e-11 -2.6814)
(23.8419 -9126.5 2.64845e-09 34.9516 -1.98668e-11 -58.7936)
(-38.3091 -10504.8 -3.88718e-09 173.158 5.14575e-11 -134.849)
(-123.769 -11149.5 1.10776e-09 351.661 -7.56017e-12 -227.892)
(-226.769 -11496.5 2.11912e-09 548.647 -1.07036e-10 -321.878)
(-242.703 -10526.1 3.41061e-10 557.924 -6.19593e-12 -315.221)
(-190.113 -7462.78 -1.71258e-09 463.493 7.42375e-11 -273.38)
(-145.49 -4303.43 -3.99723e-10 357.34 3.97335e-11 -211.851)
(-66.7773 -2455.55 1.15028e-09 118.228 -4.664e-11 -51.451)
(205.487 -822.419 2.2078e-10 -793.183 8.67999e-11 587.696)
(2048.03 3422.59 1.2858e-10 -6200.02 -5.08408e-10 4151.99)
(3122.76 7630.93 -1.97815e-10 -9537.99 -1.0823e-10 6415.23)
(-106.085 3368.08 4.0859e-10 -1401.2 -1.80535e-10 1507.28)
(269.366 36.2487 5.55502e-11 -915.541 -9.06084e-11 646.174)
(246.961 -579.574 -1.03e-10 -674.201 -1.57456e-11 427.239)
(335.706 -1006.6 -1.68257e-11 -796.866 9.79981e-11 461.16)
(420.097 -1628.44 1.5126e-10 -866.265 4.26894e-11 446.168)
(473.092 -2053.68 -1.32673e-10 -924.537 -1.04649e-10 451.445)
(508.463 -1832.62 5.30349e-11 -1112.67 7.46923e-11 604.212)
(448.36 -1246.39 1.7792e-11 -1075.9 1.34719e-11 627.536)
(295.354 -493.802 -4.04299e-11 -814.282 6.53699e-12 518.928)
(-251.181 434.77 8.75247e-11 -696.089 1.47793e-11 947.27)
(1149.46 2576.09 -1.06354e-10 -3766.14 1.57229e-10 2616.68)
(81.4878 -4304.92 -3.09228e-09 -106.885 -3.14415e-11 25.3967)
(46.6991 -9377.68 -2.00089e-10 -39.2032 -4.42313e-13 -7.49589)
(-10.988 -10837.4 -9.49512e-10 81.2271 3.23297e-12 -70.2391)
(-85.9389 -11493 3.81624e-09 230.339 -6.52562e-11 -144.4)
(-168.609 -11749.2 2.98314e-10 403.263 -1.36993e-11 -234.654)
(-245.361 -10561.2 -6.33918e-10 566.4 5.11591e-12 -321.039)
(-211.55 -7398.67 4.01997e-10 519.631 4.3201e-12 -308.081)
(-176.482 -4308.01 8.95852e-10 435.916 -6.3153e-11 -259.434)
(-137.677 -2569.52 9.627e-10 333.815 -4.41673e-11 -196.138)
(-53.2964 -1439.9 3.82897e-10 76.8883 1.54188e-11 -23.5919)
(412.331 262.802 -3.03999e-10 -1425.7 -2.28852e-10 1013.37)
(2742.86 5412.91 9.68612e-11 -8196.41 4.36557e-11 5453.55)
(2242.1 6840.2 6.73936e-10 -7529.07 -1.00772e-09 5286.97)
(-636.294 2523.26 2.08843e-10 334.684 -1.77749e-10 301.611)
(-266.08 432.806 -1.45761e-10 516.362 -4.77485e-12 -250.283)
(-209.509 13.4141 -1.38616e-10 487.587 -1.71383e-11 -278.078)
(-177.077 -352.373 -2.99281e-11 610.277 2.65459e-11 -433.2)
(-199.497 -733.99 -2.03784e-11 877.269 2.51816e-11 -677.772)
(-221.711 -785.713 -1.01863e-10 932.283 4.61e-11 -710.572)
(-171.786 -404.248 1.77636e-12 619.287 4.88853e-12 -447.501)
(-123.242 -61.4271 1.30438e-11 340.969 -9.49285e-12 -217.727)
(-39.9026 265.83 2.78817e-11 -4.56837 7.91189e-12 44.4709)
(-160.124 2501.42 -7.95239e-11 -1456.18 4.8999e-11 1616.3)
(382.382 3111.35 -6.91216e-11 -2578.79 1.58593e-11 2196.41)
(103.528 -4562.82 -3.12593e-09 -169.925 -1.09537e-10 66.3973)
(45.9256 -9735.33 6.99856e-09 -65.3067 3.36584e-11 19.3811)
(7.73462 -11165.8 -3.96722e-09 10.4432 1.92735e-12 -18.1778)
(-52.6345 -11781.2 -3.05954e-09 129.444 2.81943e-11 -76.809)
(-118.24 -11877.2 6.34282e-09 269.502 -1.04421e-10 -151.262)
(-175.361 -10546.6 5.22414e-09 413.291 -1.24231e-10 -237.93)
(-214.151 -7358.92 -5.0477e-10 529.1 -6.82121e-13 -314.949)
(-196.315 -4308.57 -7.50788e-10 486.159 6.33236e-11 -289.845)
(-159.556 -2556.68 5.97311e-10 408.068 -8.57199e-11 -248.512)
(-110.482 -1582.99 2.9695e-10 284.955 -4.33715e-11 -174.473)
(-38.828 -776.95 -6.969e-11 -7.03356 4.59579e-11 45.8615)
(825.162 1688.56 -1.02688e-10 -2635.31 -4.11546e-11 1810.15)
(3186.76 6930.74 1.09594e-10 -9606.58 -1.51886e-10 6419.82)
(1316.09 5175.5 2.30557e-10 -5170.49 -3.39242e-10 3854.4)
(-579.617 1531.42 -5.79803e-11 692.02 -5.64171e-11 -112.403)
(-442.048 476.4 -1.06382e-10 985.687 5.43423e-11 -543.639)
(-295.674 82.7767 1.22377e-10 789.942 -2.29647e-11 -494.268)
(-296.396 -339.618 7.82592e-11 985.904 4.74643e-11 -689.507)
(-348.255 -659.98 -2.07194e-11 1265.32 1.22782e-11 -917.066)
(-341.08 -464.353 -7.77902e-11 1139.1 -5.57066e-12 -798.024)
(-219.342 -89.2927 -1.91527e-11 691.963 -9.26548e-12 -472.621)
(-115.681 185.463 1.56888e-11 281.45 -2.67164e-12 -165.768)
(176.647 1019.86 3.24007e-11 -759.677 -1.54046e-11 583.03)
(-122.147 3901.41 -1.03455e-11 -2442.07 4.06999e-11 2564.22)
(29.0413 2104.07 3.24007e-12 -1443.93 6.2073e-11 1414.88)
(108.258 -4813.79 -2.30875e-09 -199.768 -6.97327e-11 91.5098)
(63.9635 -10121.3 8.92214e-10 -125.715 1.00897e-12 61.7515)
(17.3696 -11427.8 -4.50564e-09 -33.3172 -8.74678e-12 15.9476)
(-25.4212 -11954.3 4.29281e-09 54.1604 -1.35572e-11 -28.7392)
(-70.6337 -11903.3 -3.0268e-09 155.172 2.75264e-11 -84.5379)
(-115.853 -10473.2 2.84763e-09 273.736 -4.33147e-11 -157.882)
(-156.73 -7322.55 -1.21236e-09 394.832 5.94298e-11 -238.102)
(-202.574 -4349.44 -9.39053e-10 498.203 5.83782e-11 -295.63)
(-174.529 -2566.92 7.54881e-10 447.327 -4.58726e-11 -272.798)
(-142.145 -1612.79 4.502e-11 377.038 -3.79998e-11 -234.893)
(-84.6649 -1019.28 -1.29944e-10 213.729 1.64277e-11 -129.064)
(41.7624 -43.1542 9.37348e-11 -264.28 -4.73221e-12 222.518)
(1524.3 3408.85 6.37783e-11 -4640.79 -2.06001e-10 3116.49)
(3006.83 7366.7 -5.45697e-11 -9478.98 1.33696e-10 6472.15)
(679.347 3261.53 2.14186e-10 -3169.88 -1.56888e-10 2490.53)
(-176.048 669.418 1.34463e-10 165.969 -5.64562e-11 10.079)
(-221.73 263.198 1.03483e-10 576.642 -2.77396e-11 -354.912)
(-241.977 -100.247 -1.10951e-11 745.433 -1.10276e-11 -503.457)
(-294.299 -568.818 2.13731e-11 1088.04 -1.13687e-13 -793.746)
(-308.409 -661.802 -2.19131e-11 1161.45 1.17097e-11 -853.045)
(-244.47 -316.158 6.65494e-11 814.584 -1.92131e-11 -570.114)
(-123.819 37.218 3.78391e-11 366.298 2.92744e-12 -242.479)
(19.9123 392.472 5.28644e-12 -150.585 4.91696e-12 130.672)
(354.794 2482.17 3.30829e-11 -2130.03 -5.09317e-11 1775.24)
(-77.3412 3460.82 -4.08136e-11 -2348.4 5.78666e-11 2425.74)
(-8.47593 1035.99 -6.19593e-11 -724.239 1.33582e-11 732.715)
(112.096 -5131.42 -4.94219e-09 -220.717 -1.53022e-10 108.62)
(64.2912 -10578.2 3.79987e-09 -150.861 4.74927e-11 86.5696)
(29.831 -11664.9 -3.38696e-09 -84.3104 -2.24389e-11 54.4794)
(-6.90849 -12094 -3.10501e-09 -2.29931 -2.79776e-14 9.2078)
(-49.1207 -11875.3 6.18456e-09 93.1853 -3.54845e-11 -44.0646)
(-68.6879 -10402 2.21644e-09 162.498 -2.52953e-11 -93.8103)
(-108.814 -7269.55 -8.54925e-11 269.296 -5.34328e-12 -160.481)
(-153.964 -4366.47 6.73481e-10 385.35 -5.8094e-11 -231.385)
(-177.669 -2607.04 -9.45874e-11 457.401 -3.04112e-11 -279.731)
(-155.51 -1668.92 2.60798e-10 405.182 -4.03872e-11 -249.672)
(-133.104 -1108.04 -3.00361e-10 345.999 3.11502e-11 -212.895)
(-58.5674 -431.68 2.85127e-10 139.729 -2.23963e-11 -81.1619)
(247.794 753.167 -1.85267e-10 -896.284 -9.67475e-11 648.49)
(2384.91 5348.26 7.75344e-11 -7135.44 -3.83352e-10 4750.53)
(2189.56 6487.66 -4.32919e-10 -7562.87 7.25777e-10 5373.32)
(383.224 1650.17 -1.73486e-10 -1829.65 4.09273e-12 1446.43)
(12.327 141.054 -1.48326e-10 -122.616 -2.37108e-11 110.289)
(-94.8437 -40.9911 4.2399e-11 306.595 3.29692e-12 -211.752)
(-194.854 -391.494 -3.81277e-11 719.915 1.0175e-11 -525.061)
(-288.314 -751.587 -4.5759e-12 1106.25 -1.90425e-11 -817.94)
(-243.287 -599.165 2.48974e-11 906.704 -3.78009e-11 -663.417)
(-131.94 -179.535 -2.17639e-11 429.941 -2.81375e-12 -298.001)
(-33.8908 99.1477 7.27667e-11 60.1975 -4.28857e-12 -26.3067)
(256.506 1340.31 2.54659e-11 -1261.16 -3.63798e-12 1004.65)
(248.789 3390.9 -6.58247e-11 -2738.06 8.32188e-11 2489.27)
(-47.1108 2021.67 -9.37916e-12 -1415.18 -4.93401e-11 1462.29)
(-7.85439 467.809 6.942e-12 -328.105 -6.46594e-12 335.96)
(101.864 -5441.99 -4.9813e-09 -207.679 -1.45619e-10 105.814)
(63.0923 -10966.3 -8.73115e-11 -165.84 -4.26326e-14 102.748)
(37.0258 -11834.7 -1.36242e-09 -118.608 -2.8848e-12 81.5826)
(16.0469 -12147.1 3.76713e-09 -63.6943 1.67546e-11 47.6474)
(-7.44079 -11855.1 -2.77396e-09 -2.02472 6.35048e-13 9.46551)
(-38.2975 -10362.2 3.35876e-09 86.8652 -9.22284e-12 -48.5677)
(-64.9944 -7236.73 -1.30331e-09 157.165 1.53335e-11 -92.1709)
(-107.78 -4324.24 -3.38787e-10 268.807 2.40163e-11 -161.027)
(-140.919 -2634.88 7.3328e-10 372.691 -3.75735e-11 -231.771)
(-162.973 -1769.77 2.6148e-10 417.738 -4.81464e-11 -254.765)
(-145.418 -1176.74 -9.0381e-11 363.985 2.75122e-11 -218.567)
(-111.553 -586.783 2.52555e-10 290.258 1.25056e-12 -178.705)
(-54.7049 -33.2196 5.27507e-11 73.2272 -1.22355e-11 -18.5223)
(764.497 1934.76 9.40759e-11 -2365.14 -5.36602e-11 1600.65)
(2869.17 6929.32 8.13998e-11 -8781.47 -1.22782e-10 5912.3)
(1089.67 4660.44 4.70664e-11 -4572.44 2.4329e-10 3482.78)
(72.9068 796.321 4.15525e-11 -632.462 2.67733e-11 559.556)
(-37.2751 11.7642 -6.77414e-11 84.9784 -1.4424e-11 -47.7033)
(-116.282 -175.782 5.59623e-11 403.188 -1.7053e-13 -286.906)
(-229.428 -657.544 -8.89884e-11 918.454 -9.49285e-12 -689.026)
(-251.865 -748.528 -2.37037e-11 999.858 1.31877e-11 -747.993)
(-159.115 -414.256 -4.43237e-11 591.574 1.52625e-11 -432.459)
(-42.5839 -51.9556 -3.57261e-11 122.773 -3.11218e-12 -80.1886)
(162.989 487.745 -5.79803e-11 -573.727 -1.77351e-11 410.738)
(290.343 2926.09 -4.01315e-11 -2460.13 1.21645e-11 2169.79)
(80.04 2642.51 -1.75646e-11 -2011.87 1.59162e-11 1931.83)
(-39.6518 934.08 2.70859e-11 -625.705 3.9222e-12 665.357)
(-13.2714 252.536 1.07256e-11 -149.472 2.97007e-12 162.744)
(75.769 -5663.09 -1.67802e-09 -158.49 -5.74687e-11 82.7211)
(63.0088 -11276 -2.25555e-10 -166.463 -3.97904e-13 103.454)
(49.3698 -11810.1 -4.09455e-09 -144.083 -3.81419e-11 94.7133)
(42.6188 -12027.8 -4.19823e-09 -117.628 -2.61196e-11 75.0094)
(21.6868 -11789.9 2.8831e-09 -59.8059 1.52625e-11 38.1191)
(1.73565 -10281.6 2.61844e-09 -8.68538 6.2137e-12 6.94974)
(-27.0271 -7224.59 -2.18279e-10 63.6924 -6.60805e-12 -36.6653)
(-59.6312 -4270.33 7.92625e-10 149.757 -1.99094e-11 -90.1257)
(-101.142 -2616.08 1.67347e-10 270.541 -1.69393e-11 -169.399)
(-146.567 -1861.95 -3.41061e-10 371.82 6.3352e-11 -225.252)
(-150.296 -1277.59 2.0691e-11 372.477 2.15721e-11 -222.181)
(-117.348 -643.181 -1.02034e-10 300.894 -8.86757e-12 -183.546)
(-82.3553 -233.538 1.69649e-10 204.211 2.14584e-12 -121.856)
(53.9525 373.583 1.86198e-11 -250.582 -1.18234e-11 196.629)
(1643.58 3731.13 4.25189e-11 -4864.81 -2.23736e-10 3221.24)
(2491.59 7115.57 -1.21418e-10 -8238.98 -9.09495e-12 5747.39)
(295.593 2769.16 -5.01359e-11 -1966.76 -1.48475e-10 1671.17)
(-143.48 419.7 -4.76916e-11 170.513 2.01172e-11 -27.0324)
(-97.4228 24.6539 5.80354e-11 277.639 1.48788e-11 -180.216)
(-163.127 -403.195 6.87379e-11 643.335 1.7053e-13 -480.207)
(-238.331 -799.123 -3.87388e-11 994.713 -3.0127e-12 -756.382)
(-180.514 -619.81 1.17609e-10 753.349 9.77707e-12 -572.835)
(-71.5288 -201.597 8.12506e-11 255.714 5.95435e-12 -184.185)
(62.187 103.423 -2.38458e-11 -178.253 2.51532e-12 116.066)
(328.296 1894.99 -2.51248e-11 -1786.47 -1.18234e-11 1458.17)
(109.654 3223.96 2.66027e-11 -2454.42 -4.84306e-11 2344.76)
(15.6621 1371.59 -3.86535e-11 -995.932 1.29603e-11 980.27)
(-44.8806 437.089 7.9865e-12 -245.521 2.359e-12 290.401)
(-15.9388 178.355 4.72262e-11 -85.2025 5.39302e-12 101.141)
(58.4009 -5750.06 -5.88625e-09 -113.642 -7.85576e-11 55.2409)
(48.2106 -11441.2 4.65479e-09 -124.546 3.80709e-11 76.3352)
(61.0607 -11715.1 -3.90901e-09 -158.143 -4.00462e-11 97.082)
(58.9792 -11887.2 3.59796e-09 -145.765 3.58824e-11 86.7857)
(47.6196 -11749.2 -3.3906e-09 -113.726 -2.07905e-11 66.106)
(17.1303 -10285.3 2.79215e-10 -55.2751 7.24754e-13 38.1447)
(-2.1167 -7220.66 -1.08776e-09 -3.66674 -1.19105e-12 5.78344)
(-22.5665 -4232.18 -6.23459e-10 56.9832 6.72173e-12 -34.4167)
(-54.189 -2598.74 5.92763e-10 150.723 -3.5854e-11 -96.5338)
(-118.156 -1894.74 3.6971e-10 292.403 -3.11786e-11 -174.247)
(-145.721 -1354.16 -4.76234e-10 358.277 2.29647e-11 -212.556)
(-120.226 -724.587 3.51463e-10 305.861 -6.39488e-12 -185.634)
(-87.4853 -316.433 -9.11484e-11 228.688 9.46443e-12 -141.202)
(-40.0478 1.18583 4.26326e-13 95.738 -7.60281e-12 -55.6901)
(395.551 1109.08 -1.9611e-11 -1230.35 -5.07043e-11 834.798)
(2491.92 5748.09 -1.02546e-10 -7503.67 6.84395e-10 5011.75)
(1577.39 5517.45 6.13909e-12 -5868.48 1.04592e-10 4291.09)
(10.4514 1274.5 -4.43379e-12 -649.912 -3.69482e-11 639.461)
(-71.5213 179.968 6.2613e-11 183.965 6.03961e-13 -112.444)
(-102.698 -141.672 3.28555e-11 366.558 -1.33582e-12 -263.861)
(-193.07 -701.756 -1.36026e-10 839.883 2.44427e-12 -646.814)
(-189.511 -798.611 -8.18545e-11 858.678 -4.03588e-12 -669.167)
(-91.2052 -404.059 -1.32474e-10 400.612 2.92744e-12 -309.407)
(-2.98349 -45.0689 1.49143e-11 9.28504 -1.16263e-12 -6.30155)
(251.456 902.404 7.78755e-12 -1000.15 3.63229e-11 748.691)
(199.403 3209.12 1.27329e-11 -2535.48 -1.01181e-11 2336.08)
(23.6342 2050.51 -1.80194e-11 -1491.89 2.18279e-11 1468.25)
(-11.775 604.622 -1.97815e-11 -401.794 3.93641e-12 413.569)
(-49.1702 253.49 7.83729e-12 -104.061 1.46372e-12 153.231)
(-14.5955 150.845 4.1922e-12 -69.7187 -4.25437e-12 84.3143)
(8.42134 -5837.7 -2.79579e-09 1.32765 2.18225e-12 -9.74899)
(27.6418 -11474.5 7.18501e-10 -64.1318 -3.19034e-12 36.49)
(44.3748 -11604.2 -3.12866e-10 -108.184 -4.87432e-12 63.8091)
(66.5788 -11796.3 4.5693e-09 -155.434 3.52713e-11 88.8552)
(56.5442 -11795 3.39969e-09 -136.629 3.06528e-11 80.0846)
(28.2804 -10319.7 2.54204e-09 -92.7434 1.42748e-11 64.463)
(19.9349 -7216.54 -4.54747e-11 -62.1481 -2.16716e-12 42.2133)
(3.57165 -4215.56 1.18143e-09 -11.5674 -1.64668e-12 7.99573)
(-17.8187 -2593.87 7.34872e-10 53.9657 -7.0699e-12 -36.147)
(-71.3463 -1905.77 3.71983e-10 172.239 -1.95115e-11 -100.893)
(-123.958 -1360.16 -3.41174e-10 303.06 1.90141e-11 -179.101)
(-126.355 -788.015 3.18096e-10 319.861 -2.359e-11 -193.506)
(-89.7718 -396.403 1.14909e-10 231.523 9.26548e-12 -141.751)
(-55.1992 -107.006 7.67812e-11 148 2.0421e-11 -92.8008)
(21.0391 187.412 -1.77314e-10 -95.6412 4.79616e-12 74.6021)