/*--------------------------------*- C++ -*----------------------------------*\
| =========                 |                                                 |
| \\      /  F ield         | OpenFOAM: The Open Source CFD Toolbox           |
|  \\    /   O peration     | Version:  v2012                                 |
|   \\  /    A nd           | Website:  www.openfoam.com                      |
|    \\/     M anipulation  |                                                 |
\*---------------------------------------------------------------------------*/
FoamFile
{
    version     2.0;
    format      ascii;
    class       volScalarField;
    location    "12000";
    object      T;
}
// * * * * * * * * * * * * * * * * * * * * * * * * * * * * * * * * * * * * * //

dimensions      [0 0 0 1 0 0 0];


internalField   nonuniform List<scalar> 
27324
(
160.556
163.162
159.876
164.534
162.352
158.471
165.914
163.633
160.706
156.383
167.019
164.894
161.828
158.3
153.597
167.743
165.879
162.889
159.21
155.147
150.267
168.103
166.476
163.667
160.01
155.834
151.664
147.511
168.318
166.722
164.037
160.535
156.394
152.326
149.104
145.942
162.19
166.815
164.062
160.71
156.735
152.905
149.906
147.67
145.053
151.538
160.659
163.791
160.353
156.82
153.322
150.608
148.546
146.798
144.484
138.949
150.253
157.925
159.705
156.277
153.476
151.146
149.287
147.699
146.208
144.08
130.544
137.989
147.993
154.191
155.531
153.129
151.39
149.86
148.42
147.138
145.757
143.858
128.894
129.769
136.431
144.955
150.098
152.282
151.194
150.136
148.972
147.839
146.737
145.443
143.716
128.636
128.133
128.52
134.36
141.418
146.659
149.832
149.827
149.258
148.372
147.433
146.466
145.156
143.712
128.725
127.875
126.895
126.937
131.744
138.171
144.126
147.938
148.76
148.683
147.938
147.151
146.217
144.97
143.845
128.948
127.905
126.618
125.286
124.963
128.965
135.777
141.892
146.179
147.869
148.208
147.577
146.905
145.974
144.832
144.12
129.237
128.128
126.62
124.988
123.278
122.558
126.877
134.012
139.667
144.206
146.779
147.672
147.193
146.668
145.575
144.889
144.308
129.556
128.384
126.817
124.958
122.954
120.774
120.35
125.79
132.532
137.422
141.813
145.133
146.636
146.583
146.245
145.141
144.657
144.126
129.9
128.67
127.044
125.133
122.902
120.407
118.239
119.286
125.233
131.322
135.111
138.824
142.448
144.894
145.257
145.34
143.506
144.537
142.827
130.211
128.989
127.303
125.322
123.04
120.359
117.805
116.567
119.086
125.235
130.333
132.887
135.408
138.333
140.794
141.761
141.481
140.862
139.327
140.665
130.44
129.279
127.589
125.545
123.193
120.457
117.753
115.987
115.694
119.655
125.568
129.645
131.003
132.212
133.652
134.763
134.973
134.344
133.11
131.526
133.769
130.608
129.473
127.846
125.784
123.38
120.58
117.836
115.916
114.878
115.302
120.865
126.253
129.155
129.701
130.008
130.169
129.855
129.033
128.051
127.131
126.543
129.969
130.71
129.606
128.011
126.003
123.575
120.736
117.986
116.029
114.774
114.072
115.452
122.649
127.229
128.885
129.145
129.122
128.607
127.553
126.445
125.804
125.662
126.068
131.55
130.777
129.679
128.119
126.145
123.751
120.903
118.15
116.178
114.848
113.892
113.569
116.392
124.686
128.377
129.039
129.191
128.992
128.239
126.987
126.027
125.571
125.832
127.302
135.826
130.811
129.719
128.182
126.229
123.862
121.055
118.332
116.362
115.01
113.954
113.241
113.476
118.322
126.583
129.32
129.348
129.333
128.928
127.866
126.63
125.977
125.848
126.449
130.969
139.52
130.814
129.73
128.207
126.273
123.93
121.152
118.498
116.553
115.184
114.118
113.24
112.836
114.024
121.03
128.099
129.789
129.741
129.5
128.761
127.501
126.455
126.073
126.203
128.517
135.96
141.587
130.798
129.718
128.216
126.298
123.961
121.207
118.613
116.732
115.368
114.281
113.399
112.793
112.719
115.457
124.072
129.036
129.927
129.815
129.408
128.321
127.026
126.295
126.188
126.923
132.945
139.719
142.553
130.786
129.672
128.171
126.27
123.935
121.211
118.681
116.861
115.543
114.451
113.537
112.918
112.54
112.947
118.21
126.675
129.461
129.901
129.767
129.085
127.732
126.603
126.216
126.334
129.801
137.738
141.693
143.12
130.771
129.625
128.122
126.214
123.898
121.194
118.711
116.944
115.676
114.616
113.68
113.045
112.581
112.424
114.028
121.922
128.537
129.869
129.936
129.678
128.508
127.121
126.307
126.191
127.616
134.878
140.79
142.678
143.593
130.785
129.595
128.069
126.159
123.839
121.149
118.717
116.984
115.766
114.748
113.824
113.167
112.685
112.414
112.609
116.405
125.6
129.679
130.077
130.034
129.255
127.779
126.551
126.171
126.516
131.735
139.263
142.282
143.293
144.049
130.846
129.601
128.023
126.09
123.766
121.092
118.685
116.995
115.81
114.842
113.958
113.294
112.776
112.486
112.381
113.337
120.321
128.16
130.172
130.183
129.825
128.527
126.947
126.189
126.146
128.956
137.094
141.619
143.077
143.796
144.447
130.925
129.614
127.994
126.02
123.687
121.017
118.638
116.973
115.824
114.89
114.064
113.419
112.873
112.558
112.397
112.481
115.411
124.65
129.422
130.208
130.124
129.253
127.511
126.343
126.068
127.13
134.297
140.624
142.758
143.643
144.222
144.666
131.027
129.659
128.004
125.966
123.616
120.946
118.579
116.92
115.818
114.913
114.124
113.521
112.986
112.636
112.428
112.356
113.051
119.371
127.908
129.978
130.218
129.822
128.208
126.652
126.062
126.291
131.285
139.114
142.323
143.448
144.092
144.473
144.691
131.133
129.738
128.052
125.982
123.567
120.885
118.518
116.858
115.773
114.876
114.148
113.581
113.092
112.738
112.471
112.352
112.431
114.912
124.209
129.52
130.232
130.134
128.947
127.148
126.157
126.05
128.689
136.979
141.68
143.217
143.944
144.354
144.535
144.759
131.241
129.818
128.112
126.005
123.551
120.845
118.458
116.793
115.731
114.832
114.136
113.594
113.169
112.845
112.535
112.362
112.327
112.898
119.085
127.699
130.108
130.202
129.598
127.817
126.39
126.019
126.984
134.272
140.72
142.916
143.79
144.219
144.438
144.636
145.531
131.305
129.871
128.172
126.034
123.545
120.831
118.421
116.733
115.683
114.786
114.117
113.582
113.205
112.938
112.619
112.397
112.306
112.366
114.859
124.227
129.416
130.184
130.035
128.594
126.805
126.02
126.179
131.346
139.305
142.501
143.614
144.089
144.327
144.569
145.464
146.64
131.314
129.89
128.208
126.084
123.571
120.826
118.411
116.7
115.643
114.737
114.088
113.551
113.211
112.997
112.713
112.447
112.311
112.265
112.888
119.351
127.996
129.994
130.225
129.365
127.394
126.15
125.932
128.773
137.322
141.908
143.4
143.96
144.216
144.499
145.409
146.826
147.902
131.301
129.887
128.255
126.149
123.601
120.857
118.422
116.689
115.621
114.695
114.057
113.514
113.203
113.024
112.79
112.536
112.319
112.237
112.346
115.108
124.852
129.697
130.265
129.966
128.141
126.392
125.892
127.013
134.79
141.045
143.122
143.828
144.108
144.434
145.354
146.921
148.381
149.184
131.287
129.84
128.23
126.178
123.641
120.88
118.454
116.692
115.609
114.671
114.028
113.479
113.189
113.026
112.845
112.632
112.392
112.228
112.241
112.944
120.342
128.425
130.283
130.295
128.953
126.836
125.889
126.126
131.966
139.792
142.749
143.68
144.008
144.37
145.318
146.966
148.626
149.909
150.454
131.246
129.772
128.176
126.146
123.644
120.901
118.493
116.736
115.629
114.664
114.01
113.448
113.179
113.025
112.877
112.721
112.497
112.277
112.22
112.299
115.96
126.017
129.907
130.406
129.692
127.444
126.01
125.83
129.327
138.038
142.229
143.5
143.921
144.303
145.31
147.026
148.869
150.305
151.357
151.732
131.241
129.715
128.1
126.115
123.622
120.906
118.529
116.771
115.656
114.672
114.001
113.427
113.172
113.026
112.895
112.79
112.617
112.366
112.225
112.193
113.341
122.083
129.216
130.412
130.193
128.208
126.269
125.775
127.345
135.751
141.49
143.267
143.836
144.24
145.317
147.084
149.08
150.725
151.866
152.759
153.013
131.284
129.68
128.044
126.045
123.601
120.86
118.547
116.809
115.681
114.713
114.006
113.415
113.167
113.025
112.912
112.838
112.73
112.494
112.304
112.211
112.395
117.649
127.374
130.323
130.413
129.03
126.723
125.771
126.205
133.076
140.44
142.953
143.749
144.203
145.34
147.154
149.27
151.107
152.422
153.35
154.128
154.261
131.356
129.673
127.996
125.969
123.528
120.815
118.515
116.827
115.711
114.748
114.018
113.414
113.161
113.023
112.926
112.873
112.816
112.637
112.404
112.243
112.198
114.351
124.243
129.822
130.45
129.778
127.367
125.857
125.736
130.37
138.978
142.517
143.65
144.192
145.367
147.241
149.447
151.463
152.943
154.004
154.779
155.442
155.451
131.468
129.716
127.975
125.914
123.461
120.748
118.468
116.829
115.734
114.78
114.029
113.42
113.158
113.012
112.93
112.901
112.873
112.767
112.545
112.319
112.183
112.802
120.034
128.732
130.448
130.294
128.171
126.096
125.616
128.093
137.036
141.907
143.521
144.211
145.395
147.348
149.62
151.794
153.445
154.627
155.504
156.137
156.683
156.615
131.59
129.809
128.047
125.902
123.424
120.693
118.399
116.785
115.696
114.795
114.036
113.431
113.157
112.993
112.918
112.91
112.909
112.858
112.685
112.419
112.183
112.333
116.032
126.568
130.244
130.53
129.043
126.512
125.594
126.56
134.645
141.057
143.333
144.263
145.424
147.474
149.797
152.104
153.921
155.237
156.203
156.915
157.418
157.856
158.327
131.677
129.883
128.112
125.928
123.411
120.658
118.333
116.737
115.66
114.795
114.029
113.437
113.153
112.969
112.889
112.909
112.923
112.906
112.796
112.531
112.191
112.243
113.489
123.125
129.721
130.586
129.827
127.134
125.628
125.78
132.006
139.896
143.047
144.326
145.457
147.616
149.995
152.399
154.371
155.828
156.896
157.67
158.241
158.612
159.408
161.807
131.693
129.924
128.172
125.978
123.411
120.649
118.283
116.691
115.616
114.773
114.013
113.441
113.15
112.944
112.851
112.859
112.9
112.919
112.861
112.646
112.228
112.224
112.415
119.02
128.428
130.591
130.376
127.918
125.809
125.503
129.484
138.349
142.61
144.413
145.503
147.77
150.216
152.687
154.796
156.396
157.575
158.423
159.045
159.457
160.089
162.625
167.349
131.703
129.935
128.247
126.047
123.464
120.655
118.263
116.661
115.574
114.738
113.983
113.443
113.147
112.92
112.812
112.806
112.854
112.918
112.881
112.744
112.306
112.227
112.112
115.466
126.131
130.42
130.636
128.814
126.16
125.438
127.463
136.375
141.999
144.408
145.575
147.931
150.466
152.978
155.199
156.94
158.238
159.166
159.852
160.29
160.854
163.156
168.074
173.396
131.663
129.887
128.247
126.111
123.505
120.705
118.258
116.649
115.548
114.703
113.949
113.435
113.145
112.907
112.779
112.745
112.792
112.863
112.864
112.809
112.399
112.246
112.047
113.349
122.674
129.901
130.702
129.676
126.715
125.431
126.148
134.042
141.145
144.368
145.687
148.092
150.739
153.283
155.587
157.459
158.883
159.898
160.653
161.132
161.624
163.752
168.542
174.232
178.996
131.656
129.82
128.209
126.112
123.535
120.738
118.313
116.671
115.545
114.68
113.922
113.43
113.151
112.905
112.764
112.696
112.726
112.817
112.838
112.838
112.514
112.329
112.033
112.491
118.712
128.707
130.711
130.346
127.453
125.531
125.478
131.577
139.985
144.175
145.842
148.258
151.031
153.61
155.966
157.951
159.507
160.616
161.447
161.974
162.418
164.36
169.046
174.783
179.988
183.953
131.662
129.785
128.171
126.105
123.525
120.769
118.358
116.708
115.567
114.669
113.905
113.423
113.157
112.925
112.763
112.674
112.678
112.767
112.809
112.848
112.62
112.437
112.03
112.263
115.34
126.504
130.592
130.716
128.333
125.782
125.224
129.297
138.481
143.871
146.101
148.425
151.331
153.964
156.348
158.421
160.108
161.317
162.23
162.816
163.233
164.99
169.548
175.36
180.659
185.097
188.251
131.725
129.759
128.116
126.059
123.473
120.722
118.396
116.745
115.618
114.676
113.897
113.426
113.163
112.946
112.809
112.678
112.66
112.733
112.783
112.855
112.703
112.577
112.11
112.234
113.283
123.274
130.138
130.84
129.258
126.239
125.154
127.505
136.656
143.364
146.347
148.598
151.628
154.347
156.744
158.872
160.683
162
163
163.656
164.067
165.639
170.056
175.928
181.356
185.887
189.536
191.926
131.831
129.804
128.11
126.012
123.415
120.682
118.401
116.78
115.656
114.689
113.907
113.429
113.166
112.969
112.85
112.725
112.66
112.72
112.762
112.862
112.76
112.72
112.198
112.248
112.39
119.464
129.093
130.873
130.09
126.906
125.141
126.357
134.597
142.597
146.59
148.78
151.92
154.757
157.162
159.312
161.233
162.661
163.752
164.49
164.909
166.304
170.57
176.491
182.046
186.706
190.434
193.334
195.042
131.904
129.856
128.152
126.003
123.366
120.625
118.377
116.776
115.685
114.702
113.934
113.436
113.166
112.984
112.892
112.779
112.719
112.729
112.743
112.87
112.798
112.828
112.327
112.266
112.103
116.063
127.151
130.871
130.675
127.734
125.376
125.805
132.456
141.543
146.838
148.974
152.205
155.186
157.61
159.752
161.757
163.301
164.486
165.314
165.757
166.989
171.089
177.049
182.732
187.52
191.365
194.326
196.557
197.678
131.934
129.88
128.171
125.997
123.342
120.586
118.337
116.746
115.686
114.713
113.955
113.443
113.151
112.987
112.918
112.832
112.776
112.762
112.732
112.857
112.815
112.886
112.466
112.297
112.023
113.791
124.253
130.548
130.984
128.671
125.705
125.591
130.488
140.283
146.545
149.287
152.492
155.626
158.089
160.203
162.261
163.915
165.198
166.123
166.607
167.693
171.614
177.601
183.413
188.333
192.293
195.354
197.627
199.285
199.914
131.952
129.895
128.204
126.007
123.339
120.566
118.304
116.72
115.657
114.71
113.975
113.449
113.135
112.951
112.928
112.86
112.834
112.8
112.736
112.829
112.815
112.903
112.6
112.344
111.996
112.681
120.657
129.805
131.088
129.608
126.273
125.541
128.986
138.721
146.198
149.634
152.79
156.063
158.597
160.675
162.752
164.503
165.889
166.913
167.454
168.411
172.146
178.147
184.087
189.144
193.224
196.383
198.736
200.416
201.6
201.824
131.927
129.869
128.208
126.022
123.365
120.579
118.278
116.698
115.621
114.692
113.993
113.453
113.117
112.916
112.88
112.865
112.863
112.833
112.737
112.789
112.778
112.886
112.7
112.435
111.99
112.277
117.184
128.295
131.111
130.459
127.006
125.578
128.09
136.998
145.587
150.051
153.107
156.488
159.128
161.176
163.241
165.066
166.555
167.681
168.291
169.141
172.683
178.686
184.755
189.951
194.156
197.417
199.849
201.593
202.778
203.577
203.472
131.906
129.84
128.191
125.983
123.384
120.61
118.295
116.691
115.588
114.681
114.003
113.465
113.103
112.881
112.826
112.818
112.866
112.854
112.741
112.755
112.721
112.868
112.754
112.554
112.032
112.175
114.564
125.843
131.006
131.076
127.86
126.187
127.718
135.246
144.729
150.423
153.448
156.897
159.674
161.71
163.74
165.606
167.194
168.426
169.114
169.877
173.226
179.216
185.414
190.753
195.088
198.455
200.97
202.774
204.009
204.791
205.283
204.915
131.92
129.798
128.174
125.959
123.361
120.622
118.313
116.709
115.563
114.674
114.013
113.486
113.104
112.856
112.773
112.766
112.828
112.864
112.751
112.733
112.66
112.842
112.775
112.688
112.096
112.164
113.025
122.67
130.472
131.416
128.852
126.8
127.574
133.656
143.615
150.762
153.821
157.293
160.225
162.275
164.259
166.131
167.803
169.144
169.917
170.612
173.772
179.735
186.063
191.551
196.018
199.496
202.098
203.966
205.245
206.065
206.523
206.773
206.197
131.931
129.783
128.149
125.943
123.341
120.618
118.325
116.722
115.552
114.669
114.024
113.503
113.136
112.851
112.737
112.711
112.786
112.844
112.773
112.73
112.619
112.811
112.785
112.798
112.198
112.175
112.309
119.245
129.331
131.574
129.923
127.603
127.597
132.513
142.342
150.48
154.255
157.69
160.774
162.868
164.808
166.652
168.381
169.834
170.696
171.341
174.319
180.242
186.701
192.341
196.946
200.54
203.231
205.166
206.494
207.345
207.831
208.031
208.093
207.356
131.94
129.753
128.149
125.941
123.323
120.604
118.325
116.726
115.549
114.688
114.031
113.521
113.163
112.894
112.73
112.684
112.737
112.83
112.788
112.736
112.601
112.774
112.788
112.864
112.334
112.193
112.034
116.268
127.388
131.617
130.994
128.51
128.042
131.884
140.881
150.079
154.761
158.102
161.312
163.479
165.388
167.18
168.931
170.491
171.449
172.058
174.864
180.736
187.324
193.123
197.872
201.584
204.369
206.374
207.752
208.638
209.144
209.365
209.364
209.281
208.424
131.982
129.717
128.145
125.954
123.303
120.585
118.324
116.688
115.542
114.699
114.037
113.527
113.183
112.933
112.771
112.685
112.705
112.813
112.798
112.8
112.615
112.739
112.775
112.888
112.478
112.234
111.938
114.157
124.766
131.429
131.967
129.546
128.785
131.65
139.41
149.445
155.298
158.54
161.833
164.099
165.998
167.725
169.46
171.11
172.173
172.759
175.404
181.214
187.932
193.895
198.794
202.63
205.512
207.59
209.02
209.942
210.472
210.704
210.717
210.56
210.371
209.429
132.029
129.691
128.123
125.965
123.299
120.565
118.324
116.636
115.526
114.7
114.04
113.523
113.187
112.963
112.822
112.733
112.691
112.787
112.804
112.841
112.643
112.723
112.726
112.89
112.614
112.301
111.904
112.945
121.689
130.703
132.732
130.655
129.757
131.609
138.141
148.621
155.735
159.008
162.339
164.719
166.632
168.296
169.978
171.687
172.864
173.447
175.933
181.674
188.52
194.656
199.71
203.676
206.658
208.812
210.298
211.258
211.812
212.058
212.075
211.927
211.652
211.388
210.392
132.065
129.68
128.089
125.97
123.295
120.582
118.328
116.591
115.515
114.696
114.034
113.509
113.157
112.977
112.858
112.775
112.708
112.765
112.802
112.866
112.689
112.72
112.662
112.867
112.714
112.404
111.896
112.36
118.667
129.443
133.202
131.843
130.888
131.658
137.328
147.624
156.049
159.517
162.841
165.331
167.281
168.894
170.499
172.227
173.52
174.12
176.445
182.113
189.087
195.401
200.62
204.721
207.809
210.042
211.584
212.584
213.165
213.426
213.449
213.298
213.028
212.669
212.356
211.335
132.093
129.673
128.076
125.964
123.302
120.59
118.339
116.552
115.516
114.687
114.025
113.491
113.126
112.945
112.871
112.809
112.72
112.757
112.759
112.872
112.733
112.721
112.593
112.843
112.773
112.533
111.891
112.125
116.158
127.383
133.334
133.158
132.145
132.534
136.974
146.39
155.645
160.099
163.356
165.926
167.934
169.514
171.032
172.737
174.133
174.77
176.941
182.526
189.628
196.128
201.519
205.763
208.961
211.277
212.879
213.921
214.529
214.807
214.838
214.687
214.407
214.049
213.632
213.296
212.278
132.102
129.657
128.072
125.968
123.325
120.594
118.329
116.527
115.524
114.687
114.016
113.476
113.094
112.915
112.842
112.828
112.749
112.751
112.71
112.824
112.754
112.742
112.546
112.803
112.801
112.665
111.964
112.058
114.381
124.916
133.222
134.604
133.504
133.42
136.852
145.066
155.316
160.759
163.894
166.499
168.58
170.15
171.584
173.232
174.7
175.393
177.425
182.91
190.139
196.835
202.407
206.802
210.116
212.517
214.181
215.267
215.905
216.201
216.24
216.09
215.805
215.432
215.013
214.565
214.227
213.237
132.091
129.635
128.075
125.969
123.37
120.605
118.285
116.501
115.543
114.694
114.017
113.457
113.068
112.891
112.816
112.808
112.765
112.748
112.669
112.778
112.76
112.773
112.517
112.742
112.813
112.777
112.05
112.042
113.326
122.217
132.431
135.951
134.929
134.662
136.859
143.946
154.754
161.345
164.454
167.048
169.207
170.791
172.156
173.728
175.228
175.981
177.901
183.264
190.616
197.517
203.28
207.833
211.271
213.762
215.491
216.622
217.291
217.607
217.656
217.508
217.218
216.834
216.395
215.94
215.484
215.166
214.231
132.102
129.627
128.087
125.968
123.423
120.63
118.215
116.481
115.552
114.704
114.024
113.449
113.051
112.883
112.789
112.789
112.769
112.759
112.639
112.726
112.761
112.795
112.532
112.693
112.814
112.852
112.174
112.048
112.822
119.613
131.276
137.035
136.415
136.033
137.306
143.248
154.049
161.745
165.031
167.58
169.807
171.426
172.744
174.237
175.73
176.526
178.366
183.595
191.053
198.171
204.135
208.856
212.423
215.011
216.808
217.987
218.688
219.024
219.085
218.94
218.647
218.253
217.798
217.318
216.85
216.407
216.13
215.277
132.124
129.664
128.114
125.987
123.458
120.642
118.175
116.469
115.546
114.702
114.033
113.448
113.048
112.88
112.777
112.773
112.772
112.776
112.657
112.698
112.725
112.811
112.579
112.668
112.756
112.889
112.307
112.133
112.647
117.514
129.839
137.74
138.005
137.573
138.038
142.977
153.03
161.944
165.652
168.108
170.375
172.046
173.344
174.765
176.222
177.027
178.811
183.908
191.447
198.789
204.968
209.867
213.572
216.261
218.131
219.359
220.095
220.453
220.525
220.385
220.089
219.687
219.217
218.717
218.22
217.76
217.352
217.136
216.392
132.144
129.7
128.188
126.022
123.458
120.637
118.14
116.49
115.525
114.684
114.031
113.439
113.048
112.881
112.779
112.77
112.771
112.789
112.685
112.694
112.685
112.793
112.64
112.669
112.678
112.904
112.46
112.306
112.623
116.121
127.896
138.027
139.72
139.233
139.097
142.852
151.795
161.728
166.334
168.645
170.908
172.64
173.948
175.313
176.717
177.491
179.22
184.207
191.801
199.362
205.773
210.861
214.713
217.51
219.457
220.74
221.511
221.892
221.978
221.843
221.546
221.136
220.653
220.134
219.611
219.116
218.686
218.334
218.202
217.594
132.15
129.713
128.283
126.092
123.444
120.616
118.102
116.529
115.525
114.659
114.01
113.434
113.05
112.872
112.77
112.766
112.774
112.778
112.721
112.698
112.646
112.775
112.702
112.677
112.58
112.908
112.636
112.491
112.746
115.414
125.859
137.448
141.549
140.979
140.403
143.223
150.666
161.529
166.985
169.183
171.406
173.2
174.549
175.879
177.22
177.932
179.581
184.473
192.118
199.881
206.537
211.831
215.84
218.754
220.785
222.126
222.936
223.342
223.442
223.314
223.017
222.6
222.105
221.567
221.02
220.496
220.024
219.644
219.37
219.343
218.898
132.201
129.702
128.351
126.158
123.425
120.582
118.076
116.563
115.525
114.65
113.981
113.42
113.064
112.865
112.748
112.753
112.774
112.776
112.735
112.704
112.617
112.737
112.736
112.709
112.5
112.867
112.824
112.711
113.093
115.219
123.925
136.74
143.239
142.789
141.913
143.572
149.916
161.144
167.455
169.712
171.876
173.725
175.136
176.452
177.725
178.354
179.892
184.682
192.396
200.343
207.245
212.765
216.946
219.987
222.11
223.514
224.367
224.801
224.918
224.797
224.5
224.078
223.572
223.017
222.447
221.893
221.387
220.959
220.649
220.476
220.577
220.32
132.415
129.715
128.379
126.174
123.389
120.56
118.064
116.574
115.521
114.65
113.966
113.395
113.069
112.872
112.732
112.723
112.77
112.774
112.744
112.708
112.605
112.69
112.749
112.759
112.454
112.825
113.024
112.961
113.579
115.288
122.36
135.698
144.599
144.637
143.563
144.22
149.406
160.306
167.67
170.243
172.335
174.217
175.695
177.016
178.217
178.757
180.158
184.814
192.61
200.752
207.879
213.641
218.015
221.197
223.424
224.901
225.803
226.268
226.403
226.291
225.996
225.57
225.053
224.483
223.892
223.31
222.769
222.3
221.936
221.718
221.668
221.917
221.87
132.529
129.834
128.391
126.153
123.332
120.531
118.084
116.574
115.492
114.661
113.966
113.377
113.066
112.888
112.734
112.697
112.755
112.774
112.747
112.722
112.644
112.666
112.749
112.804
112.429
112.789
113.233
113.259
114.148
115.522
121.499
134.595
145.418
146.563
145.356
145.194
149.554
159.248
167.72
170.804
172.799
174.681
176.206
177.544
178.674
179.131
180.376
184.878
192.727
201.096
208.434
214.437
219.032
222.377
224.72
226.279
227.238
227.74
227.897
227.796
227.504
227.074
226.549
225.964
225.353
224.745
224.171
223.661
223.249
222.97
222.866
222.961
223.377
223.554
132.537
129.847
128.402
126.105
123.271
120.465
118.142
116.578
115.473
114.662
113.982
113.38
113.036
112.888
112.756
112.688
112.719
112.777
112.762
112.699
112.666
112.667
112.699
112.834
112.509
112.771
113.433
113.622
114.796
116.112
121.133
133.134
145.713
148.582
147.269
146.405
149.771
157.983
167.676
171.343
173.265
175.112
176.643
178
179.079
179.457
180.54
184.905
192.756
201.348
208.926
215.145
219.978
223.51
225.977
227.629
228.656
229.206
229.394
229.31
229.024
228.592
228.058
227.46
226.83
226.198
225.592
225.044
224.585
224.25
224.076
224.108
224.368
224.964
225.373
132.798
129.674
128.363
126.079
123.241
120.376
118.177
116.57
115.474
114.658
113.987
113.401
113.027
112.853
112.769
112.711
112.698
112.759
112.781
112.708
112.672
112.67
112.658
112.811
112.628
112.777
113.642
114.074
115.539
117.001
121.473
131.733
145.475
150.671
149.258
147.835
150.261
156.783
167.533
171.739
173.711
175.498
176.984
178.352
179.412
179.718
180.653
184.735
192.799
201.49
209.355
215.79
220.821
224.55
227.17
228.94
230.051
230.66
230.887
230.827
230.552
230.121
229.581
228.971
228.323
227.667
227.032
226.447
225.943
225.554
225.317
225.27
225.457
225.898
226.682
227.322
133.364
129.741
128.166
126.067
123.288
120.334
118.186
116.562
115.495
114.667
113.98
113.427
113.033
112.807
112.763
112.761
112.696
112.702
112.806
112.727
112.666
112.67
112.621
112.773
112.765
112.894
113.886
114.64
116.386
118.14
121.844
130.616
145.106
152.525
151.283
149.45
150.827
155.803
166.876
171.932
174.128
175.822
177.21
178.577
179.658
179.903
180.698
184.624
192.355
201.561
209.678
216.384
221.553
225.483
228.297
230.196
231.407
232.09
232.368
232.34
232.083
231.659
231.116
230.495
229.831
229.152
228.489
227.87
227.323
226.882
226.583
226.464
226.565
226.923
227.556
228.528
229.389
133.43
130.35
128.133
125.906
123.333
120.341
118.187
116.543
115.54
114.696
113.973
113.428
113.067
112.801
112.699
112.775
112.717
112.655
112.802
112.781
112.667
112.663
112.672
112.767
112.914
113.067
114.201
115.333
117.353
119.388
122.442
129.827
144.591
153.934
153.326
151.166
151.461
155.084
165.937
172.031
174.524
176.055
177.32
178.674
179.807
179.998
180.67
184.36
192.062
201.231
209.829
216.821
222.218
226.293
229.319
231.382
232.708
233.479
233.824
233.842
233.613
233.201
232.66
232.032
231.353
230.654
229.964
229.311
228.724
228.233
227.875
227.686
227.706
227.971
228.514
229.341
230.494
231.56
133.997
130.554
128.797
125.885
123.289
120.463
118.203
116.551
115.572
114.725
113.981
113.412
113.065
112.831
112.681
112.763
112.793
112.646
112.732
112.831
112.69
112.569
112.77
112.792
113.052
113.377
114.645
116.172
118.443
120.746
123.434
130.049
143.883
154.764
155.415
152.975
152.326
155.213
164.674
172.057
174.81
176.164
177.332
178.681
179.847
180.02
180.569
184.11
191.717
200.926
209.745
217.074
222.799
227.02
230.188
232.468
233.937
234.813
235.238
235.317
235.129
234.742
234.21
233.58
232.889
232.171
231.456
230.771
230.145
229.608
229.192
228.936
228.877
229.053
229.497
230.23
231.248
232.568
233.818
153.233
135.668
129.072
126.518
123.301
120.53
118.293
116.611
115.591
114.723
114.013
113.412
113.032
112.844
112.698
112.656
112.799
112.708
112.674
112.821
112.8
112.502
112.813
112.829
113.183
113.831
115.265
117.167
119.658
122.195
124.698
130.337
142.829
155.156
157.539
154.843
153.338
155.31
163.273
171.984
174.9
176.186
177.324
178.572
179.742
179.975
180.41
183.795
191.296
200.601
209.495
217.206
223.158
227.746
230.93
233.389
235.068
236.073
236.596
236.75
236.619
236.269
235.758
235.133
234.436
233.703
232.965
232.249
231.586
231.003
230.534
230.212
230.077
230.167
230.515
231.146
232.067
233.265
234.733
236.147
155.171
151.377
135.375
127.27
123.851
120.595
118.35
116.742
115.612
114.725
114.024
113.44
113.018
112.821
112.77
112.648
112.743
112.846
112.674
112.706
112.894
112.484
112.797
113.08
113.421
114.445
116.097
118.323
120.997
123.716
126.197
131.033
141.695
155.429
159.577
156.753
154.462
155.73
161.827
171.127
174.877
176.176
177.091
178.3
179.492
179.776
180.212
183.481
190.815
200.211
209.272
217.108
223.488
228.157
231.789
234.128
236.033
237.235
237.88
238.126
238.065
237.769
237.292
236.685
235.99
235.247
234.488
233.745
233.046
232.42
231.899
231.515
231.307
231.312
231.566
232.097
232.915
234.017
235.378
236.976
238.533
155.104
154.164
150.372
134.914
125.013
121.304
118.268
116.847
115.68
114.697
114.042
113.452
113.054
112.784
112.778
112.706
112.656
112.853
112.746
112.527
112.922
112.575
112.776
113.478
113.818
115.25
117.154
119.639
122.457
125.299
127.867
131.892
140.586
155.542
161.264
158.69
155.681
156.246
160.497
170.131
174.441
175.848
176.808
177.965
179.178
179.518
179.989
183.165
190.34
199.738
209.064
216.956
223.559
228.646
232.227
235.089
236.764
238.235
239.059
239.427
239.454
239.225
238.799
238.223
237.543
236.798
236.025
235.258
234.526
233.859
233.287
232.844
232.565
232.488
232.65
233.081
233.797
234.798
236.066
237.573
239.282
240.965
155.105
154.118
152.173
148.108
134.157
123.329
118.842
116.801
115.79
114.693
114.012
113.449
113.091
112.817
112.725
112.777
112.652
112.771
112.856
112.452
112.848
112.987
112.873
113.944
114.47
116.266
118.434
121.115
124.031
126.95
129.592
132.891
139.587
155.453
162.488
160.611
156.965
156.788
159.376
168.651
173.918
175.515
176.472
177.607
178.846
179.229
179.754
182.876
189.867
199.298
208.733
217.009
223.332
228.829
232.81
235.533
237.8
238.955
240.086
240.615
240.769
240.624
240.262
239.734
239.083
238.349
237.571
236.785
236.023
235.317
234.698
234.197
233.85
233.695
233.767
234.099
234.713
235.611
236.783
238.201
239.834
241.638
243.435
155.056
154.11
152.057
149.458
146.331
134.114
122.643
117.865
115.755
114.908
114.002
113.425
113.078
112.915
112.728
112.777
112.798
112.592
112.886
112.579
112.745
113.436
113.112
114.533
115.437
117.52
119.932
122.745
125.72
128.671
131.354
134.172
140.001
155.072
163.205
162.512
158.328
157.268
158.512
166.869
173.097
175.075
176.142
177.273
178.518
178.953
179.501
182.604
189.404
198.845
208.455
216.86
223.621
228.504
233.075
236.172
238.236
240.048
240.796
241.663
241.962
241.948
241.667
241.201
240.595
239.887
239.117
238.322
237.537
236.796
236.131
235.575
235.163
234.931
234.916
235.151
235.662
236.458
237.531
238.858
240.408
242.151
244.037
245.939
155.032
154.06
152.036
149.337
146.593
144.891
134.72
123.128
117.324
115.116
114.253
113.431
113.074
112.912
112.856
112.646
112.869
112.565
112.728
113.115
112.725
113.88
113.786
115.33
116.722
119.026
121.638
124.528
127.521
130.464
133.152
135.674
140.278
153.924
163.596
164.3
159.784
157.641
157.899
164.869
172.06
174.558
175.802
176.971
178.209
178.68
179.247
182.293
189.153
198.332
208.254
216.668
223.72
229.011
232.678
236.503
238.897
240.469
241.93
242.364
243.023
243.143
242.997
242.61
242.064
241.399
240.651
239.86
239.061
238.292
237.586
236.978
236.503
236.196
236.096
236.237
236.646
237.338
238.31
239.543
241.009
242.674
244.513
246.473
248.474
155.06
154.045
151.984
149.309
146.515
144.968
145.316
136.145
124.778
118.007
114.972
113.871
113.197
112.861
112.925
112.647
112.761
113.016
112.674
113.565
112.872
114.346
114.74
116.486
118.34
120.799
123.543
126.46
129.43
132.323
134.97
137.286
140.97
152.403
163.834
165.814
161.215
157.91
157.441