/*--------------------------------*- C++ -*----------------------------------*\
| =========                 |                                                 |
| \\      /  F ield         | OpenFOAM: The Open Source CFD Toolbox           |
|  \\    /   O peration     | Version:  v2012                                 |
|   \\  /    A nd           | Website:  www.openfoam.com                      |
|    \\/     M anipulation  |                                                 |
\*---------------------------------------------------------------------------*/
FoamFile
{
    version     2.0;
    format      ascii;
    class       volScalarField;
    location    "12000";
    object      TuM;
}
// * * * * * * * * * * * * * * * * * * * * * * * * * * * * * * * * * * * * * //

dimensions      [0 0 0 0 0 0 0];


internalField   nonuniform List<scalar> 
27324
(
0.0322261
0.0313831
0.0343809
0.0305739
0.0338525
0.0371977
0.0295738
0.0333124
0.0368825
0.0380234
0.0284718
0.0325686
0.0364245
0.0374064
0.0339962
0.0272863
0.0316571
0.0356607
0.0364446
0.0322821
0.0229237
0.0260765
0.0305607
0.0345504
0.0349755
0.0301216
0.0201875
0.0108416
0.0248613
0.0292924
0.0330235
0.0329084
0.0274457
0.0174656
0.00866516
0.00413513
0.023773
0.027835
0.0310867
0.0301881
0.0243641
0.0147692
0.00685988
0.00305092
0.00152367
0.0217629
0.0262361
0.0283565
0.0269003
0.0211365
0.0123152
0.00536878
0.0022664
0.00110585
0.000642697
0.0177437
0.024139
0.0258752
0.0237108
0.0182814
0.0104643
0.00423466
0.00171304
0.000848278
0.000515435
0.000358449
0.0136132
0.0208224
0.0239605
0.0214511
0.0159775
0.00920165
0.0036396
0.00134841
0.000702265
0.000450445
0.000324322
0.000248482
0.012574
0.0171689
0.0222009
0.0207307
0.014803
0.00830802
0.00338159
0.00120146
0.000623361
0.000419094
0.000306598
0.000236792
0.000186438
0.0121377
0.0161123
0.01975
0.0208629
0.0153007
0.00810081
0.00321235
0.00117423
0.000595126
0.000402143
0.000296997
0.000229052
0.000180246
0.000143376
0.0117791
0.0157085
0.0187167
0.0202759
0.0169645
0.00900679
0.00328722
0.00115552
0.000592129
0.000394821
0.000290652
0.000224217
0.000175112
0.000139342
0.000110429
0.0114233
0.0153895
0.0182084
0.0195228
0.0184271
0.0109254
0.00383231
0.00121348
0.000588097
0.000394618
0.000287221
0.000220783
0.000171662
0.000135667
0.000107492
8.51852e-05
0.0110696
0.0150513
0.0177768
0.0190235
0.0183117
0.0131588
0.00487039
0.00142194
0.000616731
0.000393952
0.000287137
0.000218745
0.000169304
0.000132919
0.000104689
8.31108e-05
6.5856e-05
0.0107196
0.0147191
0.0173658
0.0185905
0.0179413
0.0135373
0.00618533
0.00179777
0.000700236
0.00041319
0.000288659
0.000217234
0.00016776
0.000131286
0.000102278
8.11177e-05
6.43974e-05
5.10766e-05
0.0103846
0.0143914
0.0169914
0.0182001
0.017522
0.0132741
0.00649954
0.0022959
0.000842364
0.000459923
0.0003037
0.000220486
0.000167263
0.000128798
0.000100785
7.89163e-05
6.2883e-05
4.99857e-05
3.91673e-05
0.0100707
0.0140877
0.0166468
0.0178567
0.0171198
0.0128457
0.00641179
0.00244176
0.00102894
0.000534868
0.000334089
0.000232832
0.000171729
0.000129814
9.94299e-05
7.72276e-05
6.06281e-05
4.84757e-05
3.78516e-05
2.94537e-05
0.00977798
0.0138173
0.016335
0.0175354
0.0167305
0.0123923
0.0062113
0.00245811
0.00110181
0.000631178
0.000380167
0.00025416
0.000181985
0.000134506
0.000101326
7.7549e-05
6.01012e-05
4.706e-05
3.67788e-05
2.89662e-05
2.22275e-05
0.00950282
0.0135775
0.0160443
0.0172244
0.0163333
0.0119217
0.00595835
0.00242882
0.00111181
0.000678659
0.00043761
0.000284669
0.000197848
0.000142915
0.000105511
7.94629e-05
6.08006e-05
4.71965e-05
3.67759e-05
2.86541e-05
2.26487e-05
1.78076e-05
0.00924323
0.0133624
0.015757
0.0169024
0.0159178
0.0114443
0.00566513
0.00235624
0.00111079
0.000678605
0.000474309
0.000321021
0.000218971
0.00015486
0.000112216
8.3076e-05
6.2568e-05
4.8015e-05
3.7177e-05
2.88671e-05
2.2543e-05
1.81064e-05
1.49327e-05
0.00899038
0.0131695
0.0154577
0.0165518
0.0154748
0.0109603
0.00535668
0.00224809
0.00109458
0.000679707
0.000476967
0.000350499
0.000242932
0.000170653
0.000121685
8.87363e-05
6.57106e-05
4.96161e-05
3.81014e-05
2.95369e-05
2.30803e-05
1.82773e-05
1.51933e-05
1.29263e-05
0.00873728
0.012988
0.0151333
0.0161617
0.0150111
0.0104817
0.00503974
0.00212502
0.00106468
0.000676529
0.000476626
0.000355887
0.000265712
0.000187297
0.000132532
9.56008e-05
6.99141e-05
5.20966e-05
3.95733e-05
3.05013e-05
2.37125e-05
1.86866e-05
1.51194e-05
1.31003e-05
1.15658e-05
0.0084726
0.0128003
0.0147733
0.0157308
0.0145354
0.010041
0.00473139
0.00199413
0.00103056
0.000669487
0.000475994
0.000351893
0.000273689
0.000204343
0.000144327
0.000102938
7.45518e-05
5.49214e-05
4.12042e-05
3.15054e-05
2.43889e-05
1.91235e-05
1.53153e-05
1.3e-05
1.1674e-05
1.06993e-05
0.00819295
0.0125909
0.0143728
0.015269
0.0140625
0.00963883
0.00447953
0.00186719
0.000995092
0.000661418
0.00047356
0.000351352
0.000271213
0.000214678
0.000156058
0.000111291
7.96381e-05
5.80862e-05
4.30553e-05
3.25863e-05
2.50813e-05
1.95863e-05
1.55858e-05
1.29492e-05
1.15875e-05
1.07529e-05
1.04956e-05
0.00789504
0.0123458
0.0139317
0.0147874
0.0136039
0.00927264
0.00427663
0.00177333
0.000962348
0.00065294
0.00047051
0.000350218
0.000269787
0.000214847
0.000166071
0.000119184
8.52581e-05
6.15644e-05
4.51642e-05
3.37672e-05
2.58002e-05
2.00593e-05
1.58889e-05
1.29993e-05
1.14994e-05
1.07067e-05
1.03038e-05
1.16721e-05
0.0075826
0.0120596
0.0134539
0.0142983
0.0131606
0.00893271
0.00411208
0.0017069
0.000940102
0.000644903
0.000466991
0.000348594
0.000269089
0.000211844
0.000169343
0.000127092
9.11739e-05
6.53215e-05
4.75004e-05
3.51063e-05
2.65625e-05
2.05434e-05
1.62062e-05
1.3152e-05
1.13801e-05
1.06086e-05
1.01833e-05
1.09024e-05
1.57882e-05
0.00726447
0.0117374
0.0129669
0.0138307
0.0127467
0.00861973
0.00397388
0.00166154
0.000925861
0.000639402
0.000463284
0.000346648
0.000268107
0.000211048
0.000167453
0.000132269
9.68017e-05
6.93648e-05
5.00142e-05
3.66281e-05
2.73979e-05
2.1046e-05
1.65324e-05
1.3349e-05
1.12963e-05
1.04752e-05
1.01132e-05
1.03754e-05
1.383e-05
2.54739e-05
0.00694954
0.0113951
0.0124931
0.0134031
0.0123653
0.00832941
0.0038553
0.00163037
0.000917356
0.000635961
0.00046048
0.000344552
0.000266985
0.000210385
0.000165505
0.000132396
0.000101825
7.35157e-05
5.26993e-05
3.83053e-05
2.83438e-05
2.15746e-05
1.6869e-05
1.35641e-05
1.13408e-05
1.03174e-05
1.00119e-05
1.00396e-05
1.23427e-05
2.14532e-05
4.50247e-05
0.00665114
0.0110549
0.012048
0.0130192
0.0120084
0.0080588
0.00374732
0.00160824
0.000912435
0.000634098
0.000458651
0.000342941
0.000265779
0.000209661
0.000164906
0.000130463
0.000104154
7.72538e-05
5.56179e-05
4.01052e-05
2.94188e-05
2.21498e-05
1.72141e-05
1.37861e-05
1.14505e-05
1.01597e-05
9.8531e-06
9.82651e-06
1.12573e-05
1.81854e-05
3.75566e-05
8.2223e-05
0.00637165
0.0107376
0.0116357
0.0126703
0.0116664
0.00780202
0.0036478
0.00158924
0.000909633
0.000633228
0.000457789
0.000341918
0.000264827
0.00020889
0.000164362
0.000129495
0.000103402
8.03223e-05
5.83212e-05
4.20268e-05
3.0603e-05
2.27992e-05
1.75727e-05
1.4015e-05
1.15875e-05
1.00852e-05
9.67499e-06
9.67606e-06
1.04932e-05
1.55857e-05
3.12793e-05
6.88656e-05
0.000151078
0.00611553
0.0104667
0.0112695
0.0123435
0.0113283
0.00755576
0.00355487
0.00157187
0.000907326
0.000633094
0.000457672
0.000341542
0.000264218
0.00020826
0.000163799
0.000129066
0.000101667
8.13369e-05
6.08173e-05
4.40431e-05
3.18639e-05
2.35416e-05
1.79561e-05
1.42489e-05
1.17343e-05
1.01087e-05
9.48411e-06
9.52151e-06
9.97552e-06
1.35657e-05
2.60636e-05
5.74259e-05
0.000127608
0.000276093
0.00588017
0.0102436
0.0109385
0.0120234
0.0109901
0.00731307
0.00346677
0.00155551
0.000905266
0.000633108
0.000458031
0.000341689
0.00026402
0.000207838
0.000163314
0.000128664
0.000101068
8.04897e-05
6.27092e-05
4.59065e-05
3.31999e-05
2.43669e-05
1.83853e-05
1.44878e-05
1.18861e-05
1.01815e-05
9.30478e-06
9.322e-06
9.63192e-06
1.20422e-05
2.17791e-05
4.77119e-05
0.000107231
0.000235468
0.000499887
0.00565854
0.0100527
0.0106138
0.0116839
0.0106401
0.00707295
0.00337895
0.00153966
0.000903536
0.000633379
0.000458671
0.000342149
0.000264188
0.000207685
0.000162951
0.0001283
0.000100757
7.91388e-05
6.31948e-05
4.75332e-05
3.46111e-05
2.5247e-05
1.88783e-05
1.47374e-05
1.20402e-05
1.02745e-05
9.22038e-06
9.11651e-06
9.39208e-06
1.09333e-05
1.83113e-05
3.9519e-05
8.9673e-05
0.000199773
0.000430926
0.000893577
0.00543792
0.00986625
0.0102726
0.0113127
0.0102798
0.00683415
0.00329084
0.00152318
0.000902112
0.000633835
0.00045953
0.000342763
0.000264588
0.000207804
0.000162768
0.000128006
0.000100491
7.87313e-05
6.25166e-05
4.87684e-05
3.5892e-05
2.61802e-05
1.94341e-05
1.50096e-05
1.21966e-05
1.03723e-05
9.21975e-06
8.90695e-06
9.1869e-06
1.01545e-05
1.55607e-05
3.26647e-05
7.46301e-05
0.00016861
0.000369571
0.000778786
0.00157931
0.00520847
0.00966148
0.00990277
0.0109156
0.0099214
0.00659657
0.00319817
0.00150631
0.000900546
0.00063439
0.000460506
0.000343466
0.00026509
0.00020812
0.000162795
0.000127813
0.000100265
7.85196e-05
6.15234e-05
4.90989e-05
3.69822e-05
2.7149e-05
2.00321e-05
1.53222e-05
1.23542e-05
1.04745e-05
9.26273e-06
8.71327e-06
8.95652e-06
9.62331e-06
1.34311e-05
2.69907e-05
6.18162e-05
0.000141596
0.000315164
0.0006759
0.00139152
0.00276396
0.00496841
0.00941779
0.00951181
0.0105139
0.00957174
0.00636482
0.00309827
0.00148675
0.000898764
0.000634641
0.000461527
0.000344212
0.000265658
0.00020851
0.000162996
0.000127766
0.00010009
7.83536e-05
6.12313e-05
4.86148e-05
3.7824e-05
2.8088e-05
2.0659e-05
1.56819e-05
1.25198e-05
1.05762e-05
9.32388e-06
8.6083e-06
8.7304e-06
9.25846e-06
1.18343e-05
2.23441e-05
5.09854e-05
0.000118306
0.000267362
0.000583306
0.00122267
0.00246149
0.00479352
0.00472088
0.00912936
0.00909866
0.0101199
0.00923865
0.00614209
0.00299718
0.00146295
0.000895879
0.000634457
0.000462326
0.000344965
0.000266248
0.000208936
0.000163251
0.000127853
0.000100008
7.8208e-05
6.11118e-05
4.78782e-05
3.81279e-05
2.87849e-05
2.13285e-05
1.60775e-05
1.27043e-05
1.06782e-05
9.38969e-06
8.58386e-06
8.50871e-06
8.98305e-06
1.0678e-05
1.85995e-05
4.19e-05
9.8348e-05
0.000225621
0.000500757
0.00106834
0.00218882
0.00431379
0.00823364
0.00447369
0.00880374
0.00869488
0.00975768
0.0089272
0.00593324
0.0028999
0.00143832
0.000891533
0.000633616
0.000462832
0.000345577
0.000266835
0.000209365
0.000163544
0.000127996
0.000100016
7.81086e-05
6.10263e-05
4.76102e-05
3.7842e-05
2.93737e-05
2.19857e-05
1.64949e-05
1.29206e-05
1.07794e-05
9.45822e-06
8.60439e-06
8.30243e-06
8.72955e-06
9.8698e-06
1.564e-05
3.43379e-05
8.13237e-05
0.000189457
0.000427614
0.000929163
0.00193624
0.0038802
0.00748592
0.0139799
0.00423653
0.00847065
0.00832481
0.0094473
0.00864104
0.00574201
0.00281596
0.00141445
0.000886232
0.000631842
0.000462896
0.000346022
0.000267321
0.000209781
0.000163838
0.000128166
0.000100106
7.80624e-05
6.09493e-05
4.75241e-05
3.73084e-05
2.96585e-05
2.24821e-05
1.69302e-05
1.31689e-05
1.08859e-05
9.52625e-06
8.64494e-06
8.16562e-06
8.47778e-06
9.31663e-06
1.33625e-05
2.80975e-05
6.69083e-05
0.000158291
0.000363289
0.000804069
0.00170608
0.00347346
0.00680806
0.0128413
0.0233674
0.00402226
0.00814949
0.00799875
0.00917969
0.00837751
0.00556062
0.00274656
0.00139545
0.000880371
0.000629472
0.00046247
0.000346202
0.000267693
0.000210116
0.000164119
0.000128339
0.000100209
7.80697e-05
6.09003e-05
4.74578e-05
3.69737e-05
2.95334e-05
2.28752e-05
1.73834e-05
1.3438e-05
1.10072e-05
9.59269e-06
8.69145e-06
8.11152e-06
8.24227e-06
8.9287e-06
1.16669e-05
2.30119e-05
5.47707e-05
0.00013161
0.000307066
0.000692391
0.0014967
0.0030993
0.00616402
0.0118047
0.0216951
0.0381553
0.00382859
0.00785606
0.00771242
0.00893975
0.00812466
0.00538594
0.00268628
0.00138143
0.000875296
0.000626753
0.000461674
0.000346084
0.000267873
0.000210366
0.000164351
0.0001285
0.000100316
7.81231e-05
6.08743e-05
4.73928e-05
3.69004e-05
2.91585e-05
2.31221e-05
1.77924e-05
1.37186e-05
1.11523e-05
9.65752e-06
8.73971e-06
8.10924e-06
8.02268e-06
8.62586e-06
1.04503e-05
1.89338e-05
4.46248e-05
0.000108863
0.000258287
0.000593225
0.00130733
0.00275532
0.005566
0.0108061
0.0201628
0.0358419
0.0600688
0.00365405
0.00760664
0.00745582
0.00871424
0.00787686
0.0052155
0.00263073
0.00136941
0.000871584
0.00062438
0.000460671
0.00034576
0.000267861
0.000210483
0.000164529
0.000128635
0.000100418
7.81922e-05
6.08805e-05
4.7337e-05
3.68553e-05
2.87173e-05
2.31244e-05
1.80372e-05
1.40147e-05
1.13195e-05
9.72461e-06
8.788e-06
8.13335e-06
7.84247e-06
8.34571e-06
9.60916e-06
1.57286e-05
3.62168e-05
8.9568e-05
0.000216197
0.000505808
0.00113679
0.00244074
0.00501061
0.00986935
0.0186624
0.0337049
0.0571627
0.0897366
0.00349023
0.00737861
0.00721609
0.00849505
0.0076305
0.00504717
0.00257812
0.0013581
0.000868188
0.000622446
0.000459869
0.00034533
0.000267723
0.00021046
0.000164626
0.000128735
0.00010051
7.82541e-05
6.09162e-05
4.72951e-05
3.68076e-05
2.8585e-05
2.28959e-05
1.82228e-05
1.43095e-05
1.14993e-05
9.80241e-06
8.83364e-06
8.1672e-06
7.74648e-06
8.08992e-06
9.03875e-06
1.32806e-05
2.93158e-05
7.32824e-05
0.000180093
0.000429186
0.000984118
0.00215403
0.00449756
0.00898989
0.0172371
0.0315682
0.0544612
0.0865742
0.125001
0.00332854
0.00714869
0.0069689
0.00826763
0.00738774
0.00487741
0.0025264
0.0013474
0.000865208
0.000621028
0.000459325
0.000345061
0.000267517
0.000210346
0.000164621
0.000128813
0.000100593
7.8313e-05
6.0971e-05
4.72729e-05
3.67625e-05
2.85336e-05
2.25679e-05
1.8277e-05
1.45543e-05
1.16864e-05
9.89717e-06
8.87712e-06
8.20353e-06
7.71377e-06
7.85532e-06
8.64207e-06
1.1474e-05
2.37288e-05
5.95947e-05
0.00014928
0.000362487
0.000848124
0.001894
0.00402508
0.00816891
0.0158817
0.0295061
0.0516873
0.0836317
0.122211
0.160325
0.00316439
0.00690164
0.0067185
0.00804334
0.00714741
0.00470727
0.00247315
0.00133669
0.000862426
0.000619889
0.000458956
0.000345011
0.000267414
0.000210185
0.000164554
0.000128817
0.000100659
7.83605e-05
6.10229e-05
4.7276e-05
3.67296e-05
2.84945e-05
2.23235e-05
1.81682e-05
1.46659e-05
1.18812e-05
1.00083e-05
8.91971e-06
8.24083e-06
7.71793e-06
7.6429e-06
8.33472e-06
1.01986e-05
1.9283e-05
4.81692e-05
0.000123072
0.000304792
0.00072775
0.00165909
0.00359195
0.00740496
0.0146005
0.0275125
0.0489584
0.0805045
0.119681
0.158502
0.189461
0.00299352
0.00664176
0.00648196
0.00783012
0.00691791
0.00453456
0.00241615
0.00132506
0.000859364
0.000618809
0.000458665
0.000345113
0.00026745
0.000210088
0.000164456
0.000128778
0.000100707
7.84135e-05
6.10766e-05
4.73008e-05
3.67178e-05
2.84601e-05
2.22622e-05
1.79405e-05
1.47249e-05
1.20725e-05
1.01283e-05
8.9689e-06
8.27624e-06
7.73935e-06
7.49058e-06
8.05819e-06
9.33781e-06
1.5815e-05
3.87012e-05
0.000100882
0.000255107
0.000621871
0.00144792
0.00319621
0.00669761
0.0133935
0.0255968
0.0462657
0.0773606
0.116851
0.157042
0.188775
0.20966
0.00282447
0.00637284
0.00626517
0.00762958
0.00669328
0.00436404
0.00235308
0.00131086
0.000855505
0.000617501
0.000458362
0.000345308
0.000267574
0.000210079
0.000164401
0.00012872
0.000100741
7.84534e-05
6.11271e-05
4.73264e-05
3.6725e-05
2.84314e-05
2.22382e-05
1.76752e-05
1.46851e-05
1.2216e-05
1.02526e-05
9.03075e-06
8.30873e-06
7.76675e-06
7.41051e-06
7.81196e-06
8.76879e-06
1.31875e-05
3.09495e-05
8.21523e-05
0.000212538
0.000529214
0.00125913
0.00283618
0.00604488
0.0122628
0.023763
0.0436244
0.0741843
0.113945
0.155226
0.18861
0.209913
0.221613
0.00266894
0.00612382
0.00608455
0.0074446
0.00647198
0.00419784
0.00228867
0.00129314
0.000850304
0.000615663
0.000457892
0.000345532
0.000267772
0.000210128
0.000164404
0.000128684
0.000100757
7.84887e-05
6.11763e-05
4.73574e-05
3.67525e-05
2.84166e-05
2.22192e-05
1.75239e-05
1.45439e-05
1.22417e-05
1.03819e-05
9.1064e-06
8.33908e-06
7.79611e-06
7.38156e-06
7.58934e-06
8.38263e-06
1.12792e-05
2.46914e-05
6.64311e-05
0.000176157
0.000448602
0.0010911
0.00251004
0.00544535
0.0112078
0.0220175
0.0410421
0.070997
0.110936
0.153325
0.188092
0.21083
0.222518
0.227337
0.0025305
0.00590378
0.00593902
0.00727111
0.00624867
0.00404732
0.00222678
0.00127365
0.000843255
0.000613034
0.000457099
0.000345661
0.000267978
0.00021023
0.000164422
0.000128678
0.000100768
7.85122e-05
6.1222e-05
4.73877e-05
3.67791e-05
2.84151e-05
2.22005e-05
1.74843e-05
1.4341e-05
1.22206e-05
1.05091e-05
9.19039e-06
8.37158e-06
7.82454e-06
7.38237e-06
7.38952e-06
8.09346e-06
9.95801e-06
1.97517e-05
5.33051e-05
0.000145172
0.000378725
0.000942422
0.00221563
0.00489703
0.0102286
0.0203638
0.0385319
0.0678102
0.107839
0.151296
0.18752
0.211429
0.224194
0.228656
0.22869
0.00240852
0.00571334
0.00581434
0.00709457
0.00602082
0.00390587
0.00217582
0.00125402
0.000835252
0.000609528
0.000455816
0.0003456
0.000268122
0.000210337
0.000164476
0.000128676
0.000100774
7.85225e-05
6.12576e-05
4.74156e-05
3.68051e-05
2.84266e-05
2.21906e-05
1.74662e-05
1.41238e-05
1.21306e-05
1.06029e-05
9.27757e-06
8.41258e-06
7.85058e-06
7.39662e-06
7.25433e-06
7.84425e-06
9.08485e-06
1.59485e-05
4.24434e-05
0.000118827
0.000318397
0.000811427
0.00195117
0.00439718
0.0093247
0.0188061
0.036103
0.0646376
0.104658
0.149156
0.186844
0.212014
0.22559
0.230812
0.230262
0.227079
0.00229279
0.00554602
0.00570112
0.00690574
0.0057882
0.00377442
0.00213338
0.00123889
0.000826933
0.000605464
0.000453979
0.000345229
0.000268143
0.00021041
0.000164525
0.000128687
0.000100773
7.85166e-05
6.12814e-05
4.74362e-05
3.68296e-05
2.84446e-05
2.21835e-05
1.74498e-05
1.39962e-05
1.19736e-05
1.05861e-05
9.36668e-06
8.46574e-06
7.87401e-06
7.41455e-06
7.18132e-06
7.62027e-06
8.52481e-06
1.31215e-05
3.35508e-05
9.65145e-05
0.000266399
0.000696575
0.00171449
0.00394351
0.00849396
0.0173482
0.0337667
0.06149
0.101404
0.146903
0.186074
0.212539
0.227009
0.232718
0.232701
0.228792
0.223508
0.00217615
0.00537405
0.00557846
0.0067005
0.00555137
0.0036507
0.00209464
0.00122629
0.000820277
0.00060114
0.000451884
0.000344506
0.000267976
0.000210411
0.000164555
0.000128691
0.000100784
7.85025e-05
6.12886e-05
4.74528e-05
3.68507e-05
2.84607e-05
2.21853e-05
1.74327e-05
1.39588e-05
1.1784e-05
1.05255e-05
9.45887e-06
8.52863e-06
7.8958e-06
7.43761e-06
7.1531e-06
7.41945e-06
8.16141e-06
1.11206e-05
2.63821e-05
7.76929e-05
0.00022169
0.000596119
0.00150372
0.00353301
0.00773468
0.0159916
0.0315336
0.0583841
0.098086
0.144532
0.185206
0.21301
0.228411
0.23467
0.234914
0.231384
0.225292
0.218682
0.00206032
0.00519109
0.00543963
0.00647822
0.00531293
0.00353185
0.00205897
0.00121434
0.000814687
0.000597563
0.000449692
0.000343611
0.000267579
0.000210314
0.000164546
0.000128694
0.000100787
7.84831e-05
6.12742e-05
4.74583e-05
3.68676e-05
2.84738e-05
2.21947e-05
1.74184e-05
1.3944e-05
1.15953e-05
1.04143e-05
9.5305e-06
8.5969e-06
7.92158e-06
7.45702e-06
7.14927e-06
7.2489e-06
7.90107e-06
9.74989e-06
2.07449e-05
6.19342e-05
0.000183276
0.000508474
0.00131663
0.00316329
0.00704346
0.0147384
0.0294122
0.0553369
0.0947194
0.142036
0.184241
0.213422
0.2298
0.236629
0.237185
0.233768
0.227954
0.220491
0.213084
0.00194611
0.00500485
0.00529202
0.00624991
0.00507941
0.00341657
0.00202372
0.00120263
0.000809452
0.000594518
0.000448043
0.000342665
0.000267086
0.000210061
0.000164492
0.000128684
0.000100788
7.84562e-05
6.12482e-05
4.74434e-05
3.688e-05
2.84866e-05
2.22099e-05
1.74079e-05
1.39341e-05
1.14601e-05
1.02515e-05
9.5388e-06
8.66806e-06
7.95484e-06
7.47357e-06
7.1581e-06
7.13015e-06
7.68175e-06
8.87247e-06
1.6444e-05
4.88777e-05
0.000150343
0.000431998
0.00115112
0.00283138
0.00641742
0.013588
0.0274136
0.0523634
0.0913198
0.139422
0.183179
0.213778
0.231177
0.238603
0.23948
0.236217
0.230418
0.223171
0.214892
0.207043
0.00183882
0.00482019
0.00513214
0.00601581
0.0048544
0.00330491
0.0019878
0.0011899
0.000804211
0.000591736
0.00044683
0.000342068
0.000266566
0.00020975
0.000164337
0.000128662
0.00010078
7.84369e-05
6.12154e-05
4.74172e-05
3.68861e-05
2.84958e-05
2.22234e-05
1.74054e-05
1.39251e-05
1.14181e-05
1.00675e-05
9.46308e-06
8.74156e-06
7.99872e-06
7.48804e-06
7.16439e-06
7.06198e-06
7.48143e-06
8.32768e-06
1.33025e-05
3.81985e-05
0.000122205
0.000365282
0.00100484
0.00253478
0.00585261
0.0125395
0.0255448
0.0494831
0.0879028
0.136698
0.182017
0.214085
0.232539
0.240589
0.241803
0.238696
0.232951
0.225657
0.217554
0.20883
0.200779
0.00174086
0.00465066
0.00496313
0.00577098
0.0046388
0.00319855
0.0019498
0.00117588
0.000798385
0.000589063
0.000445897
0.000341735
0.00026625
0.000209439
0.000164144
0.000128589
0.000100772
7.84222e-05
6.11892e-05
4.73875e-05
3.68836e-05
2.8505e-05
2.22358e-05
1.74108e-05
1.39192e-05
1.14067e-05
9.89209e-06
9.34384e-06
8.81094e-06
8.05158e-06
7.50075e-06
7.17878e-06
7.03076e-06
7.30276e-06
7.98093e-06
1.11163e-05
2.96247e-05
9.82714e-05
0.000307079
0.000875573
0.00227042
0.00534594
0.0115897
0.0238141
0.046713
0.0844891
0.133874
0.180757
0.214338
0.233884
0.242586
0.244157
0.241215
0.235519
0.228214
0.220027
0.211455
0.202534
0.194441
0.0016495
0.00449262
0.00478648
0.00551963
0.00443601
0.00310087
0.00191119
0.00115932
0.000791822
0.000586195
0.000445095
0.000341594
0.000266075
0.000209251
0.000163947
0.000128493
0.000100752
7.84181e-05
6.11763e-05
4.73646e-05
3.68714e-05
2.85125e-05
2.22473e-05
1.74205e-05
1.39157e-05
1.14014e-05
9.73656e-06
9.18265e-06
8.84472e-06
8.10994e-06
7.51564e-06
7.18857e-06
7.01767e-06
7.15768e-06
7.73583e-06
9.69594e-06
2.29026e-05
7.8094e-05
0.000256282
0.000761223
0.00203541
0.00489351
0.0107355
0.022225
0.0440735
0.0810969
0.130964
0.179399
0.214533
0.235212
0.244594
0.246536
0.243771
0.23813
0.230809
0.222571
0.213892
0.205109
0.196157
0.188129
0.00156021
0.00433588
0.00460007
0.00526234
0.00424672
0.00301357
0.00187564
0.00114161
0.000784163
0.000582955
0.00044422
0.000341514
0.000266022
0.000209157
0.000163815
0.000128378
0.000100732
7.84118e-05
6.11687e-05
4.73546e-05
3.68566e-05
2.85167e-05
2.22579e-05
1.74299e-05
1.39161e-05
1.1397e-05
9.67099e-06
8.99816e-06
8.79285e-06
8.17396e-06
7.53621e-06
7.19436e-06
7.01259e-06
7.05496e-06
7.5334e-06
8.79653e-06
1.78166e-05
6.12758e-05
0.000212052
0.000659756
0.00182665
0.00449197
0.0099721
0.0207804
0.0415822
0.0777523
0.127979
0.177946
0.214666
0.236514
0.246613
0.248943
0.246364
0.240784
0.233449
0.225153
0.2164
0.207496
0.198673
0.189801
0.181913
0.00146841
0.00417268
0.00440388
0.00500289
0.00406968
0.00293459
0.00184252
0.00112534
0.00077609
0.000579339
0.000443191
0.00034139
0.000266004
0.000209121
0.000163734
0.00012829
0.000100686
7.84077e-05
6.11652e-05
4.73457e-05
3.6842e-05
2.85168e-05
2.22666e-05
1.7438e-05
1.39217e-05
1.13927e-05
9.65037e-06
8.81875e-06
8.68829e-06
8.23975e-06
7.56455e-06
7.19494e-06
7.01414e-06
6.99173e-06
7.3474e-06
8.25154e-06
1.41444e-05
4.74945e-05
0.000173647
0.000569549
0.00164083
0.0041376
0.00929567
0.0194788
0.0392573
0.0744802
0.124939
0.176403
0.214731
0.237793
0.248636
0.251378
0.248992
0.243477
0.236132
0.227781
0.218947
0.209955
0.201002
0.192251
0.183536
0.175841
0.00137231
0.00400045
0.00420352
0.00474767
0.00390248
0.0028619
0.00180978
0.00111022
0.00076868
0.000575695
0.000441892
0.000341154
0.000265956
0.000209106
0.000163699
0.000128217
0.000100618
7.83948e-05
6.11611e-05
4.73435e-05
3.68318e-05
2.85082e-05
2.22741e-05
1.74462e-05
1.39306e-05
1.13899e-05
9.64428e-06
8.66121e-06
8.54606e-06
8.29583e-06
7.60119e-06
7.19313e-06
7.01467e-06
6.95736e-06
7.18054e-06
7.91318e-06
1.16519e-05
3.64315e-05
0.000140523
0.00048914
0.00147511
0.00382602
0.00870201
0.0183185
0.0371108
0.0713151
0.121861
0.174779
0.214727
0.23904
0.250666
0.253835
0.251657
0.246212
0.238858
0.230453
0.221538
0.21245
0.203401
0.194516
0.185917
0.177412
0.169953
0.00127463
0.00381431
0.00400343
0.00450151
0.00374739
0.00279237
0.0017765
0.00109526
0.000762165
0.000572529
0.000440588
0.000340724
0.000265863
0.000209081
0.000163668
0.000128174
0.00010054
7.83574e-05
6.11519e-05
4.73436e-05
3.68256e-05
2.84989e-05
2.22779e-05
1.7454e-05
1.39396e-05
1.13895e-05
9.64225e-06
8.54924e-06
8.37433e-06
8.30843e-06
7.64648e-06
7.18992e-06
7.01239e-06
6.94228e-06
7.04133e-06
7.67402e-06
1.00575e-05
2.78005e-05
0.000112195
0.000417457
0.00132676
0.00355312
0.00818603
0.0172963
0.0351549
0.0682898
0.11877
0.173081
0.214649
0.240252
0.252696
0.256316
0.254354
0.248988
0.241627
0.233168
0.224174
0.21499
0.205837
0.196851
0.188114
0.179719
0.171466
0.164283
0.00117551
0.00361931
0.00380701
0.00427057
0.00360379
0.00272586
0.00174134
0.00108019
0.00075626
0.00056997
0.000439605
0.000340265
0.000265642
0.000209049
0.000163647
0.000128154
0.000100465
7.83013e-05
6.11364e-05
4.73431e-05
3.68204e-05
2.84896e-05
2.22749e-05
1.74601e-05
1.39477e-05
1.13927e-05
9.64134e-06
8.50632e-06
8.19693e-06
8.23622e-06
7.69964e-06
7.18739e-06
7.00481e-06
6.92569e-06
6.94099e-06
7.47458e-06
9.09207e-06
2.13176e-05
8.83137e-05
0.000353558
0.00119369
0.00331441
0.00774263
0.0164079
0.0333969
0.0654361
0.115694
0.171327
0.214497
0.241424
0.254728
0.258819
0.257085
0.2518
0.244437
0.235926
0.22685
0.217573
0.208317
0.199222
0.190381
0.181844
0.173694
0.165728
0.158858
0.00107644
0.0034148
0.00361535
0.00406106
0.0034721
0.00266084
0.00170419
0.00106474
0.000750844
0.000567774
0.000438978
0.000339967
0.00026541
0.000208974
0.000163642
0.000128137
0.000100402
7.82453e-05
6.10913e-05
4.73445e-05
3.68163e-05
2.84809e-05
2.22673e-05
1.74658e-05
1.39555e-05
1.13993e-05
9.64031e-06
8.49366e-06
8.03285e-06
8.12686e-06
7.75127e-06
7.18825e-06
6.99258e-06
6.92266e-06
6.87595e-06
7.289e-06
8.51093e-06
1.67172e-05
6.85457e-05
0.000296778
0.00107412
0.0031062
0.00736533
0.0156496
0.0318402
0.0627825
0.11267
0.169522
0.214272
0.24255
0.256752
0.261339
0.259845
0.254649
0.247287
0.238726
0.229571
0.220198
0.210838
0.201636
0.192682
0.184039
0.175744
0.167872
0.160227
0.153714
0.000985883
0.0031989
0.00343038
0.00387499
0.00335319
0.00259527
0.00166575
0.00104939
0.000745764
0.000565822
0.000438541
0.000339854
0.000265309
0.000208906
0.000163625
0.000128145
0.000100378
7.81942e-05
6.10333e-05
4.73382e-05
3.68133e-05
2.84788e-05
2.2259e-05
1.74702e-05
1.39631e-05
1.14071e-05
9.64269e-06
8.492e-06
7.89097e-06
7.98959e-06
7.78977e-06
7.19625e-06
6.9773e-06
6.91598e-06
6.83774e-06
7.12348e-06
8.14964e-06
1.36864e-05
5.25993e-05
0.000246498
0.000966938
0.00292513
0.00704784
0.0150149
0.0304899
0.0603513
0.109744
0.167666
0.213978
0.243622
0.258769
0.263873
0.262634
0.257534
0.250175
0.241565
0.232334
0.222865
0.2134
0.20409
0.195025
0.186268
0.177863
0.169841
0.16228
0.154994
0.148886
0.000903277
0.00297796
0.00325596
0.00371428
0.0032458
0.00252658
0.0016268
0.00103485
0.000741223
0.000563992
0.000438187
0.000339825
0.000265298
0.000208909
0.000163622
0.00012816
0.000100365
7.81666e-05
6.09785e-05
4.73267e-05
3.68093e-05
2.84776e-05
2.22517e-05
1.74714e-05
1.39704e-05
1.14148e-05
9.6463e-06
8.49315e-06
7.80727e-06
7.8339e-06
7.78158e-06
7.21431e-06
6.95974e-06
6.90701e-06
6.80949e-06
6.97989e-06
7.89171e-06
1.18246e-05
4.01737e-05
0.000202239
0.000871343
0.0027689
0.00678378
0.0144963
0.0293495
0.0581662
0.106956
0.165781
0.213622
0.24464
0.260771
0.266415
0.265445
0.26045
0.253099
0.244444
0.235135
0.225573
0.216005
0.206586
0.19741
0.188539
0.180017
0.171881
0.164164
0.156945
0.15006
0.144419
0.000828606
0.00276405
0.0030999
0.00357682
0.00314898
0.00245425
0.00158739
0.00102185
0.000737415
0.00056234
0.000437829
0.000339816
0.000265347
0.000208973
0.000163637
0.000128186
0.000100363
7.81619e-05
6.09347e-05
4.73055e-05
3.68077e-05
2.84776e-05
2.22514e-05
1.74688e-05
1.3978e-05
1.14216e-05
9.65268e-06
8.49453e-06
7.7754e-06
7.67677e-06
7.70235e-06
7.23831e-06
6.94059e-06
6.89202e-06
6.79149e-06
6.87372e-06
7.67331e-06
1.07217e-05
3.09747e-05
0.000163591
0.000787174
0.00263578
0.00656812
0.0140841
0.0284203
0.0562498
0.104347
0.163902
0.213211
0.245615
0.262757
0.268961
0.268274
0.263392
0.256056
0.247358
0.237974
0.228319
0.21865
0.209121
0.199834
0.190849
0.182212
0.173955
0.166117
0.158734
0.1519
0.145466
0.14036
0.000759202
0.00256761
0.00296686
0.00345845
0.00305967
0.00237782
0.00154805
0.0010105
0.000734405
0.000560983
0.000437488
0.000339806
0.000265422
0.000209084
0.000163677
0.000128208
0.00010037
7.81724e-05
6.09117e-05
4.72892e-05
3.67995e-05
2.84817e-05
2.22537e-05
1.74651e-05
1.39827e-05
1.14284e-05
9.66069e-06
8.49775e-06
7.76664e-06
7.53286e-06
7.60728e-06
7.2586e-06
6.92146e-06
6.87234e-06
6.77839e-06
6.80552e-06
7.47005e-06
1.00702e-05
2.47403e-05
0.000130169
0.000714793
0.00252492
0.00639668
0.013769
0.027697
0.0546297
0.101949
0.162069
0.212766
0.246549
0.264719
0.271503
0.271114
0.266359
0.259042
0.250307
0.240849
0.231104
0.221331
0.211696
0.202297
0.193199
0.184446
0.17607
0.168106
0.160594
0.153581
0.147178
0.141254
0.136761
0.000694452
0.0023928
0.00285705
0.00335443
0.00297332
0.00229802
0.00150958
0.00100057
0.000731852
0.000559941
0.000437257
0.000339791
0.000265516
0.000209226
0.000163752
0.000128247
0.000100379
7.81953e-05
6.09041e-05
4.72816e-05
3.67844e-05
2.84832e-05
2.22557e-05
1.74636e-05
1.39853e-05
1.14351e-05
9.66903e-06
8.50298e-06
7.76394e-06
7.40843e-06
7.48708e-06
7.26743e-06
6.90566e-06
6.84908e-06
6.76666e-06
6.75567e-06
7.29665e-06
9.65251e-06
2.10559e-05
0.000101664
0.000654984
0.0024362
0.0062669
0.0135426
0.0271695
0.0533265
0.099797
0.160317
0.212312
0.247443
0.266651
0.274034
0.273958
0.269337
0.262054
0.253285
0.243759
0.233924
0.224051
0.214308
0.204799
0.195588
0.186719
0.178225
0.170137
0.162491
0.155337
0.148739
0.142822
0.137475
0.133675
0.000634334
0.00223707
0.00276803
0.00325816
0.0028872
0.00221729
0.00147338
0.000992057
0.000729655
0.000559095
0.000437154
0.00033986
0.000265632
0.000209388
0.000163858
0.000128311
0.000100392
7.8217e-05
6.09014e-05
4.72798e-05
3.67638e-05
2.84838e-05
2.22589e-05
1.74633e-05
1.39848e-05
1.14423e-05
9.67782e-06
8.50734e-06
7.76301e-06
7.33327e-06
7.35622e-06
7.22391e-06
6.89723e-06
6.8237e-06
6.75446e-06
6.72632e-06
7.16906e-06
9.36304e-06
1.92254e-05
7.78286e-05
0.000609026
0.00237016
0.00617723
0.0133981
0.0268224
0.0523485
0.0979354
0.158666
0.211884
0.248306
0.268525
0.276532
0.276797
0.272331
0.265085
0.256288
0.246698
0.236778
0.226806
0.216957
0.207338
0.198016
0.189032
0.180419
0.172209
0.164431
0.157133
0.150378
0.144244
0.138877
0.134178
0.131146