/*--------------------------------*- C++ -*----------------------------------*\
| =========                 |                                                 |
| \\      /  F ield         | OpenFOAM: The Open Source CFD Toolbox           |
|  \\    /   O peration     | Version:  v2012                                 |
|   \\  /    A nd           | Website:  www.openfoam.com                      |
|    \\/     M anipulation  |                                                 |
\*---------------------------------------------------------------------------*/
FoamFile
{
    version     2.0;
    format      ascii;
    class       volSymmTensorField;
    location    "12000";
    object      turbulenceProperties:R;
}
// * * * * * * * * * * * * * * * * * * * * * * * * * * * * * * * * * * * * * //

dimensions      [0 2 -2 0 0 0 0];


internalField   nonuniform List<symmTensor> 
27324
(
(22.6011 4.68916 6.94527e-12 20.4632 -2.55e-12 23.9417)
(21.0613 5.36898 2.54753e-12 20.5029 -5.98493e-13 23.0132)
(25.7426 14.4048 1.69962e-11 23.0751 -2.49565e-12 27.1259)
(20.3823 5.69884 4.99463e-12 19.7591 -8.87481e-13 21.6645)
(24.5793 16.5534 -5.51615e-12 23.585 5.7379e-13 26.6035)
(30.085 23.3584 -1.2538e-11 26.5848 1.24702e-12 31.4468)
(19.1024 6.07286 2.20842e-12 19.0208 -2.75818e-13 20.1904)
(24.2302 17.5809 -1.33467e-13 23.1971 -1.59419e-14 25.5447)
(29.2283 26.6421 4.11508e-14 27.4101 -6.79417e-14 31.2124)
(31.3259 28.2144 -1.32906e-11 27.0469 1.16059e-12 32.4858)
(17.5433 6.32155 6.62744e-12 18.5695 1.25269e-13 18.2962)
(23.2279 18.7388 -1.53899e-11 22.7256 6.4256e-13 24.334)
(28.9543 28.0639 1.03547e-11 27.1325 -4.92974e-13 30.1942)
(30.045 31.1578 9.97784e-12 27.2841 -7.0876e-13 31.6825)
(24.9172 24.6934 2.0015e-11 20.7468 -1.79343e-12 25.6736)
(16.32 6.46572 3.54889e-12 17.132 9.74945e-14 16.7368)
(21.8424 19.5439 -1.1824e-12 22.3756 2.0107e-14 22.5864)
(27.8382 29.5455 9.96703e-12 26.5685 -3.64321e-13 28.8361)
(28.8964 31.7251 -9.45667e-12 26.2538 5.01478e-13 29.8288)
(22.2923 24.6816 6.5767e-12 19.3963 -5.02753e-13 23.2856)
(11.2875 11.7679 -4.04725e-12 8.78438 4.59583e-13 11.6609)
(14.8198 6.4 5.72396e-12 16.0946 4.89896e-13 15.0212)
(20.4585 20.0324 -7.6587e-12 21.1802 -6.09557e-14 20.8431)
(26.0521 30.2589 1.01964e-11 25.8088 -1.20293e-13 26.6519)
(26.69 31.8379 9.50363e-12 24.6065 -4.93175e-13 27.3629)
(19.6067 22.8265 -1.17861e-11 17.1144 7.59733e-13 20.0975)
(8.65762 9.7731 -1.82293e-12 7.06831 1.8386e-13 9.11227)
(2.56815 2.70838 -1.80486e-12 1.67192 2.91139e-13 2.72757)
(13.4383 6.1345 3.73475e-12 16.7492 1.22946e-12 11.6198)
(18.7007 19.9596 -3.52356e-13 19.9141 3.25455e-14 18.8731)
(23.7795 29.9208 1.93013e-12 24.1122 1.28556e-14 23.9973)
(23.5014 30.6003 -1.03736e-11 22.5276 1.98865e-13 23.8356)
(16.3048 20.422 4.90016e-12 14.4236 -2.6826e-13 16.6129)
(6.53377 7.74418 -1.57868e-12 5.38459 1.53401e-13 6.75462)
(1.59925 1.79828 3.5591e-13 1.1289 -6.88122e-14 1.77088)
(0.393065 0.344883 1.14093e-13 0.170935 -2.88587e-14 0.438842)
(10.1522 5.17526 5.05485e-12 21.0264 7.13687e-12 5.65687)
(16.7876 20.1545 -7.58694e-12 20.4111 -1.16282e-12 14.7402)
(21.0374 29.7222 8.92065e-12 21.6977 1.69127e-13 20.9784)
(19.7584 27.7389 7.49452e-12 19.3916 -5.43967e-14 19.7056)
(12.7167 17.3687 -4.33507e-12 11.8291 1.44908e-13 12.843)
(4.6748 5.92742 -1.13823e-12 3.91324 7.45421e-14 4.81522)
(1.01259 1.17758 2.58671e-14 0.734272 2.14306e-15 1.08796)
(0.203047 0.194838 -3.41411e-14 0.105492 1.2955e-14 0.243831)
(0.0560678 0.0343298 -7.41066e-15 0.0143637 4.46667e-15 0.0648944)
(5.73257 3.78303 4.31443e-12 22.3695 9.91516e-12 0.740342)
(12.4378 16.4564 -2.04001e-13 24.485 -4.4348e-15 7.5176)
(17.1599 29.0301 7.9959e-13 20.709 3.18872e-13 15.0571)
(15.6967 25.2785 -8.71833e-12 15.5583 -7.80908e-14 15.375)
(9.54392 14.1863 3.66135e-12 9.16772 -4.9507e-14 9.44256)
(3.20443 4.39651 1.92246e-14 2.87202 -8.07034e-15 3.26822)
(0.619737 0.761208 1.44753e-13 0.463116 -1.44904e-14 0.661661)
(0.113112 0.109828 1.61437e-14 0.0656636 -4.65979e-15 0.127852)
(0.0276121 0.0198784 -1.3824e-15 0.00959839 2.78834e-15 0.0349313)
(0.0101963 0.00431766 1.40044e-15 0.00175533 -5.41414e-16 0.0120315)
(2.6305 2.08374 2.11903e-13 15.3691 3.6868e-12 -0.41959)
(7.28156 11.7182 -1.28954e-13 26.1751 -1.6644e-13 1.72651)
(11.5711 22.4685 7.9237e-12 23.8826 2.99579e-12 7.0369)
(11.6308 22.5767 4.54578e-12 14.4479 3.12464e-13 10.0029)
(7.11951 11.6466 -3.02859e-12 6.98949 -1.49904e-14 6.8798)
(2.2746 3.38017 -7.00954e-13 2.2191 -3.93899e-15 2.2599)
(0.377628 0.49411 1.62308e-15 0.316201 3.68997e-15 0.395369)
(0.0643015 0.0664713 -1.27787e-14 0.0403524 1.9538e-15 0.0713933)
(0.0161877 0.0116329 -9.80652e-16 0.00764803 7.02307e-16 0.0188741)
(0.00617308 0.00325157 -1.44418e-16 0.00140488 3.9273e-16 0.00803166)
(0.00317264 0.000834273 3.1664e-16 0.000481237 -2.056e-16 0.00378545)
(2.9437 1.13392 4.3239e-13 4.76612 1.29478e-12 2.01203)
(3.91641 6.242 -1.42763e-12 19.9243 -3.93369e-12 0.201912)
(6.68207 15.3944 4.70561e-12 25.9357 4.26737e-12 1.52581)
(7.20019 17.7198 -5.4225e-12 17.3059 -2.16821e-12 4.00628)
(4.96825 10.0786 2.2735e-12 6.94195 5.34988e-13 4.04524)
(1.75135 2.69746 5.05457e-15 1.79032 -3.35048e-14 1.66863)
(0.267394 0.371213 8.28658e-14 0.270268 2.57397e-15 0.268234)
(0.0387883 0.0431019 5.16336e-15 0.029006 -2.55243e-16 0.0417038)
(0.0109688 0.00850121 -2.73354e-15 0.00600394 7.35229e-16 0.0124423)
(0.00460831 0.00233576 -2.77203e-16 0.00189605 2.64183e-16 0.00549294)
(0.00250622 0.000947179 5.72828e-16 0.000342592 -1.78755e-16 0.00331225)
(0.00149163 0.000207337 8.92778e-17 0.000292799 2.37945e-18 0.00178501)
(2.67026 1.03892 5.37021e-13 3.00345 1.08887e-13 2.51575)
(4.65283 3.67204 8.75628e-13 7.34711 -7.39059e-14 3.37215)
(4.33609 8.22039 1.11789e-12 22.2001 6.0589e-13 0.486645)
(4.2039 12.7544 -4.82e-12 20.4244 -2.90108e-12 0.405869)
(2.81225 8.72986 -3.61627e-12 9.38773 -1.8574e-12 1.01753)
(1.20606 2.71912 -4.88652e-13 2.19031 -1.13087e-13 0.827548)
(0.229993 0.344393 1.53702e-14 0.258559 6.91279e-16 0.206237)
(0.0287913 0.0340485 -3.38551e-15 0.0296089 4.02673e-16 0.0286914)
(0.00843718 0.00714954 -1.68676e-15 0.00560299 2.33835e-16 0.00922242)
(0.00391494 0.00212618 5.67517e-18 0.00201921 1.00322e-16 0.00450064)
(0.00214852 0.000787332 4.15075e-17 0.000789149 -6.58613e-17 0.00260545)
(0.00136316 0.000393511 -1.09907e-16 0.000110048 -1.10664e-17 0.00180397)
(0.000818896 3.50539e-05 -9.23697e-18 0.000214612 5.37316e-17 0.000973952)
(2.51635 1.00095 7.9101e-13 2.59869 4.29215e-14 2.50065)
(4.36522 3.42903 -1.62117e-12 4.86216 -1.58183e-13 4.14014)
(6.06151 5.20458 1.61337e-12 9.56162 1.09637e-12 4.52247)
(3.37527 7.59081 1.78532e-12 19.9509 3.52199e-12 0.175229)
(1.59946 7.13382 -2.04826e-12 12.3501 -1.73827e-12 -0.645041)
(0.543035 2.62619 -5.85411e-13 3.53527 -4.21631e-13 -0.210746)
(0.142088 0.451711 7.10331e-14 0.43315 5.14067e-14 0.0460963)
(0.0263861 0.0415042 6.30281e-15 0.0360389 2.92168e-15 0.020592)
(0.00700853 0.00648581 -1.64281e-15 0.00739912 -3.97679e-17 0.00683595)
(0.00353274 0.00220491 -1.36119e-16 0.00220638 1.06661e-16 0.00390334)
(0.00196322 0.000772804 4.62774e-16 0.000992428 -9.8155e-17 0.0022704)
(0.00121495 0.000367374 -8.53949e-17 0.000388609 -7.66761e-18 0.00148446)
(0.00080043 0.000179062 4.53038e-17 4.26559e-05 -3.07932e-17 0.00105207)
(0.000469787 -3.13648e-05 1.37086e-17 0.000165302 -2.98621e-17 0.000552109)
(2.40102 1.02629 5.02225e-13 2.35834 -1.31056e-14 2.41794)
(4.21408 3.33199 1.90075e-14 4.2861 2.03495e-15 4.18002)
(5.83806 4.99098 2.65987e-13 6.4758 3.94972e-15 5.55008)
(6.16761 5.22627 -1.78279e-12 10.1415 -4.80884e-13 4.6621)
(1.71934 5.04295 1.24732e-12 13.9091 1.86688e-12 -0.391846)
(0.180907 2.37985 -2.11498e-13 5.13982 -1.18265e-13 -0.816364)
(0.00627669 0.485065 3.68317e-14 0.79974 3.12082e-14 -0.180161)
(0.0102549 0.0670165 -8.67179e-15 0.0784689 -7.46029e-15 -0.00934363)
(0.0059579 0.0103566 -9.65421e-16 0.0115742 -3.24175e-16 0.00342788)
(0.00305518 0.00233384 -7.17861e-16 0.00341961 -2.18566e-17 0.00283917)
(0.00181128 0.00095506 -1.77342e-16 0.00121098 1.82979e-17 0.00199998)
(0.00111427 0.000357929 1.68635e-16 0.000576782 5.18558e-18 0.0012818)
(0.000729655 0.000216345 7.49033e-17 0.000176812 -3.93846e-17 0.000895316)
(0.000458892 7.37182e-05 8.70304e-18 7.50347e-05 1.82253e-17 0.000597207)
(0.000274739 -4.17947e-05 -2.32561e-17 0.000116251 -8.39217e-18 0.000313918)
(2.26703 0.967088 5.03363e-13 2.20008 -4.40388e-14 2.29485)
(4.07564 3.31087 -2.20655e-12 4.00583 3.58779e-14 4.09185)
(5.62151 4.78907 1.71633e-12 5.67255 1.88023e-16 5.57576)
(6.25171 5.27278 1.48461e-12 6.98813 1.4349e-13 5.94962)
(4.83601 4.15895 -2.41791e-12 8.54165 -1.24738e-12 3.67407)
(0.352484 1.81445 -6.36567e-13 6.5127 -5.8204e-13 -0.679048)
(-0.0772142 0.419695 4.21771e-14 1.21914 1.19651e-15 -0.340577)
(-0.0139676 0.0811355 1.04481e-14 0.147111 1.27188e-14 -0.049178)
(-0.000201054 0.02041 -4.79954e-15 0.0277189 -6.29203e-15 -0.00720105)
(0.00199703 0.00520529 -1.88436e-16 0.00708224 -6.32654e-16 0.000174151)
(0.00158039 0.00133967 -1.06204e-17 0.00203276 1.34479e-16 0.0013002)
(0.000995584 0.000540109 -4.42746e-17 0.000823902 1.1291e-17 0.00107135)
(0.000626764 0.000209681 7.12498e-18 0.000397253 -3.13642e-17 0.000715637)
(0.000450854 0.000160862 2.03584e-17 8.0942e-05 -3.31179e-17 0.00054789)
(0.000256693 1.965e-05 2.23702e-17 9.53897e-05 3.65507e-18 0.000320411)
(0.00015992 -2.52797e-05 7.90252e-18 8.22634e-05 4.8474e-19 0.000178085)
(2.14013 0.925493 4.24717e-13 2.05164 -2.88602e-14 2.17217)
(3.9149 3.14057 -2.67041e-13 3.79554 -3.99762e-17 3.95418)
(5.38159 4.55953 2.03134e-12 5.29481 -1.95851e-14 5.40344)
(6.05976 5.08826 -1.41234e-12 6.10268 6.79865e-15 6.01452)
(5.38268 4.63256 1.16834e-12 6.10647 1.61789e-14 5.12271)
(2.26008 1.93442 -4.53151e-13 4.64522 -4.11087e-13 1.62274)
(-0.061076 0.212839 7.90717e-14 1.63419 1.88073e-13 -0.363677)
(-0.028152 0.0587161 2.14172e-16 0.214723 1.83576e-14 -0.0776834)
(-0.00693616 0.0235912 -3.42418e-15 0.0459262 -4.62445e-15 -0.017642)
(-0.00171646 0.0107994 -6.4596e-16 0.0163725 -1.11046e-15 -0.00566226)
(0.000390334 0.00370277 -2.15912e-17 0.00553308 1.63133e-16 -0.00106029)
(0.000804497 0.00116655 -7.05462e-17 0.00157774 2.64899e-17 0.00045732)
(0.000566398 0.000415027 -4.54728e-17 0.000587834 1.57506e-18 0.000541263)
(0.000348314 0.000168517 1.12213e-17 0.000312123 4.93824e-18 0.000380882)
(0.00026696 0.000119818 4.77645e-18 5.98256e-05 -2.64374e-18 0.000314366)
(0.000138804 1.16515e-05 -6.19561e-19 0.000102414 1.31372e-18 0.000160964)
(9.33734e-05 -1.2889e-06 1.75538e-18 5.99063e-05 1.53847e-18 9.82303e-05)
(2.01726 0.864195 6.76983e-13 1.9144 -6.24932e-14 2.05087)
(3.76025 3.00499 -1.63997e-12 3.61004 3.64922e-14 3.80725)
(5.15942 4.30562 1.58719e-12 4.99739 -3.87454e-14 5.21206)
(5.80656 4.85817 1.41221e-12 5.7159 -1.46402e-14 5.83228)
(5.30331 4.60781 -2.28821e-12 5.3385 -3.29713e-14 5.26283)
(2.85288 2.55254 -6.27211e-13 3.34886 -5.78863e-14 2.69254)
(0.409402 0.263604 4.16604e-14 1.24367 -4.19678e-14 0.197245)
(-0.0329082 -0.00557203 -8.66608e-15 0.292055 -3.21777e-14 -0.09577)
(-0.00872853 0.013468 -3.46475e-15 0.0571644 -5.28417e-15 -0.0223213)
(-0.00404708 0.010874 -4.16251e-16 0.0224693 -2.39293e-15 -0.00899401)
(-0.0019028 0.00662308 4.87256e-16 0.0110031 8.45164e-16 -0.00435175)
(-0.000409211 0.00297527 -1.08943e-16 0.00473053 3.25728e-17 -0.00156902)
(0.000229308 0.00112443 -3.79524e-18 0.00159646 6.67556e-17 -0.000167374)
(0.000279158 0.000434786 5.35908e-17 0.000552732 4.94644e-17 0.00018341)
(0.000180545 0.000178199 3.44843e-17 0.000266235 1.59418e-17 0.000168003)
(0.000145222 0.00012281 3.40714e-18 8.58751e-05 6.45242e-18 0.000152693)
(6.19417e-05 1.54928e-05 2.66846e-18 0.00012805 3.9627e-18 5.10828e-05)
(5.30264e-05 2.45749e-05 -4.20741e-18 4.22758e-05 -1.54929e-18 5.57972e-05)
(1.89751 0.799124 5.89728e-13 1.80116 -5.90732e-14 1.93073)
(3.60765 2.8442 -2.45505e-13 3.4406 1.34215e-15 3.66093)
(4.96035 4.11039 5.4777e-13 4.7572 -5.66593e-15 5.02208)
(5.5977 4.67418 -1.26572e-12 5.40612 3.5479e-14 5.65299)
(5.08144 4.42359 1.30977e-12 4.98477 -1.647e-14 5.09743)
(2.8412 2.61802 -6.60154e-13 2.87121 -7.43591e-15 2.81333)
(0.625297 0.549202 1.57666e-13 0.818207 2.36538e-14 0.563736)
(0.0294463 -0.0224962 -5.03576e-16 0.246297 3.65027e-14 -0.0230655)
(-0.00969139 -0.0104667 -5.54477e-15 0.0727232 -9.01668e-15 -0.0273218)
(-0.00337856 0.00490297 -5.06828e-16 0.0235715 -2.01454e-15 -0.00902992)
(-0.00221579 0.00555272 4.12193e-16 0.0118993 7.58657e-16 -0.00467564)
(-0.00153046 0.00407339 -9.89499e-17 0.00726486 -9.65039e-17 -0.00302234)
(-0.000725727 0.00234432 4.13337e-17 0.00390752 1.13334e-16 -0.00158028)
(-0.000169735 0.00113425 -5.53878e-17 0.00170209 -1.12562e-16 -0.000566422)
(2.15949e-05 0.000519039 1.41132e-17 0.000717684 2.36641e-17 -0.000146349)
(5.82812e-05 0.00027115 -3.28963e-17 0.000314005 -4.36514e-17 -8.54453e-06)
(2.8947e-05 0.00013503 -8.55923e-18 0.000210585 -1.10885e-17 -1.14916e-05)
(2.18655e-05 8.03204e-05 -2.50395e-18 0.000127499 -5.59776e-19 -4.23869e-06)
(1.29195e-05 3.5516e-05 -3.24323e-19 7.89474e-05 -4.20352e-19 -3.81608e-06)
(1.7763 0.742586 -5.93366e-13 1.72677 1.83012e-14 1.80382)
(3.46464 2.69997 9.69035e-15 3.30421 1.52277e-15 3.51861)
(4.7786 3.94853 1.61623e-12 4.55159 -4.79285e-14 4.84651)
(5.41346 4.55797 1.56591e-12 5.17167 -4.54264e-14 5.47332)
(4.88593 4.30717 -8.02602e-13 4.68387 3.7912e-14 4.92179)
(2.68279 2.492 -7.04644e-13 2.61261 4.97453e-15 2.68581)
(0.64707 0.607344 2.25124e-14 0.663727 2.4223e-15 0.635441)
(0.0792785 0.054226 -5.39977e-15 0.139228 -6.02851e-15 0.0607836)
(-0.00199564 -0.0230112 -1.2216e-15 0.0711957 1.94243e-15 -0.0185343)
(-0.00296978 -0.00759407 -3.60761e-16 0.0280563 -2.46615e-15 -0.0106888)
(-0.00104551 0.00191547 1.34805e-17 0.010473 5.9779e-16 -0.00358153)
(-0.000981081 0.0027276 7.59333e-17 0.00600579 -7.11798e-17 -0.00212976)
(-0.000914973 0.0022558 -1.41906e-16 0.00425494 -9.58902e-17 -0.00173522)
(-0.000616708 0.00155438 1.30947e-16 0.0027261 3.1217e-16 -0.00117259)
(-0.000308586 0.000956091 2.09525e-17 0.00148877 3.26356e-17 -0.00062082)
(-0.000125523 0.000522705 3.42337e-17 0.000769369 6.39146e-17 -0.000304084)
(-4.87685e-05 0.000307224 1.19513e-17 0.000397346 1.50776e-17 -0.00013959)
(-2.93198e-05 0.000157404 3.45164e-18 0.000261454 4.68796e-18 -9.91151e-05)
(-1.23597e-05 0.000104913 6.79517e-19 0.000144894 4.01685e-19 -5.23152e-05)
(-9.17077e-06 4.07826e-05 -1.90929e-18 8.91793e-05 -5.47674e-18 -3.09697e-05)
(1.6698 0.699794 7.75375e-13 1.652 -1.77056e-14 1.6899)
(3.32159 2.5871 -1.67044e-13 3.23112 1.60492e-15 3.36593)
(4.61245 3.84309 1.35065e-12 4.39056 -4.64276e-14 4.67819)
(5.24185 4.4772 -1.4461e-12 4.96671 4.84955e-14 5.30466)
(4.68891 4.19656 8.83827e-13 4.44222 -3.60638e-14 4.72607)
(2.51732 2.36683 -1.24385e-15 2.3875 4.47656e-15 2.52902)
(0.615777 0.585629 1.45922e-13 0.593971 -4.04047e-15 0.615876)
(0.0926223 0.0809359 -2.16026e-15 0.0998932 1.67133e-15 0.0891185)
(0.012928 0.00119765 -2.17922e-15 0.0378564 -1.76175e-15 0.00565699)
(-0.00358679 -0.0164228 -8.45026e-16 0.0348123 -2.09245e-15 -0.0120693)
(-0.00032314 -0.00488261 -6.08038e-17 0.0117106 8.2442e-16 -0.00409455)
(-8.76489e-05 0.00069881 -8.89432e-17 0.004615 -2.34701e-17 -0.00116191)
(-0.00026022 0.00118493 6.26478e-17 0.00272737 -4.58136e-17 -0.000723637)
(-0.000342369 0.00102417 -8.19875e-17 0.00200564 -1.99726e-16 -0.000702036)
(-0.000285251 0.000783014 5.81507e-18 0.00138859 3.56789e-17 -0.0005519)
(-0.000180223 0.000544326 -2.38504e-17 0.00085867 -5.38874e-17 -0.000352761)
(-9.78249e-05 0.000336783 -1.29126e-17 0.000497743 -1.92828e-17 -0.000203994)
(-4.89849e-05 0.000191271 -2.96941e-18 0.000284811 -7.47543e-18 -0.000116264)
(-2.49383e-05 0.000106805 -9.37532e-19 0.00016102 -2.80325e-18 -6.37249e-05)
(-9.32914e-06 5.63493e-05 1.1674e-18 9.1695e-05 2.36482e-18 -3.80182e-05)
(-8.7183e-06 1.82898e-05 -9.39193e-19 5.27251e-05 -1.03818e-18 -1.7448e-05)
(1.57301 0.663848 1.2442e-13 1.57886 -2.08101e-15 1.58781)
(3.20019 2.50298 -5.2486e-14 3.15964 5.30882e-16 3.23187)
(4.43671 3.77208 7.2153e-14 4.3002 1.14312e-15 4.48831)
(5.07114 4.43014 -7.50311e-13 4.79682 4.64732e-14 5.12844)
(4.48758 4.08894 -7.37104e-13 4.2142 4.10127e-14 4.5254)
(2.34097 2.20802 -6.43897e-13 2.19202 1.79781e-14 2.35393)
(0.572145 0.543436 2.05764e-14 0.53267 -2.05436e-17 0.576325)
(0.0929281 0.0838405 -6.72435e-15 0.0887399 6.10261e-16 0.0931241)
(0.0183649 0.0126497 -1.74705e-15 0.0219198 -3.71318e-16 0.0167802)
(0.00293846 -0.0047925 -2.24184e-16 0.0201548 -1.02407e-15 -0.00175222)
(-0.00257495 -0.0113004 -1.3704e-15 0.01955 2.92636e-15 -0.00767356)
(0.000665706 -0.00293697 -1.84917e-16 0.00457469 2.74853e-17 -0.00112894)
(0.000268549 0.00021922 -2.01262e-17 0.00188161 6.28331e-17 -0.000118494)
(8.98477e-05 0.000395899 6.27212e-17 0.00103294 1.01949e-16 -5.82244e-05)
(-3.34995e-06 0.000339227 6.95216e-18 0.000695217 -1.22401e-17 -0.000110249)
(-3.04115e-05 0.000275886 2.025e-17 0.0004664 2.01435e-17 -0.000105686)
(-2.62512e-05 0.000200792 1.45879e-17 0.000295079 2.2371e-17 -7.59204e-05)
(-1.58878e-05 0.000124374 -1.38816e-18 0.000180109 -4.86378e-18 -4.87181e-05)
(-7.93469e-06 6.52087e-05 -1.73999e-18 0.000105596 -2.85744e-18 -2.80658e-05)
(-1.85337e-06 2.95516e-05 -3.69683e-19 5.61952e-05 -2.13636e-19 -1.23951e-05)
(4.80767e-06 1.42941e-05 -6.38804e-19 2.63076e-05 -7.6521e-19 -5.02965e-06)
(-1.92857e-06 -3.39617e-07 -1.71049e-19 2.38345e-05 -5.17827e-19 -5.34344e-06)
(1.48521 0.639414 5.40428e-13 1.50621 4.57008e-15 1.49633)
(3.09352 2.44052 -7.08222e-13 3.09055 5.31258e-15 3.11562)
(4.2709 3.70447 1.3708e-12 4.19633 -1.81463e-14 4.30495)
(4.87065 4.3793 -4.35109e-13 4.68391 2.9695e-15 4.91155)
(4.27253 3.97184 -7.32119e-13 4.00464 3.69791e-14 4.30539)
(2.16557 2.05446 -6.6567e-14 2.00931 1.2093e-15 2.17972)
(0.519771 0.492336 1.12983e-13 0.476652 -4.89761e-15 0.525265)
(0.0889972 0.0800969 7.43978e-15 0.0796384 -7.39535e-16 0.0902324)
(0.0193777 0.0150077 -7.03023e-15 0.018247 2.85052e-16 0.0192841)
(0.00642957 0.00242976 -6.52274e-16 0.00938006 -2.56443e-16 0.00530037)
(-7.51391e-05 -0.00593984 -2.23148e-16 0.0142392 8.82332e-16 -0.00372653)
(-0.00123298 -0.00715031 1.85356e-16 0.0106304 1.01413e-16 -0.00431808)
(0.000867798 -0.00160728 -1.94983e-16 0.00148584 8.61527e-17 9.78856e-05)
(0.000346441 -9.09571e-06 -1.3939e-17 0.000643764 2.2736e-17 0.00025189)
(0.000184617 7.79707e-05 1.38567e-17 0.000308542 2.11827e-18 0.000160364)
(9.4521e-05 7.45163e-05 1.24557e-18 0.000178363 -7.2546e-18 8.52339e-05)
(4.99495e-05 6.78017e-05 -6.29788e-18 0.000103508 -1.77742e-18 4.8864e-05)
(2.79998e-05 4.94487e-05 3.19451e-18 6.16521e-05 2.51974e-18 2.8521e-05)
(1.62083e-05 2.5957e-05 -7.51179e-19 3.91699e-05 -1.05793e-18 1.48522e-05)
(1.02757e-05 1.04719e-05 -1.49485e-19 2.30822e-05 -1.13188e-19 8.77031e-06)
(7.06671e-06 2.48694e-06 2.03617e-19 1.26552e-05 -3.29223e-20 5.94072e-06)
(6.32586e-06 -1.36659e-06 -2.75111e-19 7.72431e-06 -4.64549e-20 2.55883e-06)
(1.55545e-06 -5.32013e-06 2.19642e-19 1.17071e-05 -3.24708e-19 -1.47464e-06)
(1.40404 0.627981 4.51087e-13 1.43152 4.58653e-15 1.41222)
(3.00073 2.40842 5.13878e-14 3.02279 1.13597e-16 3.01465)
(4.10437 3.64423 3.19287e-13 4.07337 -1.08713e-15 4.1243)
(4.66139 4.29229 -1.42526e-12 4.54327 2.43714e-14 4.68322)
(4.02446 3.81792 -9.69377e-14 3.83863 4.4516e-15 4.04592)
(1.98961 1.89754 1.13896e-13 1.84376 -9.19175e-16 2.00321)
(0.466744 0.441158 -2.39697e-14 0.423146 -2.57593e-16 0.4725)
(0.0816663 0.0736123 -1.53077e-14 0.071202 1.07912e-15 0.0830837)
(0.019249 0.015248 -5.71285e-15 0.0164511 2.62098e-16 0.0195959)
(0.00720554 0.00424533 -1.12892e-15 0.00682171 -4.54601e-17 0.00711796)
(0.00273942 -0.000459835 5.31918e-16 0.00595549 4.0043e-16 0.00168775)
(-0.00101393 -0.00578081 -1.03445e-16 0.0106689 -4.66229e-17 -0.00390886)
(-0.000302277 -0.00392934 -3.87141e-16 0.00531076 5.78883e-16 -0.0020514)
(0.000691869 -0.000757693 -6.2712e-17 0.000400301 5.33752e-17 0.000410232)
(0.000297909 -6.82597e-05 2.29886e-17 0.000174506 7.53062e-19 0.000295417)
(0.000154016 -1.13645e-06 1.17436e-17 9.49574e-05 1.45196e-18 0.000159825)
(8.28167e-05 1.63349e-05 1.38737e-18 4.63175e-05 -1.23058e-18 9.46898e-05)
(4.74934e-05 1.91508e-05 5.317e-19 1.9399e-05 -6.57023e-19 5.99722e-05)
(2.8037e-05 1.18466e-05 1.53584e-18 1.06377e-05 -6.95072e-19 3.54078e-05)
(1.62527e-05 3.58776e-06 -1.57654e-20 9.2318e-06 -4.33864e-20 1.86997e-05)
(9.61379e-06 3.25699e-07 -6.91608e-20 7.15245e-06 5.0333e-20 1.01148e-05)
(5.76038e-06 -8.636e-07 -9.05791e-20 5.64559e-06 -2.57033e-20 5.48628e-06)
(4.27789e-06 -5.33578e-06 1.69632e-19 7.0425e-06 -1.0452e-19 4.88604e-07)
(2.46677e-06 -4.6649e-06 1.03635e-19 6.90651e-06 -2.37781e-20 -2.53038e-07)
(1.32346 0.626291 4.29065e-13 1.361 1.50351e-14 1.32856)
(2.91985 2.40201 -1.72676e-12 2.94729 -8.30457e-15 2.9264)
(3.92986 3.56838 1.26785e-12 3.929 -6.15946e-16 3.93814)
(4.43519 4.16577 1.08184e-12 4.37081 -9.96938e-15 4.44374)
(3.77468 3.61954 -1.93296e-12 3.65652 3.18222e-14 3.78474)
(1.8105 1.74079 -8.62284e-13 1.71334 2.05053e-14 1.82083)
(0.414036 0.39306 2.69612e-14 0.374337 3.6434e-17 0.41942)
(0.0734177 0.0665232 1.1592e-14 0.0628805 -9.77699e-16 0.0748618)
(0.018363 0.0144131 -3.3673e-15 0.015163 4.8324e-16 0.0188644)
(0.00730844 0.00461327 -8.65393e-16 0.00615603 1.26396e-16 0.00749493)
(0.00351378 0.00135665 1.21687e-16 0.00345827 -8.02479e-17 0.00336591)
(0.00101944 -0.00185354 1.1272e-16 0.00481801 4.51755e-17 -6.17845e-05)
(-0.000987037 -0.00458036 -7.24282e-17 0.00746778 1.00378e-16 -0.00312369)
(0.000126486 -0.00184174 -8.20454e-17 0.00243478 1.20722e-16 -0.000776792)
(0.000412089 -0.000284866 1.07851e-17 0.000175547 1.04944e-17 0.00032518)
(0.000201711 -4.67238e-05 1.04336e-17 6.16837e-05 -5.32972e-18 0.000211675)
(0.000100207 -4.34644e-06 -6.42577e-18 4.32037e-05 1.20583e-18 0.000110635)
(5.54297e-05 9.80489e-06 -2.25937e-18 1.84092e-05 -1.37031e-18 6.67789e-05)
(3.25151e-05 1.07866e-05 3.38635e-19 6.14309e-06 -2.00672e-19 4.18116e-05)
(1.90176e-05 4.40675e-06 7.38235e-19 4.97054e-06 5.28659e-20 2.3354e-05)
(1.07194e-05 5.01121e-07 1.07487e-19 5.60509e-06 5.1999e-20 1.21409e-05)
(6.2804e-06 -6.31419e-07 -5.34133e-20 4.92835e-06 9.09574e-21 6.45093e-06)
(3.4899e-06 -2.20601e-06 -7.00844e-20 5.51521e-06 3.33208e-20 2.61087e-06)
(3.19759e-06 -5.96612e-06 1.58206e-20 6.74526e-06 -6.22391e-20 -9.10453e-07)
(2.46599e-06 -2.4635e-06 -3.79357e-21 4.19058e-06 -7.26768e-20 8.43408e-07)
(1.24396 0.619329 2.97038e-13 1.28359 8.97162e-15 1.24611)
(2.83216 2.39584 -2.11199e-13 2.87706 -2.38836e-16 2.83268)
(3.74291 3.45609 1.36264e-12 3.75824 2.64528e-15 3.74334)
(4.19412 3.98436 -1.43079e-12 4.1676 4.51859e-15 4.19523)
(3.52753 3.39451 8.63163e-13 3.46314 -7.84981e-15 3.53149)
(1.65384 1.5933 -4.33211e-13 1.59458 6.58949e-15 1.66024)
(0.362808 0.34899 5.77804e-14 0.336521 -2.8324e-15 0.366686)
(0.064875 0.0599176 1.29363e-14 0.0552212 -8.04213e-16 0.066157)
(0.0173139 0.0136349 -4.00975e-15 0.0140108 2.43665e-16 0.0178359)
(0.00725736 0.00460381 -1.28512e-16 0.00577532 1.08473e-16 0.00752211)
(0.00358385 0.0017702 2.25676e-16 0.00306563 -2.85303e-17 0.00366096)
(0.00182637 4.67821e-05 -1.01615e-16 0.00215814 5.13004e-18 0.00163042)
(8.28432e-05 -0.00237333 -4.44042e-17 0.00437514 1.43423e-16 -0.00102569)
(-0.00055811 -0.00302592 2.24149e-17 0.00457052 -5.49164e-17 -0.00198151)
(0.000209549 -0.000709975 -4.66244e-17 0.00104746 3.41516e-17 -0.000184713)
(0.000204225 -7.60609e-05 -1.5278e-17 0.000165364 6.41468e-18 0.000183077)
(0.000109843 -1.57265e-05 -6.18331e-18 6.21387e-05 1.65749e-18 0.000117801)
(6.01059e-05 3.22359e-06 3.56781e-19 2.83542e-05 3.5461e-19 6.85142e-05)
(3.45219e-05 1.01251e-05 -3.80448e-19 9.91582e-06 2.02366e-21 4.34122e-05)
(2.00875e-05 6.72705e-06 2.22742e-19 5.14671e-06 -1.19027e-19 2.56236e-05)
(1.15293e-05 1.87989e-06 -3.95705e-19 5.23213e-06 1.14242e-19 1.34656e-05)
(6.61836e-06 -1.32962e-07 -1.35181e-19 4.86742e-06 -1.04583e-20 7.04228e-06)
(3.92079e-06 -8.77387e-07 -1.18181e-20 4.30194e-06 -1.09921e-20 3.67318e-06)
(2.36507e-06 -3.80808e-06 -5.0755e-20 6.17723e-06 7.81382e-20 1.85856e-07)
(2.57346e-06 -4.09159e-06 4.82523e-20 5.25845e-06 -6.84134e-20 -3.85831e-07)
(2.17956e-06 -1.02707e-06 6.14261e-20 2.88916e-06 -1.32432e-20 1.44474e-06)
(1.16262 0.615991 5.93275e-13 1.20258 1.83693e-14 1.16304)
(2.74012 2.3952 -8.60393e-13 2.78883 -1.07536e-14 2.73507)
(3.53945 3.32249 9.647e-13 3.57196 6.39123e-15 3.53243)
(3.94647 3.78539 9.71858e-13 3.94503 8.75689e-18 3.94142)
(3.29679 3.16576 -1.64871e-12 3.25885 9.45963e-15 3.29544)
(1.51811 1.46401 -3.1195e-13 1.48557 3.56016e-15 1.52164)
(0.32352 0.313793 3.69032e-15 0.307198 2.30645e-16 0.32575)
(0.0564011 0.0534758 -8.24807e-15 0.0497962 7.11472e-16 0.0573493)
(0.0161884 0.0129978 4.7158e-16 0.0130222 1.5162e-16 0.0166972)
(0.00713062 0.00465362 -7.27209e-16 0.00556719 1.12616e-16 0.00739319)
(0.00363521 0.00190353 5.15996e-16 0.00281215 -5.35136e-17 0.00377228)
(0.00192841 0.000466107 -3.07866e-16 0.0017143 2.41824e-17 0.00195281)
(0.000939491 -0.000520183 1.27957e-16 0.00172966 6.68197e-17 0.000662747)
(-0.000350994 -0.00238552 -3.45833e-17 0.00389544 1.70989e-16 -0.00140615)
(-0.000142703 -0.00162214 1.08245e-16 0.00229574 -1.81469e-16 -0.000938753)
(0.00016374 -0.000216778 2.27903e-17 0.000454438 -5.37648e-19 2.40705e-05)
(0.00010954 -9.62189e-06 1.01179e-17 0.000118745 1.61741e-18 0.000102858)
(6.20861e-05 1.47597e-06 -1.52667e-18 4.76314e-05 -1.18713e-19 6.62956e-05)
(3.59325e-05 7.63151e-06 7.43235e-19 1.81007e-05 -1.98344e-19 4.23694e-05)
(2.13996e-05 8.20423e-06 4.99499e-20 6.17667e-06 2.07866e-19 2.71809e-05)
(1.2237e-05 3.77542e-06 -1.56882e-19 4.99073e-06 2.38189e-19 1.48843e-05)
(6.98494e-06 6.73531e-07 8.1648e-20 4.87702e-06 1.05559e-20 7.60792e-06)
(4.18473e-06 -2.30144e-07 -1.68907e-19 3.96633e-06 9.95471e-21 4.16713e-06)
(2.4543e-06 -2.07236e-06 -3.93746e-20 4.80087e-06 5.62494e-21 1.29755e-06)
(2.09872e-06 -3.98563e-06 7.73697e-20 5.60943e-06 -9.78145e-20 -5.34716e-07)
(2.21065e-06 -2.0019e-06 9.28743e-21 3.56534e-06 4.88575e-20 7.16011e-07)
(2.11102e-06 -4.47546e-07 -6.64131e-21 2.4174e-06 6.18586e-21 1.7821e-06)
(1.08065 0.606253 5.54931e-13 1.11514 1.62223e-14 1.08021)
(2.63392 2.36436 1.88246e-14 2.68328 9.19171e-18 2.62537)
(3.32246 3.1579 3.63539e-13 3.36399 7.6976e-16 3.31057)
(3.69388 3.55918 -1.1038e-12 3.71725 -4.90923e-15 3.68463)
(3.07421 2.95384 6.91164e-13 3.07286 -1.58229e-16 3.06999)
(1.40105 1.35418 -4.38939e-13 1.38469 1.20528e-15 1.40239)
(0.293341 0.287152 5.1715e-14 0.284526 -6.08431e-16 0.294419)
(0.0504299 0.0482821 3.7827e-15 0.0462252 -2.68153e-16 0.0510245)
(0.0149953 0.0123685 -3.44213e-15 0.0125843 1.76376e-16 0.0154218)
(0.00697953 0.00481539 -7.11465e-16 0.00539946 1.31002e-16 0.00722929)
(0.0036134 0.00199495 1.53225e-16 0.0027498 -4.6642e-17 0.00373741)
(0.00197476 0.000628901 -2.70683e-16 0.00154411 -1.34032e-18 0.00204673)
(0.00113476 2.27824e-05 -3.61771e-17 0.00104703 8.39128e-18 0.00110995)
(0.000354784 -0.000869544 -4.22807e-17 0.00176134 2.41166e-17 -2.10085e-05)
(-0.000360066 -0.00192431 -2.26051e-17 0.00287537 3.40971e-17 -0.00120516)
(7.81408e-05 -0.000696693 -7.03599e-18 0.000924574 -3.63696e-17 -0.000279607)
(0.000120384 -6.19503e-05 -3.23261e-18 0.000175259 -2.08284e-18 8.2525e-05)
(6.74605e-05 -4.76224e-07 2.74222e-18 6.25115e-05 5.83894e-19 6.78826e-05)
(3.79549e-05 3.77566e-06 -1.20203e-18 2.67971e-05 3.66285e-21 4.16198e-05)
(2.24155e-05 7.737e-06 1.04708e-18 8.90894e-06 1.11698e-19 2.78234e-05)
(1.30737e-05 5.00579e-06 1.58519e-19 4.70277e-06 -8.81928e-20 1.63916e-05)
(7.45069e-06 1.63193e-06 1.7461e-19 4.4934e-06 -6.01254e-20 8.52751e-06)
(4.37111e-06 1.25439e-07 8.62549e-20 3.97188e-06 7.51385e-21 4.4619e-06)
(2.60311e-06 -7.67712e-07 9.12612e-20 3.76271e-06 2.79152e-20 2.21316e-06)
(1.96003e-06 -3.4183e-06 4.68821e-20 5.17317e-06 -1.42107e-20 -2.35562e-07)
(2.03653e-06 -2.59281e-06 1.72342e-20 4.08909e-06 -1.56168e-20 2.19564e-07)
(2.05133e-06 -8.53762e-07 -2.47569e-20 2.58699e-06 -3.58494e-21 1.40694e-06)
(2.62773e-06 -3.0224e-07 -1.28367e-20 2.79074e-06 -3.55464e-21 2.41707e-06)
(0.999373 0.58249 1.72596e-13 1.02347 5.91106e-15 0.998658)
(2.51239 2.30291 4.60652e-14 2.55926 8.12643e-17 2.50413)
(3.09421 2.93735 1.01838e-12 3.14233 9.48648e-15 3.08294)
(3.44481 3.29251 1.14923e-12 3.48867 7.15001e-15 3.43594)
(2.8695 2.74598 -6.71499e-13 2.88848 -3.55476e-15 2.86567)
(1.29518 1.25063 -3.18501e-13 1.29644 -7.55821e-16 1.29454)
(0.269884 0.266872 8.06308e-15 0.266533 2.44097e-16 0.27024)
(0.0462619 0.0445044 -8.26055e-15 0.0440797 2.07491e-16 0.0465797)
(0.0141493 0.0117642 -7.5254e-16 0.0124779 7.61742e-17 0.0144562)
(0.00677496 0.00494925 9.06575e-16 0.00539703 -1.68396e-16 0.00698411)
(0.00357193 0.0021341 -3.45624e-17 0.00269869 -3.60341e-17 0.00369201)
(0.00196462 0.000682512 1.08273e-16 0.00152081 9.40984e-18 0.00203487)
(0.0011481 0.000159194 -1.15643e-16 0.000952764 -1.46273e-18 0.00117503)
(0.000652009 -0.000165013 -8.22442e-18 0.000786523 5.22245e-18 0.000588988)
(-3.56844e-05 -0.00107538 -1.22547e-17 0.00184015 6.44847e-17 -0.000490394)
(-0.00015401 -0.0011932 2.03603e-17 0.00164538 1.52512e-18 -0.00069997)
(0.000116985 -0.000244909 4.43411e-18 0.000317071 1.31314e-17 -4.67349e-06)
(8.07689e-05 -1.91312e-05 2.17393e-18 6.64562e-05 -9.17005e-19 7.54609e-05)
(4.15884e-05 -5.86325e-07 -1.38021e-18 3.26686e-05 -3.5385e-19 4.35574e-05)
(2.34891e-05 5.14207e-06 -8.76636e-19 1.32041e-05 -2.17483e-21 2.7533e-05)
(1.38413e-05 5.68548e-06 2.75613e-19 5.06864e-06 2.14343e-20 1.75271e-05)
(7.93379e-06 2.56598e-06 -4.86895e-19 4.06764e-06 -4.04766e-20 9.55797e-06)
(4.62338e-06 5.06519e-07 -2.04144e-19 3.80118e-06 -1.49605e-20 4.90644e-06)
(2.82334e-06 -1.67308e-07 3.85755e-20 3.2123e-06 -4.06904e-21 2.73618e-06)
(1.83282e-06 -2.1995e-06 2.91621e-20 4.28741e-06 1.37233e-20 5.21385e-07)
(1.92744e-06 -3.11385e-06 -2.56941e-20 4.40394e-06 4.67765e-20 -2.31325e-07)
(1.9418e-06 -1.21686e-06 3.42929e-20 2.83928e-06 -1.14982e-20 1.08602e-06)
(2.31822e-06 -4.52785e-07 -8.2733e-21 2.52606e-06 -2.44371e-21 1.9709e-06)