/*--------------------------------*- C++ -*----------------------------------*\
| =========                 |                                                 |
| \\      /  F ield         | OpenFOAM: The Open Source CFD Toolbox           |
|  \\    /   O peration     | Version:  v2012                                 |
|   \\  /    A nd           | Website:  www.openfoam.com                      |
|    \\/     M anipulation  |                                                 |
\*---------------------------------------------------------------------------*/
FoamFile
{
    version     2.0;
    format      ascii;
    class       volVectorField;
    location    "12000";
    object      U;
}
// * * * * * * * * * * * * * * * * * * * * * * * * * * * * * * * * * * * * * //

dimensions      [0 1 -1 0 0 0 0];


internalField   nonuniform List<vector> 
27324
(
(512.168 -0.102698 0)
(506.982 -0.0775373 0)
(513.411 -0.341209 0)
(504.229 -0.0622276 0)
(508.478 -0.259344 0)
(516.076 -0.641781 0)
(501.462 -0.0375362 0)
(505.91 -0.208447 0)
(511.645 -0.495435 0)
(520.086 -1.03268 0)
(499.221 0.0215159 0)
(503.376 -0.140675 0)
(509.415 -0.402993 0)
(516.325 -0.818395 0)
(525.436 -1.54432 0)
(497.726 0.0195442 0)
(501.37 0.0213267 0)
(507.3 -0.284899 0)
(514.537 -0.679005 0)
(522.433 -1.25953 0)
(531.769 -2.20373 0)
(496.973 0.0548387 0)
(500.116 0.0502155 0)
(505.72 -0.0155117 0)
(512.962 -0.510301 0)
(521.103 -1.06465 0)
(529.106 -1.83465 0)
(536.947 -2.97372 0)
(496.539 0.273083 0)
(499.551 0.152744 0)
(504.917 0.0782887 0)
(511.9 -0.12963 0)
(520.018 -0.840122 0)
(527.844 -1.55763 0)
(533.934 -2.48777 0)
(539.832 -3.82367 0)
(508.714 0.898455 0)
(499.226 0.815962 0)
(504.773 0.253812 0)
(511.501 0.068914 0)
(519.341 -0.310392 0)
(526.737 -1.25947 0)
(532.403 -2.08527 0)
(536.565 -3.21512 0)
(541.439 -4.78744 0)
(528.93 1.49476 0)
(511.229 2.74553 0)
(505.204 1.47865 0)
(512.166 0.299774 0)
(519.151 -0.00720239 0)
(525.914 -0.546425 0)
(531.049 -1.70054 0)
(534.912 -2.65589 0)
(538.184 -4.07321 0)
(542.499 -5.88572 0)
(552.057 1.54313 0)
(531.16 4.68922 0)
(516.702 5.00274 0)
(513.447 2.20833 0)
(520.198 0.306899 0)
(525.591 -0.0676137 0)
(530.009 -0.80515 0)
(533.522 -2.1794 0)
(536.517 -3.30315 0)
(539.307 -5.10411 0)
(543.244 -7.09213 0)
(567.084 0.398466 0)
(553.882 4.96626 0)
(535.682 8.48333 0)
(524.147 7.67657 0)
(521.655 3.15212 0)
(526.248 0.372252 0)
(529.539 -0.0667087 0)
(532.457 -1.09375 0)
(535.184 -2.71965 0)
(537.582 -4.04334 0)
(540.135 -6.34157 0)
(543.627 -8.4047 0)
(570.004 0.0803572 0)
(568.632 1.35279 0)
(556.934 8.94426 0)
(541.482 12.9839 0)
(531.934 10.9619 0)
(527.852 4.41686 0)
(529.917 0.545618 0)
(531.944 -0.0482122 0)
(534.155 -1.45988 0)
(536.276 -3.3204 0)
(538.319 -4.89512 0)
(540.691 -7.842 0)
(543.858 -9.69439 0)
(570.489 0.0197321 0)
(571.587 0.274492 0)
(571.083 2.44114 0)
(560.744 13.6634 0)
(547.871 18.316 0)
(538.251 14.9814 0)
(532.466 6.18414 0)
(532.524 0.908371 0)
(533.605 -0.00686581 0)
(535.28 -1.90086 0)
(537.03 -3.97699 0)
(538.812 -5.90396 0)
(541.194 -9.58656 0)
(543.83 -11.0553 0)
(570.375 -0.0121853 0)
(572.114 0.0563421 0)
(574.044 0.495528 0)
(574.044 3.79747 0)
(565.279 19.1984 0)
(553.499 24.4941 0)
(542.783 19.8552 0)
(536 8.66845 0)
(534.534 1.5909 0)
(534.701 0.0924225 0)
(536.101 -2.39019 0)
(537.555 -4.70823 0)
(539.26 -7.13555 0)
(541.483 -11.6021 0)
(543.547 -12.2794 0)
(570.064 -0.0186317 0)
(572.144 -0.0370736 0)
(574.598 0.0831149 0)
(576.999 0.767294 0)
(577.489 5.46119 0)
(569.901 25.6269 0)
(557.468 31.4696 0)
(546.678 25.6829 0)
(539.243 12.2554 0)
(536.232 2.96002 0)
(535.609 0.332656 0)
(536.778 -2.7835 0)
(537.995 -5.47209 0)
(539.669 -8.74552 0)
(541.688 -13.2565 0)
(542.995 -13.622 0)
(569.632 -0.0259797 0)
(571.836 -0.0649964 0)
(574.635 -0.06714 0)
(577.525 0.110475 0)
(580.421 1.10686 0)
(581.594 7.59458 0)
(573.193 32.8251 0)
(560.192 39.1111 0)
(550.422 32.6748 0)
(542.803 17.5246 0)
(538.265 5.63639 0)
(536.605 0.970079 0)
(537.474 -2.9111 0)
(538.405 -5.98695 0)
(540.361 -10.6422 0)
(541.547 -14.6517 0)
(542.612 -14.6693 0)
(569.153 -0.0317034 0)
(571.437 -0.0871034 0)
(574.301 -0.125319 0)
(577.549 -0.101275 0)
(580.946 0.137348 0)
(584.684 1.55096 0)
(585.345 10.3663 0)
(574.636 40.5545 0)
(562.272 47.0742 0)
(554.006 40.8264 0)
(546.921 25.1926 0)
(541.229 10.8545 0)
(538.516 2.93821 0)
(538.593 -2.55132 0)
(539.185 -5.96722 0)
(541.138 -12.4008 0)
(541.959 -14.7084 0)
(542.933 -15.4838 0)
(568.614 -0.0316399 0)
(570.948 -0.104622 0)
(573.883 -0.165099 0)
(577.196 -0.198691 0)
(580.985 -0.143124 0)
(585.283 0.173726 0)
(589.081 2.16596 0)
(587.113 13.9997 0)
(575.033 48.5227 0)
(563.772 54.9487 0)
(557.446 49.8777 0)
(551.772 35.7587 0)
(545.897 20.3234 0)
(541.669 8.8597 0)
(541.055 0.230277 0)
(540.886 -4.39005 0)
(544.144 -12.3797 0)
(542.301 -10.3812 0)
(545.321 -15.9392 0)
(568.082 -0.0193005 0)
(570.38 -0.106179 0)
(573.376 -0.194664 0)
(576.807 -0.260163 0)
(580.711 -0.29489 0)
(585.358 -0.200675 0)
(589.858 0.236326 0)
(591.893 3.08328 0)
(587.371 18.8133 0)
(574.386 56.2147 0)
(564.802 62.1243 0)
(560.539 58.8675 0)
(556.962 48.5823 0)
(552.651 35.2838 0)
(548.826 22.4199 0)
(547.388 11.608 0)
(548.01 4.05343 0)
(549.174 0.638115 0)
(551.967 -1.14052 0)
(549.525 1.60081 0)
(567.671 -0.00963868 0)
(569.826 -0.0679344 0)
(572.817 -0.19782 0)
(576.355 -0.306605 0)
(580.429 -0.381804 0)
(585.205 -0.419617 0)
(589.97 -0.275545 0)
(592.87 0.352816 0)
(593.461 4.51007 0)
(586.203 25.1231 0)
(573.149 62.9117 0)
(565.335 67.8744 0)
(563.032 66.5269 0)
(561.462 61.1092 0)
(559.669 53.2089 0)
(558.495 43.7292 0)
(558.776 34.4813 0)
(560.255 28.2676 0)
(562.498 27.5352 0)
(565.076 32.1579 0)
(561.07 32.2736 0)
(567.351 -0.0018797 0)
(569.416 -0.0359877 0)
(572.297 -0.128651 0)
(575.884 -0.312188 0)
(580.103 -0.448523 0)
(585.033 -0.538176 0)
(589.85 -0.56897 0)
(592.99 -0.344005 0)
(594.89 0.561875 0)
(594.104 6.81726 0)
(583.814 32.9301 0)
(571.342 68.0287 0)
(565.638 72.1417 0)
(564.696 71.7878 0)
(564.399 69.6248 0)
(564.565 65.8008 0)
(565.758 60.1376 0)
(567.824 54.1446 0)
(569.887 50.6057 0)
(571.522 50.4476 0)
(572.322 52.9542 0)
(565.756 58.2811 0)
(567.1 0.00321335 0)
(569.107 -0.00964235 0)
(571.932 -0.0709494 0)
(575.474 -0.209066 0)
(579.775 -0.458513 0)
(584.817 -0.628546 0)
(589.604 -0.719694 0)
(592.807 -0.729659 0)
(595.09 -0.408261 0)
(596.222 0.948182 0)
(593.869 10.6385 0)
(580.181 41.7729 0)
(569.202 70.9751 0)
(565.843 74.1716 0)
(565.4 73.8907 0)
(565.615 72.4698 0)
(566.885 69.6583 0)
(569.308 64.9876 0)
(571.805 60.0126 0)
(573.242 56.9794 0)
(573.613 55.7027 0)
(572.845 56.1946 0)
(560.961 75.0465 0)
(566.896 0.0084143 0)
(568.893 0.0100952 0)
(571.686 -0.0243674 0)
(575.225 -0.121547 0)
(579.501 -0.316527 0)
(584.574 -0.641684 0)
(589.323 -0.833189 0)
(592.57 -0.916569 0)
(594.987 -0.9106 0)
(596.523 -0.461387 0)
(597.13 1.71396 0)
(592.18 16.8095 0)
(575.849 50.5303 0)
(567.081 71.5865 0)
(565.54 74.3295 0)
(565.359 73.5063 0)
(565.923 71.8902 0)
(567.687 68.4699 0)
(570.493 63.3405 0)
(572.656 58.9082 0)
(573.737 56.0748 0)
(573.341 55.4042 0)
(570.247 60.4624 0)
(550.854 90.9145 0)
(566.745 0.0130104 0)
(568.764 0.0188603 0)
(571.557 0.0100936 0)
(575.104 -0.052135 0)
(579.357 -0.19267 0)
(584.338 -0.450479 0)
(588.993 -0.849443 0)
(592.282 -1.05346 0)
(594.72 -1.13695 0)
(596.41 -1.09957 0)
(597.673 -0.487918 0)
(597.337 3.32464 0)
(588.473 25.9261 0)
(571.779 58.1332 0)
(565.5 70.8245 0)
(565.181 72.7183 0)
(565.264 72.3015 0)
(566.281 69.9666 0)
(568.711 65.394 0)
(571.497 59.8461 0)
(573.015 56.1752 0)
(573.379 54.7228 0)
(572.204 55.9795 0)
(562.335 72.3872 0)
(542.061 102.286 0)
(566.661 0.0160952 0)
(568.725 0.0360598 0)
(571.522 0.0281439 0)
(575.072 0.00159501 0)
(579.292 -0.0913751 0)
(584.178 -0.28074 0)
(588.685 -0.603477 0)
(591.978 -1.07514 0)
(594.424 -1.29875 0)
(596.118 -1.3755 0)
(597.666 -1.28382 0)
(598.414 -0.40275 0)
(596.311 6.75811 0)
(583.146 37.5645 0)
(568.497 63.8309 0)
(564.716 70.2087 0)
(564.666 71.287 0)
(565.199 70.5009 0)
(566.893 67.3924 0)
(569.764 61.7704 0)
(572.134 56.585 0)
(573.024 54.3216 0)
(572.819 54.0943 0)
(567.856 62.6447 0)
(550.832 89.5909 0)
(536.874 109.067 0)
(566.639 0.0183662 0)
(568.75 0.0443759 0)
(571.548 0.0566968 0)
(575.083 0.0319203 0)
(579.269 -0.0172961 0)
(584.072 -0.143044 0)
(588.478 -0.382974 0)
(591.693 -0.775989 0)
(594.098 -1.32564 0)
(595.823 -1.55621 0)
(597.392 -1.63625 0)
(598.481 -1.42095 0)
(598.55 0.0793728 0)
(593.711 13.529 0)
(576.963 49.7211 0)
(566.359 67.775 0)
(564.421 70.5849 0)
(564.626 70.6236 0)
(565.55 69.0038 0)
(568.05 64.1784 0)
(570.954 58.3672 0)
(572.628 54.3942 0)
(572.905 53.481 0)
(571.325 56.3348 0)
(557.903 79.0214 0)
(541.565 102.905 0)
(534.347 112.529 0)
(566.639 0.0171891 0)
(568.866 0.0499777 0)
(571.678 0.0715805 0)
(575.174 0.0737867 0)
(579.324 0.0314999 0)
(584.019 -0.0510629 0)
(588.358 -0.204489 0)
(591.488 -0.502048 0)
(593.778 -0.973908 0)
(595.522 -1.58986 0)
(597.161 -1.83271 0)
(598.271 -1.90601 0)
(598.847 -1.52511 0)
(598.118 1.66192 0)
(588.647 24.7919 0)
(571.445 59.7368 0)
(565.286 70.2715 0)
(564.459 70.7296 0)
(564.803 69.9057 0)
(566.412 66.6412 0)
(569.475 60.6453 0)
(571.973 55.5477 0)
(572.867 53.36 0)
(572.591 53.9574 0)
(565.012 67.6601 0)
(546.427 96.3398 0)
(536.523 109.829 0)
(532.918 114.212 0)
(566.664 0.0132296 0)
(569.001 0.0479168 0)
(571.83 0.0811975 0)
(575.283 0.0992271 0)
(579.376 0.0925091 0)
(584.007 0.0366681 0)
(588.306 -0.0759851 0)
(591.356 -0.271077 0)
(593.523 -0.641338 0)
(595.242 -1.19932 0)
(596.929 -1.87402 0)
(598.056 -2.1084 0)
(598.779 -2.15202 0)
(599.003 -1.53137 0)
(596.223 6.20421 0)
(581.505 39.1174 0)
(567.501 65.5076 0)
(564.56 70.3535 0)
(564.47 70.1841 0)
(565.141 68.4677 0)
(567.814 63.3212 0)
(570.898 57.216 0)
(572.667 53.7954 0)
(572.893 53.4203 0)
(569.798 59.4354 0)
(553.285 86.5414 0)
(538.809 106.857 0)
(534.032 112.889 0)
(531.814 115.185 0)
(566.683 0.0108614 0)
(569.122 0.0368642 0)
(571.965 0.0805088 0)
(575.379 0.115615 0)
(579.428 0.133871 0)
(584.052 0.110468 0)
(588.297 0.0380631 0)
(591.295 -0.102564 0)
(593.346 -0.348655 0)
(595.024 -0.810952 0)
(596.706 -1.46231 0)
(597.852 -2.15321 0)
(598.597 -2.36599 0)
(599.021 -2.3185 0)
(598.632 -0.804998 0)
(592.051 16.0059 0)
(573.992 52.6809 0)
(565.196 67.8893 0)
(564.279 69.6948 0)
(564.405 69.3094 0)
(566.196 65.9034 0)
(569.49 59.6355 0)
(572.154 54.6949 0)
(572.932 53.3746 0)
(572.163 55.1501 0)
(560.573 75.4064 0)
(542.628 101.766 0)
(535.04 111.63 0)
(532.555 114.373 0)
(530.793 115.94 0)
(566.644 -0.000655205 0)
(569.179 0.0239397 0)
(572.058 0.0602235 0)
(575.459 0.118201 0)
(579.493 0.156215 0)
(584.14 0.166545 0)
(588.356 0.133883 0)
(591.281 0.041678 0)
(593.255 -0.130715 0)
(594.887 -0.444806 0)
(596.506 -1.02415 0)
(597.642 -1.74171 0)
(598.439 -2.41515 0)
(598.904 -2.5798 0)
(599.003 -2.36899 0)
(597.453 2.20081 0)
(584.676 31.6314 0)
(568.541 62.2758 0)
(564.211 68.8337 0)
(564.121 69.479 0)
(564.942 67.9481 0)
(567.862 62.4846 0)
(571.286 56.4306 0)
(572.872 53.6694 0)
(572.945 53.7512 0)
(566.808 65.1205 0)
(547.952 94.3938 0)
(536.724 109.496 0)
(533.095 113.76 0)
(531.419 115.264 0)
(529.87 116.725 0)
(566.568 -0.00196521 0)
(569.178 -0.00163704 0)
(572.088 0.0341894 0)
(575.52 0.0839916 0)
(579.577 0.159049 0)
(584.281 0.196934 0)
(588.438 0.203085 0)
(591.323 0.164445 0)
(593.23 0.0501212 0)
(594.837 -0.1659 0)
(596.357 -0.573238 0)
(597.427 -1.27056 0)
(598.268 -2.02952 0)
(598.783 -2.6286 0)
(598.971 -2.71913 0)
(598.889 -1.99333 0)
(593.785 10.873 0)
(576.054 48.3667 0)
(565.704 67.5023 0)
(564.075 69.5001 0)
(564.266 69.1417 0)
(566.246 65.387 0)
(570.051 58.8526 0)
(572.53 54.3797 0)
(573.103 53.5379 0)
(570.805 58.0018 0)
(554.63 84.6597 0)
(539.239 106.227 0)
(533.894 112.823 0)
(531.798 114.851 0)
(530.448 116.028 0)
(529.192 117.89 0)
(566.421 -0.00448173 0)
(569.095 -0.0106636 0)
(572.014 -0.00201462 0)
(575.547 0.0498524 0)
(579.681 0.106569 0)
(584.446 0.199802 0)
(588.545 0.244445 0)
(591.43 0.251444 0)
(593.244 0.20048 0)
(594.833 0.0538186 0)
(596.278 -0.214507 0)
(597.245 -0.737912 0)
(598.072 -1.55075 0)
(598.651 -2.29479 0)
(598.917 -2.78136 0)
(599.083 -2.75477 0)
(597.86 0.411455 0)
(586.572 27.1668 0)
(569.186 60.3455 0)
(564.497 69.3747 0)
(564.053 69.5515 0)
(564.949 67.7934 0)
(568.508 61.8117 0)
(571.851 55.783 0)
(573.116 53.5278 0)
(572.631 54.4806 0)
(561.589 73.8227 0)
(543.005 101.213 0)
(534.993 111.492 0)
(532.282 114.316 0)
(530.778 115.641 0)
(529.707 117.217 0)
(528.856 119.164 0)
(566.241 -0.00466292 0)
(568.918 -0.0170648 0)
(571.86 -0.0219929 0)
(575.481 -0.00589956 0)
(579.774 0.0606941 0)
(584.603 0.12907 0)
(588.657 0.248192 0)
(591.564 0.301488 0)
(593.333 0.304279 0)
(594.926 0.237055 0)
(596.254 0.050072 0)
(597.128 -0.285179 0)
(597.888 -0.952518 0)
(598.476 -1.84478 0)
(598.847 -2.50941 0)
(599.089 -2.84967 0)
(598.892 -2.3763 0)
(594.725 8.55332 0)
(576.979 46.4022 0)
(565.648 66.4689 0)
(564.026 69.6117 0)
(564.208 69.3022 0)
(566.855 64.9277 0)
(570.773 57.8363 0)
(572.925 53.8164 0)
(573.161 53.3446 0)
(567.394 64.1056 0)
(548.226 94.0144 0)
(536.618 109.466 0)
(532.855 113.669 0)
(531.153 115.207 0)
(530.017 116.834 0)
(529.296 118.527 0)
(528.608 119.685 0)
(566.026 -0.000540133 0)
(568.722 -0.0183541 0)
(571.694 -0.0353614 0)
(575.434 -0.0383116 0)
(579.859 -0.0187635 0)
(584.717 0.0608323 0)
(588.767 0.15777 0)
(591.71 0.307834 0)
(593.42 0.364089 0)
(595.027 0.363289 0)
(596.282 0.276401 0)
(597.086 0.0526154 0)
(597.753 -0.395562 0)
(598.295 -1.21278 0)
(598.742 -2.11132 0)
(599.069 -2.64456 0)
(599.062 -2.76433 0)
(598.178 -0.142134 0)
(587.107 26.0144 0)
(569.498 60.7041 0)
(564.322 69.0686 0)
(563.997 69.9891 0)
(565.385 67.6453 0)
(569.316 60.4963 0)
(572.436 54.6417 0)
(573.233 53.1401 0)
(571.112 57.4619 0)
(554.67 84.6911 0)
(539.033 106.37 0)
(533.609 112.794 0)
(531.537 114.771 0)
(530.365 116.415 0)
(529.57 118.123 0)
(528.992 119.033 0)
(527.352 118.743 0)
(565.831 0.00165137 0)
(568.551 -0.00812044 0)
(571.572 -0.0416387 0)
(575.41 -0.0620955 0)
(579.946 -0.0720318 0)
(584.78 -0.0339325 0)
(588.844 0.0660518 0)
(591.845 0.194109 0)
(593.505 0.373782 0)
(595.123 0.434473 0)
(596.315 0.425421 0)
(597.091 0.314256 0)
(597.688 0.0421336 0)
(598.133 -0.565205 0)
(598.607 -1.50256 0)
(599.007 -2.31934 0)
(599.096 -2.6916 0)
(599.059 -2.30988 0)
(594.834 8.52301 0)
(576.846 47.0908 0)
(565.738 67.7435 0)
(563.99 70.2403 0)
(564.394 69.4214 0)
(567.615 63.4878 0)
(571.557 56.1928 0)
(573.233 53.1134 0)
(572.847 54.1881 0)
(561.42 74.2845 0)
(542.559 101.721 0)
(534.649 111.553 0)
(531.974 114.282 0)
(530.695 116.027 0)
(529.888 117.647 0)
(529.219 118.591 0)
(527.663 117.927 0)
(525.93 115.646 0)
(565.72 0.0104465 0)
(568.478 0.00520741 0)
(571.516 -0.0192965 0)
(575.405 -0.0753109 0)
(579.976 -0.103103 0)
(584.797 -0.107632 0)
(588.888 -0.0495581 0)
(591.922 0.0768864 0)
(593.571 0.236278 0)
(595.213 0.448848 0)
(596.364 0.503984 0)
(597.133 0.485849 0)
(597.677 0.339998 0)
(598.024 -0.0246151 0)
(598.455 -0.807527 0)
(598.921 -1.80462 0)
(599.088 -2.40427 0)
(599.224 -2.54896 0)
(598.232 0.144737 0)
(586.48 27.9524 0)
(568.961 61.7317 0)
(564.317 70.2551 0)
(563.965 70.1504 0)
(565.918 66.3917 0)
(570.299 58.3935 0)
(572.959 53.5683 0)
(573.382 53.1375 0)
(567.18 64.7216 0)
(547.413 95.088 0)
(536.138 109.724 0)
(532.506 113.687 0)
(531.022 115.649 0)
(530.204 117.167 0)
(529.47 118.066 0)
(527.906 117.297 0)
(525.773 114.738 0)
(524.72 110.054 0)
(565.689 0.0154761 0)
(568.487 0.0251915 0)
(571.509 0.00377277 0)
(575.394 -0.0367254 0)
(579.97 -0.112674 0)
(584.741 -0.148981 0)
(588.902 -0.144211 0)
(591.944 -0.0643172 0)
(593.597 0.0915666 0)
(595.286 0.285706 0)
(596.415 0.518034 0)
(597.193 0.566132 0)
(597.688 0.53259 0)
(597.973 0.346209 0)
(598.329 -0.186844 0)
(598.768 -1.12406 0)
(599.078 -2.01774 0)
(599.261 -2.40432 0)
(599.154 -2.0219 0)
(594.244 10.4542 0)
(575.633 50.1956 0)
(565.079 68.2508 0)
(563.874 70.2757 0)
(564.591 68.6444 0)
(568.679 61.2183 0)
(572.443 54.5597 0)
(573.471 52.9377 0)
(571.029 57.828 0)
(553.463 86.4259 0)
(538.304 106.993 0)
(533.195 112.904 0)
(531.357 115.258 0)
(530.515 116.686 0)
(529.718 117.508 0)
(528.181 116.531 0)
(525.758 113.962 0)
(523.998 109.112 0)
(523.785 102.539 0)
(565.697 0.0144842 0)
(568.621 0.0388023 0)
(571.645 0.0360297 0)
(575.425 -0.00557329 0)
(579.907 -0.0666645 0)
(584.68 -0.156768 0)
(588.88 -0.19604 0)
(591.929 -0.182491 0)
(593.602 -0.0742798 0)
(595.33 0.110006 0)
(596.465 0.333007 0)
(597.252 0.579423 0)
(597.706 0.613808 0)
(597.965 0.556302 0)
(598.241 0.268809 0)
(598.602 -0.465362 0)
(598.967 -1.48528 0)
(599.26 -2.16835 0)
(599.35 -2.25918 0)
(597.965 1.14181 0)
(584.742 32.4882 0)
(567.794 64.1678 0)
(563.861 70.1486 0)
(563.862 69.8661 0)
(566.897 64.315 0)
(571.492 56.3252 0)
(573.478 52.9257 0)
(572.949 54.138 0)
(560.015 76.4715 0)
(541.424 102.949 0)
(534.124 111.827 0)
(531.733 114.808 0)
(530.804 116.232 0)
(529.977 116.891 0)
(528.427 115.726 0)
(525.885 112.975 0)
(523.693 108.314 0)
(522.574 101.613 0)
(522.972 93.8412 0)
(565.775 0.0149 0)
(568.821 0.0392181 0)
(571.825 0.0608881 0)
(575.511 0.0464194 0)
(579.868 -0.00428386 0)
(584.633 -0.095498 0)
(588.844 -0.208411 0)
(591.828 -0.245367 0)
(593.562 -0.215476 0)
(595.346 -0.0853145 0)
(596.497 0.131756 0)
(597.307 0.377157 0)
(597.72 0.620344 0)
(597.962 0.633834 0)
(598.187 0.51852 0)
(598.45 0.0631738 0)
(598.798 -0.886888 0)
(599.166 -1.86665 0)
(599.402 -2.17313 0)
(599.041 -1.72131 0)
(592.958 14.4863 0)
(573.037 54.588 0)
(564.646 69.332 0)
(563.621 70.1974 0)
(565.247 67.2169 0)
(570.173 58.768 0)
(573.227 53.3491 0)
(573.597 52.7618 0)
(565.954 66.8061 0)
(545.726 97.1906 0)
(535.424 110.273 0)
(532.188 114.277 0)
(531.062 115.813 0)
(530.255 116.201 0)
(528.633 114.863 0)
(526.004 111.879 0)
(523.438 107.276 0)
(521.958 100.859 0)
(521.398 92.9476 0)
(522.079 84.6263 0)
(565.827 0.010875 0)
(569.008 0.0376614 0)
(571.99 0.0671301 0)
(575.562 0.0896112 0)
(579.853 0.0664664 0)
(584.618 -0.0077915 0)
(588.812 -0.1266 0)
(591.739 -0.261679 0)
(593.514 -0.294171 0)
(595.345 -0.256275 0)
(596.51 -0.095829 0)
(597.348 0.156025 0)
(597.728 0.406483 0)
(597.955 0.638153 0)
(598.154 0.60099 0)
(598.333 0.381581 0)
(598.606 -0.33387 0)
(599.004 -1.42322 0)
(599.41 -2.09593 0)
(599.214 -2.25109 0)
(597.556 3.09402 0)
(581.127 39.1688 0)
(566.266 66.0212 0)
(563.585 70.2492 0)
(564.101 69.3573 0)
(568.502 61.8097 0)
(572.682 54.3208 0)
(573.722 52.4391 0)
(570.302 59.2117 0)
(551.219 89.5301 0)
(537.272 107.994 0)
(532.771 113.603 0)
(531.319 115.365 0)
(530.541 115.444 0)
(528.82 113.944 0)
(526.146 110.685 0)
(523.275 106.084 0)
(521.339 99.8688 0)
(520.539 92.2528 0)
(520.243 83.7693 0)
(521.011 75.3968 0)
(565.84 3.34683e-05 0)
(569.12 0.0236118 0)
(572.094 0.0620831 0)
(575.623 0.104902 0)
(579.859 0.122985 0)
(584.711 0.0841443 0)
(588.802 -0.0223279 0)
(591.662 -0.159552 0)
(593.481 -0.315044 0)
(595.292 -0.350155 0)
(596.502 -0.284648 0)
(597.372 -0.102988 0)
(597.734 0.180138 0)
(597.948 0.422911 0)
(598.125 0.600022 0)
(598.252 0.502094 0)
(598.42 0.075237 0)
(598.778 -0.957859 0)
(599.293 -1.92969 0)
(599.177 -2.34932 0)
(599.152 -1.28709 0)
(589.663 21.0453 0)
(570.244 59.516 0)
(563.796 69.7898 0)
(563.581 70.4686 0)
(566.683 65.0347 0)
(571.719 56.0538 0)
(573.733 52.3905 0)
(572.766 54.6114 0)
(557.478 80.3193 0)
(539.89 104.661 0)
(533.556 112.692 0)
(531.589 114.877 0)
(530.787 114.628 0)
(528.988 112.957 0)
(526.275 109.428 0)
(523.18 104.734 0)
(520.82 98.724 0)
(519.626 91.3434 0)
(519.203 83.1308 0)
(518.983 74.5731 0)
(519.759 66.4946 0)
(565.772 -0.00405153 0)
(569.14 -0.00365032 0)
(572.131 0.0331995 0)
(575.689 0.0937857 0)
(579.974 0.143556 0)
(584.823 0.156069 0)
(588.881 0.100382 0)
(591.63 -0.023899 0)
(593.466 -0.190807 0)
(595.248 -0.371931 0)
(596.473 -0.393151 0)
(597.375 -0.314878 0)
(597.743 -0.0954711 0)
(597.946 0.203758 0)
(598.098 0.400292 0)
(598.192 0.514972 0)
(598.283 0.282731 0)
(598.529 -0.495606 0)
(599.135 -1.62555 0)
(599.123 -2.38448 0)
(599.481 -2.37212 0)
(595.58 6.90221 0)
(576.874 47.4303 0)
(564.856 68.4537 0)
(563.472 70.8321 0)
(565.016 67.8991 0)
(570.342 58.4859 0)
(573.562 52.6038 0)
(573.778 52.5883 0)
(563.628 70.6532 0)
(543.499 99.913 0)
(534.647 111.403 0)
(531.898 114.312 0)
(530.995 113.756 0)
(529.162 111.907 0)
(526.378 108.126 0)
(523.134 103.25 0)
(520.381 97.3975 0)
(518.801 90.2986 0)
(518.069 82.3038 0)
(517.809 73.9841 0)
(517.59 65.6938 0)
(518.357 58.1346 0)
(565.586 -0.00768417 0)
(569.033 -0.017114 0)
(572.087 -0.00641035 0)
(575.747 0.0457922 0)
(580.112 0.125915 0)
(584.974 0.184497 0)
(588.99 0.19488 0)
(591.635 0.124877 0)
(593.466 -0.0312183 0)
(595.2 -0.219287 0)
(596.436 -0.418845 0)
(597.363 -0.431902 0)
(597.749 -0.319859 0)
(597.957 -0.065039 0)
(598.088 0.208987 0)
(598.144 0.362272 0)
(598.199 0.326843 0)
(598.302 -0.129418 0)
(598.906 -1.22909 0)
(598.995 -2.32337 0)
(599.5 -2.60653 0)
(598.223 -0.0516135 0)
(585.272 30.9363 0)
(567.282 64.2913 0)
(563.468 70.8877 0)
(563.859 69.858 0)
(568.603 61.5091 0)
(573.055 53.5501 0)
(574.042 52.0031 0)
(568.669 62.1315 0)
(548.215 93.4713 0)
(536.177 109.541 0)
(532.293 113.607 0)
(531.153 112.839 0)
(529.347 110.776 0)
(526.448 106.792 0)
(523.114 101.654 0)
(520.019 95.8967 0)
(518.038 89.0846 0)
(517.009 81.3651 0)
(516.509 73.2321 0)
(516.316 65.1414 0)
(516.068 57.3656 0)
(516.831 50.3926 0)
(565.372 -0.00833488 0)
(568.811 -0.0272644 0)
(571.91 -0.0362841 0)
(575.763 -0.00923887 0)
(580.228 0.0544514 0)
(585.101 0.160633 0)
(589.133 0.231943 0)
(591.723 0.241911 0)
(593.562 0.150095 0)
(595.172 -0.0417683 0)
(596.399 -0.245295 0)
(597.342 -0.456804 0)
(597.751 -0.4405 0)
(597.983 -0.282342 0)
(598.106 -0.0144556 0)
(598.124 0.225568 0)
(598.151 0.261229 0)
(598.14 0.0994957 0)
(598.672 -0.770855 0)
(598.833 -2.0323 0)
(599.49 -2.65069 0)
(599.009 -2.14806 0)
(592.741 14.6105 0)
(571.937 56.2899 0)
(563.911 70.2271 0)
(563.326 70.7723 0)
(566.693 64.8014 0)
(572.175 55.1339 0)
(574.09 51.885 0)
(571.998 56.0786 0)
(553.891 85.359 0)
(538.307 106.856 0)
(532.848 112.667 0)
(531.256 111.886 0)
(529.546 109.555 0)
(526.485 105.419 0)
(523.098 99.9748 0)
(519.724 94.2298 0)
(517.351 87.6993 0)
(515.991 80.2812 0)
(515.269 72.3903 0)
(514.895 64.4497 0)
(514.705 56.839 0)
(514.497 49.6244 0)
(514.124 43.2413 0)
(565.169 0.0009986 0)
(568.645 -0.0318147 0)
(571.781 -0.056436 0)
(575.752 -0.0633665 0)
(580.294 -0.0246697 0)
(585.182 0.0641803 0)
(589.266 0.200354 0)
(591.815 0.288435 0)
(593.648 0.29301 0)
(595.162 0.180433 0)
(596.384 -0.0340656 0)
(597.331 -0.262827 0)
(597.758 -0.465954 0)
(598.02 -0.397824 0)
(598.151 -0.205674 0)
(598.124 0.066549 0)
(598.139 0.212394 0)
(598.053 0.207915 0)
(598.486 -0.330663 0)
(598.657 -1.54935 0)
(599.466 -2.43542 0)
(599.176 -2.49674 0)
(597.203 3.76357 0)
(579.081 43.1811 0)
(565.072 68.2932 0)
(563.191 71.0208 0)
(564.945 67.8331 0)
(570.843 57.5473 0)
(574.032 51.8794 0)
(573.681 52.7632 0)
(559.987 76.1475 0)
(541.209 103.047 0)
(533.659 111.37 0)
(531.345 110.901 0)
(529.753 108.242 0)
(526.499 103.989 0)
(523.048 98.2357 0)
(519.48 92.4143 0)
(516.738 86.1367 0)
(515.031 79.0474 0)
(514.052 71.4262 0)
(513.523 63.6892 0)
(513.18 56.1898 0)
(513.076 49.1054 0)
(512.065 42.5894 0)
(507.902 36.3328 0)
(565.1 0.00833923 0)
(568.565 -0.00248889 0)
(571.699 -0.0636937 0)
(575.724 -0.0931256 0)
(580.316 -0.0992418 0)
(585.21 -0.0388462 0)
(589.358 0.07754 0)
(591.894 0.245921 0)
(593.739 0.349657 0)
(595.185 0.348637 0)
(596.386 0.211426 0)
(597.331 -0.0286042 0)
(597.767 -0.260773 0)
(598.062 -0.421001 0)
(598.211 -0.308368 0)
(598.204 -0.058894 0)
(598.189 0.1668 0)
(598.026 0.267236 0)
(598.376 0.0254307 0)
(598.475 -0.929228 0)
(599.393 -2.09495 0)
(599.218 -2.50251 0)
(599.006 -0.934865 0)
(587.134 26.9427 0)
(567.913 63.6723 0)
(563.18 71.0509 0)
(563.701 70.024 0)
(569.149 60.5572 0)
(573.642 52.6794 0)
(574.287 51.4359 0)
(565.647 67.0494 0)
(545.042 97.8025 0)
(534.856 109.556 0)
(531.393 109.872 0)
(529.949 106.844 0)
(526.503 102.475 0)
(522.955 96.4562 0)
(519.263 90.4742 0)
(516.197 84.3973 0)
(514.133 77.6526 0)
(512.876 70.3351 0)
(512.16 62.8283 0)
(511.692 55.4874 0)
(511.487 48.4807 0)
(510.765 42.1379 0)
(506.303 35.7766 0)
(497.483 29.9276 0)
(565.091 0.0180706 0)
(568.6 0.0138204 0)
(571.649 -0.0131331 0)
(575.639 -0.0965415 0)
(580.223 -0.136082 0)
(585.211 -0.136337 0)
(589.389 -0.0586161 0)
(591.941 0.0924521 0)
(593.821 0.296896 0)
(595.232 0.411878 0)
(596.417 0.396572 0)
(597.331 0.235874 0)
(597.772 -0.0237931 0)
(598.104 -0.224727 0)
(598.275 -0.332118 0)
(598.288 -0.125611 0)
(598.276 0.140378 0)
(598.025 0.332244 0)
(598.338 0.282894 0)
(598.321 -0.314401 0)
(599.248 -1.57668 0)
(599.223 -2.43644 0)
(599.505 -2.21254 0)
(593.677 12.216 0)
(572.861 55.0161 0)
(563.565 70.4074 0)
(563.1 71.1379 0)
(567.187 63.9838 0)
(572.905 53.9618 0)
(574.436 51.0567 0)
(570.063 59.5061 0)
(549.851 90.9351 0)
(536.492 107.131 0)
(531.632 108.759 0)
(530.107 105.367 0)
(526.51 100.842 0)
(522.808 94.6438 0)
(519.049 88.4404 0)
(515.719 82.4881 0)
(513.302 76.0885 0)
(511.743 69.1054 0)
(510.824 61.8619 0)
(510.202 54.7036 0)
(509.919 47.8216 0)
(509.305 41.5884 0)
(505.266 35.384 0)
(496.023 29.3604 0)
(485.695 24.4294 0)
(565.195 0.0239615 0)
(568.783 0.0397281 0)
(571.703 0.01706 0)
(575.535 -0.0263648 0)
(580.14 -0.140027 0)
(585.136 -0.18656 0)
(589.383 -0.17855 0)
(591.953 -0.0731548 0)
(593.875 0.113926 0)
(595.284 0.344903 0)
(596.463 0.465838 0)
(597.344 0.438209 0)
(597.776 0.245774 0)
(598.131 -0.00932189 0)
(598.327 -0.177219 0)
(598.387 -0.140137 0)
(598.388 0.119594 0)
(598.116 0.383972 0)
(598.36 0.472774 0)
(598.224 0.193093 0)
(599.083 -0.954146 0)
(599.202 -2.18797 0)
(599.607 -2.37609 0)
(597.368 2.97709 0)
(580.002 41.7519 0)
(564.729 68.4552 0)
(562.936 71.4938 0)
(565.273 67.2879 0)
(571.721 56.1348 0)
(574.454 50.984 0)
(572.883 54.421 0)
(555.391 82.6744 0)
(538.725 103.893 0)
(531.974 107.445 0)
(530.201 103.812 0)
(526.54 99.0653 0)
(522.614 92.7946 0)
(518.812 86.3427 0)
(515.29 80.4245 0)
(512.54 74.3486 0)
(510.66 67.7278 0)
(509.518 60.7786 0)
(508.725 53.8337 0)
(508.334 47.1076 0)
(507.835 40.9926 0)
(504.103 34.9021 0)
(495.08 28.9713 0)
(483.968 23.8283 0)
(474.422 19.8868 0)
(565.27 0.0243742 0)
(568.951 0.0555736 0)
(571.786 0.0617285 0)
(575.508 0.0299967 0)
(580.085 -0.0382179 0)
(585.1 -0.192043 0)
(589.272 -0.241254 0)
(591.909 -0.222002 0)
(593.893 -0.0881889 0)
(595.319 0.134682 0)
(596.501 0.384777 0)
(597.351 0.507567 0)
(597.765 0.45013 0)
(598.138 0.223519 0)
(598.35 -0.00951436 0)
(598.464 -0.054559 0)
(598.508 0.0751079 0)
(598.194 0.40746 0)
(598.393 0.590093 0)
(598.186 0.514182 0)
(598.877 -0.354437 0)
(599.075 -1.84487 0)
(599.625 -2.38401 0)
(598.821 -1.02636 0)
(587.74 25.9396 0)
(567.37 63.9804 0)
(562.912 71.5561 0)
(563.761 69.9232 0)
(570.138 58.9596 0)
(574.252 51.2978 0)
(574.303 51.7732 0)
(561.093 73.635 0)
(541.719 99.4485 0)
(532.678 105.75 0)
(530.232 102.134 0)
(526.585 97.1299 0)
(522.388 90.8933 0)
(518.53 84.2061 0)
(514.888 78.2291 0)
(511.847 72.4318 0)
(509.632 66.1932 0)
(508.248 59.5685 0)
(507.268 52.8676 0)
(506.748 46.3352 0)
(506.32 40.3303 0)
(502.919 34.3758 0)
(494.066 28.4969 0)
(482.826 23.4307 0)
(472.328 19.266 0)
(464.146 16.2019 0)
(565.284 0.0146676 0)
(569.022 0.0451866 0)
(571.821 0.0851505 0)
(575.491 0.0924907 0)
(580.109 0.0396949 0)
(585.072 -0.0669282 0)
(589.185 -0.247118 0)
(591.844 -0.299538 0)
(593.87 -0.269075 0)
(595.333 -0.104124 0)
(596.521 0.153278 0)
(597.354 0.415301 0)
(597.754 0.518182 0)
(598.108 0.407121 0)
(598.353 0.176069 0)
(598.496 0.0256424 0)
(598.595 0.039913 0)
(598.281 0.338509 0)
(598.432 0.62092 0)
(598.181 0.661014 0)
(598.686 0.112526 0)
(598.904 -1.37099 0)
(599.626 -2.31644 0)
(599.205 -2.2765 0)
(593.925 11.8226 0)
(572.123 55.7414 0)
(563.144 71.4062 0)
(562.897 71.5261 0)
(568.226 62.3097 0)
(573.711 52.4351 0)
(574.837 50.7718 0)
(566.235 64.8495 0)
(545.539 93.6001 0)
(533.707 103.427 0)
(530.089 100.312 0)
(526.643 95.052 0)
(522.153 88.9142 0)
(518.191 82.0445 0)
(514.486 75.9309 0)
(511.216 70.3423 0)
(508.665 64.4941 0)
(507.019 58.2214 0)
(505.834 51.7971 0)
(505.166 45.488 0)
(504.763 39.6012 0)
(501.692 33.7893 0)
(493.054 27.9938 0)
(481.628 22.9486 0)
(470.901 18.8659 0)
(461.676 15.5855 0)
(454.995 13.2411 0)
(565.155 0.00388683 0)
(569.012 0.0283797 0)
(571.836 0.0656004 0)
(575.552 0.118822 0)
(580.247 0.120629 0)
(585.181 0.0456054 0)
(589.115 -0.0956498 0)
(591.794 -0.310175 0)
(593.794 -0.359595 0)
(595.311 -0.313188 0)
(596.528 -0.111844 0)
(597.34 0.16946 0)
(597.739 0.418647 0)
(598.077 0.466939 0)
(598.279 0.318232 0)
(598.483 0.102942 0)
(598.629 -0.00488331 0)
(598.344 0.196746 0)
(598.464 0.508301 0)
(598.181 0.694709 0)
(598.536 0.369576 0)
(598.681 -0.855813 0)
(599.487 -2.17626 0)
(599.255 -2.64501 0)
(597.503 2.7842 0)
(578.823 43.4507 0)
(564.183 69.5368 0)
(562.589 72.198 0)
(566.194 65.7929 0)
(572.742 54.2242 0)
(574.985 50.4686 0)
(570.202 57.4431 0)
(550.084 86.3079 0)
(535.266 100.258 0)
(529.984 98.3826 0)
(526.702 92.8698 0)
(521.932 86.8251 0)
(517.79 79.8577 0)
(514.059 73.5615 0)
(510.632 68.0937 0)
(507.76 62.6237 0)
(505.837 56.7298 0)
(504.434 50.6096 0)
(503.588 44.5496 0)
(503.166 38.8035 0)
(500.43 33.1453 0)
(492.031 27.4501 0)
(480.448 22.4466 0)
(469.413 18.3831 0)
(459.957 15.1947 0)
(452.165 12.6486 0)
(446.987 10.8721 0)
(564.902 -0.00558909 0)
(568.823 0.0033687 0)
(571.783 0.0362484 0)
(575.633 0.0948705 0)
(580.39 0.151594 0)
(585.283 0.147583 0)
(589.104 0.0575728 0)
(591.754 -0.113122 0)
(593.736 -0.37283 0)
(595.273 -0.414457 0)
(596.504 -0.349409 0)
(597.324 -0.115175 0)
(597.729 0.178754 0)
(598.041 0.369263 0)
(598.216 0.369429 0)
(598.398 0.154239 0)
(598.629 -0.0426804 0)
(598.372 0.0186469 0)
(598.485 0.303349 0)
(598.182 0.5691 0)
(598.43 0.44481 0)
(598.451 -0.349196 0)
(599.336 -1.96979 0)
(599.236 -2.80136 0)
(599.005 -1.24877 0)
(586.319 28.5188 0)
(566.473 65.9411 0)
(562.503 72.4085 0)