/*--------------------------------*- C++ -*----------------------------------*\
| =========                 |                                                 |
| \\      /  F ield         | OpenFOAM: The Open Source CFD Toolbox           |
|  \\    /   O peration     | Version:  v2012                                 |
|   \\  /    A nd           | Website:  www.openfoam.com                      |
|    \\/     M anipulation  |                                                 |
\*---------------------------------------------------------------------------*/
FoamFile
{
    version     2.0;
    format      ascii;
    class       volVectorField;
    location    "12000";
    object      wallShearStress;
}
// * * * * * * * * * * * * * * * * * * * * * * * * * * * * * * * * * * * * * //

dimensions      [1 -1 -2 0 0 0 0];


internalField   uniform (0 0 0);

boundaryField
{
    top
    {
        type            calculated;
        value           uniform (0 0 0);
    }
    base
    {
        type            calculated;
        value           nonuniform List<vector> 
276
(
(-93.9781 -0.222682 2.72501e-17)
(-115.634 0.000869301 -6.3392e-18)
(-161.512 4.11203e-05 -4.84723e-20)
(-167.087 -0.000798846 -9.85878e-21)
(-165.019 -0.00136132 -0)
(-161.996 -0.000937111 1.64313e-20)
(-159.171 -0.00104385 6.57252e-21)
(-156.71 -0.000907048 -6.57252e-21)
(-154.573 -0.000758043 -5.91527e-20)
(-152.711 -0.000549177 6.24389e-20)
(-151.097 -0.000542104 -0)
(-149.683 -0.000453089 -0)
(-148.434 -0.000739239 6.57252e-21)
(-147.324 5.43794e-06 -1.02696e-22)
(-146.33 0.000134653 3.28626e-21)
(-145.439 0.000253312 5.58664e-20)
(-144.637 0.000310607 -6.57252e-21)
(-143.913 -6.19784e-05 2.4647e-21)
(-143.258 -0.0005757 5.91527e-19)
(-142.66 -0.000596828 -2.82618e-19)
(-142.113 0.000316374 -3.2534e-19)
(-141.611 0.000537399 -2.62901e-20)
(-141.153 0.000200053 -9.85878e-21)
(-140.73 0.000201445 -2.62901e-20)
(-140.345 0.000568277 4.60076e-20)
(-139.991 0.000558052 9.3987e-19)
(-139.667 1.66965e-05 -1.35558e-20)
(-139.37 0.000541561 1.97176e-19)
(-139.104 -0.000290643 6.37534e-19)
(-138.857 -0.000286637 1.97176e-20)
(-138.632 -0.000271568 -3.28626e-20)
(-138.426 0.000298104 -5.45519e-19)
(-138.235 0.00066309 -3.94351e-20)
(-138.064 0.000505889 3.94351e-20)
(-137.908 0.000326157 -6.57252e-21)
(-137.766 0.000359468 8.28138e-19)
(-137.637 0.000729805 -2.62901e-20)
(-137.521 0.000618826 -8.93863e-19)
(-137.414 0.000419286 1.3145e-20)
(-137.317 0.000339684 -3.94351e-20)
(-137.227 0.0007152 1.84031e-18)
(-137.145 0.000683387 2.36611e-19)
(-137.067 0.000709613 -1.5774e-19)
(-136.997 0.000674879 -2.62901e-20)
(-136.932 0.000307569 -2.87876e-18)
(-136.87 0.000260626 -1.3145e-20)
(-136.813 0.000496992 3.28626e-19)
(-136.757 0.000148888 1.18963e-18)
(-136.704 0.000108796 -2.30367e-18)
(-136.654 -0.000561067 -1.23563e-18)
(-136.605 -0.000101499 -5.75096e-19)
(-136.561 -0.000724478 1.0516e-19)
(-136.518 -0.000297588 2.62901e-20)
(-136.478 -0.000152621 -1.97176e-20)
(-136.438 -0.000714856 3.36513e-18)
(-136.4 -0.00081579 4.20641e-19)
(-136.362 -0.000902164 3.31255e-18)
(-136.326 -0.000506331 6.83542e-19)
(-136.292 -0.000974585 -2.10321e-19)
(-136.259 -0.000995679 8.41283e-19)
(-136.225 -0.00120749 3.15481e-19)
(-136.193 -0.00110531 -5.25802e-19)
(-136.161 -0.00110791 -1.0516e-19)
(-136.13 -0.00109889 -5.15286e-18)
(-136.1 -0.000916561 -2.10321e-19)
(-136.07 -0.000712797 1.3145e-18)
(-136.04 -0.00116023 -4.20641e-19)
(-136.01 -0.0012358 -7.36122e-19)
(-135.981 -0.00116044 3.78577e-18)
(-135.951 -0.00102876 -2.94449e-18)
(-135.922 -0.0013958 1.07264e-17)
(-135.894 -0.00157882 -4.20641e-19)
(-135.866 -0.00150077 -6.30962e-19)
(-135.837 -0.00169298 2.10321e-19)
(-135.809 -0.00151129 -3.78577e-18)
(-135.782 -0.00140313 -1.15676e-18)
(-135.752 -0.00185243 6.30962e-19)
(-135.727 -0.00158478 6.94058e-18)
(-135.686 -0.00105046 1.68257e-18)
(-135.655 -0.00172034 3.57545e-18)
(-135.626 -0.00139948 -7.1509e-18)
(-135.598 -0.00104971 -7.99218e-18)
(-135.57 -0.000975943 1.15676e-18)
(-135.542 -0.000901316 -5.25802e-19)
(-135.514 -0.000676601 6.51994e-18)
(-135.484 -0.00107019 -4.31157e-18)
(-135.454 -0.00101423 4.83737e-18)
(-135.423 -0.00148969 1.26192e-18)
(-135.392 -0.00122387 2.10321e-18)
(-135.361 -0.0015763 -4.20641e-19)
(-135.331 -0.00171472 4.20641e-19)
(-135.3 -0.00146726 3.36513e-18)
(-135.268 -0.00136185 -3.68061e-18)
(-135.236 -0.00213765 7.99218e-18)
(-135.202 -0.00202649 3.36513e-18)
(-135.167 -0.00126495 -2.10321e-18)
(-135.136 -0.00115964 -4.41673e-18)
(-135.101 -0.00108737 1.0516e-19)
(-135.065 -0.00102772 -8.41283e-19)
(-135.031 -0.00105099 8.41283e-19)
(-134.997 -0.000935202 2.41869e-18)
(-134.964 -0.00115181 1.0516e-19)
(-134.93 -0.00111199 -4.73221e-18)
(-134.896 -0.00125882 1.78773e-18)
(-134.863 -0.001203 -4.73221e-18)
(-134.828 -0.00123735 4.20641e-19)
(-134.79 -0.00113474 7.36122e-19)
(-134.755 -0.0011712 -4.83737e-18)
(-134.719 -0.00151566 -6.30962e-19)
(-134.683 -0.00123317 3.15481e-18)
(-134.647 -0.00188795 3.99609e-18)
(-134.61 -0.00182353 -2.10321e-19)
(-134.574 -0.00174094 2.10321e-19)
(-134.537 -0.00184964 -2.10321e-19)
(-134.499 -0.0013778 -3.47029e-18)
(-134.466 -0.00145885 -0)
(-134.428 -0.00155845 5.25802e-18)
(-134.388 -0.00107333 8.41283e-19)
(-134.345 -0.000985382 1.0516e-19)
(-134.312 -0.000979127 4.20641e-19)
(-134.282 -0.000963927 2.10321e-19)
(-134.241 -0.000976312 1.0516e-19)
(-134.202 -0.000963344 8.72831e-18)
(-134.164 -0.00143195 -3.15481e-19)
(-134.126 -0.00102095 2.10321e-19)
(-134.079 -0.00149656 -2.10321e-19)
(-134.016 -0.00104703 -1.0516e-19)
(-134.003 -0.00153288 -0)
(-133.972 -0.00105476 -4.73221e-18)
(-133.935 -0.0010033 0)
(-133.896 -0.00140259 1.36708e-18)
(-133.851 -0.00138056 1.02006e-17)
(-133.81 -0.000892885 2.41869e-18)
(-133.774 -0.000948326 -1.0516e-19)
(-133.734 -0.000743593 -8.93863e-19)
(-133.69 -0.000706408 -3.68061e-19)
(-133.654 -0.000592823 -5.25802e-19)
(-133.614 -0.000373716 -2.36611e-19)
(-133.573 -0.000274508 -5.75753e-18)
(-133.526 -0.000833435 -7.6767e-18)
(-133.489 -0.000871335 0)
(-133.453 -0.000797762 5.25802e-20)
(-133.4 -0.000888441 2.73417e-18)
(-133.361 -0.000591748 -3.78577e-18)
(-133.324 -0.000635846 1.15676e-18)
(-133.286 -0.000744703 1.5774e-18)
(-133.256 -0.000684955 -1.68257e-18)
(-133.201 -0.000600746 -1.0516e-18)
(-133.155 -0.00034247 2.02434e-18)
(-133.113 9.49e-05 -5.45519e-19)
(-133.074 -0.000245125 0)
(-133.033 -0.000625647 -1.0516e-19)
(-132.976 -0.000651716 -1.68257e-18)
(-132.936 0.000159629 -5.25802e-20)
(-132.904 -0.000233416 1.13047e-18)
(-132.856 -0.000578951 1.68257e-18)
(-132.812 -1.57806e-05 -7.28728e-19)
(-132.768 0.00022484 1.18305e-18)
(-132.726 -0.000492664 -1.5774e-19)
(-132.669 0.000317366 3.41771e-19)
(-132.623 -0.000341574 5.52092e-19)
(-132.59 -0.000332526 -7.88702e-20)
(-132.552 -0.000293474 -2.49756e-18)
(-132.515 0.000539429 2.10321e-19)
(-132.451 -0.000359198 1.3145e-19)
(-132.39 0.000398477 1.3145e-19)
(-132.359 3.99702e-06 -1.59794e-18)
(-132.323 -0.000203743 1.90603e-18)
(-132.27 0.000493912 5.25802e-20)
(-132.225 -3.72773e-05 -1.36708e-18)
(-132.179 -3.42632e-05 3.41771e-19)
(-132.131 0.000438177 7.88702e-20)
(-132.085 0.000771077 5.25802e-20)
(-132.037 0.000643516 5.25802e-20)
(-131.983 0.000561578 -2.62901e-19)
(-131.868 -0.000210347 -4.48246e-17)
(-123.246 0.00929665 -3.26418e-16)
(-43.6055 0.42863 -5.65342e-16)
(10.8794 0.304996 2.6921e-17)
(26.1612 0.0166699 3.02862e-17)
(29.9527 -0.0189354 -2.86036e-17)
(30.4934 -0.0378455 -5.72072e-17)
(31.0825 -0.0455439 3.36513e-18)
(31.9541 -0.0516576 -3.36513e-18)
(32.7016 -0.0494919 2.01908e-17)
(33.3101 -0.0475711 1.34605e-17)
(33.8227 -0.0450514 -1.00954e-17)
(34.1981 -0.0446164 6.73026e-18)
(35.1745 -0.0430605 -3.36513e-18)
(38.9637 -0.0428551 -1.34605e-17)
(47.767 -0.0458827 -1.34605e-17)
(57.7916 -0.0301989 -8.41283e-18)
(60.3004 -0.0262357 -6.73026e-18)
(58.2904 -0.0195123 -1.68257e-18)
(51.6094 -0.013507 -4.20641e-18)
(42.039 -0.0055703 -1.68257e-18)
(30.3164 0.00429065 1.0516e-18)
(16.7662 0.0147625 -1.68257e-18)
(2.36027 0.0243818 1.68257e-18)
(-13.3813 0.033871 -1.00954e-17)
(-29.4342 0.04276 -1.34605e-17)
(-45.2409 0.050554 1.34605e-17)
(-60.5306 0.0563665 6.73026e-18)
(-75.0468 0.0596943 -6.73026e-18)
(-88.1919 0.060682 2.01908e-17)
(-100.366 0.0592516 -6.73026e-18)
(-111.917 0.0554794 -6.73026e-18)
(-123.099 0.0502002 6.73026e-18)
(-134.023 0.0429152 -3.36513e-18)
(-144.355 0.0335569 -4.71118e-17)
(-154.023 0.0229665 1.68257e-18)
(-162.741 0.012152 0)
(-170.921 0.00239886 1.97701e-17)
(-178.14 -0.0047222 -2.56591e-17)
(-184.389 -0.0165495 3.19687e-17)
(-190.042 -0.0259911 2.01908e-17)
(-195.209 -0.0337818 -1.68257e-17)
(-199.984 -0.0378476 -2.01908e-17)
(-204.576 -0.0375779 -3.36513e-18)
(-209.27 -0.0339189 -1.34605e-17)
(-214.278 -0.025541 -6.05723e-17)
(-219.57 -0.01083 -1.5732e-16)
(-224.998 0.00223665 -1.05581e-16)
(-230.35 0.0303212 -6.73026e-18)
(-235.365 0.0627898 -1.48066e-16)
(-239.786 0.0920594 1.21145e-16)
(-243.43 0.112351 -5.38421e-17)
(-246.509 0.119228 0)
(-249.084 0.110174 -2.01908e-16)
(-251.23 0.0844519 3.16322e-16)
(-253.154 0.0448326 2.01908e-16)
(-254.96 -0.00191293 2.19785e-16)
(-256.721 -0.0435762 -0)
(-258.493 -0.0792198 2.01908e-17)
(-260.263 -0.100245 -9.42237e-17)
(-261.97 -0.103942 -2.6921e-17)
(-263.814 -0.0878847 3.36513e-17)
(-266.664 -0.0643575 -3.02862e-16)
(-270.148 -0.0233294 0)
(-270.337 0.00675055 -1.68257e-18)
(-270.278 0.0424729 -3.39878e-16)
(-273.764 0.075914 0)
(-274.89 0.0794846 -1.34605e-17)
(-273.804 0.117157 0)
(-276.752 0.119343 -2.6921e-17)
(-277.316 0.108382 2.28829e-16)
(-275.818 0.0771674 -1.95178e-16)
(-279.342 0.0772787 1.34605e-17)
(-281.438 0.0551016 -7.6725e-16)
(-280.757 -0.0816973 6.73026e-18)
(-283.561 -0.0732862 -8.07631e-17)
(-284.574 -0.0634425 8.07631e-17)
(-287.403 -0.08083 1.34605e-17)
(-290.205 -0.102655 3.36513e-16)
(-292.896 -0.112456 1.34605e-17)
(-295.328 -0.107671 2.6921e-17)
(-297.576 -0.0952879 -3.97085e-16)
(-299.599 -0.079109 1.88447e-16)
(-301.343 -0.0616572 -1.54796e-16)
(-302.784 -0.0448672 3.36513e-18)
(-303.917 -0.0279085 -1.48066e-16)
(-304.748 -0.012326 -1.68257e-18)
(-305.291 0.000476518 -1.46015e-16)
(-305.564 0.000204847 -4.3142e-17)
(-305.589 0.00588798 -1.72042e-16)
(-305.386 0.0165735 -1.93495e-16)
(-304.936 0.0238038 -3.36513e-18)
(-304.256 0.0291565 3.70164e-17)
(-303.375 0.0322834 -3.36513e-18)
(-302.308 0.0329964 -3.36513e-18)
(-301.074 0.033339 3.36513e-18)
(-299.674 0.0323401 0)
(-298.147 0.0303854 6.05723e-17)
(-296.36 0.0270954 -1.00954e-17)
(-295.39 0.0300698 -1.00954e-16)
(-291.335 0.0171247 8.82689e-17)
)
;
    }
    frontAndBack
    {
        type            empty;
    }
    inlet
    {
        type            calculated;
        value           uniform (0 0 0);
    }
    outlet
    {
        type            calculated;
        value           uniform (0 0 0);
    }
}


// ************************************************************************* //
