/*--------------------------------*- C++ -*----------------------------------*\
| =========                 |                                                 |
| \\      /  F ield         | OpenFOAM: The Open Source CFD Toolbox           |
|  \\    /   O peration     | Version:  v2012                                 |
|   \\  /    A nd           | Website:  www.openfoam.com                      |
|    \\/     M anipulation  |                                                 |
\*---------------------------------------------------------------------------*/
FoamFile
{
    version     2.0;
    format      ascii;
    class       volScalarField;
    location    "12000";
    object      xx;
}
// * * * * * * * * * * * * * * * * * * * * * * * * * * * * * * * * * * * * * //

dimensions      [0 0 0 0 0 0 0];


internalField   nonuniform List<scalar> 
27324
(
127.839
125.18
139.257
119.838
138.077
153.979
113.401
133.643
153.966
156.569
105.937
127.949
149.675
154.84
130.183
97.5925
120.803
143.557
147.796
122.718
74.0666
88.998
112.142
135.015
138.073
110.677
63.4183
28.4582
79.8533
102.443
123.768
125.065
96.7874
51.9304
21.0247
7.61453
65.7249
91.154
110.498
108.9
81.6089
41.1645
14.7842
4.65628
1.48188
45.4413
73.5884
93.2764
90.8819
66.5804
31.8556
10.0526
2.7649
0.839414
0.315239
25.2804
51.7977
72.1639
73.6011
53.9569
25.2996
6.81583
1.67142
0.513746
0.2139
0.108292
13.9718
31.5866
51.7024
56.3842
43.6019
21.0255
5.31681
1.07998
0.362604
0.167919
0.0926761
0.0549579
11.8042
19.5996
35.0847
42.6651
34.5864
17.7543
4.71534
0.875689
0.291966
0.148237
0.0847681
0.0517847
0.0320198
10.9367
16.9179
24.6424
32.2789
28.2764
15.0308
4.22982
0.835094
0.268763
0.138393
0.0807443
0.0494805
0.0308803
0.0193117
10.2758
15.8974
21.6588
25.7657
23.9747
13.4806
3.81844
0.783491
0.262778
0.134181
0.0780969
0.0479896
0.0297547
0.0187116
0.0116073
9.69249
15.1493
20.331
23.2506
21.7919
12.6985
3.742
0.738834
0.246631
0.13125
0.076496
0.0468125
0.0289333
0.0180431
0.0112066
0.00693439
9.13498
14.4775
19.3043
21.8845
20.5006
12.5883
3.85415
0.767514
0.231923
0.121703
0.0739623
0.0458577
0.0281886
0.0175243
0.0107469
0.00668196
0.00410985
8.61335
13.8391
18.4298
20.7902
19.4169
12.119
4.02351
0.848324
0.238786
0.114557
0.0676619
0.043062
0.0273158
0.0169882
0.0103698
0.00635066
0.00394005
0.00242215
8.13038
13.2421
17.6335
19.8825
18.3941
11.4278
3.89839
0.944471
0.261166
0.119143
0.0645441
0.0390068
0.0249512
0.0158158
0.00984002
0.00602358
0.00364602
0.00232496
0.0013514
7.68116
12.6948
16.9149
19.067
17.5028
10.6826
3.69847
0.936693
0.287563
0.130996
0.0688532
0.0382949
0.0227722
0.0140962
0.00876086
0.00537347
0.0032745
0.00202543
0.00117579
0.000719449
7.25283
12.1909
16.2575
18.3185
16.6582
9.9853
3.479
0.918512
0.286837
0.14318
0.0773752
0.0421057
0.0233667
0.0133931
0.00787817
0.00470632
0.00280828
0.00167205
0.000979577
0.000572373
0.000350073
6.84647
11.7082
15.6271
17.6036
15.844
9.29591
3.23744
0.893165
0.283097
0.141637
0.0857295
0.0482235
0.0264186
0.0144472
0.00802838
0.00456121
0.00262563
0.00152914
0.000893581
0.00052327
0.000313709
0.000205778
6.46153
11.2476
14.9788
16.8771
15.0367
8.63306
2.96704
0.846905
0.280322
0.137339
0.0851452
0.0543101
0.0306949
0.0166727
0.00900829
0.00495539
0.00276394
0.00156725
0.000900718
0.000526495
0.000313678
0.000197476
0.000143334
6.09042
10.8092
14.3077
16.0974
14.2152
7.99211
2.69513
0.780674
0.272925
0.136501
0.0822848
0.0543363
0.0350923
0.019758
0.0105478
0.00566982
0.00309515
0.00171669
0.000967491
0.000557255
0.00032985
0.000203084
0.000137197
0.00011256
5.72483
10.3853
13.608
15.2698
13.3762
7.3801
2.42709
0.708656
0.260274
0.13518
0.081526
0.0523771
0.0353291
0.022743
0.0124493
0.00659809
0.00353161
0.00192622
0.0010681
0.00060456
0.000352118
0.000212778
0.000136795
0.000105257
9.41084e-05
5.35804
9.95501
12.8794
14.4059
12.5424
6.82573
2.1763
0.635404
0.246309
0.132893
0.0811558
0.0509892
0.0339824
0.0233449
0.0143571
0.00769047
0.00404511
0.00216863
0.00118358
0.000658383
0.000376622
0.000224343
0.000140683
0.000100775
8.9212e-05
8.26977e-05
4.99023
9.50935
12.1199
13.5308
11.7372
6.32869
1.97771
0.567475
0.232244
0.130335
0.0805418
0.0507373
0.0327543
0.0226325
0.0151308
0.00880217
0.00462953
0.00244304
0.00131271
0.000718706
0.000403867
0.000236545
0.000145995
9.85209e-05
8.38982e-05
7.99208e-05
8.11443e-05
4.62197
9.04057
11.3415
12.6598
10.9758
5.88371
1.82189
0.519055
0.219612
0.127711
0.0797775
0.0505082
0.0324015
0.0215869
0.0149711
0.0095328
0.00523774
0.00275124
0.00145675
0.000786524
0.00043474
0.000250021
0.000151973
9.91558e-05
7.86631e-05
7.64215e-05
7.63912e-05
0.000102323
4.26017
8.54926
10.5552
11.8153
10.2555
5.47913
1.69789
0.485499
0.211073
0.125266
0.0788966
0.050162
0.0322571
0.0209698
0.0142204
0.00975361
0.00586007
0.00309531
0.00161854
0.000862512
0.000469793
0.00026544
0.000158421
0.000101629
7.49738e-05
7.14393e-05
7.29765e-05
8.79579e-05
0.000191348
3.91475
8.04591
9.7944
11.0285
9.59135
5.10986
1.5953
0.462527
0.205408
0.123545
0.0779776
0.0497359
0.0320674
0.020815
0.0136208
0.00933974
0.00618733
0.00347412
0.00180114
0.000946802
0.000509199
0.000282974
0.000165877
0.000104748
7.33571e-05
6.61554e-05
6.95654e-05
7.86266e-05
0.000145146
0.000509696
3.5914
7.55023
9.08338
10.3172
8.98461
4.77074
1.50737
0.446373
0.201641
0.122332
0.0772789
0.0492791
0.0318376
0.0206928
0.0133124
0.00882322
0.00609235
0.00376375
0.00200453
0.00103985
0.000552657
0.000302777
0.000174319
0.00010821
7.38675e-05
6.15752e-05
6.53927e-05
7.22399e-05
0.00011451
0.000357801
0.00163053
3.29942
7.08132
8.43751
9.68215
8.42606
4.45952
1.42683
0.434198
0.199025
0.121442
0.0767687
0.0489396
0.0315889
0.0205511
0.0132119
0.0084958
0.00574913
0.00386026
0.00219409
0.00114253
0.000599818
0.000324825
0.000184001
0.000112137
7.53271e-05
5.84962e-05
6.03567e-05
6.74818e-05
9.41285e-05
0.000255057
0.00112267
0.00556132
3.03526
6.65581
7.85536
9.11301
7.90673
4.17156
1.35299
0.423091
0.196996
0.120754
0.0764105
0.0487067
0.031404
0.0204002
0.0131161
0.00836273
0.00543597
0.00372496
0.00233687
0.00125024
0.000651244
0.000348928
0.000195002
0.000116732
7.71336e-05
5.73223e-05
5.53696e-05
6.32468e-05
8.06313e-05
0.000185661
0.000772503
0.00385991
0.019192
2.79874
6.2841
7.34491
8.5917
7.41796
3.90505
1.28494
0.412683
0.195024
0.12019
0.0761661
0.0485675
0.0312811
0.0202844
0.0130161
0.00829701
0.00523283
0.00349159
0.00235415
0.00135907
0.000707524
0.000374882
0.000207324
0.000122071
7.92213e-05
5.75729e-05
5.11935e-05
5.87233e-05
7.154e-05
0.000139292
0.000531906
0.00266226
0.0135522
0.0658751
2.58488
5.96197
6.88808
8.10468
6.95451
3.65648
1.22212
0.402816
0.193105
0.11959
0.0759844
0.0484911
0.0312164
0.0202057
0.012934
0.00823344
0.00515984
0.00330739
0.00224512
0.00142199
0.000766147
0.000402699
0.00022081
0.00012823
8.16576e-05
5.84055e-05
4.83448e-05
5.36992e-05
6.50762e-05
0.000108538
0.000368401
0.00182189
0.00949287
0.0475212
0.222826
2.38702
5.67256
6.45689
7.62542
6.50895
3.42364
1.16304
0.393449
0.191282
0.119036
0.0758184
0.0484539
0.0311922
0.0201677
0.0128733
0.00817876
0.00511736
0.00318821
0.00209763
0.00142216
0.000820128
0.000432806
0.000235231
0.000135195
8.45612e-05
5.94387e-05
4.71448e-05
4.89018e-05
5.99049e-05
8.82725e-05
0.000258202
0.00123938
0.00658161
0.0339645
0.164565
0.738251
2.19725
5.39118
6.0313
7.14215
6.07797
3.20508
1.10697
0.384408
0.189599
0.118516
0.0756928
0.0484196
0.0311923
0.0201622
0.0128421
0.00813382
0.00508124
0.00314674
0.00198744
0.00135269
0.000856626
0.00046432
0.000250436
0.000142866
8.79343e-05
6.0661e-05
4.70714e-05
4.48848e-05
5.50582e-05
7.48619e-05
0.000184729
0.000839621
0.00452002
0.0240192
0.120232
0.559838
2.40725
2.00938
5.10256
5.60024
6.65871
5.66817
2.99648
1.05132
0.375682
0.188017
0.118031
0.0755873
0.0484043
0.0312004
0.0201772
0.0128359
0.00810791
0.00504902
0.00312233
0.00191832
0.00126257
0.000854602
0.00049605
0.000266492
0.000151005
9.17966e-05
6.21318e-05
4.74707e-05
4.20558e-05
5.00402e-05
6.57492e-05
0.000136181
0.000568592
0.00307515
0.0168167
0.0868759
0.419619
1.87558
7.73657
1.82623
4.79265
5.17184
6.18938
5.28176
2.7999
0.993524
0.366319
0.186481
0.117529
0.075496
0.0483977
0.0312218
0.020196
0.0128493
0.0081006
0.00502964
0.00310282
0.0018947
0.00119398
0.000815188
0.00051656
0.000283743
0.000159369
9.60855e-05
6.39386e-05
4.80329e-05
4.0681e-05
4.53158e-05
5.91069e-05
0.000104425
0.000386441
0.00207511
0.0116533
0.0621333
0.310996
1.4439
6.19023
24.3549
1.65096
4.4671
4.74443
5.74372
4.92102
2.61618
0.93675
0.355441
0.184762
0.116969
0.0753765
0.0483976
0.031252
0.0202224
0.0128655
0.00810798
0.0050216
0.00308827
0.00188306
0.00115215
0.000759932
0.000518348
0.000300194
0.000167882
0.00010066
6.60577e-05
4.87555e-05
4.03439e-05
4.12805e-05
5.36412e-05
8.37361e-05
0.000265398
0.0013907
0.00799241
0.0439982
0.228075
1.10004
4.89395
19.9975
74.312
1.48824
4.13411
4.34603
5.33558
4.58806
2.4474
0.88337
0.344417
0.182647
0.116312
0.0752107
0.0483747
0.0312861
0.0202522
0.0128853
0.00811892
0.00502401
0.00308016
0.00187479
0.00113714
0.0007153
0.00049883
0.000314193
0.000176802
0.000105304
6.84996e-05
4.96735e-05
4.04809e-05
3.82714e-05
4.85552e-05
7.01517e-05
0.000185826
0.000926846
0.00542342
0.0308534
0.165516
0.829721
3.83399
16.2264
62.5738
216.77
1.34188
3.81617
3.99055
4.98304
4.28145
2.29501
0.837729
0.333833
0.180286
0.115441
0.0749748
0.0483203
0.0313024
0.0202817
0.0129061
0.00812996
0.00503365
0.00307853
0.00186935
0.00113149
0.000687912
0.00046542
0.000317594
0.00018587
0.000109868
7.11934e-05
5.08475e-05
4.07876e-05
3.6538e-05
4.37523e-05
6.09521e-05
0.000134123
0.000615961
0.00364498
0.0214247
0.118926
0.619388
2.97716
13.0645
52.0725
187.292
588.757
1.2169
3.52475
3.68369
4.67596
4.00387
2.15145
0.799919
0.325139
0.177771
0.114432
0.0746332
0.0482193
0.0312945
0.0202975
0.0129256
0.00814003
0.00504143
0.00308174
0.00186642
0.00112721
0.000674894
0.000434616
0.000309678
0.000193717
0.000114463
7.4028e-05
5.22712e-05
4.12048e-05
3.58655e-05
3.95702e-05
5.42312e-05
0.000100876
0.000409973
0.00242602
0.0147325
0.0846148
0.457748
2.29052
10.4397
43.0433
159.881
523.899
1406.55
1.10834
3.26847
3.41959
4.40388
3.7463
2.0174
0.765939
0.318296
0.175466
0.113321
0.0742036
0.0480498
0.0312494
0.0202952
0.0129348
0.00814794
0.00504663
0.00308742
0.00186625
0.0011238
0.000671177
0.000414169
0.000290991
0.000198392
0.000119245
7.68233e-05
5.3928e-05
4.17861e-05
3.57695e-05
3.62595e-05
4.87284e-05
7.95905e-05
0.000275238
0.00160036
0.0100261
0.0596469
0.334904
1.7461
8.27728
35.3496
135.641
460.303
1296.45
2764.01
1.01332
3.04923
3.19043
4.15647
3.50637
1.89141
0.734563
0.311893
0.173509
0.112256
0.0737126
0.0478293
0.031163
0.0202641
0.0129299
0.00814969
0.00504956
0.00309158
0.00186798
0.00112121
0.0006683
0.000401119
0.000269738
0.000195987
0.000123924
7.94435e-05
5.57513e-05
4.25608e-05
3.59029e-05
3.40118e-05
4.37529e-05
6.58795e-05
0.00018817
0.00104796
0.00675036
0.0416547
0.242721
1.31858
6.51178
28.8409
114.39
401.96
1179.61
2640.89
4455.74
0.927175
2.8514
2.9841
3.92939
3.28114
1.7732
0.705101
0.305696
0.17146
0.111251
0.0732396
0.0475739
0.0310462
0.0202038
0.0129067
0.00814372
0.00504908
0.00309252
0.00187018
0.00111944
0.000665309
0.000396656
0.000253293
0.000187201
0.000127605
8.19891e-05
5.76176e-05
4.35446e-05
3.61299e-05
3.28844e-05
3.93508e-05
5.67622e-05
0.00013269
0.000682981
0.0044944
0.0288189
0.174294
0.986686
5.08171
23.3799
95.8996
348.883
1066.93
2493.24
4366.04
6397.18
0.845823
2.66074
2.78507
3.71055
3.07266
1.66106
0.677172
0.299709
0.169481
0.110282
0.0728062
0.0473419
0.0309101
0.0201246
0.0128646
0.00812723
0.00504463
0.00309153
0.00187164
0.00111866
0.000662933
0.000394352
0.000242925
0.000173779
0.000128648
8.45899e-05
5.93821e-05
4.47044e-05
3.64962e-05
3.24962e-05
3.56725e-05
5.02359e-05
9.77312e-05
0.000445448
0.00295675
0.0197474
0.124072
0.731651
3.93439
18.8294
79.9458
301.03
959.052
2343.2
4233.77
6361.19
8753.47
0.767123
2.46821
2.59395
3.50368
2.87574
1.55542
0.650025
0.29391
0.167533
0.109357
0.0723697
0.047147
0.030792
0.0200354
0.0128118
0.00809832
0.00503341
0.00308786
0.0018714
0.00111861
0.000661749
0.000392517
0.000237402
0.00016098
0.000125327
8.70004e-05
6.09381e-05
4.6016e-05
3.70235e-05
3.24516e-05
3.28587e-05
4.50087e-05
7.5971e-05
0.000292508
0.00192246
0.0133874
0.0875899
0.5379
3.02172
15.0691
66.276
258.278
856.815
2191.08
4095.5
6261.86
8807.74
11081
0.691016
2.27659
2.41685
3.31065
2.69266
1.45269
0.622808
0.288099
0.165577
0.10844
0.0719458
0.0469775
0.0307011
0.0199609
0.0127561
0.00806288
0.00501872
0.0030817
0.00187004
0.0011188
0.000661493
0.000391058
0.000235582
0.000151767
0.000118281
8.86857e-05
6.23605e-05
4.73753e-05
3.7732e-05
3.25492e-05
3.10634e-05
4.0438e-05
6.24169e-05
0.000195371
0.00123601
0.00897195
0.0613032
0.392309
2.30281
11.9833
54.6612
220.388
760.854
2038.31
3949.92
6155.93
8773.96
11274.9
12706.1
0.620394
2.09117
2.25551
3.12874
2.51871
1.35475
0.593778
0.281828
0.163517
0.107507
0.0715201
0.0468287
0.0306339
0.0199063
0.0127135
0.00802805
0.00500176
0.00307419
0.00186804
0.00111827
0.000662211
0.000390227
0.000234578
0.000146061
0.000109114
8.857e-05
6.37845e-05
4.86556e-05
3.86008e-05
3.27568e-05
3.01611e-05
3.6522e-05
5.36602e-05
0.000134535
0.000788331
0.00593484
0.0425275
0.28391
1.74213
9.47125
44.8573
187.126
671.602
1886.02
3798.41
6040.96
8733.39
11363.2
13025.6
13539.7
0.558895
1.92467
2.11833
2.95822
2.35163
1.26231
0.564893
0.274517
0.161261
0.106495
0.071077
0.0466903
0.0305806
0.0198748
0.0126842
0.00800295
0.00498587
0.00306614
0.00186599
0.00111773
0.000663557
0.000390149
0.000233702
0.000143411
0.000100866
8.54609e-05
6.51062e-05
4.97347e-05
3.96049e-05
3.30883e-05
2.98246e-05
3.33152e-05
4.75873e-05
9.72573e-05
0.000501313
0.00387135
0.0292042
0.203975
1.30873
7.44262
36.6459
158.152
589.49
1735.35
3641.62
5918.59
8680.62
11449.4
13238.3
13934.3
13778.2
0.506713
1.78062
2.00363
2.80015
2.18847
1.17963
0.537534
0.266749
0.15855
0.105384
0.0705806
0.046541
0.030532
0.019851
0.0126716
0.00798692
0.00497433
0.00305861
0.00186391
0.00111718
0.000664522
0.000390733
0.000233339
0.000142527
9.49953e-05
8.01274e-05
6.59012e-05
5.06143e-05
4.06894e-05
3.35913e-05
2.97568e-05
3.08757e-05
4.29105e-05
7.46483e-05
0.000320603
0.00248701
0.0198274
0.14544
0.977009
5.81588
29.8165
133.137
514.675
1587.88
3480.06
5788.7
8617.98
11522.5
13458.7
14227.3
14211.6
13583.7
0.462058
1.65739
1.90467
2.64701
2.0306
1.10276
0.514574
0.259009
0.155608
0.104082
0.0700102
0.0463533
0.0304715
0.0198302
0.0126617
0.00798193
0.00496542
0.00305196
0.00186156
0.00111654
0.000665021
0.000391705
0.000233148
0.000142021
9.131e-05
7.34358e-05
6.55465e-05
5.14531e-05
4.17658e-05
3.4242e-05
2.98015e-05
2.93577e-05
3.89615e-05
6.09595e-05
0.000208878
0.00157367
0.0132789
0.102893
0.725044
4.52247
24.1701
111.721
447.226
1444.8
3313.77
5651.4
8545.29
11585.4
13672.9
14533.7
14551.2
14033.4
13068.8
0.421384
1.54937
1.81648
2.49512
1.87854
1.03241
0.494491
0.252592
0.152576
0.102647
0.0693247
0.046105
0.0303851
0.0198004
0.0126509
0.00797636
0.00496281
0.00304568
0.00185852
0.00111556
0.000665179
0.000392467
0.000233298
0.000141531
8.9491e-05
6.73565e-05
6.31039e-05
5.2239e-05
4.27142e-05
3.50101e-05
3.00638e-05
2.85979e-05
3.55827e-05
5.24922e-05
0.00014117
0.000982157
0.00875682
0.0721254
0.535149
3.5012
19.5335
93.5137
387.086
1307.46
3143.5
5507.47
8462.48
11636.4
13885.1
14839.2
14906.7
14397.1
13519.2
12318.3
0.382572
1.44484
1.72877
2.34323
1.73321
0.967763
0.475802
0.246766
0.149922
0.101141
0.0685747
0.045783
0.0302491
0.0197536
0.0126326
0.00796942
0.00495984
0.00304165
0.00185496
0.00111403
0.000664914
0.000392632
0.00023368
0.000141081
8.87834e-05
6.29146e-05
5.91329e-05
5.27325e-05
4.34643e-05
3.58774e-05
3.04275e-05
2.82959e-05
3.28156e-05
4.69631e-05
0.000100488
0.000607869
0.00567294
0.050024
0.392735
2.70102
15.7466
78.1514
333.987
1177.12
2970.36
5357.23
8369.6
11675.2
14093.7
15148.8
15264.4
14778.1
13891.8
12758.4
11403.2
0.34593
1.34138
1.63785
2.18997
1.59581
0.908089
0.458434
0.24109
0.147444
0.0997777
0.0677975
0.0454187
0.0300694
0.0196725
0.0126053
0.0079573
0.00495598
0.00303659
0.00185067
0.00111115
0.000664257
0.000392344
0.000234188
0.000140723
8.83805e-05
6.01228e-05
5.41055e-05
5.24965e-05
4.40639e-05
3.67858e-05
3.09485e-05
2.82101e-05
3.07605e-05
4.28217e-05
7.62692e-05
0.000376797
0.00360523
0.0342415
0.286459
2.0774
12.6745
65.2605
287.615
1054.81
2795.63
5200.19
8266.36
11702.8
14297.8
15460.5
15629.3
15163.3
14282
13128.2
11824.3
10385.1
0.311961
1.24163
1.5461
2.03931
1.46693
0.852837
0.441873
0.235548
0.145042
0.0984967
0.0671381
0.045042
0.0298678
0.0195637
0.0125559
0.00794026
0.00494878
0.00303099
0.00184575
0.00110722
0.000662682
0.000391786
0.000234591
0.000140586
8.80699e-05
5.86133e-05
4.92757e-05
5.09723e-05
4.46082e-05
3.76844e-05
3.15612e-05
2.83208e-05
2.94877e-05
3.93948e-05
6.22144e-05
0.000237697
0.00224666
0.0230722
0.207361
1.59388
10.1946
54.5118
247.473
941.599
2620.59
5036.94
8152.82
11720.5
14496.9
15774.4
15999.6
15557.3
14677.6
13515.4
12182.5
10780.9
9317.36
0.281571
1.14838
1.45218
1.89113
1.347
0.800686
0.425896
0.229957
0.142668
0.0972655
0.0665593
0.0447489
0.0296623
0.0194445
0.0124901
0.00791154
0.00493855
0.00302503
0.00184057
0.00110288
0.000660698
0.000391139
0.000234674
0.000140688
8.78784e-05
5.80684e-05
4.55254e-05
4.7896e-05
4.50517e-05
3.84758e-05
3.22602e-05
2.87132e-05
2.8842e-05
3.64527e-05
5.38179e-05
0.000156017
0.00137372
0.0152615
0.14871
1.21971
8.20428
45.5908
213.042
838.099
2447.02
4868.16
8029.44
11727.7
14690.4
16089.8
16375.4
15958.6
15083
13908.9
12557.2
11120.3
9683.34
8244.86
0.255086
1.06529
1.35883
1.74343
1.23597
0.751961
0.40957
0.224298
0.140232
0.0960763
0.0660414
0.0445222
0.0295104
0.0193299
0.0124192
0.00787608
0.00492273
0.0030186
0.00183605
0.00109885
0.000658304
0.000390413
0.000234566
0.000140965
8.77608e-05
5.78402e-05
4.30207e-05
4.39778e-05
4.50313e-05
3.90927e-05
3.30503e-05
2.92383e-05
2.8529e-05
3.40348e-05
4.84663e-05
0.000109085
0.0008282
0.00987903
0.10542
0.930501
6.61161
38.2323
183.712
744.802
2276.65
4694.75
7896.56
11723.8
14876.8
16406
16756.1
16367.4
15497.1
14312.9
12938.8
11475.4
9999.27
8578.14
7203.13
0.231576
0.990754
1.2667
1.60011
1.13427
0.707544
0.39332
0.218054
0.137748
0.0948726
0.0655561
0.0443262
0.0294097
0.019248
0.012354
0.00783704
0.00490634
0.00301114
0.00183296
0.00109569
0.000655967
0.000389601
0.000234405
0.00014121
8.77539e-05
5.76886e-05
4.14462e-05
3.98578e-05
4.41475e-05
3.95821e-05
3.39231e-05
2.98597e-05
2.84148e-05
3.22967e-05
4.4632e-05
8.25929e-05
0.000496999
0.00624622
0.0736478
0.706962
5.33979
32.1904
158.919
661.71
2111.63
4517.59
7754.94
11708.4
15055.3
16722.7
17141.3
16783
15919.8
14725.9
13331.1
11837.8
10329.7
8867.52
7502.59
6218.54
0.209936
0.920896
1.17549
1.46141
1.04241
0.667551
0.378208
0.211593
0.135031
0.0936291
0.0650528
0.0441419
0.0293282
0.0192075
0.0123074
0.00780232
0.00488925
0.00300404
0.00182971
0.00109385
0.00065399
0.000388643
0.000234195
0.000141287
8.78712e-05
5.75531e-05
4.07485e-05
3.63525e-05
4.20201e-05
4.00116e-05
3.48346e-05
3.05334e-05
2.87018e-05
3.12164e-05
4.1464e-05
6.70892e-05
0.000302502
0.00385189
0.0505608
0.533933
4.32384
27.2556
138.091
588.619
1953.94
4338.27
7605.2
11681.2
15223.9
17038.4
17530.6
17205.2
16350.5
15148.5
13732.8
12210.6
10667.4
9170.08
7763.83
6484.33
5309.01
0.18913
0.853105
1.0849
1.32918
0.959227
0.631462
0.363949
0.205568
0.132222
0.0923135
0.0645167
0.0439379
0.0292497
0.0191741
0.0122873
0.00777685
0.00487246
0.00299698
0.00182652
0.00109294
0.000652359
0.000387601
0.000233799
0.000141211
8.80685e-05
5.74482e-05
4.04492e-05
3.37686e-05
3.9031e-05
4.01873e-05
3.57261e-05
3.12721e-05
2.91641e-05
3.06328e-05
3.87314e-05
5.83816e-05
0.00019194
0.00231937
0.0339903
0.4001
3.5092
23.2412
120.733
524.991
1805.54
4158.61
7448.45
11641.8
15381.3
17352.8
17922.9
17633.5
16789.1
15579.7
14144.2
12592.9
11015.1
9479.7
8036.9
6717.13
5542.28
4485.2
0.16894
0.786653
0.996823
1.20523
0.883705
0.598432
0.350175
0.199885
0.129579
0.0909894
0.0639269
0.0436931
0.0291528
0.0191397
0.0122738
0.0077628
0.00485597
0.0029885
0.00182319
0.00109204
0.000651391
0.000386541
0.000233236
0.000141069
8.82858e-05
5.73939e-05
4.02909e-05
3.2074e-05
3.56276e-05
3.98986e-05
3.65292e-05
3.20594e-05
2.98186e-05
3.03326e-05
3.65035e-05
5.29819e-05
0.000130854
0.00136872
0.0223111
0.296706
2.85358
19.9787
106.394
470.223
1667.84
3981.41
7285.66
11590.7
15525.7
17664.1
18317.7
18067.2
17234.9
16019.6
14564.8
12984.9
11372.1
9798.77
8316.67
6960.5
5747.5
4687.85
3751.82
0.149698
0.720707
0.912801
1.09094
0.815641
0.567648
0.336661
0.19438
0.127136
0.0897686
0.0633318
0.0434085
0.0290243
0.019094
0.0122556
0.00775028
0.00484157
0.00297862
0.00181935
0.00109068
0.000650645
0.000385557
0.000232459
0.000140843
8.84202e-05
5.74151e-05
4.01851e-05
3.10822e-05
3.23947e-05
3.88756e-05
3.71715e-05
3.2903e-05
3.05675e-05
3.03315e-05
3.49258e-05
4.92105e-05
9.76377e-05
0.000800538
0.0142559
0.217246
2.32296
17.3273
94.6436
423.666
1542.14
3809.43
7118.64
11528
15655.1
17971.1
18713.8
18505.6
17687.7
16467.7
14994.4
13386
11738.5
10126.6
8605.22
7210.17
5961.98
4866.91
3926.3
3109.06
0.13132
0.656322
0.833922
0.988089
0.754231
0.538722
0.323198
0.18898
0.124891
0.0886809
0.0628067
0.0431177
0.0288725
0.0190257
0.012231
0.00773925
0.004827
0.00296848
0.00181287
0.00108877
0.000649972
0.000384659
0.000231543
0.000140595
8.84537e-05
5.75081e-05
4.00884e-05
3.06566e-05
2.97341e-05
3.67338e-05
3.75793e-05
3.38425e-05
3.13935e-05
3.06998e-05
3.39678e-05
4.59918e-05
7.91861e-05
0.000473684
0.00885689
0.156596
1.89208
15.1655
85.1029
384.638
1429.14
3644.83
6949.96
11454.8
15767.6
18272
19110
18947.8
18146.5
16923.4
15432.7
13796.4
12113.9
10463.4
8902.02
7467.82
6182.27
5054.06
4081.05
3257.86
2553.56
0.114121
0.59319
0.760093
0.898032
0.699307
0.511113
0.309653
0.183655
0.122803
0.0877056
0.0623646
0.0428701
0.0287204
0.0189498
0.0121957
0.00772452
0.00481572
0.00295832
0.00180487
0.00108564
0.000648898
0.000383929
0.000230676
0.000140278
8.84264e-05
5.7638e-05
4.00727e-05
3.04835e-05
2.77829e-05
3.41361e-05
3.77024e-05
3.49037e-05
3.22792e-05
3.12901e-05
3.33996e-05
4.3136e-05
6.89053e-05
0.000293646
0.00535308
0.110836
1.5412
13.3991
77.4071
352.53
1329.23
3489.97
6783.77
11371.7
15861.2
18565.2
19504.2
19392.4
18610.7
17386.3
15879.1
14215.4
12498.3
10808.8
9207.07
7732.96
6409.7
5246.45
4242.86
3390.46
2679.45
2079.96
0.0991628
0.531043
0.69158
0.820059
0.650784
0.484394
0.296188
0.178448
0.120841
0.0868075
0.0619821
0.0426709
0.0286029
0.0188794
0.0121587
0.00770731
0.00480599
0.00294913
0.00179653
0.00108221
0.000647675
0.00038352
0.000229915
0.000139874
8.8364e-05
5.77507e-05
4.00873e-05
3.03996e-05
2.64703e-05
3.13656e-05
3.72374e-05
3.59629e-05
3.32099e-05
3.2071e-05
3.31305e-05
4.08177e-05
6.26714e-05
0.000198232
0.00316398
0.076776
1.25592
11.9522
71.2456
326.645
1243
3346.55
6624.52
11279.8
15936
18848.6
19895.1
19838
19079
17855.5
16333.1
14642.8
12891.3
11162.8
9520.14
8005.75
6643.94
5445.26
4409.4
3529.19
2792.09
2185.5
1681.27
0.0862345
0.471497
0.629193
0.753444
0.607605
0.458165
0.283071
0.173471
0.119002
0.0859537
0.0616325
0.0425009
0.0285113
0.0188298
0.0121245
0.00769077
0.00479592
0.00294186
0.00178888
0.00107846
0.000646344
0.000383015
0.000229338
0.000139472
8.8283e-05
5.78088e-05
4.01518e-05
3.03479e-05
2.57669e-05
2.87683e-05
3.62664e-05
3.68988e-05
3.41868e-05
3.29568e-05
3.31849e-05
3.91358e-05
5.83167e-05
0.000148532
0.00185324
0.0518784
1.02499
10.7697
66.3509
306.283
1170.87
3216.43
6475.68
11182.9
15994.7
19119.9
20280.4
20282.5
19550.1
18330
16794.2
15078.1
13292.5
11525.1
9841.29
8285.98
6885.15
5650.16
4581.6
3672.15
2910.08
2280.35
1768.95
1349.81
0.0751275
0.417134
0.57473
0.696497
0.568925
0.432195
0.270392
0.168952
0.117312
0.0851375
0.0612879
0.0423458
0.0284364
0.0187939
0.0120982
0.00767543
0.004787
0.00293724
0.00178317
0.001075
0.000644446
0.000382443
0.000229222
0.000139092
8.80508e-05
5.7808e-05
4.02448e-05
3.03598e-05
2.54819e-05
2.66816e-05
3.47091e-05
3.75454e-05
3.52423e-05
3.394e-05
3.35823e-05
3.81188e-05
5.45517e-05
0.000122104
0.00110753
0.0340737
0.840202
9.80973
62.5206
290.722
1113.05
3101.94
6339.64
11085.5
16038.5
19375.9
20657.4
20724.1
20021.8
18808.3
17261.2
15520.7
13701.5
11895.1
10170.2
8573.55
7133.03
5861.21
4759.24
3820.11
3031.79
2379.84
1848.09
1421.95
1077.64
0.0652243
0.369455
0.528925
0.647553
0.533706
0.406333
0.258216
0.164955
0.115827
0.0843647
0.060951
0.0421923
0.0283706
0.0187637
0.012078
0.00766179
0.00477915
0.00293324
0.00178048
0.00107235
0.000642315
0.00038183
0.00022915
0.000138771
8.77606e-05
5.77773e-05
4.03737e-05
3.04467e-05
2.53837e-05
2.51972e-05
3.26923e-05
3.7753e-05
3.64008e-05
3.50015e-05
3.42244e-05
3.75021e-05
5.10904e-05
0.000107284
0.000711446
0.0216582
0.695373
9.04351
59.5975
279.333
1069.13
3006.38
6217.83
10992
16069.7
19612.7
21022.3
21159.2
20491.9
19288.9
17733.1
15969.8
14117.8
12272.9
10506.5
8868.26
7387.59
6078.35
4942.36
3972.82
3157.89
2482.67
1931.25
1487.31
1136.3
856.788
0.0563527
0.328305
0.490805
0.604968
0.50087
0.380803
0.246603
0.161389
0.114519
0.0836739
0.0606239
0.042045
0.0283074
0.0187398
0.01206
0.00765082
0.00476971
0.00292954
0.00177797
0.00107026
0.000639931
0.000381003
0.000229077
0.000138552
8.73978e-05
5.77321e-05
4.0528e-05
3.0557e-05
2.5399e-05
2.42437e-05
3.05559e-05
3.73847e-05
3.76754e-05
3.61233e-05
3.50691e-05
3.73318e-05
4.83041e-05
9.8229e-05
0.000518725
0.0132634
0.585663
8.45237
57.4763
271.581
1038.26
2932.78
6112.74
10902.5
16092.2
19825.9
21369.4
21583.7
20956.8
19768.7
18208
16424.3
14540.9
12657.8
10850.1
9169.79
7648.6
6301.45
5130.84
4130.38
3288.23
2589.31
2017.37
1556.18
1189.69
903.946
679.669
0.0485429
0.292602
0.458661
0.566416
0.469937
0.356297
0.235795
0.158189
0.113352
0.0830795
0.0603237
0.0419052
0.0282527
0.0187206
0.0120417
0.0076404
0.00476096
0.00292518
0.00177489
0.00106839
0.000637707
0.000380072
0.000228851
0.000138399
8.70426e-05
5.76296e-05
4.06969e-05
3.06941e-05
2.55817e-05
2.37934e-05
2.85564e-05
3.64543e-05
3.89167e-05
3.72989e-05
3.60682e-05
3.73394e-05
4.65128e-05
9.21152e-05
0.000434003
0.00780192
0.507651
8.02641
56.0868
267.058
1019.18
2882.99
6028.3
10814.8
16107.5
20014.5
21689.3
21990.4
21412.7
20246.2
18684.5
16882.5
14969.4
13049.2
11200.4
9478.01
7915.91
6530.42
5324.68
4292.72
3422.82
2699.68
2106.86
1627.67
1246.12
946.984
717.077
539.121
0.041991
0.261677
0.430734
0.529613
0.440012
0.33343
0.225839
0.155332
0.112255
0.0825644
0.0600647
0.0417796
0.0282111
0.0187102
0.0120306
0.00762776
0.00475401
0.00292117
0.00177207
0.00106682
0.000635751
0.000378975
0.000228525
0.000138367
8.67547e-05
5.75101e-05
4.08786e-05
3.0857e-05
2.58611e-05
2.35676e-05
2.68937e-05
3.50769e-05
3.9959e-05
3.85284e-05
3.7174e-05
3.76259e-05
4.52096e-05
8.70393e-05
0.000398988
0.00451445
0.459049
7.76476
55.3829
265.435
1010.49
2857.06
5968.47
10727.9
16105.1
20169
21971.2
22371.2
21854.4
20717.4
19160.6
17344.8
15403.6
13446.3
11557
9792.57
8189.27
6764.91
5523.67
4459.77
3561.59
2813.82
2199.64
1702.1
1304.86
992.669
751.291
568.382
428.592
0.036129
0.234826
0.406653
0.493858
0.410616
0.312344
0.216736
0.15273
0.111226
0.0821078
0.0598407
0.0416755
0.0281787
0.0187068
0.0120273
0.00761588
0.00474742
0.00291786
0.00176923
0.0010652
0.000634551
0.000377967
0.000228017
0.00013832
8.65473e-05
5.73804e-05
4.10682e-05
3.10551e-05
2.61859e-05
2.36046e-05
2.57727e-05
3.36099e-05
4.0561e-05
3.98458e-05
3.83893e-05
3.82216e-05
4.44143e-05
8.3459e-05
0.000384274
0.00297718
0.438974
7.67259
55.3412
266.395
1009.08
2850.77
5932.92
10635.2
16061.3
20288
22220.1
22719.5
22276.1
21177.4
19631.7
17807.1
15841.4
13849.3
11918.9
10113
8468.4
7004.91
5727.64
4631.43
3704.5
2931.63
2295.69
1779.43
1366.2
1040.4
787.78
595.166
451.16
342.231
0.029992
0.208509
0.386672
0.459848
0.381974
0.293427
0.208167
0.150305
0.110264
0.081704
0.0596536
0.0415927
0.0281511
0.0187123
0.012033
0.00761101
0.00473948
0.00291611
0.0017666
0.001064
0.000633605
0.000377187
0.000227307
0.000138164
8.6524e-05
5.7249e-05
4.12454e-05
3.13001e-05
2.65416e-05
2.37845e-05
2.50757e-05
3.18744e-05
4.05282e-05
4.12803e-05
3.97031e-05
3.90366e-05
4.42263e-05
7.99821e-05
0.000379897
0.00300244
0.441395
7.70648
55.5847
267.226
1007.21
2845.8
5895.88
10526.6
15976.1
20371.3
22444.3
23034.2
22669.2
21618.1
20089
18261.1
16276.3
14253.6
12285.8
10438.5
8752.89
7250.12
5936.52
4807.45
3851.52
3053.09
2394.98
1859.66
1430.07
1090.39
826.072
623.892
471.804
359.418
274.953
0.0256468
0.181802
0.366861
0.428668
0.354147
0.276484
0.200208
0.147905
0.109369
0.0813558
0.0594904
0.0415377
0.0281362
0.0187088
0.0120409
0.00761428
0.00473269
0.00291386
0.00176479
0.00106308
0.000632543
0.000376649
0.000226563
0.000137966
8.66974e-05
5.71066e-05
4.14245e-05
3.16015e-05
2.69319e-05
2.41678e-05
2.47066e-05
3.02053e-05
4.00404e-05
4.28346e-05
4.10971e-05
4.00421e-05
4.43061e-05
7.70775e-05
0.000376717
0.00301878
0.44388
7.74174
55.7916
268.017
1006.84
2843
5864.07
10411.8
15869.3
20408.4
22645.1
23320.4
23019.3
22023.8
20528
18708.4
16710.2
14660.3
12656.2
10768.5
9041.81
7500.15
6149.96
4987.85
4002.4
3178.15
2497.54
1942.75
1496.51
1142.62
866.327
654.176
494.064
375.078
287.908
222.491
0.0224462
0.158626
0.346281
0.398606
0.327511
0.261021
0.192872
0.145431
0.108519
0.0810557
0.0593531
0.0415094
0.028139
0.0187061
0.0120508
0.00762134
0.00473028
0.00290862
0.00176394
0.00106282
0.000631388
0.000376127
0.000225926
0.000137659
8.69103e-05
5.71447e-05
4.16156e-05
3.19687e-05
2.73545e-05
2.46655e-05
2.45306e-05
2.88248e-05
3.88438e-05
4.42775e-05
4.25532e-05
4.12185e-05
4.46388e-05
7.50222e-05
0.000371613
0.00303621
0.448088
7.8013
56.0954
269.008
1007.61
2840.58
5833.88
10303.1
15729.6
20396.9
22805.1
23578.3
23326.5
22397.7
20951
19142.3
17135.6
15062.9
13026.4
11101
9334.98
7754.28
6367.64
5172.23
4157.06
3306.63
2603.23
2028.69
1565.48
1197.11
908.543
686.156
517.652
392.062
299.618
232.188
181.376
0.019411
0.14159
0.327541
0.36974
0.301613
0.246406
0.186198
0.14301
0.107731
0.0807917
0.0592284
0.0414964