/*--------------------------------*- C++ -*----------------------------------*\
| =========                 |                                                 |
| \\      /  F ield         | OpenFOAM: The Open Source CFD Toolbox           |
|  \\    /   O peration     | Version:  v2012                                 |
|   \\  /    A nd           | Website:  www.openfoam.com                      |
|    \\/     M anipulation  |                                                 |
\*---------------------------------------------------------------------------*/
FoamFile
{
    version     2.0;
    format      ascii;
    class       volScalarField;
    location    "12000";
    object      yPlus;
}
// * * * * * * * * * * * * * * * * * * * * * * * * * * * * * * * * * * * * * //

dimensions      [0 0 0 0 0 0 0];


internalField   uniform 0;

boundaryField
{
    top
    {
        type            calculated;
        value           uniform 0;
    }
    base
    {
        type            calculated;
        value           nonuniform List<scalar> 
276
(
0.338984
0.373119
0.441411
0.449218
0.446415
0.442261
0.438364
0.434933
0.431913
0.429261
0.426962
0.424945
0.423158
0.42155
0.420102
0.418801
0.417632
0.416577
0.415623
0.41475
0.413948
0.413214
0.412545
0.411936
0.411384
0.410888
0.410445
0.410049
0.409712
0.409413
0.409159
0.408947
0.408766
0.408622
0.408511
0.408431
0.408377
0.40835
0.408346
0.408361
0.408393
0.40844
0.408499
0.408571
0.408654
0.408744
0.408841
0.40894
0.409043
0.409147
0.409246
0.409339
0.409421
0.409494
0.409558
0.409614
0.409661
0.409702
0.409737
0.409763
0.409783
0.409797
0.409807
0.409813
0.409815
0.409814
0.409808
0.4098
0.409787
0.409772
0.409755
0.409737
0.409717
0.409695
0.409672
0.409649
0.409615
0.409597
0.409572
0.409569
0.409569
0.409569
0.409571
0.409572
0.409573
0.409568
0.409562
0.409558
0.409554
0.409552
0.409549
0.409544
0.409534
0.409522
0.409506
0.409488
0.409476
0.409458
0.409439
0.409424
0.409408
0.409392
0.409377
0.40936
0.409344
0.409324
0.409301
0.40928
0.409257
0.409232
0.40921
0.409186
0.40916
0.409133
0.409105
0.409084
0.409057
0.409022
0.408987
0.408966
0.408949
0.40891
0.408876
0.408844
0.408808
0.408761
0.408687
0.408689
0.408662
0.408626
0.408587
0.408538
0.408492
0.408456
0.408412
0.40836
0.408319
0.408271
0.408223
0.408164
0.408118
0.408073
0.408
0.407947
0.407896
0.407843
0.407802
0.407721
0.407653
0.40759
0.407533
0.40747
0.40738
0.407316
0.407261
0.407178
0.407102
0.407023
0.406947
0.406845
0.406759
0.406692
0.406615
0.406538
0.406417
0.406298
0.406225
0.40614
0.406028
0.405926
0.405819
0.40571
0.405606
0.405476
0.405396
0.405053
0.392778
0.255085
0.162597
0.255475
0.281221
0.289256
0.296125
0.303898
0.310739
0.316623
0.321866
0.326193
0.332804
0.351563
0.39044
0.4367
0.452435
0.451775
0.432088
0.397035
0.344017
0.261551
0.104996
0.235214
0.355255
0.446073
0.521945
0.587735
0.643993
0.69404
0.740077
0.783311
0.824285
0.862069
0.896632
0.927372
0.955748
0.980815
1.00288
1.02321
1.04218
1.06003
1.07726
1.09446
1.11191
1.12937
1.14639
1.16254
1.17739
1.19062
1.20201
1.21224
1.22145
1.22975
1.23753
1.24489
1.25186
1.25849
1.26465
1.2702
1.27588
1.2834
1.28653
1.28759
1.30036
1.30151
1.30378
1.31407
1.31653
1.31785
1.32713
1.33243
1.3369
1.33694
1.33633
1.33731
1.33899
1.33869
1.33631
1.33226
1.32693
1.32036
1.3126
1.30377
1.29399
1.28339
1.27207
1.2601
1.24759
1.23459
1.22109
1.20715
1.19288
1.17831
1.16352
1.14851
1.13344
1.11778
1.10509
1.07928
)
;
    }
    frontAndBack
    {
        type            empty;
    }
    inlet
    {
        type            calculated;
        value           uniform 0;
    }
    outlet
    {
        type            calculated;
        value           uniform 0;
    }
}


// ************************************************************************* //
