/*--------------------------------*- C++ -*----------------------------------*\
| =========                 |                                                 |
| \\      /  F ield         | OpenFOAM: The Open Source CFD Toolbox           |
|  \\    /   O peration     | Version:  v2012                                 |
|   \\  /    A nd           | Website:  www.openfoam.com                      |
|    \\/     M anipulation  |                                                 |
\*---------------------------------------------------------------------------*/
FoamFile
{
    version     2.0;
    format      ascii;
    class       volScalarField;
    location    "3400";
    object      betann;
}
// * * * * * * * * * * * * * * * * * * * * * * * * * * * * * * * * * * * * * //

dimensions      [0 0 0 0 0 0 0];


internalField   nonuniform List<scalar> 
27324
(
2.59024e-05
2.50929e-05
2.47308e-05
2.62619e-05
2.38793e-05
2.339e-05
2.51006e-05
2.497e-05
2.2659e-05
2.20177e-05
2.38997e-05
2.37968e-05
2.36362e-05
2.14225e-05
2.07601e-05
2.28967e-05
2.26879e-05
2.24267e-05
2.23076e-05
2.02036e-05
1.96238e-05
2.24789e-05
2.18094e-05
2.13344e-05
2.11042e-05
2.10499e-05
1.90177e-05
1.85554e-05
2.31894e-05
2.1506e-05
2.05078e-05
2.00041e-05
1.9846e-05
1.98623e-05
1.7892e-05
1.75164e-05
2.4418e-05
2.24186e-05
2.02306e-05
1.91782e-05
1.87607e-05
1.86845e-05
1.87347e-05
1.67671e-05
1.65138e-05
2.55338e-05
2.35771e-05
2.11707e-05
1.89119e-05
1.795e-05
1.76442e-05
1.76024e-05
1.75893e-05
1.56534e-05
1.55067e-05
2.59907e-05
2.44075e-05
2.23523e-05
1.98582e-05
1.76919e-05
1.6872e-05
1.66221e-05
1.65372e-05
1.64583e-05
1.45195e-05
1.44928e-05
2.54301e-05
2.45341e-05
2.30583e-05
2.10419e-05
1.86617e-05
1.66334e-05
1.58998e-05
1.56518e-05
1.55326e-05
1.52808e-05
1.3371e-05
1.34868e-05
2.46251e-05
2.36936e-05
2.31313e-05
2.17261e-05
1.98086e-05
1.75811e-05
1.56778e-05
1.50067e-05
1.47874e-05
1.45214e-05
1.40947e-05
1.22634e-05
1.24356e-05
2.36708e-05
2.31179e-05
2.21618e-05
2.18017e-05
2.04686e-05
1.86941e-05
1.6571e-05
1.48135e-05
1.42538e-05
1.3956e-05
1.35572e-05
1.28935e-05
1.11212e-05
1.13843e-05
2.28605e-05
2.2757e-05
2.16097e-05
2.07979e-05
2.05018e-05
1.93394e-05
1.76071e-05
1.55994e-05
1.41067e-05
1.35532e-05
1.32235e-05
1.26057e-05
1.16697e-05
9.98322e-06
1.03608e-05
2.20473e-05
2.24393e-05
2.15038e-05
2.02246e-05
1.94751e-05
1.93697e-05
1.81885e-05
1.65255e-05
1.47519e-05
1.34491e-05
1.29878e-05
1.25495e-05
1.16858e-05
1.05139e-05
8.86663e-06
9.38634e-06
2.18711e-05
2.16201e-05
2.12754e-05
2.01716e-05
1.89152e-05
1.83688e-05
1.82056e-05
1.70631e-05
1.55189e-05
1.38895e-05
1.29457e-05
1.25131e-05
1.19344e-05
1.07782e-05
9.49208e-06
7.89776e-06
8.51074e-06
2.28127e-05
2.09705e-05
2.04857e-05
1.99253e-05
1.89197e-05
1.78184e-05
1.72536e-05
1.71138e-05
1.59928e-05
1.44349e-05
1.3144e-05
1.25287e-05
1.21081e-05
1.13408e-05
1.00385e-05
8.62345e-06
7.16965e-06
7.74425e-06
2.40304e-05
2.10551e-05
1.97294e-05
1.91779e-05
1.87378e-05
1.77776e-05
1.67198e-05
1.62813e-05
1.60589e-05
1.48243e-05
1.342e-05
1.24326e-05
1.21677e-05
1.17595e-05
1.08219e-05
9.25027e-06
7.98473e-06
6.66519e-06
7.09692e-06
2.45944e-05
2.21806e-05
1.94892e-05
1.83912e-05
1.8009e-05
1.76422e-05
1.66442e-05
1.57651e-05
1.53701e-05
1.49288e-05
1.36982e-05
1.23847e-05
1.17478e-05
1.18415e-05
1.13623e-05
1.01204e-05
8.48479e-06
7.55999e-06
6.35142e-06
6.51717e-06
2.30642e-05
2.31248e-05
2.06205e-05
1.80496e-05
1.71861e-05
1.69295e-05
1.65877e-05
1.5664e-05
1.48481e-05
1.44659e-05
1.38288e-05
1.2516e-05
1.13611e-05
1.11508e-05
1.14457e-05
1.07423e-05
9.24349e-06
7.8987e-06
7.21182e-06
6.00897e-06
5.87062e-06
2.06315e-05
2.21998e-05
2.15857e-05
1.91901e-05
1.6771e-05
1.60395e-05
1.59555e-05
1.56411e-05
1.46861e-05
1.39682e-05
1.36324e-05
1.26643e-05
1.13354e-05
1.04691e-05
1.06017e-05
1.0862e-05
9.82076e-06
8.32528e-06
7.24874e-06
6.77389e-06
5.3778e-06
5.21549e-06
1.94699e-05
1.97536e-05
2.08937e-05
2.01542e-05
1.78066e-05
1.56176e-05
1.51116e-05
1.50959e-05
1.46729e-05
1.37277e-05
1.31943e-05
1.27826e-05
1.15053e-05
1.0226e-05
9.71161e-06
9.99764e-06
1.00232e-05
8.62388e-06
7.31023e-06
6.57772e-06
6.04329e-06
4.49914e-06
5.02542e-06
1.92372e-05
1.82044e-05
1.84182e-05
1.95781e-05
1.87876e-05
1.65463e-05
1.46498e-05
1.42948e-05
1.42818e-05
1.37109e-05
1.28423e-05
1.24613e-05
1.19279e-05
1.0332e-05
9.23671e-06
9.09807e-06
9.3505e-06
8.80837e-06
7.33948e-06
6.39092e-06
5.816e-06
5.09309e-06
3.73076e-06
6.93771e-06
1.96353e-05
1.77159e-05
1.67306e-05
1.70497e-05
1.82602e-05
1.74987e-05
1.54293e-05
1.37442e-05
1.35098e-05
1.35009e-05
1.27591e-05
1.19934e-05
1.1797e-05
1.10173e-05
9.24172e-06
8.45578e-06
8.61229e-06
8.61291e-06
7.40025e-06
6.21696e-06
5.63354e-06
5.00835e-06
4.18857e-06
3.86264e-06
1.93999e-05
2.12465e-05
1.82815e-05
1.61901e-05
1.53273e-05
1.57726e-05
1.71318e-05
1.62965e-05
1.43099e-05
1.29692e-05
1.2824e-05
1.27324e-05
1.17963e-05
1.12305e-05
1.11463e-05
9.98372e-06
8.30628e-06
7.96595e-06
8.20898e-06
7.71882e-06
6.17955e-06
5.4548e-06
4.994e-06
4.2016e-06
3.91542e-06
7.4208e-06
0.000177485
2.50009e-05
2.01876e-05
1.67585e-05
1.47526e-05
1.40148e-05
1.47248e-05
1.60843e-05
1.50449e-05
1.32492e-05
1.22812e-05
1.22429e-05
1.19417e-05
1.08975e-05
1.05735e-05
1.03837e-05
8.79688e-06
7.61658e-06
7.69758e-06
7.81417e-06
6.54411e-06
5.3821e-06
4.94458e-06
4.34362e-06
3.73367e-06
5.38414e-06
3.06452e-05
0.0122738
2.89188e-05
2.37455e-05
1.87672e-05
1.53188e-05
1.34128e-05
1.29624e-05
1.37802e-05
1.50237e-05
1.37907e-05
1.21837e-05
1.16884e-05
1.17529e-05
1.11113e-05
1.0104e-05
1.00362e-05
9.49796e-06
7.73451e-06
7.24589e-06
7.56151e-06
6.9977e-06
5.51757e-06
4.90323e-06
4.43864e-06
3.74475e-06
4.14272e-06
1.61191e-05
0.00133951
0.0170212
4.20292e-05
2.78184e-05
2.2304e-05
1.72881e-05
1.40494e-05
1.23479e-05
1.19993e-05
1.2936e-05
1.39847e-05
1.24703e-05
1.11872e-05
1.1252e-05
1.13344e-05
1.02681e-05
9.4287e-06
9.47111e-06
8.26235e-06
6.94214e-06
7.09054e-06
7.2147e-06
5.82642e-06
4.89675e-06
4.47007e-06
3.92374e-06
3.68798e-06
8.98125e-06
0.000162101
0.0465635
0.0124615
0.0002763
4.3658e-05
2.63937e-05
2.08769e-05
1.59372e-05
1.30296e-05
1.13949e-05
1.11709e-05
1.21903e-05
1.28412e-05
1.11539e-05
1.0249e-05
1.07567e-05
1.07599e-05
9.37804e-06
8.95706e-06
8.92752e-06
7.06055e-06
6.49656e-06
6.98747e-06
6.24998e-06
4.90334e-06
4.4373e-06
4.06205e-06
3.39249e-06
5.34688e-06
3.91055e-05
0.0236191
0.547283
0.254449
0.36486
0.000311595
4.46577e-05
2.50972e-05
1.9489e-05
1.47964e-05
1.21056e-05
1.05526e-05
1.04698e-05
1.14947e-05
1.16157e-05
9.88465e-06
9.43352e-06
1.03143e-05
9.92234e-06
8.58774e-06
8.73005e-06
7.8026e-06
6.23754e-06
6.42771e-06
6.65398e-06
5.02815e-06
4.41679e-06
4.06229e-06
3.19504e-06
3.44888e-06
1.88459e-05
0.0163471
0.929733
0.942967
0.17045
0.99978
0.527441
0.000385715
4.40238e-05
2.43512e-05
1.82722e-05
1.37561e-05
1.12968e-05
9.80198e-06
9.88325e-06
1.08652e-05
1.02745e-05
8.71847e-06
8.82355e-06
9.88393e-06
8.7534e-06
8.0488e-06
8.22508e-06
6.41302e-06
5.81799e-06
6.4391e-06
5.34004e-06
4.38671e-06
3.62872e-06
3.0822e-06
2.57539e-06
1.53435e-05
0.0156076
0.995052
0.983424
0.168
0.00187618
0.539571
0.999931
0.752106
0.000537841
4.53199e-05
2.41526e-05
1.70327e-05
1.28159e-05
1.0573e-05
9.1667e-06
9.46034e-06
1.02512e-05
8.83673e-06
7.73193e-06
8.38062e-06
9.00639e-06
7.57769e-06
7.65009e-06
7.12862e-06
5.46109e-06
5.75535e-06
5.76348e-06
3.87645e-06
3.40929e-06
2.78593e-06
2.35339e-06
1.90045e-05
0.0263183
0.999243
0.996688
0.0574172
0.000464435
7.85216e-05
0.000191542
0.698264
0.999981
0.906488
0.000905327
4.95025e-05
2.46887e-05
1.55627e-05
1.19982e-05
9.83169e-06
8.66834e-06
9.22258e-06
9.5181e-06
7.4325e-06
6.89074e-06
8.08394e-06
7.6747e-06
6.63983e-06
7.29444e-06
5.54219e-06
4.90989e-06
5.607e-06
3.71779e-06
3.29803e-06
2.39441e-06
5.32185e-06
0.000107996
0.184617
0.999733
0.99876
0.0313549
0.000200241
6.78285e-05
4.2683e-05
4.69937e-05
0.000212049
0.808825
0.999994
0.974308
0.00191779
5.71605e-05
2.68997e-05
1.38539e-05
1.13538e-05
9.09263e-06
8.35488e-06
9.16423e-06
8.66724e-06
6.3032e-06
6.47523e-06
7.69834e-06
6.22193e-06
6.30706e-06
5.92225e-06
4.25934e-06
4.53209e-06
4.03531e-06
2.71663e-06
3.79408e-06
2.20294e-05
0.00180999
0.760236
0.999531
0.998905
0.0202146
0.000141382
6.53839e-05
4.54264e-05
2.71549e-05
3.6179e-05
4.67052e-05
0.000242304
0.914164
0.999998
0.99265
0.0062725
7.59855e-05
3.20321e-05
1.26072e-05
1.10425e-05
8.19867e-06
8.23211e-06
9.31883e-06
7.50798e-06
5.6235e-06
6.58738e-06
6.61069e-06
5.11876e-06
6.01099e-06
3.88888e-06
3.83229e-06
4.21859e-06
2.73982e-06
1.45995e-05
0.000334913
0.0818749
0.934704
0.991171
0.991486
0.0196777
0.00012771
6.50536e-05
4.74589e-05
2.74589e-05
1.72872e-05
3.66887e-05
3.54983e-05
4.6235e-05
0.000307228
0.96962
0.999998
0.998324
0.0388064
0.000138692
4.09679e-05
1.2924e-05
1.04148e-05
7.18879e-06
8.06629e-06
8.86253e-06
6.06326e-06
5.18425e-06
6.48865e-06
4.89558e-06
4.67e-06
4.53364e-06
3.36213e-06
4.21409e-06
1.22448e-05
0.000181644
0.0206987
0.735558
0.905504
0.594249
0.874329
0.0552913
0.000161003
6.75744e-05
4.91528e-05
2.94301e-05
1.61379e-05
1.15259e-05
4.0648e-05
3.61355e-05
3.5309e-05
4.64764e-05
0.000430026
0.99021
0.999996
0.999642
0.408906
0.000544172
5.43743e-05
1.70965e-05
1.03825e-05
6.57673e-06
7.96845e-06
7.46803e-06
4.79485e-06
5.25544e-06
5.49203e-06
4.13818e-06
5.99894e-06
3.17416e-06
1.56227e-05
0.000150564
0.0111463
0.670897
0.899245
0.406349
0.01457
0.220567
0.161565
0.00032439
7.75985e-05
4.96595e-05
3.09339e-05
1.64972e-05
1.04134e-05
8.47997e-06
4.33266e-05
4.07987e-05
3.56395e-05
3.53514e-05
4.70105e-05
0.000776252
0.996796
0.99997
0.999874
0.975623
0.0100338
0.000121078
3.19068e-05
1.49343e-05
7.44564e-06
1.05455e-05
6.45044e-06
4.80542e-06
7.86363e-06
4.99576e-06
7.1476e-06
1.96407e-05
0.000220511
0.0155284
0.684719
0.950626
0.590288
0.0124979
0.000452984
0.013183
0.353927
0.000933957
9.26775e-05
4.92204e-05
3.11245e-05
1.64718e-05
1.07856e-05
7.61706e-06
6.9174e-06
4.47034e-05
4.32028e-05
4.05392e-05
3.49667e-05
3.53319e-05
4.86156e-05
0.00209986
0.998722
0.99906
0.999809
0.999811
0.684303
0.00203359
0.00012626
4.05243e-05
1.58282e-05
2.06076e-05
9.46433e-06
9.37268e-06
2.50774e-05
8.40521e-05
0.000940164
0.0423417
0.883387
0.978969
0.861851
0.0290343
0.000314561
6.3534e-05
0.00113629
0.432296
0.00407198
0.000123968
4.83327e-05
3.1096e-05
1.66605e-05
1.06079e-05
8.17637e-06
6.14141e-06
6.1253e-06
4.4732e-05
4.45227e-05
4.30233e-05
3.99462e-05
3.39516e-05
3.59752e-05
5.33221e-05
0.00941084
0.998872
0.917997
0.995365
0.999992
0.999764
0.724705
0.0161351
0.00123198
0.000570254
0.000262667
0.000402241
0.00277315
0.0210812
0.60418
0.976127
0.994159
0.944408
0.0953705
0.000518954
3.06346e-05
2.32236e-05
0.000198765
0.267951
0.0222091
0.000194544
4.80346e-05
3.02491e-05
1.68575e-05
1.06124e-05
8.12641e-06
6.77731e-06
5.33867e-06
5.76087e-06
4.36124e-05
4.45748e-05
4.43748e-05
4.27806e-05
3.91979e-05
3.37891e-05
3.71063e-05
6.66462e-05
0.088428
0.997396
0.0771956
0.421445
0.99982
0.999997
0.999961
0.997405
0.950377
0.894881
0.835388
0.972528
0.995626
0.998485
0.997709
0.961125
0.126976
0.000907608
3.73476e-05
1.00214e-05
1.30219e-05
6.71349e-05
0.0666158
0.107134
0.000380066
4.9687e-05
2.85371e-05
1.7864e-05
1.0708e-05
8.16196e-06
6.80475e-06
6.00665e-06
4.92067e-06
4.099e-06
4.24688e-05
4.34938e-05
4.4274e-05
4.40166e-05
4.26926e-05
3.86332e-05
3.35388e-05
3.83898e-05
0.00010354
0.722636
0.980347
0.00128632
0.00226172
0.447269
0.999168
0.999979
0.999988
0.99998
0.999964
0.999912
0.999783
0.997043
0.878234
0.0510124
0.000715152
4.49856e-05
1.2011e-05
6.51436e-06
9.16086e-06
3.64652e-05
0.00899774
0.283585
0.000976313
5.5325e-05
2.6226e-05
1.86584e-05
1.09255e-05
8.17829e-06
6.91835e-06
6.07391e-06
5.60074e-06
3.62481e-06
2.36976e-06
4.18955e-05
4.20854e-05
4.30614e-05
4.41961e-05
4.38314e-05
4.25181e-05
3.77443e-05
3.34823e-05
4.01419e-05
0.000236575
0.991325
0.701933
7.38273e-05
7.31555e-05
0.000408809
0.017781
0.585663
0.965937
0.982881
0.964527
0.773796
0.10835
0.00439945
0.000212978
3.33873e-05
1.32442e-05
8.09782e-06
6.04921e-06
7.67383e-06
2.53072e-05
0.00124747
0.359013
0.00331723
6.91723e-05
2.43055e-05
1.87867e-05
1.12729e-05
8.21123e-06
6.99649e-06
6.25481e-06
5.66784e-06
4.49498e-06
1.94832e-06
1.58134e-06
4.23778e-05
4.1314e-05
4.16785e-05
4.29513e-05
4.42392e-05
4.36e-05
4.20119e-05
3.6652e-05
3.4727e-05
4.28104e-05
0.00121758
0.999609
0.0620493
1.45351e-05
1.61441e-05
1.79304e-05
4.19736e-05
0.000195634
0.00063068
0.000760918
0.000417102
0.000135317
4.41923e-05
1.82701e-05
1.19972e-05
9.00681e-06
7.63899e-06
6.48708e-06
6.93677e-06
1.83777e-05
0.000257892
0.227153
0.0134973
0.000102206
2.29901e-05
1.89364e-05
1.17138e-05
8.28179e-06
7.07262e-06
6.41335e-06
5.86744e-06
4.84833e-06
2.46056e-06
1.24858e-06
1.19221e-06
4.39383e-05
4.18705e-05
4.09841e-05
4.17674e-05
4.28538e-05
4.38023e-05
4.33892e-05
4.1205e-05
3.577e-05
3.65329e-05
5.08328e-05
0.0280481
0.999839
0.00336015
1.23448e-05
1.26894e-05
9.69955e-06
8.72102e-06
1.20968e-05
1.63312e-05
1.66922e-05
1.40602e-05
1.11771e-05
1.03208e-05
9.21622e-06
8.62707e-06
8.13375e-06
7.2472e-06
6.65964e-06
1.33209e-05
8.28616e-05
0.0623813
0.052256
0.000185959
2.28646e-05
1.83566e-05
1.21251e-05
8.42339e-06
7.15734e-06
6.56655e-06
6.06047e-06
5.3553e-06
2.61516e-06
1.55911e-06
9.94853e-07
1.01357e-06
4.66799e-05
4.43239e-05
4.18026e-05
4.10286e-05
4.14057e-05
4.25375e-05
4.36345e-05
4.27954e-05
4.02393e-05
3.44648e-05
4.0106e-05
8.3001e-05
0.809652
0.998879
0.00094704
3.57436e-05
2.05178e-05
1.08029e-05
8.80966e-06
9.93306e-06
1.08502e-05
1.0631e-05
1.00481e-05
9.43643e-06
9.22862e-06
9.26528e-06
8.86391e-06
7.80098e-06
6.68251e-06
9.63995e-06
3.9893e-05
0.00985187
0.1365
0.000420654
2.55921e-05
1.72537e-05
1.27352e-05
8.65262e-06
7.26183e-06
6.70844e-06
6.26822e-06
5.83286e-06
2.86781e-06
1.62945e-06
1.2e-06
8.66785e-07
9.44897e-07
4.84231e-05
4.67939e-05
4.45669e-05
4.17313e-05
4.0752e-05
4.12668e-05
4.2305e-05
4.30543e-05
4.22708e-05
3.84409e-05
3.4182e-05
4.37069e-05
0.000303703
0.998943
0.929403
0.000511236
6.03292e-05
2.17281e-05
1.11271e-05
9.93053e-06
1.05428e-05
1.05673e-05
1.03935e-05
1.03916e-05
1.03095e-05
9.8305e-06
9.19484e-06
8.12924e-06
6.76879e-06
7.5418e-06
2.36017e-05
0.00150267
0.182093
0.00122622
3.31253e-05
1.56782e-05
1.31327e-05
8.99507e-06
7.41089e-06
6.83744e-06
6.47651e-06
6.05197e-06
3.13637e-06
1.76264e-06
1.25628e-06
1.01503e-06
7.80611e-07
9.71559e-07
4.985e-05
4.92773e-05
4.69535e-05
4.43177e-05
4.16599e-05
4.06997e-05
4.12274e-05
4.20679e-05
4.26388e-05
4.11007e-05
3.64208e-05
3.49794e-05
4.76215e-05
0.00729727
0.999899
0.0390669
0.000136487
3.57802e-05
1.3808e-05
9.06021e-06
1.0164e-05
1.10198e-05
1.10414e-05
1.08246e-05
1.05597e-05
1.00597e-05
9.27218e-06
8.22738e-06
6.90779e-06
6.46472e-06
1.53437e-05
0.000309467
0.117365
0.00422071
4.70554e-05
1.41401e-05
1.30842e-05
9.45102e-06
7.61684e-06
6.96509e-06
6.67188e-06
6.29568e-06
3.44546e-06
1.90749e-06
1.35156e-06
1.05824e-06
9.08645e-07
7.41518e-07
1.16347e-06
4.85571e-05
5.01668e-05
4.9801e-05
4.69042e-05
4.38562e-05
4.17683e-05
4.04944e-05
4.11724e-05
4.19118e-05
4.17043e-05
3.97854e-05
3.38002e-05
3.76951e-05
7.3011e-05
0.746328
0.998308
0.000283343
3.79426e-05
1.84603e-05
8.40905e-06
8.59074e-06
1.03976e-05
1.11597e-05
1.10067e-05
1.05958e-05
9.93896e-06
9.14417e-06
8.25219e-06
7.04034e-06
6.00572e-06
1.05359e-05
9.0747e-05
0.0359958
0.0138016
7.88355e-05
1.31793e-05
1.29614e-05
1.00154e-05
7.88299e-06
7.10674e-06
6.85086e-06
6.55456e-06
3.79874e-06
2.07866e-06
1.45538e-06
1.12507e-06
9.40446e-07
8.70972e-07
8.15605e-07
1.49328e-06
4.56803e-05
4.7946e-05
5.02083e-05
4.97172e-05
4.75106e-05
4.37913e-05
4.14328e-05
4.06876e-05
4.11397e-05
4.14911e-05
4.0921e-05
3.76118e-05
3.19539e-05
4.10727e-05
0.000312151
0.999591
0.619507
4.08792e-05
2.59536e-05
1.13304e-05
7.83866e-06
9.56361e-06
1.10108e-05
1.09906e-05
1.0489e-05
9.81464e-06
9.02531e-06
8.2402e-06
7.1762e-06
5.85044e-06
7.58477e-06
3.64599e-05
0.00648814
0.0334559
0.000166548
1.34609e-05
1.27144e-05
1.06053e-05
8.22066e-06
7.27986e-06
7.01383e-06
6.81834e-06
4.20568e-06
2.27523e-06
1.57457e-06
1.19512e-06
9.89402e-07
8.90051e-07
9.74668e-07
9.72511e-07
1.93485e-06
4.4377e-05
4.5224e-05
4.74358e-05
5.04225e-05
5.00713e-05
4.77332e-05
4.40029e-05
4.17313e-05
4.09203e-05
4.15297e-05
4.12989e-05
3.94354e-05
3.45984e-05
3.17425e-05
4.54623e-05
0.0245322
0.999944
0.00920673
4.20364e-05
2.16874e-05
8.7848e-06
8.78742e-06
1.06727e-05
1.09389e-05
1.03412e-05
9.65544e-06
8.92487e-06
8.21331e-06
7.28189e-06
5.74952e-06
5.99077e-06
1.58786e-05
0.00105426
0.0484802
0.000432912
1.52899e-05
1.22629e-05
1.11037e-05
8.61085e-06
7.51088e-06
7.17059e-06
7.07329e-06
4.66915e-06
2.50253e-06
1.7078e-06
1.27299e-06
1.04107e-06
9.25614e-07
9.88801e-07
1.19043e-06
1.18358e-06
2.47262e-06
4.31362e-05
4.32203e-05
4.51187e-05
4.78262e-05
5.07816e-05
5.00492e-05
4.72477e-05
4.44501e-05
4.21397e-05
4.17276e-05
4.1857e-05
4.09212e-05
3.79753e-05
3.1484e-05
3.49772e-05
9.34253e-05
0.983019
0.992921
0.000410708
4.22268e-05
1.31447e-05
8.22706e-06
9.85019e-06
1.06936e-05
1.01568e-05
9.48199e-06
8.82652e-06
8.17338e-06
7.31706e-06
5.73821e-06
4.93786e-06
7.87744e-06
0.000217641
0.0379093
0.00128402
2.36599e-05
1.1685e-05
1.13723e-05
9.05974e-06
7.8095e-06
7.3489e-06
7.30508e-06
5.18612e-06
2.76482e-06
1.85298e-06
1.36048e-06
1.09963e-06
9.64726e-07
1.02075e-06
1.21079e-06
1.4828e-06
1.44032e-06
3.10375e-06
4.47305e-05
4.23288e-05
4.2792e-05
4.53268e-05
4.81349e-05
5.08332e-05
4.97775e-05
4.74558e-05
4.43776e-05
4.28768e-05
4.27015e-05
4.24174e-05
4.12043e-05
3.60194e-05
2.96758e-05
3.99562e-05
0.00201935
0.999903
0.0673234
7.80467e-05
2.40647e-05
8.80576e-06
8.61989e-06
1.01273e-05
9.91918e-06
9.29113e-06
8.73794e-06
8.12562e-06
7.27712e-06
5.68726e-06
4.23406e-06
4.70225e-06
6.09961e-05
0.0156353
0.00381613
4.18472e-05
1.06095e-05
1.13823e-05
9.56061e-06
8.19136e-06
7.56697e-06
7.51639e-06
5.741e-06
3.06646e-06
2.00695e-06
1.46097e-06
1.16747e-06
1.01133e-06
1.05554e-06
1.25339e-06
1.51583e-06
1.84158e-06
1.74717e-06
3.83627e-06
4.65786e-05
4.4399e-05
4.2356e-05
4.28462e-05
4.51882e-05
4.81511e-05
5.07191e-05
4.97583e-05
4.68495e-05
4.4785e-05
4.38763e-05
4.41193e-05
4.37059e-05
4.11142e-05
3.33598e-05
3.19782e-05
6.10569e-05
0.795991
0.998148
0.000387669
3.92962e-05
1.2613e-05
7.58248e-06
9.20223e-06
9.63758e-06
9.10287e-06
8.64875e-06
8.07289e-06
7.16747e-06
5.53898e-06
3.70024e-06
2.98118e-06
2.14958e-05
0.0039855
0.00926265
7.44868e-05
1.00494e-05
1.11749e-05
1.01078e-05
8.64689e-06
7.85247e-06
7.7142e-06
6.30881e-06
3.40761e-06
2.17197e-06
1.57952e-06
1.24856e-06
1.06797e-06
1.0977e-06
1.30058e-06
1.5764e-06
1.88958e-06
2.26979e-06
2.11961e-06
4.68802e-06
4.80788e-05
4.65364e-05
4.41827e-05
4.24036e-05
4.26189e-05
4.5093e-05
4.82266e-05
5.03817e-05
4.90451e-05
4.68131e-05
4.50173e-05
4.52793e-05
4.61454e-05
4.46532e-05
4.00995e-05
3.20623e-05
3.97552e-05
0.00070791
0.999844
0.229762
6.59386e-05
2.35801e-05
7.65883e-06
8.01007e-06
9.2465e-06
8.93458e-06
8.54786e-06
8.01012e-06
6.9996e-06
5.28592e-06
3.28045e-06
2.10762e-06
8.83758e-06
0.000821962
0.0145787
0.00016775
1.11474e-05
1.09388e-05
1.06549e-05
9.1564e-06
8.21199e-06
7.92953e-06
6.87229e-06
3.78272e-06
2.36396e-06
1.72177e-06
1.34678e-06
1.138e-06
1.14908e-06
1.35615e-06
1.64215e-06
1.97227e-06
2.33317e-06
2.78335e-06
2.57908e-06
5.68795e-06
4.87133e-05
4.84153e-05
4.66957e-05
4.37902e-05
4.20102e-05
4.2692e-05
4.50308e-05
4.822e-05
4.94441e-05
4.81264e-05
4.59444e-05
4.54954e-05
4.68156e-05
4.75188e-05
4.52785e-05
3.81885e-05
3.29275e-05
5.91853e-05
0.545446
0.999241
0.00102748
4.04842e-05
1.04108e-05
6.8865e-06
8.64131e-06
8.76859e-06
8.42804e-06
7.92273e-06
6.77746e-06
4.95103e-06
2.901e-06
1.60421e-06
4.10613e-06
0.000187468
0.0136139
0.000431574
1.39506e-05
1.07644e-05
1.1107e-05
9.68726e-06
8.65381e-06
8.18778e-06
7.42268e-06
4.18617e-06
2.60079e-06
1.88744e-06
1.46544e-06
1.22243e-06
1.21052e-06
1.42125e-06
1.71906e-06
2.06213e-06
2.43998e-06
2.86007e-06
3.40768e-06
3.1541e-06
6.86603e-06
4.64224e-05
4.83258e-05
4.86168e-05
4.71304e-05
4.38229e-05
4.17399e-05
4.27995e-05
4.5195e-05
4.80741e-05
4.82887e-05
4.65851e-05
4.46225e-05
4.5596e-05
4.7887e-05
4.83368e-05
4.47762e-05
3.45501e-05
4.07985e-05
0.000582738
0.999727
0.27113
8.10404e-05
1.89741e-05
6.51523e-06
7.74839e-06
8.57282e-06
8.27209e-06
7.80271e-06
6.49814e-06
4.55356e-06
2.53334e-06
1.28459e-06
2.12676e-06
5.45849e-05
0.00735283
0.00120767
2.3784e-05
1.04097e-05
1.13055e-05
1.02266e-05
9.16953e-06
8.52658e-06
7.96863e-06
4.60127e-06
2.88236e-06
2.0768e-06
1.60477e-06
1.32154e-06
1.28291e-06
1.49689e-06
1.80716e-06
2.16485e-06
2.55548e-06
2.99267e-06
3.49484e-06
4.17377e-06
3.87805e-06
8.25151e-06
4.46911e-05
4.5888e-05
4.85116e-05
4.88871e-05
4.69255e-05
4.40883e-05
4.1946e-05
4.30539e-05
4.55911e-05
4.76757e-05
4.65973e-05
4.43985e-05
4.35599e-05
4.56876e-05
4.83525e-05
4.78993e-05
4.00956e-05
3.53495e-05
6.16071e-05
0.546563
0.998752
0.000637893
3.46436e-05
8.12871e-06
6.7e-06
8.24963e-06
8.09567e-06
7.62023e-06
6.17057e-06
4.11225e-06
2.17291e-06
1.06832e-06
1.27325e-06
1.901e-05
0.00251198
0.00308481
4.45434e-05
9.98403e-06
1.1256e-05
1.07769e-05
9.74829e-06
8.95962e-06
8.54035e-06
5.0098e-06
3.20456e-06
2.29798e-06
1.76348e-06
1.43618e-06
1.36778e-06
1.58354e-06
1.90719e-06
2.28094e-06
2.68599e-06
3.13385e-06
3.65348e-06
4.2662e-06
5.1164e-06
4.78725e-06
9.86223e-06
4.38911e-05
4.42329e-05
4.58448e-05
4.89567e-05
4.88581e-05
4.67128e-05
4.41817e-05
4.23842e-05
4.37312e-05
4.60315e-05
4.68292e-05
4.45271e-05
4.20247e-05
4.28143e-05
4.54384e-05
4.71371e-05
4.39847e-05
3.36009e-05
3.88909e-05
0.000756532
0.99972
0.135929
6.56412e-05
1.44659e-05
5.92924e-06
7.68194e-06
7.90805e-06
7.35191e-06
5.80367e-06
3.63779e-06
1.83053e-06
9.04119e-07
8.5725e-07
7.57085e-06
0.000680194
0.00590302
8.17542e-05
1.00801e-05
1.11341e-05
1.13459e-05
1.03682e-05
9.49428e-06
8.99676e-06
5.4087e-06
3.55661e-06
2.56152e-06
1.943e-06
1.56806e-06
1.46733e-06
1.68306e-06
2.0202e-06
2.41148e-06
2.83308e-06
3.29364e-06
3.81884e-06
4.45044e-06
5.2068e-06
6.2653e-06
5.91673e-06
1.17017e-05
4.50759e-05
4.37658e-05
4.42384e-05
4.56988e-05
4.88867e-05
4.87927e-05
4.66238e-05
4.42335e-05
4.32205e-05
4.44991e-05
4.71321e-05
4.58298e-05
4.22558e-05
4.0083e-05
4.16638e-05
4.45257e-05
4.41648e-05
3.69204e-05
3.07301e-05
5.8652e-05
0.777629
0.995683
0.000388967
2.87806e-05
6.23789e-06
6.81194e-06
7.70746e-06
6.97395e-06
5.41444e-06
3.13455e-06
1.53091e-06
7.76109e-07
6.38594e-07
3.41088e-06
0.000191369
0.00734312
0.000180068
1.18236e-05
1.11723e-05
1.18942e-05
1.09903e-05
1.01185e-05
9.43179e-06
5.81169e-06
3.91636e-06
2.8728e-06
2.1492e-06
1.71816e-06
1.58349e-06
1.79745e-06
2.14892e-06
2.55808e-06
2.99747e-06
3.47161e-06
4.00717e-06
4.63928e-06
5.415e-06
6.3477e-06
7.64587e-06
7.29432e-06
1.37607e-05
4.62528e-05
4.57268e-05
4.38363e-05
4.42238e-05
4.5728e-05
4.88687e-05
4.8488e-05
4.65462e-05
4.43077e-05
4.41972e-05
4.60766e-05
4.78078e-05
4.49427e-05
4.05371e-05
3.84239e-05
4.08968e-05
4.28972e-05
4.01896e-05
2.96448e-05
3.63715e-05
0.0020687
0.999722
0.032903
5.18288e-05
9.27586e-06
5.84457e-06
7.41927e-06
6.5238e-06
4.96232e-06
2.64366e-06
1.2783e-06
6.73504e-07
5.13219e-07
1.7369e-06
5.89329e-05
0.00554571
0.000426684
1.6156e-05
1.13747e-05
1.22942e-05
1.15884e-05
1.0807e-05
9.99658e-06
6.25931e-06
4.25764e-06
3.22384e-06
2.39172e-06
1.88666e-06
1.71805e-06
1.92845e-06
2.29668e-06
2.72428e-06
3.18043e-06
3.67027e-06
4.21654e-06
4.8537e-06
5.62652e-06
6.57756e-06
7.71456e-06
9.27465e-06
8.94175e-06
1.60127e-05
4.67916e-05
4.67109e-05
4.57033e-05
4.38327e-05
4.42089e-05
4.59274e-05
4.85238e-05
4.82943e-05
4.6284e-05
4.45989e-05
4.58739e-05
4.81505e-05
4.80848e-05
4.37726e-05
3.92247e-05
3.89065e-05
4.15442e-05
4.17655e-05
3.40591e-05
2.9969e-05
8.27592e-05
0.963185
0.963899
0.000181873
1.85013e-05
5.32652e-06
6.90538e-06
6.0658e-06
4.39746e-06
2.21353e-06
1.06368e-06
5.83711e-07
4.36088e-07
9.8575e-07
2.1527e-05
0.00259088
0.00109254
2.85811e-05
1.14581e-05
1.24151e-05
1.21546e-05
1.15606e-05
1.0689e-05
6.79838e-06
4.57521e-06
3.59053e-06
2.68163e-06
2.07466e-06
1.87137e-06
2.08023e-06
2.46597e-06
2.9136e-06
3.38839e-06
3.89205e-06
4.44798e-06
5.09273e-06
5.86594e-06
6.80862e-06
7.96583e-06
9.32431e-06
1.11549e-05
1.08605e-05
1.84116e-05
4.50624e-05
4.66954e-05
4.69321e-05
4.55362e-05
4.37601e-05
4.4212e-05
4.61171e-05
4.85009e-05
4.73386e-05
4.55941e-05
4.52278e-05
4.78793e-05
5.06003e-05
4.83566e-05
4.30281e-05
3.92614e-05
4.15315e-05
4.30147e-05
4.02416e-05
2.91928e-05
3.93359e-05
0.0157995
0.999567
0.00467071
3.49418e-05
6.1521e-06
6.07058e-06
5.65629e-06
3.72621e-06
1.86045e-06
8.78931e-07
5.13465e-07
3.72956e-07
6.2469e-07
9.58388e-06
0.000914102
0.00245665
5.1346e-05
1.14586e-05
1.23325e-05
1.27347e-05
1.23735e-05
1.15024e-05
7.46414e-06
4.89666e-06
3.93266e-06
3.02553e-06
2.29289e-06
2.04447e-06
2.25585e-06
2.66137e-06
3.13056e-06
3.62344e-06
4.14016e-06
4.70604e-06
5.35623e-06
6.13056e-06
7.07058e-06
8.21038e-06
9.59086e-06
1.11762e-05
1.32677e-05
1.30363e-05
2.09014e-05
4.44393e-05
4.51335e-05
4.6826e-05
4.70401e-05
4.56053e-05
4.37837e-05
4.43896e-05
4.68174e-05
4.77562e-05
4.64677e-05
4.44627e-05
4.57381e-05
5.0043e-05
5.29497e-05
4.81163e-05
4.24016e-05
4.06276e-05
4.45641e-05
4.48267e-05
3.42904e-05
3.1481e-05
0.000195467
0.996251
0.576205
9.30964e-05
1.01948e-05
5.10201e-06
5.2004e-06
3.0417e-06
1.55458e-06
7.32819e-07
4.50227e-07
3.22016e-07
4.49061e-07
4.238e-06
0.000309428
0.00398616
9.05973e-05
1.22558e-05
1.23662e-05
1.33684e-05
1.32442e-05
1.23939e-05
8.26722e-06
5.27345e-06
4.22423e-06
3.41019e-06
2.56283e-06
2.24199e-06
2.45794e-06
2.88802e-06
3.38195e-06
3.89439e-06
4.42425e-06
4.99587e-06
5.64887e-06
6.42279e-06
7.35911e-06
8.48966e-06
9.84563e-06
1.14539e-05
1.32602e-05
1.55807e-05
1.54366e-05
2.34196e-05
4.47848e-05
4.44239e-05
4.50764e-05
4.69645e-05
4.69427e-05
4.54033e-05
4.41518e-05
4.49627e-05
4.68982e-05
4.70367e-05
4.51537e-05
4.37389e-05
4.64535e-05
5.19159e-05
5.29663e-05
4.68927e-05
4.13808e-05
4.46199e-05
4.68358e-05
4.15534e-05
2.72979e-05
4.83159e-05
0.283835
0.997172
0.000704329
2.05076e-05
4.49172e-06
4.58619e-06
2.47965e-06
1.26968e-06
6.18071e-07
3.90703e-07
2.81238e-07
3.43295e-07
2.12035e-06
9.86196e-05
0.00433305
0.000190167
1.54437e-05
1.28938e-05
1.40316e-05
1.4127e-05
1.33362e-05
9.19113e-06
5.76122e-06
4.49143e-06
3.79603e-06
2.91513e-06
2.48056e-06
2.69345e-06
3.1582e-06
3.68254e-06
4.21487e-06
4.75205e-06
5.32093e-06
5.97166e-06
6.74279e-06
7.67602e-06
8.79858e-06
1.01371e-05
1.17139e-05
1.35396e-05
1.55453e-05
1.80485e-05
1.80091e-05
2.59089e-05
4.53192e-05
4.50196e-05
4.4395e-05
4.50855e-05
4.69131e-05
4.68485e-05
4.56093e-05
4.45284e-05
4.5263e-05
4.75001e-05
4.58428e-05
4.35121e-05
4.3545e-05
4.72963e-05
5.36447e-05
5.02513e-05
4.40053e-05
4.30509e-05
4.68953e-05
4.52753e-05
3.05517e-05
3.30415e-05
0.00140778
0.999044
0.0463141
4.18884e-05
4.94419e-06
3.7931e-06
2.0249e-06
1.00689e-06
5.31186e-07
3.34675e-07
2.47645e-07
2.81688e-07
1.21759e-06
3.61598e-05
0.00316137
0.000434338
2.21086e-05
1.36874e-05
1.45743e-05
1.49586e-05
1.4303e-05
1.02148e-05
6.40621e-06
4.81101e-06
4.15233e-06
3.36872e-06
2.8028e-06
2.97735e-06
3.49459e-06
4.05636e-06
4.59704e-06
5.11752e-06
5.67391e-06
6.31996e-06
7.09306e-06
8.02486e-06
9.13238e-06
1.04577e-05
1.20106e-05
1.37983e-05
1.58194e-05
1.7985e-05
2.06134e-05
2.06909e-05
2.83113e-05
4.52945e-05
4.57062e-05
4.51347e-05
4.4485e-05
4.49607e-05
4.6868e-05
4.69363e-05
4.56476e-05
4.48536e-05
4.64987e-05
4.76072e-05
4.44209e-05
4.18116e-05
4.3576e-05
4.88958e-05
5.31122e-05
4.65062e-05
4.12315e-05
4.39729e-05
4.534e-05
3.68346e-05
2.72639e-05
9.59972e-05
0.940429
0.924044
0.000162807
7.65231e-06
2.92165e-06
1.65712e-06
7.9253e-07
4.54784e-07
2.84631e-07
2.20294e-07
2.4404e-07
7.6131e-07
1.70146e-05
0.00166549
0.00100837
3.55216e-05
1.44902e-05
1.486e-05
1.56938e-05
1.53122e-05
1.13341e-05
7.25473e-06
5.28909e-06
4.52251e-06
3.89527e-06
3.27206e-06
3.34391e-06
3.92137e-06
4.52398e-06
5.02586e-06
5.5254e-06
6.08034e-06
6.73456e-06
7.5116e-06
8.42612e-06
9.5076e-06
1.08074e-05
1.23383e-05
1.40952e-05
1.60686e-05
1.82471e-05
2.05233e-05
2.32089e-05
2.34078e-05
3.05809e-05
4.46562e-05
4.50339e-05
4.58312e-05
4.50618e-05
4.42058e-05
4.50805e-05
4.69847e-05
4.61367e-05
4.52097e-05
4.59811e-05
4.77722e-05
4.73548e-05
4.321e-05
4.07656e-05
4.40553e-05
5.0316e-05
4.8591e-05
4.17643e-05
3.97376e-05
4.39932e-05
4.30145e-05
2.6956e-05
3.76496e-05
0.0421136
0.998005
0.00250163
1.41604e-05
2.23662e-06
1.34189e-06
6.28761e-07
3.81937e-07
2.44813e-07
1.98678e-07
2.15945e-07
5.29575e-07
8.34347e-06
0.000738134
0.00198152
5.85798e-05
1.55726e-05
1.51567e-05
1.6392e-05
1.64115e-05
1.25862e-05
8.3685e-06
6.0394e-06
5.0324e-06
4.44751e-06
3.93152e-06
3.86096e-06
4.46723e-06
5.06671e-06
5.55323e-06
6.05695e-06
6.63613e-06
7.31143e-06
8.05457e-06
8.91767e-06
9.9615e-06
1.12107e-05
1.27175e-05
1.44211e-05
1.63566e-05
1.84772e-05
2.07628e-05
2.30975e-05
2.5774e-05
2.60885e-05
3.26813e-05
4.65224e-05
4.4333e-05
4.50655e-05
4.5784e-05
4.49467e-05
4.43237e-05
4.58843e-05
4.64227e-05
4.58782e-05
4.50257e-05
4.68502e-05
4.9126e-05
4.70568e-05
4.2226e-05
4.10384e-05
4.54286e-05
5.14535e-05
4.45437e-05
3.70153e-05
4.23358e-05
4.585e-05
3.16948e-05
2.64626e-05
0.000603883
0.996138
0.176539
3.13332e-05
2.00474e-06
1.04534e-06
5.02876e-07
3.14383e-07
2.11985e-07
1.80466e-07
1.95079e-07
4.04168e-07
4.27928e-06
0.000246845
0.00292794
0.000102425
1.81731e-05
1.5891e-05
1.71352e-05
1.76453e-05
1.40837e-05
9.8387e-06
7.2089e-06
5.84139e-06
5.0856e-06
4.75483e-06
4.68424e-06
5.12615e-06
5.72909e-06
6.25212e-06
6.77229e-06
7.44058e-06
8.02786e-06
8.65294e-06
9.4324e-06
1.04346e-05
1.16687e-05
1.3138e-05
1.47919e-05
1.66724e-05
1.87476e-05
2.0971e-05
2.33122e-05
2.56478e-05
2.82487e-05
2.86663e-05
3.32175e-05
4.67072e-05
4.59337e-05
4.42106e-05
4.50367e-05
4.58584e-05
4.5179e-05
4.48146e-05
4.5716e-05
4.65863e-05
4.52222e-05
4.48849e-05
4.79519e-05
5.10025e-05
4.66773e-05
4.11261e-05
4.33427e-05
5.08146e-05
4.93403e-05
3.92913e-05
4.04068e-05
4.69455e-05
3.92071e-05