# Wall heat-flux
# Time        	patch         	min           	max           	integral      
12300         	base	-1.226977e+04	3.515405e+04	3.929712e+02
