# Wall heat-flux
# Time        	patch         	min           	max           	integral      
500           	base	-2.605485e+06	-3.616829e+04	-8.655416e+03
