# wallShearStress  FACE_DATA 80
# x  y  z  wallShearStress_x  wallShearStress_y  wallShearStress_z
-0.275972 0 0.05 3.86265e-18 1.07012e-15 0
-0.22368 0 0.05 1.69621e-18 2.93192e-14 0
-0.181118 0 0.05 -1.35405e-17 1.71173e-14 0
-0.146477 0 0.05 7.97222e-18 -4.30607e-14 0
-0.118282 0 0.05 1.24806e-18 3.95168e-14 0
-0.0953328 0 0.05 -7.30487e-18 -2.34131e-14 0
-0.0766546 0 0.05 1.80771e-18 7.41291e-15 0
-0.061452 0 0.05 -1.44279e-17 -1.35693e-14 0
-0.0490784 0 0.05 -1.61386e-18 -2.31752e-14 0
-0.0390072 0 0.05 1.95722e-17 -1.77862e-14 0
-0.0308101 0 0.05 -1.31074e-17 1.80743e-15 0
-0.0241383 0 0.05 1.85484e-17 -2.72109e-14 0
-0.0187081 0 0.05 -1.60395e-17 1.14623e-14 0
-0.0142883 0 0.05 -1.71642e-17 -3.06105e-14 0
-0.0106909 0 0.05 -2.77693e-18 -5.59558e-15 0
-0.00776298 0 0.05 -1.47246e-13 -2.71709e-14 0
-0.00537988 0 0.05 -4.60326e-11 -5.24582e-11 0
-0.00344023 0 0.05 -7.43731e-08 -2.5565e-06 0
-0.00186151 0 0.05 -0.000435597 -0.00013883 0
-0.000576565 0 0.05 -0.0370089 -0.525644 0
0.000597825 0 0.05 -262.209 -25.9872 0
0.00183445 0 0.05 -91.1686 -2.8589 0
0.00315586 0 0.05 -55.3395 -0.566881 0
0.00456785 0 0.05 -41.523 -0.211067 0
0.00607663 0 0.05 -34.3655 -0.143229 0
0.00768886 0 0.05 -29.3631 -0.0872318 0
0.00941159 0 0.05 -25.9262 -0.0567267 0
0.0112525 0 0.05 -23.4194 -0.0399773 0
0.0132195 0 0.05 -21.5625 -0.0266385 0
0.0153214 0 0.05 -20.2514 -0.0173192 0
0.0175673 0 0.05 -19.4177 -0.00899729 0
0.0199672 0 0.05 -18.9682 -0.00396098 0
0.0225317 0 0.05 -18.8759 0.00203695 0
0.025272 0 0.05 -19.0759 0.00394264 0
0.0282001 0 0.05 -19.4809 0.00434543 0
0.031329 0 0.05 -19.7361 0.00516602 0
0.0346723 0 0.05 -19.8808 0.00140617 0
0.0382449 0 0.05 -19.8688 0.000240121 0
0.0420623 0 0.05 -19.7566 -0.000750518 0
0.0461415 0 0.05 -19.55 -0.00128697 0
0.0505002 0 0.05 -19.2955 -0.001338 0
0.0551578 0 0.05 -19.0235 -0.000962245 0
0.0601347 0 0.05 -18.7212 -0.000854394 0
0.0654528 0 0.05 -18.4183 -0.00202699 0
0.0711354 0 0.05 -18.1292 -0.00179234 0
0.0772076 0 0.05 -17.8543 -0.00102114 0
0.083696 0 0.05 -17.5717 -0.00105733 0
0.0906293 0 0.05 -17.2962 -0.00144705 0
0.0980379 0 0.05 -17.0331 -0.00119016 0
0.105955 0 0.05 -16.7802 -0.000623338 0
0.114413 0 0.05 -16.5331 -0.000657704 0
0.123453 0 0.05 -16.2918 -0.00077102 0
0.133112 0 0.05 -16.0658 -0.000624204 0
0.143433 0 0.05 -15.8489 -0.000554841 0
0.154461 0 0.05 -15.6385 -0.000528723 0
0.166244 0 0.05 -15.4377 -0.000526656 0
0.178837 0 0.05 -15.2427 -0.000439041 0
0.192293 0 0.05 -15.0546 -0.000333694 0
0.206671 0 0.05 -14.8728 -0.000336807 0
0.222034 0 0.05 -14.6954 -0.000332338 0
0.238451 0 0.05 -14.5251 -0.000287811 0
0.255993 0 0.05 -14.3595 -0.000270935 0
0.274738 0 0.05 -14.1985 -0.000220286 0
0.294767 0 0.05 -14.0456 -0.000162531 0
0.31617 0 0.05 -13.8974 -0.000143203 0
0.33904 0 0.05 -13.752 -0.000109441 0
0.363478 0 0.05 -13.6115 -4.83373e-05 0
0.389591 0 0.05 -13.4736 -2.05556e-05 0
0.417495 0 0.05 -13.3379 -1.32757e-05 0
0.447311 0 0.05 -13.2046 3.09088e-05 0
0.479171 0 0.05 -13.0727 6.14155e-05 0
0.513216 0 0.05 -12.9428 0.000110174 0
0.549594 0 0.05 -12.8158 0.000167804 0
0.588466 0 0.05 -12.6897 0.000222134 0
0.630003 0 0.05 -12.5635 0.000267328 0
0.674386 0 0.05 -12.4385 0.000281879 0
0.721813 0 0.05 -12.3164 0.000325383 0
0.772492 0 0.05 -12.1904 0.000357129 0
0.826645 0 0.05 -12.0712 0.000418038 0
0.884509 0 0.05 -11.8878 0.000485883 0
