# p  FACE_DATA 317
# x  y  z  p
-2.24217 0 0.27 23911.3
-2.12942 0 0.27 23884.1
-2.02231 0 0.27 23857.3
-1.92055 0 0.27 23846.9
-1.82389 0 0.27 23844.3
-1.73207 0 0.27 23839.3
-1.64485 0 0.27 23831.5
-1.562 0 0.27 23826.8
-1.48331 0 0.27 23826.6
-1.40856 0 0.27 23824.4
-1.33756 0 0.27 23816.6
-1.27013 0 0.27 23802.5
-1.20608 0 0.27 23784
-1.14539 0 0.27 23762.4
-1.08787 0 0.27 23743
-1.03323 0 0.27 23725.7
-0.981322 0 0.27 23710.6
-0.932014 0 0.27 23698.5
-0.885173 0 0.27 23689.2
-0.84068 0 0.27 23682.2
-0.798416 0 0.27 23677.4
-0.758473 0 0.27 23674.4
-0.720912 0 0.27 23672.7
-0.685558 0 0.27 23672
-0.652245 0 0.27 23671.9
-0.620811 0 0.27 23671.8
-0.591171 0 0.27 23671.7
-0.563165 0 0.27 23671.9
-0.536572 0 0.27 23672.9
-0.51125 0 0.27 23674.5
-0.487059 0 0.27 23676.9
-0.463863 0 0.27 23680.3
-0.441526 0 0.27 23684.8
-0.419915 0 0.27 23689.9
-0.398896 0 0.27 23695.5
-0.378338 0 0.27 23701.4
-0.358104 0 0.27 23707.2
-0.33806 0 0.27 23710.7
-0.318069 0 0.27 23738.8
-0.296809 0 0.27 23756.8
-0.275112 0 0.27 23739.3
-0.255001 0 0.27 23735.4
-0.23636 0 0.27 23762.7
-0.219081 0 0.27 23753.8
-0.203066 0 0.27 23731.3
-0.188221 0 0.27 23728.8
-0.174462 0 0.27 23726.2
-0.161708 0 0.27 23726.2
-0.149886 0 0.27 23727
-0.138929 0 0.27 23726.4
-0.128773 0 0.27 23726.6
-0.119359 0 0.27 23725.8
-0.110632 0 0.27 23725.7
-0.102544 0 0.27 23725.7
-0.0950472 0 0.27 23726.4
-0.0880983 0 0.27 23726.5
-0.0816572 0 0.27 23726.8
-0.0756869 0 0.27 23725.8
-0.070153 0 0.27 23737
-0.0650234 0 0.27 24168.1
-0.0602687 0 0.27 29800.5
-0.0558616 0 0.27 39702.3
-0.0517765 0 0.27 44230.9
-0.0479899 0 0.27 46786.1
-0.04448 0 0.27 48550.4
-0.0412265 0 0.27 49663
-0.0382106 0 0.27 50621.6
-0.0354151 0 0.27 51431.1
-0.0328237 0 0.27 52081.6
-0.0304215 0 0.27 52666.6
-0.0281948 0 0.27 53189.1
-0.0261306 0 0.27 53657.6
-0.0242171 0 0.27 54077.4
-0.0224431 0 0.27 54456.9
-0.0207985 0 0.27 54802.6
-0.0192738 0 0.27 55116.9
-0.0178602 0 0.27 55403.3
-0.0165496 0 0.27 55663.3
-0.0153345 0 0.27 55899.9
-0.0142077 0 0.27 56115.4
-0.0131629 0 0.27 56312
-0.0121939 0 0.27 56491.9
-0.0112952 0 0.27 56657.5
-0.0104616 0 0.27 56810.4
-0.0096884 0 0.27 56952.3
-0.00897103 0 0.27 57084.6
-0.00830536 0 0.27 57208.4
-0.00768758 0 0.27 57324.8
-0.0071141 0 0.27 57434.2
-0.00658165 0 0.27 57537.7
-0.00608714 0 0.27 57635.7
-0.00562772 0 0.27 57728.6
-0.00520074 0 0.27 57816.8
-0.00480375 0 0.27 57900.5
-0.00443446 0 0.27 57979.8
-0.00409073 0 0.27 58055.1
-0.00377059 0 0.27 58124.9
-0.00347218 0 0.27 58198.6
-0.00319379 0 0.27 58262
-0.00293381 0 0.27 58323.1
-0.00269075 0 0.27 58381.2
-0.00246319 0 0.27 58436.2
-0.00224984 0 0.27 58488.6
-0.00204945 0 0.27 58538
-0.00186089 0 0.27 58585
-0.00168306 0 0.27 58629
-0.00151492 0 0.27 58671.1
-0.00135552 0 0.27 58710
-0.00120394 0 0.27 58747.3
-0.00105929 0 0.27 58781.3
-0.000920752 0 0.27 58813.9
-0.000787523 0 0.27 58842.6
-0.000658834 0 0.27 58869.2
-0.000533942 0 0.27 58891.5
-0.000412129 0 0.27 58907.5
-0.000292693 0 0.27 58923.8
-0.000174943 0 0.27 58901.8
-5.82025e-05 0 0.27 59119
6.0278e-05 2.68374e-05 0.27 58373
0.000182584 8.12915e-05 0.27 58606.5
0.000308438 0.000137325 0.27 58561.6
0.000437939 0.000194983 0.27 58542.2
0.00057119 0.00025431 0.27 58523.5
0.000708293 0.000315353 0.27 58516.2
0.000849358 0.000378158 0.27 58519.6
0.000994492 0.000442776 0.27 58528.4
0.00114381 0.000509256 0.27 58544.7
0.00129743 0.000577649 0.27 58564.1
0.00145545 0.000648007 0.27 58589.2
0.00161801 0.000720386 0.27 58617.4
0.00178523 0.000794839 0.27 58650.2
0.00195724 0.000871423 0.27 58685.9
0.00213417 0.000950195 0.27 58725.5
0.00231614 0.00103122 0.27 58767.9
0.0025033 0.00111455 0.27 58814
0.00269579 0.00120024 0.27 58862.8
0.00289374 0.00128838 0.27 58915
0.00309731 0.00137901 0.27 58970.1
0.00330663 0.00147221 0.27 59028.5
0.00352187 0.00156804 0.27 59089.9
0.00374317 0.00166657 0.27 59155.5
0.0039707 0.00176788 0.27 59223.3
0.00420463 0.00187202 0.27 59294.1
0.00444512 0.0019791 0.27 59368
0.00469233 0.00208916 0.27 59445.3
0.00494645 0.0022023 0.27 59525.9
0.00520763 0.00231859 0.27 59610
0.00547608 0.00243811 0.27 59697.5
0.00575197 0.00256094 0.27 59788.5
0.00603549 0.00268717 0.27 59883
0.00632683 0.00281688 0.27 59981.2
0.00662618 0.00295016 0.27 60083.1
0.00693375 0.0030871 0.27 60188.8
0.00724974 0.0032278 0.27 60298.4
0.00757435 0.00337232 0.27 60412.1
0.0079078 0.00352077 0.27 60529.8
0.00825029 0.00367327 0.27 60651.8
0.00860204 0.00382988 0.27 60778.1
0.00896328 0.00399071 0.27 60909
0.00933422 0.00415586 0.27 61044.7
0.0097151 0.00432544 0.27 61185.1
0.0101061 0.00449954 0.27 61330.6
0.0105076 0.00467828 0.27 61481.4
0.0109197 0.00486175 0.27 61637.5
0.0113426 0.00505007 0.27 61799.4
0.0117768 0.00524333 0.27 61967
0.0122222 0.00544166 0.27 62141
0.0126792 0.00564515 0.27 62321.2
0.0131482 0.00585394 0.27 62508.2
0.0136292 0.00606812 0.27 62702
0.0141227 0.00628781 0.27 62903.1
0.0146288 0.00651313 0.27 63111.9
0.0151477 0.00674419 0.27 63328.2
0.0156799 0.00698113 0.27 63552.8
0.0162254 0.00722403 0.27 63785.5
0.0167847 0.00747303 0.27 64026.7
0.017358 0.00772826 0.27 64276.6
0.0179454 0.00798982 0.27 64535.5
0.0185474 0.00825783 0.27 64803.4
0.0191641 0.00853242 0.27 65080.7
0.0197959 0.00881371 0.27 65367.5
0.0204431 0.00910183 0.27 65663.9
0.0211057 0.00939688 0.27 65970.2
0.0217843 0.00969898 0.27 66286.6
0.0224789 0.0100083 0.27 66613.2
0.02319 0.0103248 0.27 66949.9
0.0239176 0.0106488 0.27 67297.2
0.0246623 0.0109804 0.27 67654.5
0.025424 0.0113195 0.27 68022.1
0.0262032 0.0116664 0.27 68400.1
0.0270001 0.0120212 0.27 68788.6
0.0278149 0.012384 0.27 69187.5
0.0286479 0.0127549 0.27 69597.2
0.0294992 0.0131339 0.27 70017.4
0.0303692 0.0135212 0.27 70448.4
0.0312581 0.013917 0.27 70889.9
0.0321659 0.0143213 0.27 71341.9
0.0330931 0.014734 0.27 71804.2
0.0340398 0.0151555 0.27 72276.8
0.0350062 0.0155858 0.27 72759.1
0.0359924 0.0160249 0.27 73251.2
0.0369987 0.0164729 0.27 73753.4
0.0380251 0.0169299 0.27 74264.9
0.0390719 0.0173959 0.27 74785.4
0.0401391 0.0178711 0.27 75314.8
0.041227 0.0183554 0.27 75851.9
0.0423356 0.018849 0.27 76398
0.043465 0.0193519 0.27 76952.1
0.0446154 0.0198641 0.27 77512.6
0.0457867 0.0203856 0.27 78079.6
0.046979 0.0209164 0.27 78651.1
0.0481924 0.0214567 0.27 79226.5
0.0494267 0.0220063 0.27 79803.8
0.0506823 0.0225652 0.27 80380.9
0.0519588 0.0231335 0.27 80956
0.0532563 0.0237113 0.27 81526.5
0.0545749 0.0242983 0.27 82091.3
0.0559142 0.0248946 0.27 82647.5
0.0572744 0.0255002 0.27 83194.3
0.0586552 0.0261149 0.27 83729.9
0.0600565 0.0267388 0.27 84254.1
0.0614781 0.0273718 0.27 84767.2
0.0629198 0.0280137 0.27 85268.6
0.0643815 0.0286645 0.27 85761.2
0.0658629 0.029324 0.27 86244.7
0.0673636 0.0299922 0.27 86721.9
0.0688836 0.030669 0.27 87193.6
0.0704223 0.0313541 0.27 87661.7
0.0719795 0.0320474 0.27 88128.4
0.0735549 0.0327488 0.27 88593.4
0.075148 0.0334581 0.27 89057.9
0.0767585 0.0341751 0.27 89522.5
0.0783859 0.0348996 0.27 89985.5
0.0800297 0.0356315 0.27 90447.3
0.0816895 0.0363706 0.27 90906.8
0.0833647 0.0371164 0.27 91356.8
0.085055 0.0378689 0.27 91796.8
0.0867595 0.0386278 0.27 92218.4
0.0884779 0.0393929 0.27 92618.7
0.0902095 0.0401639 0.27 92996.1
0.0919538 0.0409405 0.27 93349.4
0.09371 0.0417224 0.27 93678.3
0.0954776 0.0425094 0.27 93986.3
0.0972558 0.0433011 0.27 94278.4
0.0990439 0.0440972 0.27 94558.4
0.100841 0.0448975 0.27 94825.7
0.102647 0.0457015 0.27 95082.6
0.104461 0.046509 0.27 95347.1
0.106282 0.0473197 0.27 95604.8
0.108109 0.0481331 0.27 95877.3
0.109941 0.048949 0.27 96143.5
0.111779 0.0497671 0.27 96403.5
0.11362 0.0505868 0.27 96663.8
0.115464 0.051408 0.27 96946.7
0.117311 0.0522302 0.27 97206.4
0.11916 0.0530531 0.27 97440.5
0.121009 0.0538763 0.27 97703
0.122857 0.0546995 0.27 97927.8
0.124705 0.0555223 0.27 98116.3
0.126552 0.0563444 0.27 98289.9
0.128395 0.0571653 0.27 98444.8
0.130236 0.0579847 0.27 98579.7
0.132072 0.0588023 0.27 98698.3
0.133904 0.0596177 0.27 98802
0.13573 0.0604306 0.27 98880.5
0.137549 0.0612407 0.27 98931.8
0.139361 0.0620475 0.27 98977.5
0.141165 0.0628508 0.27 99006.8
0.14296 0.0636503 0.27 99099.6
0.144747 0.0644455 0.27 99192.9
0.146523 0.0652363 0.27 99294.6
0.148288 0.0660222 0.27 99415.9
0.150042 0.0668031 0.27 99549.1
0.151784 0.0675785 0.27 99731.4
0.153513 0.0683483 0.27 99890.5
0.155228 0.0691121 0.27 100078
0.15693 0.0698698 0.27 100298
0.158617 0.070621 0.27 100507
0.160289 0.0713654 0.27 100733
0.161946 0.072103 0.27 100939
0.163586 0.0728334 0.27 101128
0.165211 0.0735564 0.27 101323
0.166817 0.0742718 0.27 101495
0.168406 0.0749795 0.27 101661
0.169978 0.0756793 0.27 101815
0.171532 0.0763709 0.27 101929
0.173067 0.0770543 0.27 102028
0.174583 0.0777293 0.27 102096
0.17608 0.0783958 0.27 102181
0.177557 0.0790535 0.27 102268
0.179014 0.0797025 0.27 102274
0.180452 0.0803425 0.27 102266
0.18187 0.0809736 0.27 102304
0.183266 0.0815956 0.27 102335
0.184643 0.0822085 0.27 102406
0.185999 0.0828122 0.27 102438
0.187334 0.0834066 0.27 102462
0.188648 0.0839917 0.27 102522
0.189942 0.0845675 0.27 102555
0.191214 0.0851339 0.27 102642
0.192465 0.085691 0.27 102694
0.193695 0.0862387 0.27 102777
0.194904 0.086777 0.27 102876
0.196093 0.0873059 0.27 102974
0.197259 0.0878254 0.27 103067
0.198405 0.0883357 0.27 103173
0.19953 0.0888366 0.27 103310
0.200635 0.0893284 0.27 103479
0.201718 0.0898108 0.27 103623
0.202782 0.0902841 0.27 103765
0.203824 0.0907483 0.27 103927
0.204846 0.0912035 0.27 104046
0.205848 0.0916496 0.27 104200
0.206831 0.0920869 0.27 104376
0.207793 0.0925153 0.27 104536
0.208735 0.092935 0.27 104728
0.209658 0.093346 0.27 104603
