# wallShearStress  FACE_DATA 317
# x  y  z  wallShearStress_x  wallShearStress_y  wallShearStress_z
-2.24217 0 0.27 -172.921 -0.322159 0
-2.12942 0 0.27 -173.07 -0.000269871 0
-2.02231 0 0.27 -166.917 -9.91339e-05 0
-1.92055 0 0.27 -162.344 4.68594e-05 0
-1.82389 0 0.27 -158.878 -1.46008e-05 0
-1.73207 0 0.27 -156.019 -0.00011333 0
-1.64485 0 0.27 -153.59 -8.26665e-05 0
-1.562 0 0.27 -151.522 -5.47676e-05 0
-1.48331 0 0.27 -149.746 -1.65705e-05 0
-1.40856 0 0.27 -148.179 -2.21398e-05 0
-1.33756 0 0.27 -146.795 -4.42049e-05 0
-1.27013 0 0.27 -145.539 -4.89368e-05 0
-1.20608 0 0.27 -144.406 -5.58836e-05 0
-1.14539 0 0.27 -143.373 -5.60751e-05 0
-1.08787 0 0.27 -142.435 -3.99465e-05 0
-1.03323 0 0.27 -141.584 -2.6614e-05 0
-0.981322 0 0.27 -140.82 -9.8004e-06 0
-0.932014 0 0.27 -140.122 1.16283e-06 0
-0.885173 0 0.27 -139.494 3.50079e-06 0
-0.84068 0 0.27 -138.919 -1.87509e-06 0
-0.798416 0 0.27 -138.398 -2.96562e-06 0
-0.758473 0 0.27 -137.924 -2.98352e-05 0
-0.720912 0 0.27 -137.494 -0.000109791 0
-0.685558 0 0.27 -137.102 -0.000184697 0
-0.652245 0 0.27 -136.745 -0.00020729 0
-0.620811 0 0.27 -136.415 -0.000174102 0
-0.591171 0 0.27 -136.111 -0.000125705 0
-0.563165 0 0.27 -135.829 -0.000106315 0
-0.536572 0 0.27 -135.568 -0.000173715 0
-0.51125 0 0.27 -135.324 -0.000334218 0
-0.487059 0 0.27 -135.098 -0.000451449 0
-0.463863 0 0.27 -134.888 -0.000472146 0
-0.441526 0 0.27 -134.693 -0.000664284 0
-0.419915 0 0.27 -134.51 -0.00128813 0
-0.398896 0 0.27 -134.336 -0.00118351 0
-0.378338 0 0.27 -134.171 -0.00105264 0
-0.358104 0 0.27 -134.006 -0.0011427 0
-0.33806 0 0.27 -133.873 -0.000707304 0
-0.318069 0 0.27 -134.07 -0.000259994 0
-0.296809 0 0.27 -164.534 -0.00172334 0
-0.275112 0 0.27 -133.361 -0.00268375 0
-0.255001 0 0.27 -133.816 -0.0028104 0
-0.23636 0 0.27 -145.342 -0.00323986 2.87787e-26
-0.219081 0 0.27 -140.147 -0.00383957 -4.79382e-26
-0.203066 0 0.27 -133.302 -0.0033646 -2.19084e-26
-0.188221 0 0.27 -132.581 -0.00259387 0
-0.174462 0 0.27 -131.857 -0.00118807 0
-0.161708 0 0.27 -131.791 -0.000564008 0
-0.149886 0 0.27 -131.804 0.00096492 0
-0.138929 0 0.27 -131.782 0.00268221 0
-0.128773 0 0.27 -131.728 0.00430319 0
-0.119359 0 0.27 -131.699 0.00581023 0
-0.110632 0 0.27 -131.672 0.00695996 -1.23074e-27
-0.102544 0 0.27 -131.638 0.00799412 0
-0.0950472 0 0.27 -131.595 0.00884881 0
-0.0880983 0 0.27 -131.561 0.00961053 0
-0.0816572 0 0.27 -131.529 0.0100894 0
-0.0756869 0 0.27 -131.501 0.0103055 0
-0.070153 0 0.27 -131.457 0.00979639 0
-0.0650234 0 0.27 -129.942 0.00881159 0
-0.0602687 0 0.27 -98.993 -0.00992265 0
-0.0558616 0 0.27 -9.83763 -0.0471658 0
-0.0517765 0 0.27 14.343 0.0162601 2.58886e-27
-0.0479899 0 0.27 22.613 -0.00505246 1.03475e-28
-0.04448 0 0.27 25.1703 -0.00159139 0
-0.0412265 0 0.27 26.3593 -0.00284957 0
-0.0382106 0 0.27 26.7959 -0.00293699 5.2491e-29
-0.0354151 0 0.27 26.8372 -0.00394444 0
-0.0328237 0 0.27 27.3609 -0.001963 0
-0.0304215 0 0.27 27.9694 -0.00156412 0
-0.0281948 0 0.27 28.4695 -0.00281303 0
-0.0261306 0 0.27 28.9465 -0.0021536 0
-0.0242171 0 0.27 29.4515 -0.00150463 0
-0.0224431 0 0.27 29.9457 -0.000679334 0
-0.0207985 0 0.27 30.3984 -3.74735e-05 -2.29893e-29
-0.0192738 0 0.27 30.8074 0.000776534 -7.88582e-29
-0.0178602 0 0.27 31.1722 0.00155938 0
-0.0165496 0 0.27 31.5003 0.0053396 0
-0.0153345 0 0.27 31.8046 0.00642359 0
-0.0142077 0 0.27 32.0985 0.00495178 0
-0.0131629 0 0.27 32.4038 0.00755268 -5.65269e-28
-0.0121939 0 0.27 32.7293 0.00829798 0
-0.0112952 0 0.27 33.0746 0.00714792 0
-0.0104616 0 0.27 33.4556 0.00966253 -8.53592e-28
-0.0096884 0 0.27 33.8893 0.0109162 0
-0.00897103 0 0.27 34.3398 0.00844366 -1.71935e-27
-0.00830536 0 0.27 34.7948 0.00838989 7.97936e-28
-0.00768758 0 0.27 35.2354 0.00859704 8.79397e-28
-0.0071141 0 0.27 35.6519 0.00860185 -8.84553e-28
-0.00658165 0 0.27 36.0388 0.00843654 0
-0.00608714 0 0.27 36.393 0.00800141 -1.65389e-27
-0.00562772 0 0.27 36.7121 0.0073531 6.21096e-28
-0.00520074 0 0.27 37.0074 0.00665958 5.49561e-28
-0.00480375 0 0.27 37.2808 0.00585029 0
-0.00443446 0 0.27 37.5104 0.00479029 -1.17186e-27
-0.00409073 0 0.27 37.6894 0.00352097 -1.32969e-27
-0.00377059 0 0.27 37.8159 0.00255786 0
-0.00347218 0 0.27 37.94 0.000612917 1.71296e-28
-0.00319379 0 0.27 38.0042 0.000702154 -6.88514e-29
-0.00293381 0 0.27 37.9793 2.51967e-05 7.93865e-29
-0.00269075 0 0.27 37.9295 -0.000572886 0
-0.00246319 0 0.27 37.8396 -0.00123038 -7.79539e-28
-0.00224984 0 0.27 37.6963 -0.00245703 0
-0.00204945 0 0.27 37.5026 -0.00282222 1.99583e-27
-0.00186089 0 0.27 37.2581 -0.00314345 8.78742e-28
-0.00168306 0 0.27 36.9748 -0.00352348 -9.65893e-28
-0.00151492 0 0.27 36.6453 -0.00346129 -2.69428e-29
-0.00135552 0 0.27 36.2564 -0.00348038 -8.26305e-28
-0.00120394 0 0.27 35.7789 -0.00280686 -1.56795e-27
-0.00105929 0 0.27 35.2072 -0.00238242 3.15822e-27
-0.000920752 0 0.27 34.515 -0.00156392 -1.58245e-27
-0.000787523 0 0.27 33.6943 -0.000108527 -1.35535e-26
-0.000658834 0 0.27 32.7128 0.00197395 0
-0.000533942 0 0.27 31.4324 0.00574412 1.42327e-27
-0.000412129 0 0.27 29.7179 0.0114821 -1.52332e-25
-0.000292693 0 0.27 26.9145 0.0201305 0
-0.000174943 0 0.27 23.3793 0.0126207 -2.59901e-25
-5.82025e-05 0 0.27 12.0707 0.126693 0
6.0278e-05 2.68374e-05 0.27 10.2714 4.47004 1.24892e-20
0.000182584 8.12915e-05 0.27 19.7959 8.8024 1.01871e-21
0.000308438 0.000137325 0.27 23.1071 10.2564 4.79994e-21
0.000437939 0.000194983 0.27 26.002 11.5547 1.23663e-26
0.00057119 0.00025431 0.27 28.144 12.5106 4.50626e-26
0.000708293 0.000315353 0.27 29.7775 13.2401 0
0.000849358 0.000378158 0.27 31.1165 13.8386 2.64398e-21
0.000994492 0.000442776 0.27 32.188 14.3166 -2.35394e-21
0.00114381 0.000509256 0.27 33.1191 14.7316 0
0.00129743 0.000577649 0.27 33.9199 15.0886 0
0.00145545 0.000648007 0.27 34.6436 15.4121 0
0.00161801 0.000720386 0.27 35.2979 15.7033 -1.71645e-21
0.00178523 0.000794839 0.27 35.8878 15.9647 2.34672e-28
0.00195724 0.000871423 0.27 36.4256 16.2053 8.00631e-22
0.00213417 0.000950195 0.27 36.9235 16.4264 -2.52935e-26
0.00231614 0.00103122 0.27 37.4058 16.6432 3.02776e-21
0.0025033 0.00111455 0.27 37.8326 16.8285 2.90957e-21
0.00269579 0.00120024 0.27 38.2109 16.9999 0
0.00289374 0.00128838 0.27 38.6051 17.175 -1.33786e-21
0.00309731 0.00137901 0.27 38.9715 17.3382 2.53482e-21
0.00330663 0.00147221 0.27 39.2586 17.4652 1.77672e-27
0.00352187 0.00156804 0.27 39.5361 17.591 -1.34514e-21
0.00374317 0.00166657 0.27 39.8068 17.7103 2.23356e-26
0.0039707 0.00176788 0.27 40.0425 17.8145 3.61366e-21
0.00420463 0.00187202 0.27 40.2528 17.9069 2.3266e-21
0.00444512 0.0019791 0.27 40.4463 17.9947 -1.14792e-21
0.00469233 0.00208916 0.27 40.5981 18.0622 -1.23216e-28
0.00494645 0.0022023 0.27 40.715 18.1138 -1.20208e-21
0.00520763 0.00231859 0.27 40.8151 18.1593 2.19543e-21
0.00547608 0.00243811 0.27 40.8863 18.1907 2.41284e-21
0.00575197 0.00256094 0.27 40.9814 18.2298 3.79701e-21
0.00603549 0.00268717 0.27 41.0687 18.2706 0
0.00632683 0.00281688 0.27 41.113 18.2892 -3.74131e-21
0.00662618 0.00295016 0.27 41.1146 18.2927 -1.86831e-26
0.00693375 0.0030871 0.27 41.0808 18.2755 -5.38743e-21
0.00724974 0.0032278 0.27 41.0028 18.2458 -2.19507e-21
0.00757435 0.00337232 0.27 40.9123 18.1968 0
0.0079078 0.00352077 0.27 40.7429 18.1253 3.2985e-21
0.00825029 0.00367327 0.27 40.5573 18.045 -1.80467e-21
0.00860204 0.00382988 0.27 40.3844 17.9669 -3.28675e-21
0.00896328 0.00399071 0.27 40.1978 17.8803 2.63936e-21
0.00933422 0.00415586 0.27 39.996 17.7944 0
0.0097151 0.00432544 0.27 39.7092 17.6602 0
0.0101061 0.00449954 0.27 39.257 17.487 -1.45807e-26
0.0105076 0.00467828 0.27 38.9694 17.3149 8.58169e-21
0.0109197 0.00486175 0.27 38.4602 17.1081 3.72361e-26
0.0113426 0.00505007 0.27 37.8586 16.8364 -1.0393e-27
0.0117768 0.00524333 0.27 37.3348 16.6086 -3.01078e-21
0.0122222 0.00544166 0.27 36.7707 16.3528 -1.87014e-27
0.0126792 0.00564515 0.27 36.1677 16.0932 6.59047e-21
0.0131482 0.00585394 0.27 35.3447 15.7206 -2.85788e-21
0.0136292 0.00606812 0.27 34.4351 15.3107 2.93699e-26
0.0141227 0.00628781 0.27 33.515 14.9085 -4.12898e-21
0.0146288 0.00651313 0.27 32.3485 14.3876 -2.69111e-21
0.0151477 0.00674419 0.27 31.0809 13.8212 1.04211e-20
0.0156799 0.00698113 0.27 29.7087 13.2139 -5.08722e-21
0.0162254 0.00722403 0.27 28.2601 12.568 0
0.0167847 0.00747303 0.27 26.5132 11.8051 0
0.017358 0.00772826 0.27 24.7064 10.9872 8.45298e-21
0.0179454 0.00798982 0.27 22.82 10.1549 5.12432e-21
0.0185474 0.00825783 0.27 20.609 9.18384 0
0.0191641 0.00853242 0.27 18.3954 8.18195 -4.72283e-21
0.0197959 0.00881371 0.27 15.9805 7.09574 2.76498e-22
0.0204431 0.00910183 0.27 13.3641 5.93678 0
0.0211057 0.00939688 0.27 10.6476 4.72596 0
0.0217843 0.00969898 0.27 7.66661 3.40192 0
0.0224789 0.0100083 0.27 4.56356 2.00204 -2.61813e-26
0.02319 0.0103248 0.27 1.22177 0.673296 2.5747e-26
0.0239176 0.0106488 0.27 -2.17175 -1.03676 2.29351e-26
0.0246623 0.0109804 0.27 -5.80331 -2.59488 5.62446e-21
0.025424 0.0113195 0.27 -9.57406 -4.26864 -8.28429e-21
0.0262032 0.0116664 0.27 -13.6793 -6.10208 6.08056e-27
0.0270001 0.0120212 0.27 -17.8407 -7.94952 -2.34467e-21
0.0278149 0.012384 0.27 -21.8752 -9.72736 3.89751e-27
0.0286479 0.0127549 0.27 -26.3796 -11.7698 1.30234e-20
0.0294992 0.0131339 0.27 -30.8506 -13.7151 4.74497e-28
0.0303692 0.0135212 0.27 -35.2726 -15.733 9.28444e-27
0.0312581 0.013917 0.27 -40.0369 -17.8451 -1.02283e-26
0.0321659 0.0143213 0.27 -44.2499 -19.708 0
0.0330931 0.014734 0.27 -49.0046 -21.7421 2.39517e-20
0.0340398 0.0151555 0.27 -53.2354 -23.7724 1.57258e-20
0.0350062 0.0155858 0.27 -57.0076 -25.3539 0
0.0359924 0.0160249 0.27 -60.2958 -26.8752 -1.10323e-21
0.0369987 0.0164729 0.27 -63.7416 -28.3868 -7.09491e-27
0.0380251 0.0169299 0.27 -67.4464 -30.0277 0
0.0390719 0.0173959 0.27 -71.098 -31.6653 2.60046e-21
0.0401391 0.0178711 0.27 -75.8472 -33.7048 2.77782e-20
0.041227 0.0183554 0.27 -79.2791 -35.3008 8.90879e-28
0.0423356 0.018849 0.27 -81.3396 -36.2457 6.1839e-27
0.043465 0.0193519 0.27 -84.826 -37.7682 1.92744e-27
0.0446154 0.0198641 0.27 -88.1493 -39.2488 -1.097e-26
0.0457867 0.0203856 0.27 -91.5996 -40.7183 -1.817e-20
0.046979 0.0209164 0.27 -94.7492 -42.2118 -1.0376e-20
0.0481924 0.0214567 0.27 -98.4853 -43.8404 -8.11835e-27
0.0494267 0.0220063 0.27 -101.749 -45.2773 5.72284e-27
0.0506823 0.0225652 0.27 -105.674 -47.1255 2.7975e-20
0.0519588 0.0231335 0.27 -108.226 -48.0736 0
0.0532563 0.0237113 0.27 -111.126 -49.5944 3.86951e-20
0.0545749 0.0242983 0.27 -114.389 -50.9209 0
0.0559142 0.0248946 0.27 -117.303 -52.2236 -3.37347e-21
0.0572744 0.0255002 0.27 -120.403 -53.6058 0
0.0586552 0.0261149 0.27 -123.824 -55.1293 0
0.0600565 0.0267388 0.27 -126.746 -56.3405 -2.64693e-27
0.0614781 0.0273718 0.27 -129.989 -57.9598 -4.86235e-28
0.0629198 0.0280137 0.27 -131.861 -58.6735 1.46612e-20
0.0643815 0.0286645 0.27 -135.152 -60.1505 -7.58735e-27
0.0658629 0.029324 0.27 -136.796 -60.8965 0
0.0673636 0.0299922 0.27 -139.947 -62.3245 6.19125e-21
0.0688836 0.030669 0.27 -142.623 -63.4851 -8.15178e-21
0.0704223 0.0313541 0.27 -144.537 -64.3499 -2.2929e-20
0.0719795 0.0320474 0.27 -146.6 -65.2612 -7.22893e-21
0.0735549 0.0327488 0.27 -148.914 -66.3331 5.41169e-21
0.075148 0.0334581 0.27 -151.439 -67.4105 -3.25957e-20
0.0767585 0.0341751 0.27 -154.357 -68.7115 -2.53083e-27
0.0783859 0.0348996 0.27 -156.855 -69.7493 3.90922e-27
0.0800297 0.0356315 0.27 -156.726 -69.8433 4.59206e-20
0.0816895 0.0363706 0.27 -159.569 -71.0363 0
0.0833647 0.0371164 0.27 -161.85 -72.0408 0
0.085055 0.0378689 0.27 -163.253 -72.6711 1.25073e-20
0.0867595 0.0386278 0.27 -167.175 -74.4367 2.88458e-30
0.0884779 0.0393929 0.27 -168.184 -74.8731 9.64088e-21
0.0902095 0.0401639 0.27 -170.857 -76.0493 -1.55144e-27
0.0919538 0.0409405 0.27 -172.672 -76.921 2.87879e-20
0.09371 0.0417224 0.27 -174.201 -77.5483 -1.06078e-20
0.0954776 0.0425094 0.27 -175.737 -78.2335 5.50616e-28
0.0972558 0.0433011 0.27 -178.128 -79.3187 5.28339e-21
0.0990439 0.0440972 0.27 -179.841 -80.0167 -3.36276e-20
0.100841 0.0448975 0.27 -189.839 -84.5282 -6.36812e-21
0.102647 0.0457015 0.27 -185.203 -82.4255 0
0.104461 0.046509 0.27 -195.993 -87.2412 -1.1948e-20
0.106282 0.0473197 0.27 -193.379 -86.1317 -1.90992e-20
0.108109 0.0481331 0.27 -192.385 -85.6317 0
0.109941 0.048949 0.27 -201.062 -89.4884 0
0.111779 0.0497671 0.27 -206.989 -92.2684 0
0.11362 0.0505868 0.27 -198.508 -88.3483 0
0.115464 0.051408 0.27 -204.595 -90.9401 -2.18143e-20
0.117311 0.0522302 0.27 -214.492 -95.5322 -5.65276e-20
0.11916 0.0530531 0.27 -202.455 -90.0609 3.63271e-20
0.121009 0.0538763 0.27 -203.547 -90.6293 1.79198e-21
0.122857 0.0546995 0.27 -213.361 -95.016 9.30356e-20
0.124705 0.0555223 0.27 -215.074 -95.7612 -6.36233e-20
0.126552 0.0563444 0.27 -211.695 -94.2169 5.53293e-20
0.128395 0.0571653 0.27 -207.182 -92.2749 8.99779e-21
0.130236 0.0579847 0.27 -209.613 -93.1909 -5.20536e-20
0.132072 0.0588023 0.27 -204.694 -91.1397 0
0.133904 0.0596177 0.27 -210.192 -93.5723 0
0.13573 0.0604306 0.27 -216.93 -96.6044 2.03966e-26
0.137549 0.0612407 0.27 -209.428 -93.2308 3.53816e-20
0.139361 0.0620475 0.27 -221.806 -98.7255 -3.82587e-21
0.141165 0.0628508 0.27 -206.278 -91.9936 0
0.14296 0.0636503 0.27 -207.004 -92.1462 3.12616e-20
0.144747 0.0644455 0.27 -211.65 -94.2244 0
0.146523 0.0652363 0.27 -214.795 -95.632 2.4727e-20
0.148288 0.0660222 0.27 -228.753 -101.802 -1.9053e-20
0.150042 0.0668031 0.27 -214.654 -95.543 1.25625e-20
0.151784 0.0675785 0.27 -231.111 -102.902 0
0.153513 0.0683483 0.27 -234.909 -104.58 -6.00274e-20
0.155228 0.0691121 0.27 -223.762 -99.6403 2.44797e-26
0.15693 0.0698698 0.27 -232.061 -103.316 3.96821e-26
0.158617 0.070621 0.27 -230.773 -102.738 0
0.160289 0.0713654 0.27 -236.201 -105.142 0
0.161946 0.072103 0.27 -241.695 -107.623 0
0.163586 0.0728334 0.27 -240.153 -106.897 5.21152e-26
0.165211 0.0735564 0.27 -238.781 -106.312 1.10255e-19
0.166817 0.0742718 0.27 -239.339 -106.59 0
0.168406 0.0749795 0.27 -240.074 -106.831 -4.53788e-20
0.169978 0.0756793 0.27 -241.977 -107.784 -1.11196e-20
0.171532 0.0763709 0.27 -244.798 -108.925 1.07607e-19
0.173067 0.0770543 0.27 -241.844 -107.709 0
0.174583 0.0777293 0.27 -237.913 -105.876 0
0.17608 0.0783958 0.27 -223.559 -99.537 0
0.177557 0.0790535 0.27 -239.818 -106.796 1.67917e-20
0.179014 0.0797025 0.27 -243.898 -108.598 5.02922e-20
0.180452 0.0803425 0.27 -226.528 -100.71 0
0.18187 0.0809736 0.27 -222.383 -99.2105 0
0.183266 0.0815956 0.27 -217.746 -96.786 4.8473e-20
0.184643 0.0822085 0.27 -219.66 -97.9091 0
0.185999 0.0828122 0.27 -237.341 -105.38 0
0.187334 0.0834066 0.27 -223.24 -99.7296 -8.6979e-20
0.188648 0.0839917 0.27 -239.804 -106.778 0
0.189942 0.0845675 0.27 -227.343 -101.183 4.32273e-21
0.191214 0.0851339 0.27 -238.268 -106.122 -5.4733e-20
0.192465 0.085691 0.27 -235.449 -104.88 -6.06475e-20
0.193695 0.0862387 0.27 -236.408 -104.879 -9.94892e-20
0.194904 0.086777 0.27 -234.305 -104.699 0
0.196093 0.0873059 0.27 -233.632 -103.611 2.2368e-20
0.197259 0.0878254 0.27 -233.594 -104.35 6.63574e-20
0.198405 0.0883357 0.27 -231.349 -102.704 -2.58963e-20
0.19953 0.0888366 0.27 -216.905 -96.607 0
0.200635 0.0893284 0.27 -219.642 -97.7852 0
0.201718 0.0898108 0.27 -223.032 -98.9163 0
0.202782 0.0902841 0.27 -218.547 -97.5101 0
0.203824 0.0907483 0.27 -223.037 -99.2319 0
0.204846 0.0912035 0.27 -219.29 -97.7019 0
0.205848 0.0916496 0.27 -216.319 -96.3026 0
0.206831 0.0920869 0.27 -215.802 -96.0299 -2.47709e-20
0.207793 0.0925153 0.27 -223.982 -99.5179 -2.8372e-20
0.208735 0.092935 0.27 -221.315 -98.615 5.16639e-20
0.209658 0.093346 0.27 -225.985 -100.585 0
