/*--------------------------------*- C++ -*----------------------------------*\
| =========                 |                                                 |
| \\      /  F ield         | OpenFOAM: The Open Source CFD Toolbox           |
|  \\    /   O peration     | Version:  v2012                                 |
|   \\  /    A nd           | Website:  www.openfoam.com                      |
|    \\/     M anipulation  |                                                 |
\*---------------------------------------------------------------------------*/
FoamFile
{
    version     2.0;
    format      ascii;
    class       volScalarField;
    location    "0";
    object      V;
}
// * * * * * * * * * * * * * * * * * * * * * * * * * * * * * * * * * * * * * //

dimensions      [0 3 0 0 0 0 0];


internalField   nonuniform List<scalar> 
294912
(
0.722181
0.487903
0.717266
0.619947
0.32695
0.487273
0.421748
0.712241
0.618414
0.528289
0.219585
0.327759
0.281535
0.486192
0.4226
0.361741
0.709991
0.616604
0.528736
0.445997
0.149031
0.220576
0.187289
0.328036
0.282903
0.240838
0.487111
0.42289
0.363358
0.307258
0.71035
0.616931
0.528782
0.447515
0.372419
0.102895
0.149762
0.12559
0.221088
0.188454
0.159006
0.329477
0.283684
0.242417
0.20423
0.489807
0.424677
0.364327
0.30919
0.258028
0.711027
0.619226
0.530414
0.448561
0.374429
0.307171
0.0726176
0.103285
0.085616
0.150102
0.126364
0.105563
0.222155
0.18912
0.160177
0.134046
0.331858
0.285298
0.243366
0.205815
0.171382
0.492221
0.42777
0.366359
0.31043
0.260004
0.213952
0.712037
0.621513
0.533483
0.450752
0.375949
0.309316
0.249968
0.0525246
0.0727226
0.0596833
0.103372
0.0860278
0.0711838
0.150636
0.126752
0.106299
0.0882737
0.223581
0.190155
0.160837
0.135136
0.111998
0.333698
0.287568
0.244869
0.206756
0.17286
0.142119
0.494426
0.430435
0.369307
0.312389
0.261289
0.215815
0.174977
0.713418
0.623799
0.536325
0.453963
0.378281
0.310994
0.252036
0.200523
0.0389509
0.0524307
0.0426782
0.0725949
0.0598227
0.0490839
0.103464
0.0861501
0.0715704
0.0589835
0.151201
0.12724
0.106653
0.0889322
0.073285
0.22442
0.191404
0.161711
0.13572
0.112965
0.0926013
0.335076
0.289264
0.246796
0.208034
0.173712
0.143435
0.116332
0.496511
0.432747
0.371741
0.314962
0.263037
0.217028
0.176645
0.141029
0.715195
0.626131
0.538949
0.456819
0.381318
0.313239
0.253686
0.202396
0.158496
0.0295684
0.0387364
0.0313227
0.0521584
0.0426375
0.0347344
0.072391
0.0597485
0.0492256
0.0402902
0.103439
0.0862422
0.0716816
0.0593249
0.0486051
0.151238
0.127705
0.107034
0.0892242
0.0738532
0.0603043
0.224742
0.192093
0.162687
0.136401
0.113453
0.0934335
0.0756739
0.336085
0.290471
0.248145
0.209562
0.174746
0.144172
0.117466
0.0939152
0.498559
0.43481
0.373742
0.316986
0.265178
0.218524
0.177731
0.142466
0.111975
0.717389
0.628552
0.541418
0.459336
0.383945
0.315965
0.25573
0.203913
0.160119
0.123485
0.0229111
0.0292922
0.0235584
0.0383838
0.0311754
0.0252463
0.0517839
0.0424383
0.0347203
0.0282496
0.0720207
0.0595915
0.0491708
0.0404197
0.0329405
0.102981
0.0862087
0.0717346
0.0594094
0.0488959
0.0397637
0.150806
0.127692
0.10735
0.0894896
0.0740809
0.0607827
0.0491197
0.22463
0.192296
0.163138
0.137102
0.113957
0.0938278
0.076373
0.0610642
0.336819
0.291291
0.249006
0.210532
0.175907
0.144986
0.118084
0.094865
0.0747384
0.500648
0.436715
0.375425
0.318546
0.266776
0.220259
0.178982
0.143404
0.113173
0.0876071
0.720002
0.631094
0.543793
0.461586
0.386179
0.318274
0.2581
0.205708
0.161453
0.124841
0.0950152
0.0180576
0.0226132
0.0181047
0.0289077
0.0233564
0.0188206
0.0379294
0.0309089
0.0251418
0.0203538
0.0512447
0.0421444
0.0345648
0.0282481
0.0229148
0.0713158
0.0592828
0.0490295
0.0403708
0.0330525
0.026778
0.10214
0.0857975
0.0716594
0.0594181
0.0489532
0.0400059
0.03225
0.149975
0.127262
0.107239
0.0896655
0.0742489
0.060955
0.0495151
0.0395614
0.224171
0.192099
0.163142
0.137325
0.114429
0.0941893
0.0766867
0.0616396
0.0486246
0.337369
0.291822
0.249489
0.211038
0.17655
0.145845
0.118716
0.0953746
0.075515
0.0586342
0.502839
0.438543
0.376895
0.319768
0.267918
0.221487
0.180367
0.144432
0.113961
0.0885789
0.0676513
0.723025
0.633774
0.546116
0.463641
0.3881
0.320187
0.260079
0.207721
0.162984
0.125973
0.096117
0.0725586
0.0144261
0.0177631
0.0141662
0.0222293
0.0178824
0.0143485
0.0284326
0.0230635
0.0186702
0.0150502
0.0373319
0.0305537
0.0249342
0.0202777
0.0163843
0.0504543
0.0417079
0.0343219
0.0281218
0.0229187
0.0185068
0.0703151
0.058688
0.0487504
0.0402356
0.0330057
0.0268717
0.0216123
0.10097
0.0850554
0.0712559
0.0593015
0.0489269
0.0400413
0.0324482
0.0258997
0.148815
0.126483
0.106761
0.0894645
0.0743156
0.061051
0.0496436
0.0398828
0.0314804
0.22345
0.191588
0.162788
0.137146
0.114474
0.0944892
0.0769418
0.0618867
0.0490889
0.0381996
0.337818
0.292151
0.249696
0.211192
0.176767
0.146241
0.119345
0.0958627
0.0759271
0.059254
0.0453975
0.50518
0.440356
0.378236
0.320758
0.268728
0.22229
0.1813
0.14553
0.114794
0.0892221
0.0684187
0.0517748
0.726433
0.636601
0.548426
0.465555
0.38978
0.32178
0.261688
0.209389
0.164664
0.127249
0.09705
0.073434
0.0555411
0.0116451
0.0141494
0.0112453
0.0173995
0.0139446
0.0111473
0.0217688
0.0175895
0.0141807
0.0113888
0.0278405
0.0226943
0.018443
0.0149366
0.0120278
0.0365491
0.0300779
0.024649
0.0201127
0.0163276
0.0131477
0.0494433
0.0410602
0.0339556
0.0279156
0.0228138
0.0185126
0.0148598
0.0690614
0.0578431
0.0482279
0.039977
0.0328766
0.0268273
0.0216891
0.0172957
0.0995299
0.0840347
0.0705691
0.0589023
0.0487829
0.0399931
0.0324683
0.0260595
0.0205755
0.147402
0.125423
0.105983
0.0889442
0.0740549
0.0610441
0.0496914
0.0399783
0.0317373
0.0247366
0.22255
0.19084
0.162161
0.136654
0.114165
0.0944167
0.0771222
0.0620658
0.0492816
0.0385666
0.0296227
0.338241
0.292355
0.249713
0.211097
0.17667
0.146258
0.119571
0.0963208
0.0763024
0.0595806
0.0458804
0.0347922
0.507704
0.4422
0.379514
0.321606
0.269314
0.222787
0.181854
0.146237
0.115657
0.0898866
0.0689307
0.0523672
0.0396007
0.730191
0.639572
0.550746
0.467378
0.391282
0.323124
0.262996
0.210729
0.166049
0.128624
0.0980889
0.0741844
0.0562283
0.0433577
0.00947336
0.0113936
0.00902709
0.0138168
0.0110364
0.00879311
0.0169729
0.0136673
0.0109791
0.00878847
0.0212159
0.0172335
0.0139545
0.0112609
0.00904088
0.027113
0.0222282
0.0181513
0.0147583
0.0119411
0.00959228
0.0356051
0.0294484
0.0242623
0.0198803
0.0161951
0.0131048
0.0105019
0.0482452
0.0402288
0.0334124
0.0276034
0.0226377
0.0184252
0.0148657
0.011846
0.0676
0.0567874
0.0474951
0.0395127
0.032639
0.0267074
0.0216482
0.0173576
0.0137088
0.0978779
0.0827876
0.0696487
0.0582627
0.0483984
0.0398381
0.03241
0.0260696
0.0207024
0.0161572
0.145807
0.124146
0.104969
0.0881704
0.0735208
0.0607576
0.0496419
0.0399965
0.031808
0.0249383
0.0191948
0.22155
0.18993
0.161334
0.13593
0.113588
0.0940389
0.0769848
0.0621683
0.0494074
0.0387148
0.0299066
0.0227183
0.338704
0.292498
0.249613
0.210838
0.176355
0.146001
0.119468
0.0964374
0.0766361
0.0598669
0.0461334
0.0351601
0.0265597
0.510429
0.444111
0.380778
0.32238
0.269763
0.223078
0.182136
0.146618
0.116193
0.0905597
0.0694514
0.0527647
0.0400517
0.0307224
0.734246
0.642677
0.553096
0.46915
0.39266
0.324281
0.264067
0.211801
0.167155
0.129757
0.0991952
0.0750136
0.0568219
0.0439006
0.0353836
0.00775053
0.0092498
0.00730813
0.0110965
0.00883692
0.00701949
0.0134329
0.0107831
0.00863435
0.00689084
0.0164743
0.013339
0.0107659
0.00866004
0.00693399
0.0205639
0.016802
0.0136762
0.0110848
0.00894269
0.00716831
0.0262688
0.0216509
0.0177795
0.0145256
0.0118001
0.00952548
0.00762302
0.0345258
0.0286858
0.0237482
0.0195628
0.0160048
0.012998
0.0104691
0.00833835
0.0468945
0.0392429
0.0327166
0.0271439
0.0223715
0.0182757
0.0147933
0.0118512
0.00936402
0.0659769
0.0555602
0.0465881
0.0388728
0.032229
0.0264939
0.0215407
0.0173213
0.0137577
0.0107512
0.0960744
0.0813649
0.0685421
0.057429
0.0478118
0.0394811
0.0322579
0.0260099
0.0207064
0.0162562
0.0125362
0.144102
0.122715
0.103779
0.0872027
0.0727745
0.0602401
0.0493574
0.0399273
0.0318095
0.0249901
0.0193499
0.0147228
0.220527
0.188923
0.160373
0.135044
0.112819
0.0934346
0.0765892
0.0620053
0.0494614
0.0388028
0.0300181
0.022933
0.0173051
0.339266
0.292638
0.249456
0.210483
0.175904
0.145558
0.119131
0.096277
0.0766869
0.0601091
0.0463485
0.0353509
0.0268352
0.0204275
0.513357
0.446113
0.382068
0.323131
0.270142
0.223246
0.182236
0.146764
0.116456
0.0909638
0.069968
0.0531644
0.0403542
0.0310672
0.0247153
0.738535
0.645895
0.555488
0.470904
0.393963
0.325308
0.264961
0.212661
0.168031
0.130659
0.100104
0.0758862
0.0574729
0.0443686
0.0358278
0.0309838
0.00636706
0.00755497
0.00595407
0.00898891
0.00713902
0.00565532
0.0107578
0.00861094
0.00687492
0.00547165
0.0129933
0.0104887
0.0084401
0.00676952
0.00540677
0.0159031
0.0129525
0.0105111
0.00849495
0.00683532
0.00546825
0.0198279
0.0162898
0.0133363
0.0108657
0.00880487
0.00709253
0.00566897
0.0253281
0.020978
0.0173165
0.0142268
0.0116137
0.00941379
0.00757129
0.00602822
0.0333376
0.0278125
0.0231249
0.0191403
0.0157434
0.0128422
0.0103832
0.00831291
0.006572
0.0454268
0.038132
0.0318945
0.0265583
0.0219832
0.0180503
0.0146678
0.0117918
0.00936814
0.0073312
0.0642398
0.0542004
0.0455415
0.0380899
0.0316733
0.0261372
0.0213538
0.017228
0.0137265
0.010789
0.00833647
0.0941801
0.0798164
0.0672939
0.0564441
0.0470652
0.0389558
0.0319382
0.0258701
0.0206506
0.0162565
0.0126118
0.00961278
0.142362
0.121189
0.102466
0.0860944
0.0718706
0.0595469
0.0488806
0.0396639
0.0317354
0.0249829
0.0193868
0.0148393
0.0111921
0.219556
0.187882
0.159335
0.134055
0.11192
0.0926721
0.0760046
0.0616274
0.0492976
0.0388273
0.0300786
0.0230145
0.0174641
0.0132003
0.339976
0.292826
0.249291
0.210086
0.17538
0.145005
0.118639
0.0959195
0.0765085
0.0601214
0.0465218
0.0355089
0.0269755
0.0206333
0.0161173
0.516478
0.448219
0.383412
0.3239
0.270503
0.223353
0.182228
0.146752
0.11652
0.0911432
0.0702671
0.0535524
0.0406548
0.0312962
0.024989
0.0211464
0.742976
0.649199
0.557931
0.472672
0.395233
0.326254
0.26573
0.21336
0.168723
0.131368
0.100824
0.0765976
0.0581481
0.0448754
0.036204
0.0313744
0.0295204
0.00524586
0.00619797
0.00487362
0.0073287
0.00580614
0.00458812
0.00869435
0.00694085
0.0055268
0.00438768
0.010376
0.00835209
0.0067021
0.00536123
0.00427204
0.0125001
0.0101498
0.00821297
0.00661979
0.00531361
0.00424292
0.0152712
0.0125073
0.0102094
0.00829615
0.00670695
0.00539211
0.00430474
0.0190234
0.0157093
0.0129307
0.0105964
0.00863169
0.00698437
0.00561025
0.00446541
0.024311
0.0202266
0.0167756
0.0138535
0.0113729
0.00926429
0.00748277
0.005988
0.00473689
0.0320677
0.0268502
0.0224115
0.0186284
0.0153961
0.0126278
0.0102564
0.00824413
0.00655212
0.0051351
0.0438788
0.0369255
0.0309711
0.02587
0.0214914
0.0177247
0.0144794
0.011688
0.00931987
0.00733409
0.00567884
0.0624373
0.0527464
0.0443884
0.0371944
0.031001
0.0256607
0.0210493
0.0170685
0.0136477
0.0107627
0.00836483
0.00638878
0.0922579
0.0781908
0.065946
0.0553473
0.0461969
0.0382997
0.0314799
0.025593
0.020528
0.0162072
0.0126096
0.00966896
0.00729471
0.14066
0.119626
0.101078
0.0848919
0.0708563
0.0587262
0.0482595
0.0392424
0.0315035
0.0249123
0.0193753
0.0148644
0.0112775
0.00847882
0.21871
0.186869
0.158273
0.133012
0.110946
0.0918087
0.0752911
0.0610939
0.0489581
0.0386763
0.030085
0.0230541
0.0175215
0.0133168
0.0102232
0.340875
0.29311
0.249166
0.209694
0.174832
0.144398
0.118058
0.0954334
0.0761672
0.0599473
0.0465108
0.0356289
0.027088
0.020735
0.0162752
0.0133503
0.519757
0.450437
0.384836
0.324722
0.270887
0.223451
0.18217
0.146649
0.11645
0.0911579
0.070384
0.0537653
0.0409386
0.0315195
0.0251667
0.0213824
0.019581
0.747473
0.652554
0.560429
0.47448
0.396511
0.327165
0.266422
0.213945
0.169276
0.131922
0.101386
0.0771557
0.0586884
0.0453895
0.0366019
0.0316932
0.0298993
0.0303576
0.00433108
0.00510094
0.00400296
0.00600357
0.00474577
0.0037419
0.00707515
0.0056345
0.00447577
0.00354516
0.00836632
0.0067163
0.00537557
0.0042896
0.00341075
0.00995442
0.008059
0.0065032
0.00522845
0.00418734
0.0033376
0.0119629
0.00976781
0.0079501
0.00644368
0.00519774
0.00417112
0.00332603
0.0145908
0.012013
0.00986021
0.00805941
0.00655126
0.00529203
0.00424581
0.00337814
0.0181659
0.0150731
0.0124698
0.0102738
0.00841769
0.0068473
0.00552529
0.00441979
0.00349828
0.0232382
0.0194128
0.016171
0.0134169
0.0110716
0.00907053
0.00736321
0.00591799
0.00470552
0.00369332
0.0307437
0.0258211
0.0216262
0.0180435
0.0149758
0.0123433
0.0100816
0.00814171
0.00649734
0.00511939
0.0039727
0.0422881
0.0356525
0.0299709
0.0251002
0.0209164
0.0173146
0.0142092
0.0115326
0.00923518
0.00729523
0.00568044
0.0043488
0.0606202
0.0512366
0.0431603
0.0362146
0.0302384
0.0250896
0.020647
0.0168135
0.0135147
0.0106976
0.00834286
0.00640929
0.00484109
0.0903735
0.0765371
0.0645375
0.0541736
0.0452409
0.037546
0.0309154
0.025203
0.0202945
0.0161033
0.0125675
0.00966503
0.0073352
0.00549697
0.139072
0.118086
0.0996639
0.0836363
0.0697721
0.0578198
0.0475359
0.0387037
0.0311434
0.0247153
0.0193119
0.0148507
0.0112931
0.00854019
0.00646521
0.218058
0.185944
0.157237
0.131959
0.109938
0.0908904
0.0744986
0.0604559
0.048492
0.0383837
0.0299518
0.0230489
0.0175453
0.0133558
0.0103096
0.00819788
0.341994
0.29353
0.249126
0.20935
0.174304
0.143783
0.117438
0.094875
0.07572
0.0596402
0.0463501
0.0356022
0.0271665
0.0208128
0.0163502
0.0134809
0.0118516
0.523145
0.45276
0.386361
0.325629
0.271331
0.223577
0.182108
0.146503
0.116302
0.0910607
0.0703654
0.0538308
0.0410795
0.0317211
0.0253342
0.0215311
0.01981
0.0195882
0.751912
0.65591
0.562979
0.476355
0.397837
0.328087
0.267082
0.21446
0.169727
0.132355
0.101816
0.0775819
0.0591008
0.0457848
0.0369912
0.032017
0.030194
0.0307621
0.0328646
0.00358105
0.00420769
0.00329613
0.00493511
0.00389343
0.0030638
0.00578699
0.00459847
0.00364485
0.00288106
0.00679544
0.00544163
0.00434502
0.00345949
0.00274524
0.00800833
0.00646534
0.0052036
0.00417371
0.00333559
0.00265416
0.0095006
0.0077341
0.00627708
0.00507497
0.00408495
0.0032724
0.00260627
0.0113912
0.0093504
0.00765275
0.00623896
0.00506072
0.00408119
0.00327053
0.00260096
0.0138738
0.0114795
0.00947147
0.00778453
0.00636502
0.00516988
0.00416767
0.00333243
0.00263874
0.0172711
0.0143938
0.011964
0.0099065
0.00816074
0.00667724
0.0054169
0.00435312
0.00346279
0.00272161
0.0221306
0.0185533
0.0155161
0.0129289
0.0107189
0.00882767
0.00720779
0.00582279
0.00465035
0.0036688
0.00285324
0.0293947
0.024747
0.0207871
0.017401
0.0144967
0.0119997
0.00985006
0.00800042
0.00641533
0.00507602
0.00396013
0.0030396
0.0406946
0.0343423
0.0289174
0.0242694
0.0202762
0.0168373
0.0138707
0.0113113
0.00910887
0.00722706
0.00564934
0.00434917
0.00329133
0.0588424
0.0497103
0.0418879
0.0351766
0.0294096
0.0244463
0.0201683
0.0164795
0.0133051
0.0105889
0.00828993
0.00639091
0.00485516
0.0036337
0.0885949
0.0749062
0.0631076
0.0529552
0.044227
0.036724
0.0302729
0.0247275
0.0199702
0.0159111
0.0124815
0.00962952
0.00732989
0.00552517
0.00414124
0.137674
0.116627
0.0982698
0.0823658
0.0686521
0.056862
0.0467456
0.0380829
0.0306888
0.0244158
0.0191486
0.0147954
0.0112783
0.00854864
0.00650901
0.00503976
0.217665
0.185167
0.156278
0.13094
0.108935
0.0899541
0.0736668
0.0597556
0.0479414
0.037989
0.029706
0.0229337
0.0175321
0.0133678
0.0103357
0.00826558
0.00695508
0.343351
0.294123
0.249211
0.209094
0.173832
0.143196
0.116818
0.094288
0.0752138
0.0592462
0.0460818
0.0354561
0.0271277
0.0208594
0.0164036
0.013541
0.0119734
0.0113533
0.52657
0.45517
0.388001
0.326649
0.27187
0.22377
0.182078
0.146356
0.116118
0.090896
0.0702532
0.0537847
0.0410995
0.0318022
0.0254747
0.0216637
0.0199509
0.0198368
0.0207438
0.756159
0.659207
0.565571
0.478318
0.39925
0.329064
0.267755
0.214945
0.170114
0.132699
0.102144
0.0778974
0.0594008
0.0460677
0.0372675
0.0323165
0.0304769
0.0310628
0.0333258
0.0364184
0.00296396
0.00347654
0.00271914
0.00406701
0.00320292
0.00251603
0.00475121
0.00376791
0.00298072
0.00235174
0.00554985
0.00443403
0.00353282
0.00280712
0.0022235
0.00649299
0.00522825
0.0041977
0.00335951
0.00267967
0.00212879
0.00762659
0.00619063
0.00501078
0.00404149
0.00324647
0.00259637
0.00206538
0.00902216
0.00738342
0.00602562
0.00489985
0.00396611
0.00319321
0.00255594
0.00203151
0.0107944
0.00890519
0.00732695
0.00600665
0.00490083
0.00397436
0.00320063
0.00255797
0.00202599
0.0131323
0.0109161
0.00905116
0.00747779
0.00614815
0.00502322
0.00407183
0.00327144
0.00260325
0.00204841
0.0163548
0.0136837
0.0114232
0.00950311
0.00786767
0.00647262
0.005282
0.00426763
0.00341059
0.00269398
0.00209939
0.02101
0.0176644
0.0148242
0.0124006
0.010325
0.00854349
0.00701288
0.0056988
0.00457498
0.00362549
0.00283401
0.00218099
0.0280508
0.02365
0.0199115
0.0167155
0.0139715
0.0116088
0.00957093
0.00781362
0.0063022
0.00501093
0.00392595
0.00302938
0.00229815
0.0391406
0.0330254
0.0278336
0.0233967
0.0195878
0.0163081
0.0134782
0.011035
0.00892991
0.00712574
0.00559508
0.00432432
0.00329058
0.00246348
0.0571611
0.0482085
0.0406015
0.0341047
0.0285363
0.0237512
0.0196323
0.0160842
0.0130323
0.0104195
0.00820254
0.00634833
0.00483965
0.00364264
0.00271327
0.0869936
0.0733516
0.0616958
0.051723
0.0431812
0.0358585
0.0295772
0.0241899
0.0195775
0.0156467
0.0123262
0.00955948
0.00730008
0.00551881
0.00416026
0.00315556
0.136544
0.115314
0.0969445
0.0811188
0.0675278
0.0558814
0.0459177
0.0374099
0.0301688
0.0240409
0.0189044
0.014662
0.0112305
0.00853336
0.00651244
0.00507191
0.00409787
0.217593
0.184596
0.15545
0.129998
0.107972
0.0890318
0.072827
0.0590269
0.0473416
0.0375265
0.0293788
0.0227296
0.0174323
0.0133489
0.0103397
0.00828445
0.00701423
0.00633308
0.344951
0.294919
0.249463
0.208967
0.173454
0.142672
0.116232
0.0937063
0.0746855
0.0588037
0.0457424
0.035223
0.026993
0.0208102
0.0164271
0.0135799
0.0120298
0.0114821
0.0115957
0.529943
0.457632
0.389761
0.327812
0.272538
0.224063
0.182114
0.14624
0.115932
0.0906991
0.0700826
0.0536593
0.0410258
0.0317806
0.0255075
0.021763
0.0200684
0.0199889
0.0210337
0.022632
0.760075
0.662369
0.568181
0.480383
0.400785
0.330142
0.268485
0.215444
0.170474
0.132987
0.102394
0.0781233
0.0596046
0.04625
0.0374375
0.0324996
0.0307195
0.0313351
0.0336585
0.0369593
0.0404032
0.00245498
0.00287578
0.00224619
0.00335771
0.00264022
0.00207082
0.00391156
0.00309654
0.00244538
0.00192619
0.00455102
0.00362849
0.00288538
0.00228849
0.00180971
0.00529527
0.00425355
0.00340749
0.0027216
0.00216697
0.0017189
0.00617285
0.00499697
0.0040343
0.00324657
0.00260294
0.00207843
0.00165143
0.00722714
0.005897
0.00479916
0.0038928
0.00314448
0.00252763
0.00202084
0.00160516
0.00852638
0.00701297
0.00575358
0.00470457
0.0038301
0.00310098
0.00249459
0.00199259
0.00157829
0.0101815
0.00843945
0.00697886
0.00575156
0.00471891
0.00384931
0.00311727
0.00250362
0.00199268
0.0015694
0.0123781
0.0103323
0.00860675
0.00714575
0.00590573
0.00485206
0.00395641
0.00319633
0.00255571
0.00202086
0.00157766
0.0154334
0.0129551
0.0108575
0.0090717
0.00754571
0.006239
0.00511943
0.00416098
0.00334342
0.00265323
0.00207787
0.00160313
0.0198992
0.0167628
0.0141083
0.0118426
0.00989886
0.00822624
0.00678482
0.00554327
0.0044767
0.00356621
0.00280017
0.00216586
0.00164753
0.0267445
0.0225532
0.0190167
0.0160011
0.0134122
0.0111811
0.00925397
0.00758871
0.00615289
0.00492123
0.00387473
0.00300253
0.00228969
0.00171668
0.0376714
0.0317337
0.0267429
0.0225004
0.0188671
0.0157411
0.0130444
0.0107156
0.00870717
0.00698286
0.00551478
0.00428149
0.00327068
0.00246178
0.00182791
0.0556364
0.0467751
0.039333
0.033023
0.0276378
0.0230222
0.0190557
0.0156434
0.0127108
0.0102
0.00806761
0.00627885
0.00480552
0.00362937
0.00271833
0.0020321
0.0856429
0.0719287
0.0603441
0.0505085
0.0421283
0.034971
0.0288489
0.0236106
0.0191355
0.0153281
0.0121142
0.00943553
0.00724334
0.00549364
0.00415324
0.00316823
0.00247404
0.135758
0.114208
0.0957392
0.0799342
0.0664299
0.0549038
0.0450759
0.0367091
0.0296079
0.0236141
0.0186007
0.0144653
0.0111219
0.0084917
0.00649717
0.00507249
0.00412363
0.00354178
0.217898
0.184288
0.154803
0.129178
0.107085
0.0881534
0.0720059
0.0582959
0.0467204
0.0370246
0.0289971
0.0224609
0.0172625
0.0132612
0.0103172
0.00828409
0.00703106
0.00639241
0.00617821
0.346799
0.295936
0.249917
0.209011
0.173208
0.142242
0.115708
0.0931574
0.0741634
0.0583428
0.0453624
0.0349314
0.0267873
0.0206824
0.016369
0.0135885
0.0120636
0.011545
0.0117446
0.0123284
0.533176
0.4601
0.391635
0.329136
0.273369
0.224492
0.182251
0.146186
0.115774
0.0904992
0.0698824
0.0534825
0.0408835
0.0316773
0.0254479
0.021759
0.020145
0.0201092
0.0212131
0.022979
0.0248464
0.763512
0.665311
0.57078
0.482557
0.402472
0.331361
0.269318
0.215996
0.170844
0.133248
0.102592
0.0782803
0.0597285
0.0463444
0.0375111
0.0325741
0.0308346
0.0315508
0.0339463
0.0373445
0.0410381
0.0442113
0.00203443
0.00238082
0.00185738
0.00277575
0.00217965
0.00170727
0.00322678
0.00255043
0.00201104
0.00158176
0.00374314
0.00297885
0.00236466
0.00187244
0.00147851
0.00433733
0.00347645
0.00277931
0.00221581
0.0017614
0.00139525
0.00502736
0.00405943
0.00326966
0.00262574
0.00210146
0.00167553
0.00132979
0.00583986
0.00475166
0.0038568
0.003121
0.00251608
0.00201938
0.00161266
0.00128004
0.00681573
0.00558922
0.00457249
0.00372924
0.00302949
0.00244876
0.00196772
0.00157077
0.00124405
0.00802037
0.00662837
0.00546572
0.00449288
0.00367807
0.00299514
0.00242293
0.00194502
0.00154818
0.00122012
0.00956183
0.00796033
0.00661417
0.00547865
0.0045188
0.00370671
0.00301944
0.00243861
0.00195045
0.0015436
0.00120688
0.0116236
0.00973738
0.00814566
0.00679434
0.00564308
0.00466046
0.00382147
0.0031057
0.00249701
0.0019839
0.0015563
0.00120347
0.0145238
0.0122204
0.0102764
0.00862018
0.00720135
0.00598232
0.00493371
0.00403233
0.0032595
0.00260071
0.0020462
0.00158639
0.00121004
0.0188226
0.0158656
0.0133811
0.0112653
0.0094491
0.00788325
0.00653037
0.00536131
0.00435346
0.0034889
0.00275385
0.00213952
0.00163557
0.00122894
0.0255108
0.0214809
0.0181203
0.0152711
0.0128303
0.0107266
0.00890777
0.00733371
0.00597335
0.00480307
0.00380429
0.00296252
0.00226863
0.00170954
0.00126827
0.0363356
0.0305014
0.0256698
0.0215984
0.0181281
0.0151489
0.0125808
0.0103635
0.00845027
0.00680546
0.00540207
0.00421848
0.00323704
0.00244574
0.00182547
0.00135198
0.0543318
0.0454559
0.0381159
0.031956
0.0267332
0.0222749
0.0184532
0.0151709
0.0123532
0.00994221
0.0078935
0.00617262
0.00475067
0.00360194
0.0027068
0.00203441
0.00154742
0.0846182
0.0706955
0.0590965
0.0493443
0.0410933
0.0340813
0.0281056
0.0230069
0.0186611
0.0149707
0.0118596
0.00926756
0.00714511
0.00544759
0.00413179
0.00316105
0.00248287
0.00203637
0.135394
0.113374
0.0947058
0.0788537
0.0653902
0.0539541
0.0442412
0.0360001
0.0290261
0.0231551
0.0182559
0.014222
0.0109641
0.00840279
0.00646055
0.00505787
0.00412346
0.00356567
0.00328047
0.218645
0.184295
0.15439
0.128524
0.106313
0.0873489
0.0712288
0.057585
0.0460997
0.0365062
0.0285838
0.0221485
0.0170413
0.0131178
0.0102384
0.00825973
0.00702996
0.00641198
0.0062448
0.00634495
0.348914
0.297191
0.250601
0.209263
0.173134
0.141944
0.115276
0.0926675
0.0736713
0.0578872
0.0449664
0.0346052
0.0265327
0.0204952
0.0162437
0.0135234
0.0120652
0.0115823
0.0118224
0.0125067
0.0133104
0.536196
0.46252
0.393604
0.330634
0.274393
0.225094
0.182522
0.146226
0.115671
0.0903214
0.0696767
0.0532776
0.0406945
0.0315122
0.0253132
0.0216661
0.0201157
0.02018
0.0213515
0.0231983
0.02526
0.0269904
0.766332
0.66794
0.573318
0.484834
0.404332
0.332758
0.270297
0.216645
0.171261
0.133513
0.102762
0.0783882
0.0597889
0.0463643
0.0374993
0.0325494
0.0308313
0.0316215
0.034161
0.0376685
0.0414894
0.0449437
0.047242
0.00168652
0.00197222
0.00153701
0.00229684
0.00180144
0.00140937
0.00266579
0.00210412
0.00165689
0.00130154
0.00308545
0.00245142
0.00194297
0.00153631
0.0012115
0.00356417
0.00285115
0.00227525
0.00181098
0.00143748
0.00113724
0.00411351
0.0033139
0.00266344
0.00213483
0.0017058
0.00135823
0.00107681
0.00475006
0.00385482
0.00312114
0.00252011
0.00202789
0.0016252
0.00129644
0.0010283
0.00549859
0.00449613
0.00366821
0.00298434
0.00241929
0.0019524
0.00156711
0.00125014
0.000989893
0.00639789
0.00527166
0.00433455
0.00355375
0.00290274
0.00235964
0.00190663
0.00152967
0.00121748
0.000959915
0.0075111
0.00623512
0.00516642
0.00426859
0.00351298
0.00287661
0.00234051
0.00188934
0.00151131
0.00119684
0.000936891
0.00894445
0.00747485
0.00623847
0.00519239
0.00430448
0.00354961
0.00290769
0.00236217
0.00189985
0.00151086
0.00118693
0.000919672
0.0108813
0.00914052
0.0076751
0.00642945
0.00536494
0.00445274
0.00367027
0.0029996
0.00242608
0.0019382
0.00152767
0.00118694
0.000907703
0.0136444
0.0114924
0.00968942
0.00815614
0.00684089
0.00570776
0.00472961
0.00388528
0.00315823
0.00253507
0.00200537
0.00156186
0.00119701
0.000901685
0.0178066
0.014991
0.0126556
0.0106786
0.00898397
0.00752157
0.00625547
0.00515841
0.00420931
0.00339201
0.00269352
0.00210358
0.00161513
0.00121942
0.000905296
0.0243871
0.0204589
0.0172405
0.0145391
0.012236
0.0102542
0.0085404
0.00705554
0.00577002
0.00466115
0.00371172
0.0029077
0.00223756
0.00169299
0.00126214
0.000929885
0.0351842
0.0293648
0.02464
0.0207096
0.0173851
0.014543
0.0120979
0.00998807
0.00816751
0.00660122
0.00526245
0.00413052
0.00318798
0.00241934
0.0018124
0.00134904
0.00100701
0.0533129
0.0442995
0.0369856
0.0309296
0.0258416
0.0215242
0.0178375
0.0146786
0.0119708
0.00965605
0.00768946
0.00603614
0.00466773
0.00355871
0.00268459
0.0020243
0.00154801
0.00122087
0.0839977
0.0697121
0.0579986
0.0482652
0.0401018
0.0332093
0.027363
0.0223929
0.018168
0.0145878
0.0115746
0.00906655
0.007013
0.00536971
0.00409405
0.00314261
0.00247608
0.00204353
0.00178739
0.135539
0.112876
0.0938981
0.0779204
0.0644421
0.0530577
0.0434339
0.0352999
0.0284394
0.0226802
0.0178858
0.0139463
0.01077
0.00827556
0.00638657
0.00502536
0.00411028
0.00356674
0.00330615
0.00322922
0.21992
0.184676
0.154259
0.128084
0.105695
0.0866508
0.0705206
0.0569151
0.045498
0.035989
0.0281572
0.0218104
0.0167848
0.0129328
0.0101138
0.00818725
0.00700584
0.00641356
0.00627125
0.0064241
0.00669562
0.351355
0.298708
0.251541
0.209757
0.173269
0.141811
0.114967
0.0922613
0.0732313
0.057457
0.0445737
0.0342643
0.0262479
0.0202656
0.0160663
0.0133972
0.0119955
0.0115841
0.0118706
0.0126063
0.0135239
0.0143097
0.538972
0.464847
0.395641
0.332306
0.275629
0.2259
0.182962
0.146391
0.11565
0.0901891
0.0694866
0.053064
0.0404776
0.0313028
0.0251196
0.0214991
0.0199945
0.0201362
0.0214309
0.0233668
0.0255273
0.0274723
0.0286763
0.768422
0.670165
0.575742
0.487193
0.406376
0.334364
0.271458
0.21743
0.171761
0.133815
0.102932
0.0784681
0.059802
0.046323
0.0374139
0.0324364
0.0307201
0.031558
0.0342085
0.0379029
0.0418639
0.0454666
0.0480637
0.0489014
0.00139846
0.00163445
0.00127262
0.00190187
0.00149011
0.0011646
0.00220469
0.00173807
0.00136704
0.00107264
0.00254745
0.00202104
0.00159968
0.00126326
0.00099501
0.00293582
0.00234441
0.00186785
0.00148454
0.00117683
0.000929974
0.00337741
0.00271528
0.00217811
0.00174283
0.00139053
0.00110583
0.000875832
0.00388274
0.00314341
0.0025394
0.00204625
0.00164378
0.00131557
0.00104836
0.000830923
0.00446699
0.00364274
0.00296435
0.00240612
0.00194671
0.0015686
0.00125768
0.0010026
0.000793642
0.00515336
0.00423383
0.0034715
0.00283892
0.00231379
0.00187763
0.00151536
0.00121497
0.000966817
0.000762474
0.00597898
0.0049486
0.0040887
0.00336929
0.00276653
0.00226125
0.00183749
0.00148234
0.00118569
0.000939397
0.000736045
0.0070055
0.00583858
0.00485995
0.00403509
0.00333787
0.00274771
0.00224807
0.0018252
0.00146811
0.00116833
0.000918925
0.000713198
0.00833883
0.00698992
0.00585722
0.0048972
0.00407947
0.00338122
0.00278444
0.00227475
0.00184028
0.0014716
0.00116164
0.000904288
0.000693154
0.0101649
0.0085512
0.00720208
0.00605672
0.00507597
0.00423266
0.00350625
0.00288061
0.00234299
0.00188296
0.00149228
0.00116486
0.00089494
0.000675877
0.0128146
0.0107845
0.00910612
0.00768683
0.00647036
0.00542039
0.00451131
0.00372369
0.00304244
0.00245587
0.00195438
0.00153033
0.00117811
0.000891533
0.000662953
0.0168795
0.0141583
0.0119455
0.0100923
0.00851113
0.00714773
0.00596578
0.0049393
0.00404865
0.00327874
0.00261801
0.00205688
0.00158742
0.00120358
0.000897653
0.000659833
0.0234132
0.019515
0.0163968
0.0138191
0.01164
0.00977237
0.00815913
0.00676071
0.00554842
0.00450059
0.00360069
0.0028359
0.00219523
0.00166894
0.00124907
0.000924534
0.000681614
0.0342707
0.0283623
0.0236809
0.0198535
0.0166525
0.0139344
0.0116046
0.00959764
0.00786653
0.00637672
0.00510195
0.00402184
0.00311994
0.00238129
0.0017916
0.00133825
0.00100381
0.00076769
0.0526482
0.0433566
0.0359798
0.0299709
0.0249828
0.0207852
0.0172202
0.0141766
0.0115733
0.00935058
0.00746335
0.00587653
0.00456167
0.00349418
0.00265035
0.00200609
0.00153913
0.00122064
0.0010179
0.0838674
0.0690401
0.0570989
0.0473078
0.039181
0.0323747
0.0266371
0.0217812
0.0176677
0.0141908
0.0112698
0.00884188
0.00685542
0.00526588
0.00403179
0.00311122
0.00246019
0.0020377
0.00179467
0.00167666
0.136302
0.112786
0.0933704
0.0771791
0.063621
0.0522417
0.0426742
0.034625
0.0278616
0.0222022
0.0175032
0.0136507
0.0105503
0.00811973
0.00628227
0.00496234
0.00408129
0.00355587
0.00331022
0.00325951
0.00330927
0.221857
0.185502
0.154463
0.127902
0.105272
0.0860923
0.0699081
0.0563068
0.0449325
0.0354884
0.0277316
0.0214611
0.0165071
0.0127188
0.00995468
0.0080754
0.00693785
0.00639175
0.00627852
0.00646065
0.00679062
0.00709995
0.354249
0.300538
0.252764
0.210521
0.173648
0.14188
0.114812
0.0919659
0.0728646
0.0570706
0.0442009
0.0339242
0.0259488
0.0200088
0.0158507
0.0132226
0.0118662
0.0115125
0.0118789
0.0126713
0.0136494
0.0145598
0.0151035
0.54154
0.467061
0.397718
0.334141
0.27709
0.226936
0.183603
0.146712
0.115739
0.0901259
0.0693319
0.0528596
0.0402489
0.0310647
0.0248821
0.0212729
0.0197963
0.0199929
0.0213826
0.0234662
0.0257337
0.0277904
0.0292203
0.0295255
0.769702
0.67191
0.577993
0.489604
0.408599
0.336194
0.272834
0.218387
0.17238
0.134185
0.103127
0.0785409
0.0597849
0.0462345
0.0372669
0.0322467
0.030513
0.0313732
0.0341019
0.0379455
0.042133