# p  FACE_DATA 448
# x  y  z  p
-0.778 -3.80769e-06 0 1196.57
-0.773968 -3.80769e-06 0 934.752
-0.769872 -3.80769e-06 0 761.609
-0.76571 -3.80769e-06 0 735.173
-0.761486 -3.80769e-06 0 699.293
-0.757196 -3.80769e-06 0 676.485
-0.752841 -3.80769e-06 0 663.98
-0.748422 -3.80769e-06 0 654.547
-0.743939 -3.80769e-06 0 648.109
-0.739391 -3.80769e-06 0 642.808
-0.73478 -3.80769e-06 0 638.117
-0.730104 -3.80769e-06 0 633.905
-0.725364 -3.80769e-06 0 629.852
-0.720562 -3.80769e-06 0 625.561
-0.715696 -3.80769e-06 0 619.762
-0.710769 -3.80769e-06 0 613.881
-0.705778 -3.80769e-06 0 607.79
-0.700727 -3.80769e-06 0 604.564
-0.695615 -3.80769e-06 0 603.869
-0.690443 -3.80769e-06 0 605.894
-0.685211 -3.80769e-06 0 608.515
-0.67992 -3.80769e-06 0 611.359
-0.674571 -3.80769e-06 0 614.001
-0.669166 -3.80769e-06 0 616.28
-0.663704 -3.80769e-06 0 618.233
-0.658187 -3.80769e-06 0 619.938
-0.652616 -3.80769e-06 0 621.409
-0.646993 -3.80769e-06 0 622.553
-0.641317 -3.80769e-06 0 623.344
-0.635592 -3.80769e-06 0 623.918
-0.629817 -3.80769e-06 0 624.405
-0.623994 -3.80769e-06 0 624.731
-0.618125 -3.80769e-06 0 624.886
-0.61221 -3.80769e-06 0 624.915
-0.606252 -3.80769e-06 0 624.872
-0.600253 -3.80769e-06 0 624.706
-0.594213 -3.80769e-06 0 624.484
-0.588134 -3.80769e-06 0 624.26
-0.582018 -3.80769e-06 0 624.121
-0.575867 -3.80769e-06 0 623.871
-0.569683 -3.80769e-06 0 623.446
-0.563467 -3.80769e-06 0 622.905
-0.557221 -3.80769e-06 0 622.438
-0.550946 -3.80769e-06 0 622.171
-0.544647 -3.80769e-06 0 621.974
-0.538323 -3.80769e-06 0 621.57
-0.531979 -3.80769e-06 0 621.018
-0.525613 -3.80769e-06 0 620.453
-0.51923 -3.80769e-06 0 620.083
-0.512832 -3.80769e-06 0 619.899
-0.50642 -3.80769e-06 0 619.599
-0.499995 -3.80769e-06 0 619.054
-0.493562 -3.80769e-06 0 618.375
-0.487123 -3.80769e-06 0 617.753
-0.480677 -3.80769e-06 0 617.45
-0.47423 -3.80769e-06 0 617.519
-0.467782 -3.80769e-06 0 617.551
-0.461335 -3.80769e-06 0 617.221
-0.454892 -3.80769e-06 0 616.605
-0.448455 -3.80769e-06 0 615.872
-0.442026 -3.80769e-06 0 615.222
-0.435607 -3.80769e-06 0 614.889
-0.429202 -3.80769e-06 0 614.991
-0.42281 -3.80769e-06 0 615.228
-0.416434 -3.80769e-06 0 615.303
-0.410078 -3.80769e-06 0 614.901
-0.403743 -3.80769e-06 0 614.072
-0.39743 -3.80769e-06 0 613.169
-0.391141 -3.80769e-06 0 612.359
-0.38488 -3.80769e-06 0 611.871
-0.378648 -3.80769e-06 0 611.716
-0.372446 -3.80769e-06 0 612.343
-0.366277 -3.80769e-06 0 612.73
-0.360142 -3.80769e-06 0 612.891
-0.354042 -3.80769e-06 0 612.712
-0.347981 -3.80769e-06 0 612.082
-0.341959 -3.80769e-06 0 611.04
-0.335978 -3.80769e-06 0 609.985
-0.33004 -3.80769e-06 0 609.064
-0.324146 -3.80769e-06 0 608.463
-0.318298 -3.80769e-06 0 608.235
-0.312497 -3.80769e-06 0 608.698
-0.306744 -3.80769e-06 0 609.389
-0.301041 -3.80769e-06 0 610.053
-0.29539 -3.80769e-06 0 610.525
-0.28979 -3.80769e-06 0 610.731
-0.284243 -3.80769e-06 0 610.711
-0.278752 -3.80769e-06 0 610.273
-0.273316 -3.80769e-06 0 609.511
-0.267937 -3.80769e-06 0 608.437
-0.262614 -3.80769e-06 0 607.332
-0.25735 -3.80769e-06 0 606.341
-0.252146 -3.80769e-06 0 605.534
-0.247001 -3.80769e-06 0 605.022
-0.241916 -3.80769e-06 0 604.838
-0.236893 -3.80769e-06 0 605.058
-0.231931 -3.80769e-06 0 605.462
-0.227031 -3.80769e-06 0 606.084
-0.222195 -3.80769e-06 0 606.72
-0.217421 -3.80769e-06 0 607.293
-0.212711 -3.80769e-06 0 607.725
-0.208064 -3.80769e-06 0 607.964
-0.203482 -3.80769e-06 0 608.016
-0.198964 -3.80769e-06 0 607.921
-0.19451 -3.80769e-06 0 607.608
-0.19012 -3.80769e-06 0 607.137
-0.185796 -3.80769e-06 0 606.52
-0.181535 -3.80769e-06 0 605.808
-0.17734 -3.80769e-06 0 605.009
-0.173208 -3.80769e-06 0 604.206
-0.169141 -3.80769e-06 0 603.454
-0.165138 -3.80769e-06 0 602.787
-0.161199 -3.80769e-06 0 602.223
-0.157325 -3.80769e-06 0 601.808
-0.153513 -3.80769e-06 0 601.547
-0.149765 -3.80769e-06 0 601.436
-0.14608 -3.80769e-06 0 601.405
-0.142457 -3.80769e-06 0 601.643
-0.138897 -3.80769e-06 0 601.905
-0.135398 -3.80769e-06 0 602.322
-0.131961 -3.80769e-06 0 602.803
-0.128584 -3.80769e-06 0 603.345
-0.125268 -3.80769e-06 0 603.899
-0.122011 -3.80769e-06 0 604.42
-0.118815 -3.80769e-06 0 604.871
-0.115677 -3.80769e-06 0 605.256
-0.112597 -3.80769e-06 0 605.564
-0.109574 -3.80769e-06 0 605.793
-0.106609 -3.80769e-06 0 605.942
-0.1037 -3.80769e-06 0 606.034
-0.100846 -3.80769e-06 0 606.07
-0.098048 -3.80769e-06 0 606.064
-0.0953042 -3.80769e-06 0 605.975
-0.0926143 -3.80769e-06 0 605.862
-0.0899773 -3.80769e-06 0 605.702
-0.0873927 -3.80769e-06 0 605.501
-0.0848599 -3.80769e-06 0 605.256
-0.082378 -3.80769e-06 0 604.98
-0.0799465 -3.80769e-06 0 604.672
-0.0775645 -3.80769e-06 0 604.341
-0.0752312 -3.80769e-06 0 603.987
-0.0729462 -3.80769e-06 0 603.622
-0.0707085 -3.80769e-06 0 603.25
-0.0685175 -3.80769e-06 0 602.876
-0.0663725 -3.80769e-06 0 602.504
-0.0642727 -3.80769e-06 0 602.143
-0.0622173 -3.80769e-06 0 601.794
-0.0602058 -3.80769e-06 0 601.462
-0.0582373 -3.80769e-06 0 601.144
-0.0563111 -3.80769e-06 0 600.841
-0.0544265 -3.80769e-06 0 600.556
-0.0525827 -3.80769e-06 0 600.283
-0.0507792 -3.80769e-06 0 600.027
-0.0490152 -3.80769e-06 0 599.787
-0.0472898 -3.80769e-06 0 599.564
-0.0456025 -3.80769e-06 0 599.352
-0.0439526 -3.80769e-06 0 599.156
-0.0423394 -3.80769e-06 0 598.973
-0.0407622 -3.80769e-06 0 598.805
-0.0392203 -3.80769e-06 0 598.643
-0.0377131 -3.80769e-06 0 598.496
-0.0362398 -3.80769e-06 0 598.356
-0.0347999 -3.80769e-06 0 598.23
-0.0333926 -3.80769e-06 0 598.109
-0.0320175 -3.80769e-06 0 598.003
-0.0306737 -3.80769e-06 0 597.905
-0.0293607 -3.80769e-06 0 597.823
-0.0280779 -3.80769e-06 0 597.74
-0.0268246 -3.80769e-06 0 597.675
-0.0256004 -3.80769e-06 0 597.596
-0.0244045 -3.80769e-06 0 597.558
-0.0232363 -3.80769e-06 0 597.682
-0.0220954 -3.80769e-06 0 600.344
-0.0209812 -3.80769e-06 0 615.256
-0.019893 -3.80769e-06 0 666.796
-0.0188303 -3.80769e-06 0 764.479
-0.0177927 -3.80769e-06 0 870.31
-0.0167794 -3.80769e-06 0 954.767
-0.0157901 -3.80769e-06 0 1018.91
-0.0148243 -3.80769e-06 0 1071.69
-0.0138814 -3.80769e-06 0 1119.28
-0.0129608 -3.80769e-06 0 1162.46
-0.0120623 -3.80769e-06 0 1202.67
-0.0111851 -3.80769e-06 0 1240.14
-0.0103289 -3.80769e-06 0 1274.58
-0.00949328 -3.80769e-06 0 1306.59
-0.00867767 -3.80769e-06 0 1336.44
-0.00788168 -3.80769e-06 0 1364.31
-0.00710485 -3.80769e-06 0 1390.42
-0.00634675 -3.80769e-06 0 1414.78
-0.00560698 -3.80769e-06 0 1437.18
-0.0048851 -3.80769e-06 0 1457.32
-0.00418071 -3.80769e-06 0 1474.38
-0.00349342 -3.80769e-06 0 1488.6
-0.00282284 -3.80769e-06 0 1502.31
-0.00216857 -3.80769e-06 0 1515.99
-0.00153026 -3.80769e-06 0 1534.39
-0.00090752 -3.80769e-06 0 1581.05
-0.0003 -3.80769e-06 0 1665.86
0.000259937 0.000146262 2.25537e-21 1557.05
0.000779437 0.000446185 0 1606.95
0.00129893 0.000746101 0 1628.02
0.00181858 0.00104611 2.2554e-21 1666.14
0.00233835 0.00134618 -2.25541e-21 1720.98
0.00285828 0.00164636 2.25542e-21 1785.84
0.00337841 0.00194664 0 1860.73
0.00389877 0.00224706 0 1943.79
0.00441941 0.00254764 -2.25544e-21 2034.24
0.00494034 0.00284839 2.25545e-21 2131.94
0.00546162 0.00314934 -2.25546e-21 2236.03
0.00598328 0.0034505 2.25547e-21 2346.48
0.00650535 0.00375191 2.25547e-21 2463.29
0.00702786 0.00405357 2.25548e-21 2588.09
0.00755087 0.00435552 0 2722.02
0.00807439 0.00465776 -2.25549e-21 2866.35
0.00859847 0.00496033 2.2555e-21 3021.16
0.00912315 0.00526324 0 3186.4
0.00964845 0.00556651 2.25551e-21 3361.49
0.0101744 0.00587017 0 3546.51
0.0107011 0.00617424 0 3741.02
0.0112285 0.00647873 -2.25552e-21 3944.91
0.0117567 0.00678367 0 4158.13
0.0122857 0.00708907 0 4380.16
0.0128156 0.00739497 0 4610.55
0.0133463 0.00770137 -2.25554e-21 4849.02
0.0138779 0.00800831 0 5095.82
0.0144106 0.0083158 0 5351.71
0.0149442 0.00862387 0 5618.33
0.0154788 0.00893253 0 5900.93
0.0160145 0.00924181 0 6205.88
0.0165513 0.00955172 2.25556e-21 6542.33
0.0170893 0.00986231 -2.25556e-21 6919.35
0.0176284 0.0101736 0 7346.29
0.0181687 0.0104855 0 7818.52
0.0187103 0.0107982 2.25556e-21 8312.13
0.0192532 0.0111117 2.25557e-21 8804.56
0.0197975 0.0114259 2.25557e-21 9275.22
0.0203431 0.0117408 0 9724.93
0.0208901 0.0120566 4.51114e-21 10165.1
0.0214385 0.0123732 -4.51114e-21 10607.1
0.0219884 0.0126907 0 11045.3
0.0225398 0.0130091 4.51114e-21 11464.6
0.0230928 0.0133283 0 11840.8
0.0236474 0.0136485 0 12162.5
0.0242037 0.0139697 0 12425.4
0.0247616 0.0142918 -4.51113e-21 12645.1
0.0253212 0.0146148 -4.51113e-21 12842.2
0.0258825 0.0149389 -4.51114e-21 13021.1
0.0264456 0.015264 0 13181.9
0.0270106 0.0155902 0 13323.9
0.0275774 0.0159174 -4.51112e-21 13444.1
0.0281462 0.0162457 0 13547.6
0.0287168 0.0165752 4.51111e-21 13629.2
0.0292895 0.0169059 -4.51111e-21 13684.4
0.0298642 0.0172376 0 13719.3
0.0304409 0.0175706 0 13746.3
0.0310198 0.0179048 4.5111e-21 13749.7
0.0316007 0.0182402 4.5111e-21 13746.5
0.0321839 0.0185768 -4.51107e-21 13758.9
0.0327693 0.0189148 0 13775.6
0.0333569 0.0192541 0 13796
0.0339469 0.0195947 4.51106e-21 13796.5
0.0345392 0.0199366 0 13825.4
0.0351339 0.02028 0 13745.3
0.035731 0.0206247 4.51105e-21 13698.4
0.0363305 0.0209708 -4.51103e-21 13659
0.0369326 0.0213184 4.51102e-21 13622.6
0.0375373 0.0216675 0 13600.3
0.0381445 0.0220181 0 13583.1
0.0387543 0.0223702 0 13562.1
0.0393668 0.0227238 4.51099e-21 13536.7
0.0399821 0.023079 -4.51097e-21 13504.2
0.0406001 0.0234358 4.51097e-21 13465.9
0.041221 0.0237942 0 13421.3
0.0418446 0.0241542 0 13378.7
0.0424712 0.024516 4.51092e-21 13339.5
0.0431006 0.0248794 -4.51094e-21 13299.2
0.0437331 0.0252445 0 13276.3
0.0443686 0.0256114 4.51089e-21 13256.4
0.0450071 0.02598 4.51089e-21 13234
0.0456487 0.0263505 0 13222.2
0.0462935 0.0267227 0 13196.8
0.0469415 0.0270968 -4.51085e-21 13187.3
0.0475927 0.0274728 0 13169.4
0.0482473 0.0278507 -4.51081e-21 13154.3
0.0489051 0.0282305 4.51081e-21 13144.1
0.0495663 0.0286122 -4.51079e-21 13112.1
0.050231 0.0289959 0 13081.7
0.0508991 0.0293816 -4.51077e-21 13045
0.0515707 0.0297694 4.51073e-21 13011.9
0.0522459 0.0301592 -4.51073e-21 12990.5
0.0529247 0.0305511 0 12985.9
0.0536071 0.0309451 0 12979.9
0.0542933 0.0313412 -4.51067e-21 12988.5
0.0549832 0.0317395 0 12980.3
0.0556769 0.03214 0 12964
0.0563744 0.0325427 0 12936.5
0.0570758 0.0329477 -4.5106e-21 12902.5
0.0577812 0.0333549 0 12867.4
0.0584905 0.0337645 0 12837.7
0.0592039 0.0341763 -4.51056e-21 12818.3
0.0599214 0.0345905 4.51053e-21 12814.9
0.060643 0.0350071 0 12812.8
0.0613688 0.0354262 4.51049e-21 12819.4
0.0620989 0.0358477 -4.51048e-21 12815.5
0.0628332 0.0362716 4.51046e-21 12812.3
0.0635719 0.0366981 0 12799.6
0.0643149 0.037127 4.51041e-21 12782.3
0.0650624 0.0375586 0 12775.3
0.0658144 0.0379927 0 12759.2
0.0665709 0.0384295 4.51035e-21 12757
0.0673321 0.0388689 -4.51035e-21 12750.6
0.0680979 0.039311 0 12750.8
0.0688683 0.0397558 -4.51029e-21 12749.5
0.0696435 0.0402034 4.51029e-21 12737.7
0.0704236 0.0406537 0 12727.8
0.0712085 0.0411069 0 12706.1
0.0719983 0.0415628 0 12683.7
0.0727931 0.0420217 0 12659
0.0735929 0.0424834 0 12635.8
0.0743978 0.0429481 0 12623.4
0.0752078 0.0434158 0 12608.1
0.076023 0.0438864 4.5101e-21 12607.2
0.0768435 0.0443601 -4.51009e-21 12606.6
0.0776693 0.0448369 -4.51004e-21 12610.5
0.0785004 0.0453167 4.51003e-21 12612
0.079337 0.0457997 0 12607.2
0.080179 0.0462858 0 12600.1
0.0810266 0.0467751 0 12589.7
0.0818797 0.0472677 0 12573.9
0.0827385 0.0477635 0 12561.1
0.083603 0.0482626 0 12543.1
0.0844733 0.0487651 4.50985e-21 12531.8
0.0853495 0.0492709 -4.50983e-21 12519.9
0.0862316 0.0497801 0 12516.2
0.0871195 0.0502927 -4.50978e-21 12515.5
0.0880135 0.0508089 0 12508.6
0.0889136 0.0513285 0 12505.5
0.0898198 0.0518517 0 12496
0.0907322 0.0523785 0 12484.7
0.0916509 0.0529089 0 12470.4
0.0925758 0.0534429 4.50963e-21 12453.2
0.0935072 0.0539806 4.50959e-21 12436.4
0.094445 0.054522 0 12421.2
0.0953894 0.0550672 4.50953e-21 12405.7
0.0963404 0.0556162 0 12396.7
0.0972979 0.0561691 0 12387.2
0.0982622 0.0567258 0 12377.9
0.0992333 0.0572865 0 12369.1
0.100211 0.057851 0 12366.4
0.101196 0.0584196 0 12365
0.102188 0.0589922 4.50935e-21 12358
0.103187 0.0595689 4.50932e-21 12352
0.104193 0.0601497 -4.50928e-21 12348.5
0.105206 0.0607347 0 12334.5
0.106226 0.0613239 0 12327.1
0.107254 0.0619172 0 12314.5
0.10829 0.0625149 4.50918e-21 12309.6
0.109332 0.0631169 4.50915e-21 12302.5
0.110382 0.0637232 -4.50911e-21 12289.4
0.11144 0.064334 -4.50908e-21 12272.9
0.112506 0.0649492 4.50905e-21 12258.7
0.11358 0.0655688 4.50902e-21 12259.9
0.114661 0.066193 0 12248.5
0.11575 0.0668218 0 12249.6
0.116847 0.0674552 0 12249.3
0.117952 0.0680932 0 12245.3
0.119065 0.068736 0 12239.6
0.120187 0.0693834 4.50884e-21 12241.2
0.121316 0.0700357 0 12225.9
0.122455 0.0706928 0 12216.9
0.123601 0.0713548 -4.50875e-21 12212.4
0.124756 0.0720217 0 12195.6
0.12592 0.0726935 -4.5087e-21 12189.3
0.127093 0.0733704 0 12182.4
0.128274 0.0740524 0 12174.1
0.129464 0.0747395 4.50859e-21 12164.1
0.130663 0.0754317 0 12156.4
0.131871 0.0761292 4.50853e-21 12164.6
0.133088 0.0768319 4.50851e-21 12156.8
0.134315 0.0775399 0 12162.9
0.13555 0.0782532 4.50845e-21 12156
0.136795 0.078972 0 12151.7
0.13805 0.0796962 0 12142.2
0.139314 0.080426 -4.50834e-21 12133.5
0.140587 0.0811613 -4.50831e-21 12127.7
0.14187 0.0819021 4.50827e-21 12120.4
0.143163 0.0826487 0 12109.6
0.144466 0.0834009 0 12098.2
0.145779 0.0841589 0 12090
0.147102 0.0849227 4.50815e-21 12079.9
0.148435 0.0856924 4.50811e-21 12062.2
0.149779 0.0864679 0 12054.6
0.151133 0.0872495 4.50805e-21 12047.1
0.152497 0.0880371 4.50801e-21 12050.2
0.153871 0.0888307 4.50798e-21 12050.8
0.155257 0.0896305 0 12049.1
0.156653 0.0904364 4.50791e-21 12049.8
0.15806 0.0912487 4.50787e-21 12034.6
0.159478 0.0920672 0 12030.5
0.160907 0.092892 0 12013.8
0.162347 0.0937233 0 12001.5
0.163798 0.0945611 4.50774e-21 12006.6
0.16526 0.0954054 0 11997.5
0.166734 0.0962563 0 12000.6
0.168219 0.0971138 0 11995.8
0.169716 0.097978 4.50761e-21 11987
0.171225 0.098849 4.50758e-21 11980.1
0.172745 0.0997268 4.50754e-21 11965.4
0.174278 0.100611 0 11958
0.175822 0.101503 0 11956
0.177379 0.102402 0 11966.8
0.178947 0.103308 4.50741e-21 11962.7
0.180529 0.10422 4.50737e-21 11957.8
0.182122 0.10514 4.50734e-21 11957.5
0.183728 0.106068 0 11943.7
0.185347 0.107002 -4.50727e-21 11930.6
0.186979 0.107944 0 11915.9
0.188623 0.108894 0 11916.8
0.190281 0.109851 4.50716e-21 11907.7
0.191952 0.110815 0 11918.8
0.193636 0.111787 -4.5071e-21 11921.6
0.195333 0.112767 -4.50707e-21 11926.4
0.197044 0.113755 -4.50702e-21 11920.6
0.198768 0.114751 -4.507e-21 11919.2
0.200506 0.115754 -4.50696e-21 11896.5
0.202258 0.116766 0 11899.7
0.204024 0.117785 4.50688e-21 11892.2
0.205805 0.118813 4.50686e-21 11901.3
0.207599 0.119849 0 11902.7
0.209408 0.120893 -4.50679e-21 11902.5
0.211231 0.121946 -4.50676e-21 11902.6
0.213068 0.123007 0 11872
0.214921 0.124076 0 11861.6
0.216788 0.125154 0 11851.9
0.21867 0.126241 0 11846.5
0.220567 0.127336 0 11845
0.22248 0.12844 0 11856.8
0.224408 0.129553 0 11860.9
0.226351 0.130675 0 11862.3
0.22831 0.131806 0 11853.7
0.230284 0.132946 9.01282e-21 11828.3
0.232275 0.134095 0 11804.7
0.234282 0.135254 9.01268e-21 11802.4
0.236304 0.136421 0 11786.9
0.238344 0.137598 9.01253e-21 11799.7
0.2404 0.138785 0 11804.9
0.242472 0.139982 0 11819.9
