# wallHeatFlux  FACE_DATA 448
# x  y  z  wallHeatFlux
-0.778 -3.80769e-06 0 -198882
-0.773968 -3.80769e-06 0 -40154.3
-0.769872 -3.80769e-06 0 -24476.2
-0.76571 -3.80769e-06 0 -19627.1
-0.761486 -3.80769e-06 0 -16560.4
-0.757196 -3.80769e-06 0 -14601.9
-0.752841 -3.80769e-06 0 -13265.6
-0.748422 -3.80769e-06 0 -12253
-0.743939 -3.80769e-06 0 -11464.9
-0.739391 -3.80769e-06 0 -10818.3
-0.73478 -3.80769e-06 0 -10265.8
-0.730104 -3.80769e-06 0 -9792.31
-0.725364 -3.80769e-06 0 -9403.42
-0.720562 -3.80769e-06 0 -9141.9
-0.715696 -3.80769e-06 0 -9008
-0.710769 -3.80769e-06 0 -9157.22
-0.705778 -3.80769e-06 0 -9525.89
-0.700727 -3.80769e-06 0 -10151.6
-0.695615 -3.80769e-06 0 -10901
-0.690443 -3.80769e-06 0 -11597.6
-0.685211 -3.80769e-06 0 -12160.9
-0.67992 -3.80769e-06 0 -12596.1
-0.674571 -3.80769e-06 0 -12929.8
-0.669166 -3.80769e-06 0 -13183.2
-0.663704 -3.80769e-06 0 -13367.1
-0.658187 -3.80769e-06 0 -13497.4
-0.652616 -3.80769e-06 0 -13595.4
-0.646993 -3.80769e-06 0 -13650.3
-0.641317 -3.80769e-06 0 -13673.3
-0.635592 -3.80769e-06 0 -13684.1
-0.629817 -3.80769e-06 0 -13674.9
-0.623994 -3.80769e-06 0 -13647.7
-0.618125 -3.80769e-06 0 -13610.7
-0.61221 -3.80769e-06 0 -13562.3
-0.606252 -3.80769e-06 0 -13508.2
-0.600253 -3.80769e-06 0 -13448.6
-0.594213 -3.80769e-06 0 -13388.6
-0.588134 -3.80769e-06 0 -13328.5
-0.582018 -3.80769e-06 0 -13268
-0.575867 -3.80769e-06 0 -13207.3
-0.569683 -3.80769e-06 0 -13140.8
-0.563467 -3.80769e-06 0 -13074.1
-0.557221 -3.80769e-06 0 -13007.5
-0.550946 -3.80769e-06 0 -12950.4
-0.544647 -3.80769e-06 0 -12894
-0.538323 -3.80769e-06 0 -12837.1
-0.531979 -3.80769e-06 0 -12774.6
-0.525613 -3.80769e-06 0 -12717.1
-0.51923 -3.80769e-06 0 -12659.4
-0.512832 -3.80769e-06 0 -12612.2
-0.50642 -3.80769e-06 0 -12564.9
-0.499995 -3.80769e-06 0 -12512.2
-0.493562 -3.80769e-06 0 -12453.2
-0.487123 -3.80769e-06 0 -12399.8
-0.480677 -3.80769e-06 0 -12357
-0.47423 -3.80769e-06 0 -12319
-0.467782 -3.80769e-06 0 -12286.8
-0.461335 -3.80769e-06 0 -12243.6
-0.454892 -3.80769e-06 0 -12199.3
-0.448455 -3.80769e-06 0 -12150.6
-0.442026 -3.80769e-06 0 -12100.5
-0.435607 -3.80769e-06 0 -12062
-0.429202 -3.80769e-06 0 -12033.8
-0.42281 -3.80769e-06 0 -12010.9
-0.416434 -3.80769e-06 0 -11982.7
-0.410078 -3.80769e-06 0 -11948
-0.403743 -3.80769e-06 0 -11903.3
-0.39743 -3.80769e-06 0 -11858.5
-0.391141 -3.80769e-06 0 -11812.6
-0.38488 -3.80769e-06 0 -11778.4
-0.378648 -3.80769e-06 0 -11743.8
-0.372446 -3.80769e-06 0 -11736
-0.366277 -3.80769e-06 0 -11723.1
-0.360142 -3.80769e-06 0 -11703.7
-0.354042 -3.80769e-06 0 -11679.8
-0.347981 -3.80769e-06 0 -11644.7
-0.341959 -3.80769e-06 0 -11604.4
-0.335978 -3.80769e-06 0 -11558.1
-0.33004 -3.80769e-06 0 -11517.1
-0.324146 -3.80769e-06 0 -11487.9
-0.318298 -3.80769e-06 0 -11457.6
-0.312497 -3.80769e-06 0 -11449.3
-0.306744 -3.80769e-06 0 -11446.2
-0.301041 -3.80769e-06 0 -11437.8
-0.29539 -3.80769e-06 0 -11434.4
-0.28979 -3.80769e-06 0 -11421.3
-0.284243 -3.80769e-06 0 -11407
-0.278752 -3.80769e-06 0 -11382.5
-0.273316 -3.80769e-06 0 -11352.6
-0.267937 -3.80769e-06 0 -11317.3
-0.262614 -3.80769e-06 0 -11281.6
-0.25735 -3.80769e-06 0 -11241.7
-0.252146 -3.80769e-06 0 -11211.6
-0.247001 -3.80769e-06 0 -11187.1
-0.241916 -3.80769e-06 0 -11168.1
-0.236893 -3.80769e-06 0 -11159.9
-0.231931 -3.80769e-06 0 -11151.5
-0.227031 -3.80769e-06 0 -11149.6
-0.222195 -3.80769e-06 0 -11151.9
-0.217421 -3.80769e-06 0 -11149.3
-0.212711 -3.80769e-06 0 -11151.7
-0.208064 -3.80769e-06 0 -11144.6
-0.203482 -3.80769e-06 0 -11135.9
-0.198964 -3.80769e-06 0 -11123.3
-0.19451 -3.80769e-06 0 -11110.4
-0.19012 -3.80769e-06 0 -11086.9
-0.185796 -3.80769e-06 0 -11069.1
-0.181535 -3.80769e-06 0 -11045.2
-0.17734 -3.80769e-06 0 -11021.4
-0.173208 -3.80769e-06 0 -10993.6
-0.169141 -3.80769e-06 0 -10969.4
-0.165138 -3.80769e-06 0 -10941.9
-0.161199 -3.80769e-06 0 -10923.8
-0.157325 -3.80769e-06 0 -10906.3
-0.153513 -3.80769e-06 0 -10888.7
-0.149765 -3.80769e-06 0 -10881.5
-0.14608 -3.80769e-06 0 -10870
-0.142457 -3.80769e-06 0 -10863.8
-0.138897 -3.80769e-06 0 -10861.6
-0.135398 -3.80769e-06 0 -10861.6
-0.131961 -3.80769e-06 0 -10865.6
-0.128584 -3.80769e-06 0 -10869.5
-0.125268 -3.80769e-06 0 -10869.3
-0.122011 -3.80769e-06 0 -10874.4
-0.118815 -3.80769e-06 0 -10878
-0.115677 -3.80769e-06 0 -10883.3
-0.112597 -3.80769e-06 0 -10882.8
-0.109574 -3.80769e-06 0 -10882.9
-0.106609 -3.80769e-06 0 -10882
-0.1037 -3.80769e-06 0 -10876.4
-0.100846 -3.80769e-06 0 -10875.9
-0.098048 -3.80769e-06 0 -10870.7
-0.0953042 -3.80769e-06 0 -10865.3
-0.0926143 -3.80769e-06 0 -10854.5
-0.0899773 -3.80769e-06 0 -10849.3
-0.0873927 -3.80769e-06 0 -10838.6
-0.0848599 -3.80769e-06 0 -10828.3
-0.082378 -3.80769e-06 0 -10823
-0.0799465 -3.80769e-06 0 -10812.7
-0.0775645 -3.80769e-06 0 -10797.2
-0.0752312 -3.80769e-06 0 -10786.8
-0.0729462 -3.80769e-06 0 -10776.7
-0.0707085 -3.80769e-06 0 -10766.5
-0.0685175 -3.80769e-06 0 -10756.5
-0.0663725 -3.80769e-06 0 -10741
-0.0642727 -3.80769e-06 0 -10731.2
-0.0622173 -3.80769e-06 0 -10721.3
-0.0602058 -3.80769e-06 0 -10711.3
-0.0582373 -3.80769e-06 0 -10701.6
-0.0563111 -3.80769e-06 0 -10691.9
-0.0544265 -3.80769e-06 0 -10682.2
-0.0525827 -3.80769e-06 0 -10672.6
-0.0507792 -3.80769e-06 0 -10663
-0.0490152 -3.80769e-06 0 -10658.9
-0.0472898 -3.80769e-06 0 -10649.5
-0.0456025 -3.80769e-06 0 -10640
-0.0439526 -3.80769e-06 0 -10636.1
-0.0423394 -3.80769e-06 0 -10626.7
-0.0407622 -3.80769e-06 0 -10623
-0.0392203 -3.80769e-06 0 -10613.9
-0.0377131 -3.80769e-06 0 -10610.2
-0.0362398 -3.80769e-06 0 -10606.6
-0.0347999 -3.80769e-06 0 -10597.7
-0.0333926 -3.80769e-06 0 -10594.3
-0.0320175 -3.80769e-06 0 -10590.9
-0.0306737 -3.80769e-06 0 -10582.3
-0.0293607 -3.80769e-06 0 -10579.4
-0.0280779 -3.80769e-06 0 -10576.1
-0.0268246 -3.80769e-06 0 -10573.6
-0.0256004 -3.80769e-06 0 -10570.6
-0.0244045 -3.80769e-06 0 -10568.2
-0.0232363 -3.80769e-06 0 -10566
-0.0220954 -3.80769e-06 0 -10585.1
-0.0209812 -3.80769e-06 0 -10615.7
-0.019893 -3.80769e-06 0 -10544.2
-0.0188303 -3.80769e-06 0 -9989.08
-0.0177927 -3.80769e-06 0 -8793.47
-0.0167794 -3.80769e-06 0 -7640.27
-0.0157901 -3.80769e-06 0 -7261.73
-0.0148243 -3.80769e-06 0 -7616.63
-0.0138814 -3.80769e-06 0 -8355.69
-0.0129608 -3.80769e-06 0 -9037.46
-0.0120623 -3.80769e-06 0 -9602.15
-0.0111851 -3.80769e-06 0 -10079
-0.0103289 -3.80769e-06 0 -10466.7
-0.00949328 -3.80769e-06 0 -10804
-0.00867767 -3.80769e-06 0 -11097
-0.00788168 -3.80769e-06 0 -11343.3
-0.00710485 -3.80769e-06 0 -11548.9
-0.00634675 -3.80769e-06 0 -11725.4
-0.00560698 -3.80769e-06 0 -11857.9
-0.0048851 -3.80769e-06 0 -12014.7
-0.00418071 -3.80769e-06 0 -12250.8
-0.00349342 -3.80769e-06 0 -12649
-0.00282284 -3.80769e-06 0 -13373.4
-0.00216857 -3.80769e-06 0 -14409.3
-0.00153026 -3.80769e-06 0 -15565.3
-0.00090752 -3.80769e-06 0 -15972.8
-0.0003 -3.80769e-06 0 -14506.7
0.000259937 0.000146262 2.25537e-21 -13399.1
0.000779437 0.000446185 0 -16469.2
0.00129893 0.000746101 0 -19656.7
0.00181858 0.00104611 2.2554e-21 -22191.5
0.00233835 0.00134618 -2.25541e-21 -24335.7
0.00285828 0.00164636 2.25542e-21 -26311
0.00337841 0.00194664 0 -28331.7
0.00389877 0.00224706 0 -30407.9
0.00441941 0.00254764 -2.25544e-21 -32592.7
0.00494034 0.00284839 2.25545e-21 -34820.7
0.00546162 0.00314934 -2.25546e-21 -37102.7
0.00598328 0.0034505 2.25547e-21 -39457.5
0.00650535 0.00375191 2.25547e-21 -41931.3
0.00702786 0.00405357 2.25548e-21 -44607.8
0.00755087 0.00435552 0 -47546
0.00807439 0.00465776 -2.25549e-21 -50733.5
0.00859847 0.00496033 2.2555e-21 -54133.9
0.00912315 0.00526324 0 -57670.2
0.00964845 0.00556651 2.25551e-21 -61294.4
0.0101744 0.00587017 0 -64980.4
0.0107011 0.00617424 0 -68723.3
0.0112285 0.00647873 -2.25552e-21 -72523.7
0.0117567 0.00678367 0 -76392.9
0.0122857 0.00708907 0 -80332.7
0.0128156 0.00739497 0 -84317
0.0133463 0.00770137 -2.25554e-21 -88367.1
0.0138779 0.00800831 0 -92466.9
0.0144106 0.0083158 0 -96552.2
0.0149442 0.00862387 0 -100655
0.0154788 0.00893253 0 -104785
0.0160145 0.00924181 0 -109009
0.0165513 0.00955172 2.25556e-21 -113484
0.0170893 0.00986231 -2.25556e-21 -118519
0.0176284 0.0101736 0 -124634
0.0181687 0.0104855 0 -132086
0.0187103 0.0107982 2.25556e-21 -140582
0.0192532 0.0111117 2.25557e-21 -149479
0.0197975 0.0114259 2.25557e-21 -157776
0.0203431 0.0117408 0 -165147
0.0208901 0.0120566 4.51114e-21 -172032
0.0214385 0.0123732 -4.51114e-21 -178939
0.0219884 0.0126907 0 -186104
0.0225398 0.0130091 4.51114e-21 -193027
0.0230928 0.0133283 0 -199244
0.0236474 0.0136485 0 -204046
0.0242037 0.0139697 0 -207644
0.0247616 0.0142918 -4.51113e-21 -210093
0.0253212 0.0146148 -4.51113e-21 -212256
0.0258825 0.0149389 -4.51114e-21 -213600
0.0264456 0.015264 0 -215414
0.0270106 0.0155902 0 -217030
0.0275774 0.0159174 -4.51112e-21 -218114
0.0281462 0.0162457 0 -218717
0.0287168 0.0165752 4.51111e-21 -219074
0.0292895 0.0169059 -4.51111e-21 -219204
0.0298642 0.0172376 0 -218987
0.0304409 0.0175706 0 -218050
0.0310198 0.0179048 4.5111e-21 -217128
0.0316007 0.0182402 4.5111e-21 -216105
0.0321839 0.0185768 -4.51107e-21 -214993
0.0327693 0.0189148 0 -214241
0.0333569 0.0192541 0 -213293
0.0339469 0.0195947 4.51106e-21 -212754
0.0345392 0.0199366 0 -211739
0.0351339 0.02028 0 -209787
0.035731 0.0206247 4.51105e-21 -207594
0.0363305 0.0209708 -4.51103e-21 -205857
0.0369326 0.0213184 4.51102e-21 -204123
0.0375373 0.0216675 0 -202488
0.0381445 0.0220181 0 -200565
0.0387543 0.0223702 0 -199527
0.0393668 0.0227238 4.51099e-21 -197675
0.0399821 0.023079 -4.51097e-21 -196291
0.0406001 0.0234358 4.51097e-21 -194103
0.041221 0.0237942 0 -192403
0.0418446 0.0241542 0 -190565
0.0424712 0.024516 4.51092e-21 -188680
0.0431006 0.0248794 -4.51094e-21 -187374
0.0437331 0.0252445 0 -185883
0.0443686 0.0256114 4.51089e-21 -184273
0.0450071 0.02598 4.51089e-21 -183376
0.0456487 0.0263505 0 -182014
0.0462935 0.0267227 0 -181347
0.0469415 0.0270968 -4.51085e-21 -179751
0.0475927 0.0274728 0 -178948
0.0482473 0.0278507 -4.51081e-21 -177922
0.0489051 0.0282305 4.51081e-21 -176487
0.0495663 0.0286122 -4.51079e-21 -175480
0.050231 0.0289959 0 -174304
0.0508991 0.0293816 -4.51077e-21 -172942
0.0515707 0.0297694 4.51073e-21 -171569
0.0522459 0.0301592 -4.51073e-21 -170919
0.0529247 0.0305511 0 -169532
0.0536071 0.0309451 0 -169341
0.0542933 0.0313412 -4.51067e-21 -168372
0.0549832 0.0317395 0 -167657
0.0556769 0.03214 0 -166762
0.0563744 0.0325427 0 -165864
0.0570758 0.0329477 -4.5106e-21 -164798
0.0577812 0.0333549 0 -163746
0.0584905 0.0337645 0 -162604
0.0592039 0.0341763 -4.51056e-21 -162179
0.0599214 0.0345905 4.51053e-21 -161084
0.060643 0.0350071 0 -160856
0.0613688 0.0354262 4.51049e-21 -159855
0.0620989 0.0358477 -4.51048e-21 -159405
0.0628332 0.0362716 4.51046e-21 -158557
0.0635719 0.0366981 0 -157837
0.0643149 0.037127 4.51041e-21 -157333
0.0650624 0.0375586 0 -156407
0.0658144 0.0379927 0 -156067
0.0665709 0.0384295 4.51035e-21 -155269
0.0673321 0.0388689 -4.51035e-21 -154983
0.0680979 0.039311 0 -154550
0.0688683 0.0397558 -4.51029e-21 -153609
0.0696435 0.0402034 4.51029e-21 -153241
0.0704236 0.0406537 0 -152478
0.0712085 0.0411069 0 -152122
0.0719983 0.0415628 0 -151117
0.0727931 0.0420217 0 -150473
0.0735929 0.0424834 0 -149886
0.0743978 0.0429481 0 -149050
0.0752078 0.0434158 0 -148758
0.076023 0.0438864 4.5101e-21 -148013
0.0768435 0.0443601 -4.51009e-21 -147811
0.0776693 0.0448369 -4.51004e-21 -147258
0.0785004 0.0453167 4.51003e-21 -146698
0.079337 0.0457997 0 -146454
0.080179 0.0462858 0 -145776
0.0810266 0.0467751 0 -145186
0.0818797 0.0472677 0 -145044
0.0827385 0.0477635 0 -144084
0.083603 0.0482626 0 -143800
0.0844733 0.0487651 4.50985e-21 -143316
0.0853495 0.0492709 -4.50983e-21 -142739
0.0862316 0.0497801 0 -142598
0.0871195 0.0502927 -4.50978e-21 -141721
0.0880135 0.0508089 0 -141560
0.0889136 0.0513285 0 -141297
0.0898198 0.0518517 0 -140656
0.0907322 0.0523785 0 -140284
0.0916509 0.0529089 0 -139749
0.0925758 0.0534429 4.50963e-21 -139366
0.0935072 0.0539806 4.50959e-21 -138868
0.094445 0.054522 0 -138517
0.0953894 0.0550672 4.50953e-21 -138048
0.0963404 0.0556162 0 -137699
0.0972979 0.0561691 0 -137112
0.0982622 0.0567258 0 -136887
0.0992333 0.0572865 0 -136584
0.100211 0.057851 0 -136127
0.101196 0.0584196 0 -135305
0.102188 0.0589922 4.50935e-21 -135414
0.103187 0.0595689 4.50932e-21 -135071
0.104193 0.0601497 -4.50928e-21 -134077
0.105206 0.0607347 0 -134313
0.106226 0.0613239 0 -133624
0.107254 0.0619172 0 -133415
0.10829 0.0625149 4.50918e-21 -132846
0.109332 0.0631169 4.50915e-21 -132663
0.110382 0.0637232 -4.50911e-21 -132693
0.11144 0.064334 -4.50908e-21 -132166
0.112506 0.0649492 4.50905e-21 -132187
0.11358 0.0655688 4.50902e-21 -131241
0.114661 0.066193 0 -131247
0.11575 0.0668218 0 -131134
0.116847 0.0674552 0 -130958
0.117952 0.0680932 0 -130662
0.119065 0.068736 0 -130649
0.120187 0.0693834 4.50884e-21 -129801
0.121316 0.0700357 0 -129830
0.122455 0.0706928 0 -129736
0.123601 0.0713548 -4.50875e-21 -128586
0.124756 0.0720217 0 -129080
0.12592 0.0726935 -4.5087e-21 -128414
0.127093 0.0733704 0 -128273
0.128274 0.0740524 0 -127647
0.129464 0.0747395 4.50859e-21 -127746
0.130663 0.0754317 0 -127454
0.131871 0.0761292 4.50853e-21 -126878
0.133088 0.0768319 4.50851e-21 -127412
0.134315 0.0775399 0 -126920
0.13555 0.0782532 4.50845e-21 -126437
0.136795 0.078972 0 -126694
0.13805 0.0796962 0 -125922
0.139314 0.080426 -4.50834e-21 -126217
0.140587 0.0811613 -4.50831e-21 -125520
0.14187 0.0819021 4.50827e-21 -125299
0.143163 0.0826487 0 -125079
0.144466 0.0834009 0 -124989
0.145779 0.0841589 0 -124925
0.147102 0.0849227 4.50815e-21 -123979
0.148435 0.0856924 4.50811e-21 -124072
0.149779 0.0864679 0 -123738
0.151133 0.0872495 4.50805e-21 -123331
0.152497 0.0880371 4.50801e-21 -123117
0.153871 0.0888307 4.50798e-21 -123609
0.155257 0.0896305 0 -122944
0.156653 0.0904364 4.50791e-21 -122651
0.15806 0.0912487 4.50787e-21 -122988
0.159478 0.0920672 0 -122139
0.160907 0.092892 0 -121814
0.162347 0.0937233 0 -121990
0.163798 0.0945611 4.50774e-21 -120969
0.16526 0.0954054 0 -121405
0.166734 0.0962563 0 -121237
0.168219 0.0971138 0 -120645
0.169716 0.097978 4.50761e-21 -120742
0.171225 0.098849 4.50758e-21 -120276
0.172745 0.0997268 4.50754e-21 -120432
0.174278 0.100611 0 -119499
0.175822 0.101503 0 -119777
0.177379 0.102402 0 -118914
0.178947 0.103308 4.50741e-21 -119644
0.180529 0.10422 4.50737e-21 -119292
0.182122 0.10514 4.50734e-21 -118608
0.183728 0.106068 0 -119142
0.185347 0.107002 -4.50727e-21 -118705
0.186979 0.107944 0 -117875
0.188623 0.108894 0 -118406
0.190281 0.109851 4.50716e-21 -117830
0.191952 0.110815 0 -118020
0.193636 0.111787 -4.5071e-21 -117117
0.195333 0.112767 -4.50707e-21 -117318
0.197044 0.113755 -4.50702e-21 -116881
0.198768 0.114751 -4.507e-21 -116578
0.200506 0.115754 -4.50696e-21 -116334
0.202258 0.116766 0 -116613
0.204024 0.117785 4.50688e-21 -115942
0.205805 0.118813 4.50686e-21 -116396
0.207599 0.119849 0 -115872
0.209408 0.120893 -4.50679e-21 -115567
0.211231 0.121946 -4.50676e-21 -115175
0.213068 0.123007 0 -115799
0.214921 0.124076 0 -114884
0.216788 0.125154 0 -114088
0.21867 0.126241 0 -115068
0.220567 0.127336 0 -114347
0.22248 0.12844 0 -113637
0.224408 0.129553 0 -114544
0.226351 0.130675 0 -113647
0.22831 0.131806 0 -113674
0.230284 0.132946 9.01282e-21 -113250
0.232275 0.134095 0 -113287
0.234282 0.135254 9.01268e-21 -112480
0.236304 0.136421 0 -112966
0.238344 0.137598 9.01253e-21 -112610
0.2404 0.138785 0 -112018
0.242472 0.139982 0 -111410
