# y+ ()       
# Time        	patch         	min           	max           	average       
4200          	base	8.240503e-03	2.561336e+01	5.470730e+00
