# y+ ()       
# Time        	patch         	min           	max           	average       
0             	base	1.598586e-02	1.866641e-02	1.756486e-02
