# y+ ()       
# Time        	patch         	min           	max           	average       
11500         	base	1.233134e-04	3.473639e-01	1.193744e-01
