# p  FACE_DATA 398
# x  y  z  p
-0.7975 0 0.025 4472.49
-0.79239 0 0.025 3676.55
-0.787056 0 0.025 2939.56
-0.781492 0 0.025 2853.16
-0.775691 0 0.025 2793.76
-0.769649 0 0.025 2785.43
-0.763362 0 0.025 2811.59
-0.756822 0 0.025 2831.72
-0.750025 0 0.025 2849.85
-0.742968 0 0.025 2859.59
-0.735648 0 0.025 2863.38
-0.72806 0 0.025 2865.28
-0.720203 0 0.025 2866.87
-0.712076 0 0.025 2866.43
-0.703677 0 0.025 2866.66
-0.695006 0 0.025 2862.62
-0.686065 0 0.025 2857.88
-0.676855 0 0.025 2853.96
-0.667379 0 0.025 2851.55
-0.65764 0 0.025 2843.8
-0.647644 0 0.025 2837.31
-0.637397 0 0.025 2832.2
-0.626906 0 0.025 2824.74
-0.616179 0 0.025 2817.62
-0.605224 0 0.025 2810.99
-0.594054 0 0.025 2804.22
-0.582678 0 0.025 2798.01
-0.57111 0 0.025 2790.49
-0.559364 0 0.025 2782.82
-0.547454 0 0.025 2776.42
-0.535396 0 0.025 2770.13
-0.523205 0 0.025 2764.48
-0.510901 0 0.025 2758.74
-0.4985 0 0.025 2752.22
-0.486021 0 0.025 2745.55
-0.473483 0 0.025 2740.61
-0.460905 0 0.025 2737.2
-0.448308 0 0.025 2732.86
-0.435709 0 0.025 2726.76
-0.42313 0 0.025 2720.32
-0.41059 0 0.025 2715.44
-0.39811 0 0.025 2714.12
-0.385706 0 0.025 2713.62
-0.373398 0 0.025 2711.2
-0.361205 0 0.025 2705.37
-0.349141 0 0.025 2698.63
-0.337226 0 0.025 2693.11
-0.325475 0 0.025 2689.97
-0.313901 0 0.025 2692.59
-0.30252 0 0.025 2694.93
-0.291343 0 0.025 2695.84
-0.280382 0 0.025 2694.16
-0.269646 0 0.025 2689.24
-0.259148 0 0.025 2682.06
-0.248893 0 0.025 2675.6
-0.23889 0 0.025 2670.71
-0.229143 0 0.025 2668.45
-0.219659 0 0.025 2668.22
-0.210441 0 0.025 2671.84
-0.201491 0 0.025 2676.26
-0.192812 0 0.025 2680.69
-0.184405 0 0.025 2683.76
-0.176269 0 0.025 2685.4
-0.168404 0 0.025 2685.69
-0.160808 0 0.025 2684.45
-0.15348 0 0.025 2681.11
-0.146415 0 0.025 2676.85
-0.13961 0 0.025 2671.28
-0.133063 0 0.025 2665.89
-0.126767 0 0.025 2661.08
-0.120718 0 0.025 2657.04
-0.11491 0 0.025 2653.71
-0.109339 0 0.025 2651.19
-0.103997 0 0.025 2649.42
-0.0988805 0 0.025 2648.44
-0.0939808 0 0.025 2648.19
-0.0892928 0 0.025 2648.38
-0.0848096 0 0.025 2649.77
-0.0805248 0 0.025 2651.45
-0.0764316 0 0.025 2653.55
-0.0725237 0 0.025 2655.92
-0.0687943 0 0.025 2658.46
-0.065237 0 0.025 2661.02
-0.0618454 0 0.025 2663.48
-0.058613 0 0.025 2665.76
-0.0555337 0 0.025 2667.85
-0.0526013 0 0.025 2669.71
-0.0498099 0 0.025 2671.35
-0.0471536 0 0.025 2672.78
-0.0446266 0 0.025 2674.03
-0.0422235 0 0.025 2675.1
-0.039939 0 0.025 2676.04
-0.0377676 0 0.025 2676.85
-0.0357044 0 0.025 2677.58
-0.0337445 0 0.025 2678.21
-0.0318832 0 0.025 2678.76
-0.0301159 0 0.025 2679.23
-0.0284383 0 0.025 2679.63
-0.0268461 0 0.025 2679.96
-0.0253353 0 0.025 2680.25
-0.023902 0 0.025 2680.48
-0.0225426 0 0.025 2680.67
-0.0212532 0 0.025 2680.83
-0.0200306 0 0.025 2681.82
-0.0188715 0 0.025 2770.26
-0.0177728 0 0.025 4161.27
-0.0167313 0 0.025 7702.97
-0.0157444 0 0.025 9099.34
-0.0148092 0 0.025 9416.14
-0.0139232 0 0.025 9981.63
-0.0130838 0 0.025 10477.8
-0.0122887 0 0.025 10817.3
-0.0115356 0 0.025 11024.8
-0.0108223 0 0.025 11167.3
-0.0101469 0 0.025 11273.9
-0.00950727 0 0.025 11359.4
-0.00890168 0 0.025 11436.4
-0.00832835 0 0.025 11509.5
-0.00778557 0 0.025 11579.1
-0.00727176 0 0.025 11643.8
-0.0067854 0 0.025 11700.4
-0.00632507 0 0.025 11744.3
-0.00588937 0 0.025 11771
-0.00547703 0 0.025 11777
-0.0050868 0 0.025 11762.5
-0.00471753 0 0.025 11726.7
-0.0043681 0 0.025 11676.8
-0.00403746 0 0.025 11621.2
-0.00372461 0 0.025 11569.2
-0.0034286 0 0.025 11528
-0.00314855 0 0.025 11501.4
-0.0028836 0 0.025 11489
-0.00263294 0 0.025 11497.1
-0.00239581 0 0.025 11529.8
-0.0021715 0 0.025 11584.7
-0.00195929 0 0.025 11670.4
-0.00175856 0 0.025 11778.3
-0.00156869 0 0.025 11909.9
-0.00138908 0 0.025 12069.2
-0.0012192 0 0.025 12253.4
-0.00105853 0 0.025 12458.9
-0.000906546 0 0.025 12679.6
-0.000762803 0 0.025 12908
-0.000626848 0 0.025 13132.5
-0.000498265 0 0.025 13335.3
-0.000376656 0 0.025 13490.4
-0.000261642 0 0.025 13574.4
-0.00015287 0 0.025 13582.9
-5e-05 0 0.025 13698.9
4.14519e-05 2.79596e-05 0.025 13016
0.000125371 8.45641e-05 0.025 13107.4
0.000211347 0.000142556 0.025 13040.5
0.000299429 0.000201968 0.025 12911.4
0.000389669 0.000262835 0.025 12755.9
0.000482118 0.000325193 0.025 12590.6
0.000576831 0.000389077 0.025 12422.4
0.000673861 0.000454524 0.025 12259.4
0.000773265 0.000521574 0.025 12111.5
0.0008751 0.000590262 0.025 11986.1
0.000979426 0.000660632 0.025 11888
0.0010863 0.000732721 0.025 11820.2
0.00119579 0.000806572 0.025 11774.3
0.00130795 0.000882227 0.025 11759.6
0.00142285 0.00095973 0.025 11770.2
0.00154056 0.00103912 0.025 11798.8
0.00166115 0.00112046 0.025 11844.2
0.00178467 0.00120378 0.025 11908.5
0.00191121 0.00128913 0.025 11987.8
0.00204083 0.00137656 0.025 12083
0.00217362 0.00146612 0.025 12193.4
0.00230964 0.00155787 0.025 12317.9
0.00244897 0.00165185 0.025 12457.2
0.00259169 0.00174812 0.025 12610.9
0.00273789 0.00184673 0.025 12778.4
0.00288765 0.00194774 0.025 12960.3
0.00304105 0.00205122 0.025 13156.2
0.00319818 0.00215719 0.025 13367.8
0.00335912 0.00226575 0.025 13594.7
0.00352397 0.00237695 0.025 13837.7
0.00369283 0.00249085 0.025 14098.2
0.00386579 0.00260751 0.025 14377.4
0.00404294 0.00272699 0.025 14676.4
0.00422438 0.00284938 0.025 14996.1
0.00441022 0.00297474 0.025 15338.7
0.00460056 0.00310312 0.025 15705.9
0.00479552 0.00323462 0.025 16099.7
0.00499519 0.0033693 0.025 16521.5
0.00519968 0.00350723 0.025 16974.9
0.00540911 0.00364849 0.025 17461
0.00562361 0.00379318 0.025 17983.7
0.00584329 0.00394134 0.025 18546.5
0.00606826 0.00409309 0.025 19152.4
0.00629865 0.00424849 0.025 19806.7
0.0065346 0.00440764 0.025 20513.8
0.00677623 0.00457063 0.025 21280.7
0.00702368 0.00473753 0.025 22112.9
0.00727707 0.00490844 0.025 23021.6
0.00753655 0.00508347 0.025 24011.2
0.00780227 0.00526269 0.025 25099.5
0.00807436 0.00544622 0.025 26292.3
0.00835298 0.00563415 0.025 27610.1
0.00863826 0.00582659 0.025 29068
0.00893038 0.00602362 0.025 30690.1
0.00922949 0.00622537 0.025 32504.8
0.00953574 0.00643195 0.025 34536.8
0.00984929 0.00664345 0.025 36817.4
0.0101703 0.00686 0.025 39390.2
0.0104991 0.00708171 0.025 42300
0.0108356 0.00730871 0.025 45593.9
0.0111801 0.0075411 0.025 49281.6
0.0115329 0.00777902 0.025 53369.3
0.011894 0.00802259 0.025 57883.3
0.0122637 0.00827194 0.025 62881.3
0.0126421 0.00852719 0.025 68449.8
0.0130295 0.0087885 0.025 74725.5
0.013426 0.00905597 0.025 81860.5
0.013832 0.00932978 0.025 89979.5
0.0142475 0.00961003 0.025 99116.6
0.0146727 0.0098969 0.025 109127
0.0151081 0.0101905 0.025 119930
0.0155536 0.010491 0.025 131307
0.0160097 0.0107986 0.025 143439
0.0164764 0.0111134 0.025 156014
0.016954 0.0114356 0.025 168001
0.0174427 0.0117653 0.025 177393
0.0179429 0.0121026 0.025 181679
0.0184548 0.0124479 0.025 178463
0.0189786 0.0128013 0.025 171377
0.0195146 0.0131628 0.025 164097
0.020063 0.0135327 0.025 156155
0.0206242 0.0139112 0.025 147624
0.0211983 0.0142984 0.025 140130
0.0217857 0.0146947 0.025 134417
0.0223867 0.0151 0.025 130711
0.0230015 0.0155147 0.025 128415
0.0236304 0.0159389 0.025 126999
0.0242738 0.0163729 0.025 125886
0.0249318 0.0168167 0.025 124831
0.025605 0.0172708 0.025 123918
0.0262935 0.0177352 0.025 123487
0.0269977 0.0182102 0.025 123839
0.0277178 0.0186959 0.025 124706
0.0284544 0.0191927 0.025 125481
0.0292075 0.0197008 0.025 125857
0.0299777 0.0202203 0.025 126126
0.0307653 0.0207514 0.025 126347
0.0315704 0.0212945 0.025 126542
0.0323937 0.0218499 0.025 126714
0.0332354 0.0224176 0.025 126768
0.0340959 0.022998 0.025 126746
0.0349755 0.0235913 0.025 126853
0.0358747 0.0241978 0.025 127585
0.0367938 0.0248178 0.025 128391
0.0377331 0.0254513 0.025 128752
0.0386932 0.0260989 0.025 128336
0.0396743 0.0267606 0.025 127570
0.0406769 0.0274369 0.025 126943
0.0417013 0.0281279 0.025 126678
0.042748 0.0288339 0.025 126657
0.0438175 0.0295552 0.025 126605
0.04491 0.0302922 0.025 126489
0.0460262 0.031045 0.025 126416
0.0471662 0.031814 0.025 126264
0.0483306 0.0325995 0.025 125954
0.0495199 0.0334016 0.025 125730
0.0507344 0.0342208 0.025 125693
0.0519746 0.0350573 0.025 125734
0.0532409 0.0359114 0.025 125696
0.0545339 0.0367835 0.025 125433
0.0558538 0.0376739 0.025 125142
0.0572012 0.0385827 0.025 125017
0.0585766 0.0395104 0.025 125181
0.0599804 0.0404573 0.025 125406
0.061413 0.0414236 0.025 125539
0.0628748 0.0424096 0.025 125574
0.0643665 0.0434157 0.025 125520
0.0658883 0.0444422 0.025 125499
0.0674408 0.0454894 0.025 125434
0.0690245 0.0465576 0.025 125490
0.0706398 0.0476471 0.025 125685
0.0722871 0.0487582 0.025 125915
0.0739669 0.0498912 0.025 126072
0.0756797 0.0510466 0.025 126036
0.0774258 0.0522244 0.025 125843
0.0792059 0.053425 0.025 125644
0.0810203 0.0546489 0.025 125684
0.0828694 0.0558961 0.025 125862
0.0847537 0.0571671 0.025 126194
0.0866737 0.0584622 0.025 126445
0.0886298 0.0597816 0.025 126568
0.0906224 0.0611256 0.025 126539
0.0926518 0.0624944 0.025 126438
0.0947185 0.0638884 0.025 126421
0.096823 0.065308 0.025 126326
0.0989659 0.0667532 0.025 126100
0.101147 0.0682245 0.025 125672
0.103367 0.0697219 0.025 125159
0.105626 0.0712458 0.025 124859
0.107926 0.0727965 0.025 124577
0.110265 0.074374 0.025 124831
0.112644 0.0759789 0.025 125191
0.115063 0.0776111 0.025 126448
0.117524 0.0792709 0.025 126885
0.120026 0.0809585 0.025 127066
0.122569 0.0826741 0.025 126977
0.125155 0.0844179 0.025 126760
0.127782 0.0861901 0.025 126701
0.130451 0.0879908 0.025 126624
0.133163 0.08982 0.025 126798
0.135918 0.0916781 0.025 126921
0.138716 0.0935651 0.025 127093
0.141556 0.095481 0.025 127351
0.14444 0.097426 0.025 127482
0.147367 0.0994004 0.025 127086
0.150337 0.101404 0.025 127735
0.153351 0.103437 0.025 127640
0.156408 0.105498 0.025 126587
0.159508 0.107589 0.025 127320
0.162651 0.10971 0.025 126183
0.165838 0.111859 0.025 123844
0.169069 0.114039 0.025 125638
0.172343 0.116247 0.025 124433
0.175659 0.118483 0.025 124125
0.179018 0.120749 0.025 123692
0.182421 0.123045 0.025 123139
0.185866 0.125368 0.025 122872
0.189353 0.12772 0.025 122209
0.192882 0.1301 0.025 121626
0.196453 0.132509 0.025 121321
0.200065 0.134946 0.025 120601
0.203718 0.13741 0.025 120571
0.207412 0.139901 0.025 121189
0.211146 0.14242 0.025 120922
0.214919 0.144965 0.025 120418
0.218732 0.147537 0.025 120925
0.222583 0.150134 0.025 120050
0.226472 0.152757 0.025 120666
0.230399 0.155406 0.025 119932
0.234362 0.15808 0.025 119929
0.238362 0.160777 0.025 119671
0.242396 0.163498 0.025 120342
0.246466 0.166244 0.025 119687
0.250569 0.169012 0.025 120910
0.254706 0.171801 0.025 120220
0.258874 0.174613 0.025 120126
0.263074 0.177446 0.025 119577
0.267304 0.180299 0.025 120097
0.271564 0.183172 0.025 120585
0.275852 0.186064 0.025 120382
0.280168 0.188975 0.025 121334
0.28451 0.191904 0.025 121041
0.288876 0.19485 0.025 120479
0.293268 0.197812 0.025 121359
0.297683 0.20079 0.025 121056
0.302119 0.203782 0.025 119679
0.306577 0.206788 0.025 120836
0.311054 0.209808 0.025 120213
0.315549 0.212841 0.025 120711
0.320063 0.215885 0.025 119992
0.324591 0.218939 0.025 119429
0.329134 0.222003 0.025 120546
0.333691 0.225077 0.025 119375
0.33826 0.228159 0.025 120513
0.342839 0.231248 0.025 120024
0.347428 0.234343 0.025 121030
0.352025 0.237444 0.025 119910
0.356628 0.240548 0.025 120654
0.361237 0.243658 0.025 120902
0.36585 0.246769 0.025 118970
0.370465 0.249882 0.025 121292
0.375082 0.252996 0.025 120323
0.379698 0.25611 0.025 118897
0.384313 0.259223 0.025 120599
0.388926 0.262333 0.025 119644
0.393534 0.265442 0.025 120184
0.398136 0.268546 0.025 120388
0.40273 0.271645 0.025 119655
0.407317 0.274739 0.025 119549
0.411894 0.277826 0.025 119131
0.41646 0.280906 0.025 120741
0.421014 0.283977 0.025 119914
0.425554 0.28704 0.025 119737
0.430079 0.290092 0.025 120331
0.434588 0.293133 0.025 120018
0.439079 0.296162 0.025 120709
0.443551 0.299179 0.025 120244
0.448004 0.302183 0.025 120232
0.452437 0.305172 0.025 120441
0.456846 0.308146 0.025 120753
0.461232 0.311105 0.025 120697
0.465593 0.314047 0.025 120853
0.469929 0.316971 0.025 120223
0.474238 0.319878 0.025 121632
0.47852 0.322766 0.025 121174
0.482773 0.325635 0.025 121116
0.486996 0.328483 0.025 120619
0.491189 0.331311 0.025 119587
0.49535 0.334118 0.025 120825
