# wallHeatFlux  FACE_DATA 398
# x  y  z  wallHeatFlux
-0.7975 0 0.025 -653677
-0.79239 0 0.025 -120214
-0.787056 0 0.025 -70640.8
-0.781492 0 0.025 -65674.6
-0.775691 0 0.025 -67963.6
-0.769649 0 0.025 -69736.9
-0.763362 0 0.025 -71236.5
-0.756822 0 0.025 -71710.7
-0.750025 0 0.025 -71605.8
-0.742968 0 0.025 -71167.3
-0.735648 0 0.025 -70280.7
-0.72806 0 0.025 -69254.8
-0.720203 0 0.025 -68197.6
-0.712076 0 0.025 -67152
-0.703677 0 0.025 -66206.4
-0.695006 0 0.025 -65179.8
-0.686065 0 0.025 -64178.8
-0.676855 0 0.025 -63305
-0.667379 0 0.025 -62584.7
-0.65764 0 0.025 -61773.2
-0.647644 0 0.025 -61059.6
-0.637397 0 0.025 -60467.5
-0.626906 0 0.025 -59817.5
-0.616179 0 0.025 -59247.6
-0.605224 0 0.025 -58747.9
-0.594054 0 0.025 -58283.4
-0.582678 0 0.025 -57841.8
-0.57111 0 0.025 -57381.9
-0.559364 0 0.025 -56980.1
-0.547454 0 0.025 -56633.9
-0.535396 0 0.025 -56307.5
-0.523205 0 0.025 -55997.8
-0.510901 0 0.025 -55693.8
-0.4985 0 0.025 -55384.7
-0.486021 0 0.025 -55122.3
-0.473483 0 0.025 -54943.6
-0.460905 0 0.025 -54794
-0.448308 0 0.025 -54605.6
-0.435709 0 0.025 -54393.6
-0.42313 0 0.025 -54199.6
-0.41059 0 0.025 -54052.7
-0.39811 0 0.025 -53995.3
-0.385706 0 0.025 -53962.4
-0.373398 0 0.025 -53908
-0.361205 0 0.025 -53782.4
-0.349141 0 0.025 -53643.5
-0.337226 0 0.025 -53520.5
-0.325475 0 0.025 -53472
-0.313901 0 0.025 -53519.8
-0.30252 0 0.025 -53587.9
-0.291343 0 0.025 -53630.5
-0.280382 0 0.025 -53608.5
-0.269646 0 0.025 -53504.9
-0.259148 0 0.025 -53375.1
-0.248893 0 0.025 -53252.7
-0.23889 0 0.025 -53173.8
-0.229143 0 0.025 -53147.7
-0.219659 0 0.025 -53155.8
-0.210441 0 0.025 -53260
-0.201491 0 0.025 -53373.2
-0.192812 0 0.025 -53478.2
-0.184405 0 0.025 -53556.6
-0.176269 0 0.025 -53595.3
-0.168404 0 0.025 -53609.3
-0.160808 0 0.025 -53570
-0.15348 0 0.025 -53496.9
-0.146415 0 0.025 -53392.8
-0.13961 0 0.025 -53260.3
-0.133063 0 0.025 -53140.8
-0.126767 0 0.025 -53038.5
-0.120718 0 0.025 -52947.6
-0.11491 0 0.025 -52873.5
-0.109339 0 0.025 -52821.7
-0.103997 0 0.025 -52784.9
-0.0988805 0 0.025 -52769.2
-0.0939808 0 0.025 -52766.3
-0.0892928 0 0.025 -52775.8
-0.0848096 0 0.025 -52812.2
-0.0805248 0 0.025 -52854.5
-0.0764316 0 0.025 -52902.5
-0.0725237 0 0.025 -52950.6
-0.0687943 0 0.025 -53010.4
-0.065237 0 0.025 -53058.8
-0.0618454 0 0.025 -53108.3
-0.058613 0 0.025 -53151.6
-0.0555337 0 0.025 -53190.8
-0.0526013 0 0.025 -53223.9
-0.0498099 0 0.025 -53252
-0.0471536 0 0.025 -53280.1
-0.0446266 0 0.025 -53297.6
-0.0422235 0 0.025 -53315.1
-0.039939 0 0.025 -53327.2
-0.0377676 0 0.025 -53338.9
-0.0357044 0 0.025 -53346.6
-0.0337445 0 0.025 -53352.9
-0.0318832 0 0.025 -53359.7
-0.0301159 0 0.025 -53366.4
-0.0284383 0 0.025 -53367.8
-0.0268461 0 0.025 -53369.2
-0.0253353 0 0.025 -53370.6
-0.023902 0 0.025 -53372
-0.0225426 0 0.025 -53367.4
-0.0212532 0 0.025 -53370.3
-0.0200306 0 0.025 -53381.8
-0.0188715 0 0.025 -55374.3
-0.0177728 0 0.025 -84760.5
-0.0167313 0 0.025 -137783
-0.0157444 0 0.025 -145989
-0.0148092 0 0.025 -127849
-0.0139232 0 0.025 -129704
-0.0130838 0 0.025 -136420
-0.0122887 0 0.025 -140557
-0.0115356 0 0.025 -140818
-0.0108223 0 0.025 -139209
-0.0101469 0 0.025 -137030
-0.00950727 0 0.025 -134889
-0.00890168 0 0.025 -132970
-0.00832835 0 0.025 -131282
-0.00778557 0 0.025 -129822
-0.00727176 0 0.025 -128675
-0.0067854 0 0.025 -127955
-0.00632507 0 0.025 -127712
-0.00588937 0 0.025 -127853
-0.00547703 0 0.025 -128187
-0.0050868 0 0.025 -128876
-0.00471753 0 0.025 -129873
-0.0043681 0 0.025 -131302
-0.00403746 0 0.025 -133425
-0.00372461 0 0.025 -136285
-0.0034286 0 0.025 -139947
-0.00314855 0 0.025 -144336
-0.0028836 0 0.025 -149261
-0.00263294 0 0.025 -154887
-0.00239581 0 0.025 -161230
-0.0021715 0 0.025 -168072
-0.00195929 0 0.025 -175369
-0.00175856 0 0.025 -182766
-0.00156869 0 0.025 -190553
-0.00138908 0 0.025 -198928
-0.0012192 0 0.025 -207770
-0.00105853 0 0.025 -217075
-0.000906546 0 0.025 -226899
-0.000762803 0 0.025 -236712
-0.000626848 0 0.025 -245807
-0.000498265 0 0.025 -253117
-0.000376656 0 0.025 -255793
-0.000261642 0 0.025 -247352
-0.00015287 0 0.025 -217804
-5e-05 0 0.025 -141886
4.14519e-05 2.79596e-05 0.025 -93641.9
0.000125371 8.45641e-05 0.025 -99583.4
0.000211347 0.000142556 0.025 -117773
0.000299429 0.000201968 0.025 -130500
0.000389669 0.000262835 0.025 -140996
0.000482118 0.000325193 0.025 -151384
0.000576831 0.000389077 0.025 -160998
0.000673861 0.000454524 0.025 -169153
0.000773265 0.000521574 0.025 -175796
0.0008751 0.000590262 0.025 -181162
0.000979426 0.000660632 0.025 -185566
0.0010863 0.000732721 0.025 -189328
0.00119579 0.000806572 0.025 -192580
0.00130795 0.000882227 0.025 -195739
0.00142285 0.00095973 0.025 -198733
0.00154056 0.00103912 0.025 -201666
0.00166115 0.00112046 0.025 -204497
0.00178467 0.00120378 0.025 -207403
0.00191121 0.00128913 0.025 -210335
0.00204083 0.00137656 0.025 -213285
0.00217362 0.00146612 0.025 -216424
0.00230964 0.00155787 0.025 -219736
0.00244897 0.00165185 0.025 -223223
0.00259169 0.00174812 0.025 -226886
0.00273789 0.00184673 0.025 -230775
0.00288765 0.00194774 0.025 -234922
0.00304105 0.00205122 0.025 -239273
0.00319818 0.00215719 0.025 -243919
0.00335912 0.00226575 0.025 -248930
0.00352397 0.00237695 0.025 -254203
0.00369283 0.00249085 0.025 -259869
0.00386579 0.00260751 0.025 -265919
0.00404294 0.00272699 0.025 -272428
0.00422438 0.00284938 0.025 -279425
0.00441022 0.00297474 0.025 -286930
0.00460056 0.00310312 0.025 -295010
0.00479552 0.00323462 0.025 -303704
0.00499519 0.0033693 0.025 -313175
0.00519968 0.00350723 0.025 -323351
0.00540911 0.00364849 0.025 -334436
0.00562361 0.00379318 0.025 -346467
0.00584329 0.00394134 0.025 -359532
0.00606826 0.00409309 0.025 -373908
0.00629865 0.00424849 0.025 -389527
0.0065346 0.00440764 0.025 -406735
0.00677623 0.00457063 0.025 -425746
0.00702368 0.00473753 0.025 -446586
0.00727707 0.00490844 0.025 -469999
0.00753655 0.00508347 0.025 -495855
0.00780227 0.00526269 0.025 -524989
0.00807436 0.00544622 0.025 -557569
0.00835298 0.00563415 0.025 -594301
0.00863826 0.00582659 0.025 -635866
0.00893038 0.00602362 0.025 -683040
0.00922949 0.00622537 0.025 -736584
0.00953574 0.00643195 0.025 -796585
0.00984929 0.00664345 0.025 -863837
0.0101703 0.00686 0.025 -937121
0.0104991 0.00708171 0.025 -1.01954e+06
0.0108356 0.00730871 0.025 -1.106e+06
0.0111801 0.0075411 0.025 -1.19345e+06
0.0115329 0.00777902 0.025 -1.28188e+06
0.011894 0.00802259 0.025 -1.36534e+06
0.0122637 0.00827194 0.025 -1.4438e+06
0.0126421 0.00852719 0.025 -1.51829e+06
0.0130295 0.0087885 0.025 -1.58408e+06
0.013426 0.00905597 0.025 -1.6419e+06
0.013832 0.00932978 0.025 -1.69215e+06
0.0142475 0.00961003 0.025 -1.72868e+06
0.0146727 0.0098969 0.025 -1.7539e+06
0.0151081 0.0101905 0.025 -1.76618e+06
0.0155536 0.010491 0.025 -1.76834e+06
0.0160097 0.0107986 0.025 -1.75385e+06
0.0164764 0.0111134 0.025 -1.73991e+06
0.016954 0.0114356 0.025 -1.72311e+06
0.0174427 0.0117653 0.025 -1.69418e+06
0.0179429 0.0121026 0.025 -1.68821e+06
0.0184548 0.0124479 0.025 -1.68453e+06
0.0189786 0.0128013 0.025 -1.642e+06
0.0195146 0.0131628 0.025 -1.61074e+06
0.020063 0.0135327 0.025 -1.59432e+06
0.0206242 0.0139112 0.025 -1.54978e+06
0.0211983 0.0142984 0.025 -1.49091e+06
0.0217857 0.0146947 0.025 -1.44464e+06
0.0223867 0.0151 0.025 -1.40393e+06
0.0230015 0.0155147 0.025 -1.37471e+06
0.0236304 0.0159389 0.025 -1.36121e+06
0.0242738 0.0163729 0.025 -1.34012e+06
0.0249318 0.0168167 0.025 -1.33501e+06
0.025605 0.0172708 0.025 -1.33307e+06
0.0262935 0.0177352 0.025 -1.32119e+06
0.0269977 0.0182102 0.025 -1.31594e+06
0.0277178 0.0186959 0.025 -1.31657e+06
0.0284544 0.0191927 0.025 -1.35201e+06
0.0292075 0.0197008 0.025 -1.34308e+06
0.0299777 0.0202203 0.025 -1.33635e+06
0.0307653 0.0207514 0.025 -1.33717e+06
0.0315704 0.0212945 0.025 -1.33232e+06
0.0323937 0.0218499 0.025 -1.33437e+06
0.0332354 0.0224176 0.025 -1.33458e+06
0.0340959 0.022998 0.025 -1.33401e+06
0.0349755 0.0235913 0.025 -1.32693e+06
0.0358747 0.0241978 0.025 -1.34473e+06
0.0367938 0.0248178 0.025 -1.33614e+06
0.0377331 0.0254513 0.025 -1.33046e+06
0.0386932 0.0260989 0.025 -1.32209e+06
0.0396743 0.0267606 0.025 -1.31024e+06
0.0406769 0.0274369 0.025 -1.29892e+06
0.0417013 0.0281279 0.025 -1.28812e+06
0.042748 0.0288339 0.025 -1.28623e+06
0.0438175 0.0295552 0.025 -1.26972e+06
0.04491 0.0302922 0.025 -1.25826e+06
0.0460262 0.031045 0.025 -1.25633e+06
0.0471662 0.031814 0.025 -1.25915e+06
0.0483306 0.0325995 0.025 -1.24252e+06
0.0495199 0.0334016 0.025 -1.23746e+06
0.0507344 0.0342208 0.025 -1.23186e+06
0.0519746 0.0350573 0.025 -1.22767e+06
0.0532409 0.0359114 0.025 -1.23078e+06
0.0545339 0.0367835 0.025 -1.21716e+06
0.0558538 0.0376739 0.025 -1.21176e+06
0.0572012 0.0385827 0.025 -1.20972e+06
0.0585766 0.0395104 0.025 -1.21124e+06
0.0599804 0.0404573 0.025 -1.22392e+06
0.061413 0.0414236 0.025 -1.21445e+06
0.0628748 0.0424096 0.025 -1.23607e+06
0.0643665 0.0434157 0.025 -1.24177e+06
0.0658883 0.0444422 0.025 -1.21942e+06
0.0674408 0.0454894 0.025 -1.21518e+06
0.0690245 0.0465576 0.025 -1.2196e+06
0.0706398 0.0476471 0.025 -1.21929e+06
0.0722871 0.0487582 0.025 -1.21952e+06
0.0739669 0.0498912 0.025 -1.22072e+06
0.0756797 0.0510466 0.025 -1.23203e+06
0.0774258 0.0522244 0.025 -1.24542e+06
0.0792059 0.053425 0.025 -1.24319e+06
0.0810203 0.0546489 0.025 -1.2645e+06
0.0828694 0.0558961 0.025 -1.24459e+06
0.0847537 0.0571671 0.025 -1.28708e+06
0.0866737 0.0584622 0.025 -1.25645e+06
0.0886298 0.0597816 0.025 -1.26308e+06
0.0906224 0.0611256 0.025 -1.27865e+06
0.0926518 0.0624944 0.025 -1.25197e+06
0.0947185 0.0638884 0.025 -1.29606e+06
0.096823 0.065308 0.025 -1.26483e+06
0.0989659 0.0667532 0.025 -1.34154e+06
0.101147 0.0682245 0.025 -1.64282e+06
0.103367 0.0697219 0.025 -1.56759e+06
0.105626 0.0712458 0.025 -1.22669e+06
0.107926 0.0727965 0.025 -1.23067e+06
0.110265 0.074374 0.025 -1.27331e+06
0.112644 0.0759789 0.025 -1.81538e+06
0.115063 0.0776111 0.025 -1.30685e+06
0.117524 0.0792709 0.025 -1.73323e+06
0.120026 0.0809585 0.025 -1.88076e+06
0.122569 0.0826741 0.025 -1.69112e+06
0.125155 0.0844179 0.025 -1.53666e+06
0.127782 0.0861901 0.025 -1.35875e+06
0.130451 0.0879908 0.025 -1.33055e+06
0.133163 0.08982 0.025 -1.31651e+06
0.135918 0.0916781 0.025 -1.29529e+06
0.138716 0.0935651 0.025 -1.30138e+06
0.141556 0.095481 0.025 -1.31719e+06
0.14444 0.097426 0.025 -1.68889e+06
0.147367 0.0994004 0.025 -2.36651e+06
0.150337 0.101404 0.025 -1.78279e+06
0.153351 0.103437 0.025 -1.74627e+06
0.156408 0.105498 0.025 -2.31944e+06
0.159508 0.107589 0.025 -1.15861e+06
0.162651 0.10971 0.025 -1.66565e+06
0.165838 0.111859 0.025 -3.34406e+06
0.169069 0.114039 0.025 -1.76914e+06
0.172343 0.116247 0.025 -2.08637e+06
0.175659 0.118483 0.025 -2.01312e+06
0.179018 0.120749 0.025 -2.02931e+06
0.182421 0.123045 0.025 -2.08716e+06
0.185866 0.125368 0.025 -1.87419e+06
0.189353 0.12772 0.025 -1.88865e+06
0.192882 0.1301 0.025 -1.99544e+06
0.196453 0.132509 0.025 -1.88103e+06
0.200065 0.134946 0.025 -2.26301e+06
0.203718 0.13741 0.025 -2.07349e+06
0.207412 0.139901 0.025 -1.04717e+06
0.211146 0.14242 0.025 -1.12683e+06
0.214919 0.144965 0.025 -1.81858e+06
0.218732 0.147537 0.025 -1.13002e+06
0.222583 0.150134 0.025 -2.10553e+06
0.226472 0.152757 0.025 -1.13165e+06
0.230399 0.155406 0.025 -2.0245e+06
0.234362 0.15808 0.025 -1.91158e+06
0.238362 0.160777 0.025 -2.47147e+06
0.242396 0.163498 0.025 -1.74215e+06
0.246466 0.166244 0.025 -2.45223e+06
0.250569 0.169012 0.025 -1.10401e+06
0.254706 0.171801 0.025 -1.77386e+06
0.258874 0.174613 0.025 -1.7712e+06
0.263074 0.177446 0.025 -2.23503e+06
0.267304 0.180299 0.025 -1.84781e+06
0.271564 0.183172 0.025 -1.13514e+06
0.275852 0.186064 0.025 -1.92981e+06
0.280168 0.188975 0.025 -1.1318e+06
0.28451 0.191904 0.025 -2.00305e+06
0.288876 0.19485 0.025 -2.59905e+06
0.293268 0.197812 0.025 -1.95893e+06
0.297683 0.20079 0.025 -1.69067e+06
0.302119 0.203782 0.025 -2.63013e+06
0.306577 0.206788 0.025 -1.77046e+06
0.311054 0.209808 0.025 -1.95164e+06
0.315549 0.212841 0.025 -1.42501e+06
0.320063 0.215885 0.025 -1.69557e+06
0.324591 0.218939 0.025 -2.34781e+06
0.329134 0.222003 0.025 -1.67015e+06
0.333691 0.225077 0.025 -2.69048e+06
0.33826 0.228159 0.025 -1.82262e+06
0.342839 0.231248 0.025 -2.32569e+06
0.347428 0.234343 0.025 -1.08045e+06
0.352025 0.237444 0.025 -2.32223e+06
0.356628 0.240548 0.025 -1.74934e+06
0.361237 0.243658 0.025 -1.43793e+06
0.36585 0.246769 0.025 -2.99058e+06
0.370465 0.249882 0.025 -1.53514e+06
0.375082 0.252996 0.025 -1.5369e+06
0.379698 0.25611 0.025 -2.91418e+06
0.384313 0.259223 0.025 -1.45866e+06
0.388926 0.262333 0.025 -2.10471e+06
0.393534 0.265442 0.025 -1.758e+06
0.398136 0.268546 0.025 -1.1074e+06
0.40273 0.271645 0.025 -2.0362e+06
0.407317 0.274739 0.025 -2.12652e+06
0.411894 0.277826 0.025 -2.55752e+06
0.41646 0.280906 0.025 -1.08769e+06
0.421014 0.283977 0.025 -2.01786e+06
0.425554 0.28704 0.025 -2.31013e+06
0.430079 0.290092 0.025 -1.91211e+06
0.434588 0.293133 0.025 -2.28401e+06
0.439079 0.296162 0.025 -1.64345e+06
0.443551 0.299179 0.025 -2.12718e+06
0.448004 0.302183 0.025 -2.15834e+06
0.452437 0.305172 0.025 -2.13488e+06
0.456846 0.308146 0.025 -1.9472e+06
0.461232 0.311105 0.025 -1.99189e+06
0.465593 0.314047 0.025 -1.88525e+06
0.469929 0.316971 0.025 -2.43411e+06
0.474238 0.319878 0.025 -1.28424e+06
0.47852 0.322766 0.025 -1.44539e+06
0.482773 0.325635 0.025 -1.15687e+06
0.486996 0.328483 0.025 -1.73268e+06
0.491189 0.331311 0.025 -2.62348e+06
0.49535 0.334118 0.025 -1.47632e+06
