# wallHeatFlux  FACE_DATA 203
# x  y  z  wallHeatFlux
-0.873265 0 0.0205 -297614
-0.846493 0 0.0205 -84289.6
-0.820677 0 0.0205 -79406.3
-0.795786 0 0.0205 -77707.8
-0.771783 0 0.0205 -76593.1
-0.74637 0 0.0205 -76115.4
-0.719597 0 0.0205 -75160
-0.693782 0 0.0205 -74098.4
-0.66889 0 0.0205 -73461.5
-0.644887 0 0.0205 -73089.9
-0.621743 0 0.0205 -72399.9
-0.599426 0 0.0205 -71497.5
-0.577905 0 0.0205 -70701.3
-0.557154 0 0.0205 -70329.8
-0.537145 0 0.0205 -70223.6
-0.517849 0 0.0205 -69905.2
-0.499243 0 0.0205 -69374.4
-0.481301 0 0.0205 -68790.5
-0.463999 0 0.0205 -68472
-0.447314 0 0.0205 -68312.8
-0.431225 0 0.0205 -68259.7
-0.41571 0 0.0205 -68047.4
-0.400747 0 0.0205 -67675.8
-0.386317 0 0.0205 -67198.1
-0.372401 0 0.0205 -66667.3
-0.358981 0 0.0205 -66348.9
-0.346039 0 0.0205 -66242.7
-0.333556 0 0.0205 -66242.7
-0.321518 0 0.0205 -66401.9
-0.309908 0 0.0205 -66508.1
-0.298709 0 0.0205 -66561.2
-0.287908 0 0.0205 -66401.9
-0.27749 0 0.0205 -66136.5
-0.267441 0 0.0205 -65818.1
-0.257748 0 0.0205 -65393.4
-0.248397 0 0.0205 -64968.8
-0.239378 0 0.0205 -64650.3
-0.230677 0 0.0205 -64384.9
-0.222282 0 0.0205 -64172.6
-0.214183 0 0.0205 -64066.5
-0.20637 0 0.0205 -64066.5
-0.19883 0 0.0205 -64066.5
-0.191555 0 0.0205 -64172.6
-0.184536 0 0.0205 -64278.8
-0.177762 0 0.0205 -64384.9
-0.171224 0 0.0205 -64438
-0.164914 0 0.0205 -64491.1
-0.158824 0 0.0205 -64544.2
-0.152944 0 0.0205 -64544.2
-0.147268 0 0.0205 -64491.1
-0.141788 0 0.0205 -64438
-0.136496 0 0.0205 -64384.9
-0.131387 0 0.0205 -64278.8
-0.126452 0 0.0205 -64172.6
-0.121685 0 0.0205 -64066.5
-0.117081 0 0.0205 -63907.2
-0.112632 0 0.0205 -63801.1
-0.108332 0 0.0205 -63641.8
-0.104177 0 0.0205 -63535.7
-0.100161 0 0.0205 -63429.5
-0.0962773 0 0.0205 -63323.3
-0.0925221 0 0.0205 -63217.2
-0.08889 0 0.0205 -63111
-0.0853762 0 0.0205 -63058
-0.0819759 0 0.0205 -62951.8
-0.0786847 0 0.0205 -62898.7
-0.0754981 0 0.0205 -62845.6
-0.0724121 0 0.0205 -62845.6
-0.0694223 0 0.0205 -62792.6
-0.066525 0 0.0205 -62739.5
-0.0637161 0 0.0205 -62739.5
-0.060992 0 0.0205 -62686.4
-0.0583491 0 0.0205 -62633.3
-0.0557837 0 0.0205 -62633.3
-0.0532926 0 0.0205 -62633.3
-0.0508723 0 0.0205 -62633.3
-0.0485197 0 0.0205 -62580.2
-0.0462317 0 0.0205 -62580.2
-0.0440053 0 0.0205 -62527.2
-0.0418373 0 0.0205 -60616.3
-0.039725 0 0.0205 -53450.6
-0.0376655 0 0.0205 -51115.2
-0.0356562 0 0.0205 -61677.9
-0.0336943 0 0.0205 -69586.7
-0.0317773 0 0.0205 -74841.5
-0.0299025 0 0.0205 -79087.8
-0.0280674 0 0.0205 -82538
-0.0262697 0 0.0205 -85722.7
-0.024507 0 0.0205 -88642.1
-0.0227768 0 0.0205 -91508.3
-0.021077 0 0.0205 -94162.3
-0.0194052 0 0.0205 -96657
-0.0177593 0 0.0205 -98939.4
-0.016137 0 0.0205 -100903
-0.014536 0 0.0205 -102602
-0.0129545 0 0.0205 -104088
-0.0113902 0 0.0205 -105680
-0.00984104 0 0.0205 -107697
-0.00830498 0 0.0205 -110458
-0.00677997 0 0.0205 -114385
-0.00526398 0 0.0205 -119906
-0.00375499 0 0.0205 -128398
-0.002251 0 0.0205 -145543
-0.00075 0 0.0205 -169163
0.000689475 0.000398068 0.0205 -138149
0.00206843 0.0011942 0.0205 -172165
0.00344737 0.00199034 0.0205 -192943
0.00482631 0.00278648 0.0205 -211942
0.00620527 0.00358261 0.0205 -233456
0.00758422 0.00437875 0.0205 -258033
0.00896317 0.00517489 0.0205 -286900
0.0103421 0.00597102 0.0205 -321284
0.0117211 0.00676715 0.0205 -361861
0.0131 0.00756329 0.0205 -409662
0.0144789 0.00835943 0.0205 -465935
0.0158579 0.00915557 0.0205 -531137
0.0172368 0.00995171 0.0205 -606603
0.0186158 0.0107478 0.0205 -690423
0.0199947 0.0115439 0.0205 -782064
0.0213737 0.0123401 0.0205 -897976
0.0227526 0.0131362 0.0205 -1.01435e+06
0.0241316 0.0139323 0.0205 -1.13771e+06
0.0255106 0.0147285 0.0205 -1.29339e+06
0.0268895 0.0155246 0.0205 -1.44973e+06
0.0282685 0.0163208 0.0205 -1.62565e+06
0.0296474 0.0171169 0.0205 -1.82954e+06
0.0310264 0.017913 0.0205 -2.01663e+06
0.0324053 0.0187092 0.0205 -2.21911e+06
0.0337843 0.0195054 0.0205 -2.44119e+06
0.0351632 0.0203015 0.0205 -2.6372e+06
0.0365421 0.0210976 0.0205 -2.78041e+06
0.037921 0.0218938 0.0205 -2.86023e+06
0.0393 0.0226898 0.0205 -2.86404e+06
0.0406789 0.023486 0.0205 -2.88778e+06
0.0420579 0.0242821 0.0205 -2.70506e+06
0.0434368 0.0250783 0.0205 -2.53695e+06
0.0448158 0.0258745 0.0205 -2.39451e+06
0.0461948 0.0266706 0.0205 -2.24445e+06
0.0475737 0.0274667 0.0205 -2.11638e+06
0.0489527 0.0282628 0.0205 -2.0197e+06
0.0503316 0.029059 0.0205 -1.92148e+06
0.0517106 0.0298551 0.0205 -1.85409e+06
0.0530895 0.0306512 0.0205 -1.79534e+06
0.0544684 0.0314473 0.0205 -1.72759e+06
0.0558474 0.0322435 0.0205 -1.71094e+06
0.0572264 0.0330397 0.0205 -1.66293e+06
0.0586053 0.0338357 0.0205 -1.60663e+06
0.0599842 0.0346319 0.0205 -1.60537e+06
0.0613632 0.0354281 0.0205 -1.5782e+06
0.0627422 0.0362242 0.0205 -1.56675e+06
0.0641211 0.0370204 0.0205 -1.56392e+06
0.0655001 0.0378164 0.0205 -1.54072e+06
0.066879 0.0386126 0.0205 -1.53025e+06
0.0682579 0.0394088 0.0205 -1.53232e+06
0.0696369 0.0402049 0.0205 -1.53005e+06
0.0710158 0.041001 0.0205 -1.52069e+06
0.0723947 0.0417971 0.0205 -1.49983e+06
0.0737737 0.0425932 0.0205 -1.46769e+06
0.0751527 0.0433894 0.0205 -1.48107e+06
0.0765316 0.0441856 0.0205 -1.46028e+06
0.0779106 0.0449817 0.0205 -1.44656e+06
0.0792895 0.0457778 0.0205 -1.44802e+06
0.0806685 0.0465739 0.0205 -1.43462e+06
0.0820474 0.0473701 0.0205 -1.4317e+06
0.0834263 0.0481662 0.0205 -1.43922e+06
0.0848053 0.0489624 0.0205 -1.42332e+06
0.0861843 0.0497585 0.0205 -1.41665e+06
0.0875632 0.0505546 0.0205 -1.40824e+06
0.0889421 0.0513508 0.0205 -1.38449e+06
0.0903211 0.0521469 0.0205 -1.40044e+06
0.0917 0.0529431 0.0205 -1.38675e+06
0.093079 0.0537392 0.0205 -1.35995e+06
0.094458 0.0545353 0.0205 -1.37521e+06
0.0958369 0.0553315 0.0205 -1.35866e+06
0.0972159 0.0561276 0.0205 -1.35174e+06
0.0985948 0.0569238 0.0205 -1.35596e+06
0.0999737 0.0577198 0.0205 -1.34175e+06
0.101352 0.058516 0.0205 -1.33682e+06
0.102732 0.0593121 0.0205 -1.34383e+06
0.10411 0.0601083 0.0205 -1.34272e+06
0.105489 0.0609044 0.0205 -1.33608e+06
0.106868 0.0617005 0.0205 -1.32262e+06
0.108248 0.0624967 0.0205 -1.29982e+06
0.109627 0.0632928 0.0205 -1.31727e+06
0.111006 0.064089 0.0205 -1.30528e+06
0.112385 0.0648851 0.0205 -1.29428e+06
0.113764 0.0656812 0.0205 -1.29559e+06
0.115143 0.0664774 0.0205 -1.27886e+06
0.116522 0.0672735 0.0205 -1.27259e+06
0.117901 0.0680697 0.0205 -1.27622e+06
0.119279 0.0688658 0.0205 -1.26548e+06
0.120658 0.0696619 0.0205 -1.25959e+06
0.122037 0.0704581 0.0205 -1.259e+06
0.123415 0.0712542 0.0205 -1.24313e+06
0.124794 0.0720503 0.0205 -1.26339e+06
0.126173 0.0728465 0.0205 -1.2571e+06
0.127552 0.0736426 0.0205 -1.2389e+06
0.128931 0.0744387 0.0205 -1.25788e+06
0.13031 0.0752348 0.0205 -1.24815e+06
0.131689 0.076031 0.0205 -1.24544e+06
0.133069 0.0768271 0.0205 -1.25318e+06
0.134447 0.0776233 0.0205 -1.2381e+06
0.135827 0.0784194 0.0205 -1.24145e+06
