# p  FACE_DATA 398
# x  y  z  p
-0.7975 0 0.025 4472.75
-0.79239 0 0.025 3644.39
-0.787056 0 0.025 2991.6
-0.781492 0 0.025 2876.02
-0.775691 0 0.025 2796.31
-0.769649 0 0.025 2780.27
-0.763362 0 0.025 2785.75
-0.756822 0 0.025 2782.18
-0.750025 0 0.025 2790.03
-0.742968 0 0.025 2793.15
-0.735648 0 0.025 2787.48
-0.72806 0 0.025 2779.05
-0.720203 0 0.025 2772.46
-0.712076 0 0.025 2763.34
-0.703677 0 0.025 2753.39
-0.695006 0 0.025 2744.83
-0.686065 0 0.025 2735.86
-0.676855 0 0.025 2725.51
-0.667379 0 0.025 2715.56
-0.65764 0 0.025 2706.77
-0.647644 0 0.025 2698.82
-0.637397 0 0.025 2691.2
-0.626906 0 0.025 2683.61
-0.616179 0 0.025 2677.44
-0.605224 0 0.025 2672.79
-0.594054 0 0.025 2668.44
-0.582678 0 0.025 2663.97
-0.57111 0 0.025 2660.76
-0.559364 0 0.025 2657.61
-0.547454 0 0.025 2654.77
-0.535396 0 0.025 2653.43
-0.523205 0 0.025 2653.58
-0.510901 0 0.025 2653.45
-0.4985 0 0.025 2651.81
-0.486021 0 0.025 2649.92
-0.473483 0 0.025 2649.79
-0.460905 0 0.025 2651
-0.448308 0 0.025 2652.49
-0.435709 0 0.025 2652.85
-0.42313 0 0.025 2652.06
-0.41059 0 0.025 2651.83
-0.39811 0 0.025 2653.19
-0.385706 0 0.025 2655.49
-0.373398 0 0.025 2656.93
-0.361205 0 0.025 2657.91
-0.349141 0 0.025 2655
-0.337226 0 0.025 2653.09
-0.325475 0 0.025 2652.49
-0.313901 0 0.025 2654.29
-0.30252 0 0.025 2657.85
-0.291343 0 0.025 2661.55
-0.280382 0 0.025 2663.74
-0.269646 0 0.025 2664.94
-0.259148 0 0.025 2661.24
-0.248893 0 0.025 2656.7
-0.23889 0 0.025 2652.59
-0.229143 0 0.025 2650.18
-0.219659 0 0.025 2649.4
-0.210441 0 0.025 2650.4
-0.201491 0 0.025 2653.05
-0.192812 0 0.025 2658.06
-0.184405 0 0.025 2662.58
-0.176269 0 0.025 2666.71
-0.168404 0 0.025 2669.48
-0.160808 0 0.025 2671.27
-0.15348 0 0.025 2671.45
-0.146415 0 0.025 2669.97
-0.13961 0 0.025 2668.02
-0.133063 0 0.025 2664.86
-0.126767 0 0.025 2660.99
-0.120718 0 0.025 2657.12
-0.11491 0 0.025 2653.53
-0.109339 0 0.025 2650.53
-0.103997 0 0.025 2648
-0.0988805 0 0.025 2646.09
-0.0939808 0 0.025 2644.74
-0.0892928 0 0.025 2644.01
-0.0848096 0 0.025 2643.88
-0.0805248 0 0.025 2644.08
-0.0764316 0 0.025 2644.99
-0.0725237 0 0.025 2646.17
-0.0687943 0 0.025 2647.71
-0.065237 0 0.025 2649.46
-0.0618454 0 0.025 2651.34
-0.058613 0 0.025 2653.2
-0.0555337 0 0.025 2655.06
-0.0526013 0 0.025 2656.83
-0.0498099 0 0.025 2658.52
-0.0471536 0 0.025 2660.09
-0.0446266 0 0.025 2661.57
-0.0422235 0 0.025 2662.92
-0.039939 0 0.025 2664.18
-0.0377676 0 0.025 2665.32
-0.0357044 0 0.025 2666.38
-0.0337445 0 0.025 2667.31
-0.0318832 0 0.025 2668.17
-0.0301159 0 0.025 2668.93
-0.0284383 0 0.025 2669.63
-0.0268461 0 0.025 2670.26
-0.0253353 0 0.025 2670.85
-0.023902 0 0.025 2671.37
-0.0225426 0 0.025 2671.86
-0.0212532 0 0.025 2672.29
-0.0200306 0 0.025 2672.68
-0.0188715 0 0.025 2673.02
-0.0177728 0 0.025 2673.33
-0.0167313 0 0.025 2673.63
-0.0157444 0 0.025 2673.92
-0.0148092 0 0.025 2674.19
-0.0139232 0 0.025 2674.42
-0.0130838 0 0.025 2674.61
-0.0122887 0 0.025 2674.75
-0.0115356 0 0.025 2674.83
-0.0108223 0 0.025 2675.01
-0.0101469 0 0.025 2693.29
-0.00950727 0 0.025 3054.7
-0.00890168 0 0.025 4556.77
-0.00832835 0 0.025 5885.19
-0.00778557 0 0.025 6693.69
-0.00727176 0 0.025 7222.62
-0.0067854 0 0.025 7592.34
-0.00632507 0 0.025 7910.41
-0.00588937 0 0.025 8173.23
-0.00547703 0 0.025 8398.97
-0.0050868 0 0.025 8603.13
-0.00471753 0 0.025 8786.9
-0.0043681 0 0.025 8942.25
-0.00403746 0 0.025 9073.63
-0.00372461 0 0.025 9191.93
-0.0034286 0 0.025 9290.64
-0.00314855 0 0.025 9372.29
-0.0028836 0 0.025 9446.03
-0.00263294 0 0.025 9513.67
-0.00239581 0 0.025 9567.43
-0.0021715 0 0.025 9605.03
-0.00195929 0 0.025 9635.69
-0.00175856 0 0.025 9664.3
-0.00156869 0 0.025 9696.54
-0.00138908 0 0.025 9735.26
-0.0012192 0 0.025 9786.95
-0.00105853 0 0.025 9861.88
-0.000906546 0 0.025 9969.29
-0.000762803 0 0.025 10136.5
-0.000626848 0 0.025 10337.4
-0.000498265 0 0.025 10595.8
-0.000376656 0 0.025 10894.5
-0.000261642 0 0.025 11218.9
-0.00015287 0 0.025 11500.8
-5e-05 0 0.025 12054.1
4.14519e-05 2.79596e-05 0.025 10900.2
0.000125371 8.45641e-05 0.025 11086.9
0.000211347 0.000142556 0.025 10957.7
0.000299429 0.000201968 0.025 10773.7
0.000389669 0.000262835 0.025 10623.8
0.000482118 0.000325193 0.025 10558.2
0.000576831 0.000389077 0.025 10581.3
0.000673861 0.000454524 0.025 10663.9
0.000773265 0.000521574 0.025 10811.6
0.0008751 0.000590262 0.025 11008.9
0.000979426 0.000660632 0.025 11251
0.0010863 0.000732721 0.025 11537
0.00119579 0.000806572 0.025 11866.9
0.00130795 0.000882227 0.025 12241.9
0.00142285 0.00095973 0.025 12664.2
0.00154056 0.00103912 0.025 13138.7
0.00166115 0.00112046 0.025 13667
0.00178467 0.00120378 0.025 14255.8
0.00191121 0.00128913 0.025 14910.8
0.00204083 0.00137656 0.025 15640.5
0.00217362 0.00146612 0.025 16452.6
0.00230964 0.00155787 0.025 17359
0.00244897 0.00165185 0.025 18370.6
0.00259169 0.00174812 0.025 19502.8
0.00273789 0.00184673 0.025 20770.4
0.00288765 0.00194774 0.025 22195.1
0.00304105 0.00205122 0.025 23799.4
0.00319818 0.00215719 0.025 25617.3
0.00335912 0.00226575 0.025 27686.6
0.00352397 0.00237695 0.025 30074.6
0.00369283 0.00249085 0.025 32848.3
0.00386579 0.00260751 0.025 36019.9
0.00404294 0.00272699 0.025 39724.6
0.00422438 0.00284938 0.025 44083
0.00441022 0.00297474 0.025 49348.4
0.00460056 0.00310312 0.025 55069.7
0.00479552 0.00323462 0.025 61898.6
0.00499519 0.0033693 0.025 70635.4
0.00519968 0.00350723 0.025 80716.4
0.00540911 0.00364849 0.025 92522.2
0.00562361 0.00379318 0.025 106477
0.00584329 0.00394134 0.025 122260
0.00606826 0.00409309 0.025 140142
0.00629865 0.00424849 0.025 159811
0.0065346 0.00440764 0.025 180171
0.00677623 0.00457063 0.025 196212
0.00702368 0.00473753 0.025 192324
0.00727707 0.00490844 0.025 184995
0.00753655 0.00508347 0.025 168717
0.00780227 0.00526269 0.025 150586
0.00807436 0.00544622 0.025 136076
0.00835298 0.00563415 0.025 126946
0.00863826 0.00582659 0.025 121614
0.00893038 0.00602362 0.025 118526
0.00922949 0.00622537 0.025 118539
0.00953574 0.00643195 0.025 119262
0.00984929 0.00664345 0.025 120626
0.0101703 0.00686 0.025 121331
0.0104991 0.00708171 0.025 122707
0.0108356 0.00730871 0.025 123793
0.0111801 0.0075411 0.025 125267
0.0115329 0.00777902 0.025 125812
0.011894 0.00802259 0.025 125941
0.0122637 0.00827194 0.025 125373
0.0126421 0.00852719 0.025 125141
0.0130295 0.0087885 0.025 125447
0.013426 0.00905597 0.025 126064
0.013832 0.00932978 0.025 126425
0.0142475 0.00961003 0.025 126223
0.0146727 0.0098969 0.025 125802
0.0151081 0.0101905 0.025 125802
0.0155536 0.010491 0.025 126097
0.0160097 0.0107986 0.025 126588
0.0164764 0.0111134 0.025 126482
0.016954 0.0114356 0.025 126075
0.0174427 0.0117653 0.025 125759
0.0179429 0.0121026 0.025 125899
0.0184548 0.0124479 0.025 126506
0.0189786 0.0128013 0.025 127062
0.0195146 0.0131628 0.025 127126
0.020063 0.0135327 0.025 126913
0.0206242 0.0139112 0.025 126602
0.0211983 0.0142984 0.025 126921
0.0217857 0.0146947 0.025 127225
0.0223867 0.0151 0.025 127230
0.0230015 0.0155147 0.025 126631
0.0236304 0.0159389 0.025 126220
0.0242738 0.0163729 0.025 126217
0.0249318 0.0168167 0.025 126845
0.025605 0.0172708 0.025 127257
0.0262935 0.0177352 0.025 127134
0.0269977 0.0182102 0.025 126692
0.0277178 0.0186959 0.025 126267
0.0284544 0.0191927 0.025 126104
0.0292075 0.0197008 0.025 126441
0.0299777 0.0202203 0.025 126731
0.0307653 0.0207514 0.025 126806
0.0315704 0.0212945 0.025 126644
0.0323937 0.0218499 0.025 126421
0.0332354 0.0224176 0.025 126200
0.0340959 0.022998 0.025 126067
0.0349755 0.0235913 0.025 125978
0.0358747 0.0241978 0.025 125575
0.0367938 0.0248178 0.025 125568
0.0377331 0.0254513 0.025 125098
0.0386932 0.0260989 0.025 124991
0.0396743 0.0267606 0.025 124876
0.0406769 0.0274369 0.025 124669
0.0417013 0.0281279 0.025 124215
0.042748 0.0288339 0.025 123958
0.0438175 0.0295552 0.025 123877
0.04491 0.0302922 0.025 123740
0.0460262 0.031045 0.025 123931
0.0471662 0.031814 0.025 123557
0.0483306 0.0325995 0.025 123439
0.0495199 0.0334016 0.025 123316
0.0507344 0.0342208 0.025 122760
0.0519746 0.0350573 0.025 122735
0.0532409 0.0359114 0.025 122841
0.0545339 0.0367835 0.025 122887
0.0558538 0.0376739 0.025 123508
0.0572012 0.0385827 0.025 124075
0.0585766 0.0395104 0.025 124590
0.0599804 0.0404573 0.025 124829
0.061413 0.0414236 0.025 125005
0.0628748 0.0424096 0.025 124743
0.0643665 0.0434157 0.025 124009
0.0658883 0.0444422 0.025 123366
0.0674408 0.0454894 0.025 122974
0.0690245 0.0465576 0.025 123168
0.0706398 0.0476471 0.025 123790
0.0722871 0.0487582 0.025 124394
0.0739669 0.0498912 0.025 124938
0.0756797 0.0510466 0.025 125213
0.0774258 0.0522244 0.025 125220
0.0792059 0.053425 0.025 124794
0.0810203 0.0546489 0.025 124622
0.0828694 0.0558961 0.025 124716
0.0847537 0.0571671 0.025 124858
0.0866737 0.0584622 0.025 124769
0.0886298 0.0597816 0.025 124615
0.0906224 0.0611256 0.025 124354
0.0926518 0.0624944 0.025 124145
0.0947185 0.0638884 0.025 124221
0.096823 0.065308 0.025 124248
0.0989659 0.0667532 0.025 124415
0.101147 0.0682245 0.025 124472
0.103367 0.0697219 0.025 124401
0.105626 0.0712458 0.025 124444
0.107926 0.0727965 0.025 124113
0.110265 0.074374 0.025 123928
0.112644 0.0759789 0.025 123607
0.115063 0.0776111 0.025 123664
0.117524 0.0792709 0.025 123776
0.120026 0.0809585 0.025 124104
0.122569 0.0826741 0.025 124577
0.125155 0.0844179 0.025 124817
0.127782 0.0861901 0.025 124869
0.130451 0.0879908 0.025 124595
0.133163 0.08982 0.025 124554
0.135918 0.0916781 0.025 124461
0.138716 0.0935651 0.025 124482
0.141556 0.095481 0.025 124797
0.14444 0.097426 0.025 125307
0.147367 0.0994004 0.025 124414
0.150337 0.101404 0.025 125517
0.153351 0.103437 0.025 125401
0.156408 0.105498 0.025 124123
0.159508 0.107589 0.025 125432
0.162651 0.10971 0.025 124803
0.165838 0.111859 0.025 121819
0.169069 0.114039 0.025 125075
0.172343 0.116247 0.025 123598
0.175659 0.118483 0.025 123784
0.179018 0.120749 0.025 122761
0.182421 0.123045 0.025 122817
0.185866 0.125368 0.025 122712
0.189353 0.12772 0.025 122140
0.192882 0.1301 0.025 121962
0.196453 0.132509 0.025 121683
0.200065 0.134946 0.025 120655
0.203718 0.13741 0.025 121659
0.207412 0.139901 0.025 121377
0.211146 0.14242 0.025 120939
0.214919 0.144965 0.025 120392
0.218732 0.147537 0.025 121125
0.222583 0.150134 0.025 120048
0.226472 0.152757 0.025 121065
0.230399 0.155406 0.025 120552
0.234362 0.15808 0.025 120191
0.238362 0.160777 0.025 119725
0.242396 0.163498 0.025 121318
0.246466 0.166244 0.025 119716
0.250569 0.169012 0.025 120721
0.254706 0.171801 0.025 119897
0.258874 0.174613 0.025 119854
0.263074 0.177446 0.025 118928
0.267304 0.180299 0.025 119952
0.271564 0.183172 0.025 120389
0.275852 0.186064 0.025 120561
0.280168 0.188975 0.025 121525
0.28451 0.191904 0.025 121092
0.288876 0.19485 0.025 119983
0.293268 0.197812 0.025 121264
0.297683 0.20079 0.025 120554
0.302119 0.203782 0.025 117796
0.306577 0.206788 0.025 120508
0.311054 0.209808 0.025 119015
0.315549 0.212841 0.025 120296
0.320063 0.215885 0.025 119402
0.324591 0.218939 0.025 121359
0.329134 0.222003 0.025 121746
0.333691 0.225077 0.025 119728
0.33826 0.228159 0.025 122512
0.342839 0.231248 0.025 121562
0.347428 0.234343 0.025 121304
0.352025 0.237444 0.025 119641
0.356628 0.240548 0.025 120877
0.361237 0.243658 0.025 120850
0.36585 0.246769 0.025 117813
0.370465 0.249882 0.025 121043
0.375082 0.252996 0.025 120337
0.379698 0.25611 0.025 117657
0.384313 0.259223 0.025 120348
0.388926 0.262333 0.025 120014
0.393534 0.265442 0.025 120000
0.398136 0.268546 0.025 119893
0.40273 0.271645 0.025 119316
0.407317 0.274739 0.025 120493
0.411894 0.277826 0.025 119317
0.41646 0.280906 0.025 121762
0.421014 0.283977 0.025 121739
0.425554 0.28704 0.025 120385
0.430079 0.290092 0.025 121435
0.434588 0.293133 0.025 121539
0.439079 0.296162 0.025 121375
0.443551 0.299179 0.025 120871
0.448004 0.302183 0.025 120574
0.452437 0.305172 0.025 120594
0.456846 0.308146 0.025 120657
0.461232 0.311105 0.025 120048
0.465593 0.314047 0.025 120277
0.469929 0.316971 0.025 120641
0.474238 0.319878 0.025 121140
0.47852 0.322766 0.025 120899
0.482773 0.325635 0.025 120922
0.486996 0.328483 0.025 121066
0.491189 0.331311 0.025 119065
0.49535 0.334118 0.025 122004
