# wallHeatFlux  FACE_DATA 398
# x  y  z  wallHeatFlux
-0.7975 0 0.025 -653708
-0.79239 0 0.025 -120547
-0.787056 0 0.025 -68798
-0.781492 0 0.025 -63639
-0.775691 0 0.025 -68823
-0.769649 0 0.025 -73356.7
-0.763362 0 0.025 -75813.6
-0.756822 0 0.025 -76687.9
-0.750025 0 0.025 -76829.8
-0.742968 0 0.025 -76394.2
-0.735648 0 0.025 -75398.8
-0.72806 0 0.025 -74184
-0.720203 0 0.025 -72991.3
-0.712076 0 0.025 -71810
-0.703677 0 0.025 -70691.3
-0.695006 0 0.025 -69699.4
-0.686065 0 0.025 -68824
-0.676855 0 0.025 -68065.3
-0.667379 0 0.025 -67438.8
-0.65764 0 0.025 -66919.2
-0.647644 0 0.025 -66551.1
-0.637397 0 0.025 -66337
-0.626906 0 0.025 -66204.9
-0.616179 0 0.025 -66142.2
-0.605224 0 0.025 -66155.7
-0.594054 0 0.025 -66194.1
-0.582678 0 0.025 -66212.3
-0.57111 0 0.025 -66228.5
-0.559364 0 0.025 -66227.8
-0.547454 0 0.025 -66218
-0.535396 0 0.025 -66249.5
-0.523205 0 0.025 -66302.5
-0.510901 0 0.025 -66329
-0.4985 0 0.025 -66301.3
-0.486021 0 0.025 -66266.2
-0.473483 0 0.025 -66276.7
-0.460905 0 0.025 -66326.4
-0.448308 0 0.025 -66380.2
-0.435709 0 0.025 -66404.5
-0.42313 0 0.025 -66397.5
-0.41059 0 0.025 -66410.5
-0.39811 0 0.025 -66458.6
-0.385706 0 0.025 -66546.8
-0.373398 0 0.025 -66602.6
-0.361205 0 0.025 -66656.8
-0.349141 0 0.025 -66589.5
-0.337226 0 0.025 -66538
-0.325475 0 0.025 -66512.3
-0.313901 0 0.025 -66556.1
-0.30252 0 0.025 -66657.5
-0.291343 0 0.025 -66760.4
-0.280382 0 0.025 -66836.3
-0.269646 0 0.025 -66894.6
-0.259148 0 0.025 -66814
-0.248893 0 0.025 -66682.5
-0.23889 0 0.025 -66556.9
-0.229143 0 0.025 -66484.2
-0.219659 0 0.025 -66435.4
-0.210441 0 0.025 -66429.1
-0.201491 0 0.025 -66475.6
-0.192812 0 0.025 -66599
-0.184405 0 0.025 -66707.7
-0.176269 0 0.025 -66813.5
-0.168404 0 0.025 -66895.3
-0.160808 0 0.025 -66950.5
-0.15348 0 0.025 -66972.8
-0.146415 0 0.025 -66926.8
-0.13961 0 0.025 -66884.1
-0.133063 0 0.025 -66791
-0.126767 0 0.025 -66667
-0.120718 0 0.025 -66544
-0.11491 0 0.025 -66422.1
-0.109339 0 0.025 -66311.8
-0.103997 0 0.025 -66216.4
-0.0988805 0 0.025 -66132.6
-0.0939808 0 0.025 -66066.1
-0.0892928 0 0.025 -66012.5
-0.0848096 0 0.025 -65980.5
-0.0805248 0 0.025 -65965.2
-0.0764316 0 0.025 -65966.4
-0.0725237 0 0.025 -65978.3
-0.0687943 0 0.025 -66007.5
-0.065237 0 0.025 -66030.5
-0.0618454 0 0.025 -66065.6
-0.058613 0 0.025 -66099.6
-0.0555337 0 0.025 -66140.5
-0.0526013 0 0.025 -66180.5
-0.0498099 0 0.025 -66215.6
-0.0471536 0 0.025 -66250.7
-0.0446266 0 0.025 -66285.9
-0.0422235 0 0.025 -66315.7
-0.039939 0 0.025 -66345.6
-0.0377676 0 0.025 -66375
-0.0357044 0 0.025 -66400.5
-0.0337445 0 0.025 -66424.5
-0.0318832 0 0.025 -66449
-0.0301159 0 0.025 -66468.1
-0.0284383 0 0.025 -66481.9
-0.0268461 0 0.025 -66495.6
-0.0253353 0 0.025 -66514.8
-0.023902 0 0.025 -66523.2
-0.0225426 0 0.025 -66536.3
-0.0212532 0 0.025 -66546.5
-0.0200306 0 0.025 -66559.6
-0.0188715 0 0.025 -66568.3
-0.0177728 0 0.025 -66577.2
-0.0167313 0 0.025 -66580.8
-0.0157444 0 0.025 -66590
-0.0148092 0 0.025 -66598.2
-0.0139232 0 0.025 -66605.1
-0.0130838 0 0.025 -66607.1
-0.0122887 0 0.025 -66609.5
-0.0115356 0 0.025 -66613.5
-0.0108223 0 0.025 -66603.3
-0.0101469 0 0.025 -66749.3
-0.00950727 0 0.025 -70261.3
-0.00890168 0 0.025 -74216.2
-0.00832835 0 0.025 -69263
-0.00778557 0 0.025 -76464.5
-0.00727176 0 0.025 -86301.9
-0.0067854 0 0.025 -92383.3
-0.00632507 0 0.025 -96608.7
-0.00588937 0 0.025 -99335.8
-0.00547703 0 0.025 -101163
-0.0050868 0 0.025 -103027
-0.00471753 0 0.025 -105113
-0.0043681 0 0.025 -106763
-0.00403746 0 0.025 -107676
-0.00372461 0 0.025 -108328
-0.0034286 0 0.025 -108584
-0.00314855 0 0.025 -108672
-0.0028836 0 0.025 -108976
-0.00263294 0 0.025 -109685
-0.00239581 0 0.025 -110678
-0.0021715 0 0.025 -111938
-0.00195929 0 0.025 -113889
-0.00175856 0 0.025 -116687
-0.00156869 0 0.025 -120625
-0.00138908 0 0.025 -125749
-0.0012192 0 0.025 -132196
-0.00105853 0 0.025 -140074
-0.000906546 0 0.025 -149286
-0.000762803 0 0.025 -159564
-0.000626848 0 0.025 -169646
-0.000498265 0 0.025 -180043
-0.000376656 0 0.025 -189605
-0.000261642 0 0.025 -195461
-0.00015287 0 0.025 -176750
-5e-05 0 0.025 -109869
4.14519e-05 2.79596e-05 0.025 -79865
0.000125371 8.45641e-05 0.025 -100068
0.000211347 0.000142556 0.025 -123774
0.000299429 0.000201968 0.025 -139332
0.000389669 0.000262835 0.025 -152201
0.000482118 0.000325193 0.025 -162977
0.000576831 0.000389077 0.025 -171644
0.000673861 0.000454524 0.025 -178840
0.000773265 0.000521574 0.025 -185445
0.0008751 0.000590262 0.025 -191954
0.000979426 0.000660632 0.025 -198714
0.0010863 0.000732721 0.025 -205997
0.00119579 0.000806572 0.025 -213966
0.00130795 0.000882227 0.025 -222744
0.00142285 0.00095973 0.025 -232351
0.00154056 0.00103912 0.025 -243104
0.00166115 0.00112046 0.025 -255031
0.00178467 0.00120378 0.025 -268239
0.00191121 0.00128913 0.025 -282986
0.00204083 0.00137656 0.025 -299475
0.00217362 0.00146612 0.025 -317970
0.00230964 0.00155787 0.025 -338713
0.00244897 0.00165185 0.025 -361963
0.00259169 0.00174812 0.025 -388144
0.00273789 0.00184673 0.025 -418170
0.00288765 0.00194774 0.025 -452634
0.00304105 0.00205122 0.025 -492226
0.00319818 0.00215719 0.025 -538244
0.00335912 0.00226575 0.025 -591787
0.00352397 0.00237695 0.025 -658242
0.00369283 0.00249085 0.025 -747867
0.00386579 0.00260751 0.025 -813950
0.00404294 0.00272699 0.025 -914003
0.00422438 0.00284938 0.025 -1.04025e+06
0.00441022 0.00297474 0.025 -1.26374e+06
0.00460056 0.00310312 0.025 -1.37959e+06
0.00479552 0.00323462 0.025 -1.50984e+06
0.00499519 0.0033693 0.025 -1.68962e+06
0.00519968 0.00350723 0.025 -1.78954e+06
0.00540911 0.00364849 0.025 -1.84115e+06
0.00562361 0.00379318 0.025 -1.87428e+06
0.00584329 0.00394134 0.025 -1.8873e+06
0.00606826 0.00409309 0.025 -1.88223e+06
0.00629865 0.00424849 0.025 -1.86104e+06
0.0065346 0.00440764 0.025 -1.8103e+06
0.00677623 0.00457063 0.025 -1.77535e+06
0.00702368 0.00473753 0.025 -1.79826e+06
0.00727707 0.00490844 0.025 -1.92013e+06
0.00753655 0.00508347 0.025 -1.9627e+06
0.00780227 0.00526269 0.025 -1.94824e+06
0.00807436 0.00544622 0.025 -1.90557e+06
0.00835298 0.00563415 0.025 -1.85627e+06
0.00863826 0.00582659 0.025 -1.81137e+06
0.00893038 0.00602362 0.025 -1.75846e+06
0.00922949 0.00622537 0.025 -1.68202e+06
0.00953574 0.00643195 0.025 -1.6258e+06
0.00984929 0.00664345 0.025 -1.59133e+06
0.0101703 0.00686 0.025 -1.57225e+06
0.0104991 0.00708171 0.025 -1.57884e+06
0.0108356 0.00730871 0.025 -1.58008e+06
0.0111801 0.0075411 0.025 -1.58684e+06
0.0115329 0.00777902 0.025 -1.59913e+06
0.011894 0.00802259 0.025 -1.605e+06
0.0122637 0.00827194 0.025 -1.60967e+06
0.0126421 0.00852719 0.025 -1.60759e+06
0.0130295 0.0087885 0.025 -1.60176e+06
0.013426 0.00905597 0.025 -1.59114e+06
0.013832 0.00932978 0.025 -1.58021e+06
0.0142475 0.00961003 0.025 -1.56432e+06
0.0146727 0.0098969 0.025 -1.5486e+06
0.0151081 0.0101905 0.025 -1.53452e+06
0.0155536 0.010491 0.025 -1.52199e+06
0.0160097 0.0107986 0.025 -1.50496e+06
0.0164764 0.0111134 0.025 -1.49301e+06
0.016954 0.0114356 0.025 -1.47657e+06
0.0174427 0.0117653 0.025 -1.45794e+06
0.0179429 0.0121026 0.025 -1.43705e+06
0.0184548 0.0124479 0.025 -1.45638e+06
0.0189786 0.0128013 0.025 -1.42904e+06
0.0195146 0.0131628 0.025 -1.38975e+06
0.020063 0.0135327 0.025 -1.37542e+06
0.0206242 0.0139112 0.025 -1.34012e+06
0.0211983 0.0142984 0.025 -1.31824e+06
0.0217857 0.0146947 0.025 -1.30429e+06
0.0223867 0.0151 0.025 -1.28496e+06
0.0230015 0.0155147 0.025 -1.26045e+06
0.0236304 0.0159389 0.025 -1.24131e+06
0.0242738 0.0163729 0.025 -1.21807e+06
0.0249318 0.0168167 0.025 -1.21842e+06
0.025605 0.0172708 0.025 -1.21999e+06
0.0262935 0.0177352 0.025 -1.20449e+06
0.0269977 0.0182102 0.025 -1.18803e+06
0.0277178 0.0186959 0.025 -1.17606e+06
0.0284544 0.0191927 0.025 -1.21251e+06
0.0292075 0.0197008 0.025 -1.21185e+06
0.0299777 0.0202203 0.025 -1.2106e+06
0.0307653 0.0207514 0.025 -1.20664e+06
0.0315704 0.0212945 0.025 -1.20252e+06
0.0323937 0.0218499 0.025 -1.20041e+06
0.0332354 0.0224176 0.025 -1.2041e+06
0.0340959 0.022998 0.025 -1.2155e+06
0.0349755 0.0235913 0.025 -1.24178e+06
0.0358747 0.0241978 0.025 -1.25784e+06
0.0367938 0.0248178 0.025 -1.26376e+06
0.0377331 0.0254513 0.025 -1.2582e+06
0.0386932 0.0260989 0.025 -1.25978e+06
0.0396743 0.0267606 0.025 -1.26793e+06
0.0406769 0.0274369 0.025 -1.25985e+06
0.0417013 0.0281279 0.025 -1.27285e+06
0.042748 0.0288339 0.025 -1.26997e+06
0.0438175 0.0295552 0.025 -1.27438e+06
0.04491 0.0302922 0.025 -1.27767e+06
0.0460262 0.031045 0.025 -1.27781e+06
0.0471662 0.031814 0.025 -1.27799e+06
0.0483306 0.0325995 0.025 -1.28678e+06
0.0495199 0.0334016 0.025 -1.29075e+06
0.0507344 0.0342208 0.025 -1.29434e+06
0.0519746 0.0350573 0.025 -1.2828e+06
0.0532409 0.0359114 0.025 -1.31493e+06
0.0545339 0.0367835 0.025 -1.33348e+06
0.0558538 0.0376739 0.025 -1.35983e+06
0.0572012 0.0385827 0.025 -1.38809e+06
0.0585766 0.0395104 0.025 -1.40417e+06
0.0599804 0.0404573 0.025 -1.42143e+06
0.061413 0.0414236 0.025 -1.40199e+06
0.0628748 0.0424096 0.025 -1.41281e+06
0.0643665 0.0434157 0.025 -1.38286e+06
0.0658883 0.0444422 0.025 -1.35022e+06
0.0674408 0.0454894 0.025 -1.35e+06
0.0690245 0.0465576 0.025 -1.35953e+06
0.0706398 0.0476471 0.025 -1.3788e+06
0.0722871 0.0487582 0.025 -1.41614e+06
0.0739669 0.0498912 0.025 -1.42583e+06
0.0756797 0.0510466 0.025 -1.43731e+06
0.0774258 0.0522244 0.025 -1.45895e+06
0.0792059 0.053425 0.025 -1.46355e+06
0.0810203 0.0546489 0.025 -1.48083e+06
0.0828694 0.0558961 0.025 -1.46234e+06
0.0847537 0.0571671 0.025 -1.47715e+06
0.0866737 0.0584622 0.025 -1.44548e+06
0.0886298 0.0597816 0.025 -1.43876e+06
0.0906224 0.0611256 0.025 -1.44856e+06
0.0926518 0.0624944 0.025 -1.43188e+06
0.0947185 0.0638884 0.025 -1.49699e+06
0.096823 0.065308 0.025 -1.4799e+06
0.0989659 0.0667532 0.025 -1.563e+06
0.101147 0.0682245 0.025 -1.84028e+06
0.103367 0.0697219 0.025 -1.78156e+06
0.105626 0.0712458 0.025 -1.40025e+06
0.107926 0.0727965 0.025 -1.4314e+06
0.110265 0.074374 0.025 -1.41989e+06
0.112644 0.0759789 0.025 -1.81741e+06
0.115063 0.0776111 0.025 -1.43564e+06
0.117524 0.0792709 0.025 -1.74023e+06
0.120026 0.0809585 0.025 -1.91933e+06
0.122569 0.0826741 0.025 -1.68276e+06
0.125155 0.0844179 0.025 -1.59926e+06
0.127782 0.0861901 0.025 -1.46964e+06
0.130451 0.0879908 0.025 -1.48102e+06
0.133163 0.08982 0.025 -1.4584e+06
0.135918 0.0916781 0.025 -1.44283e+06
0.138716 0.0935651 0.025 -1.45276e+06
0.141556 0.095481 0.025 -1.46689e+06
0.14444 0.097426 0.025 -1.69293e+06
0.147367 0.0994004 0.025 -2.72425e+06
0.150337 0.101404 0.025 -1.66887e+06
0.153351 0.103437 0.025 -1.6512e+06
0.156408 0.105498 0.025 -2.6712e+06
0.159508 0.107589 0.025 -1.25625e+06
0.162651 0.10971 0.025 -1.57919e+06
0.165838 0.111859 0.025 -3.9262e+06
0.169069 0.114039 0.025 -1.38294e+06
0.172343 0.116247 0.025 -2.30714e+06
0.175659 0.118483 0.025 -1.74453e+06
0.179018 0.120749 0.025 -2.42406e+06
0.182421 0.123045 0.025 -1.72556e+06
0.185866 0.125368 0.025 -1.64623e+06
0.189353 0.12772 0.025 -1.74219e+06
0.192882 0.1301 0.025 -1.6863e+06
0.196453 0.132509 0.025 -1.63436e+06
0.200065 0.134946 0.025 -2.66037e+06
0.203718 0.13741 0.025 -1.67236e+06
0.207412 0.139901 0.025 -1.185e+06
0.211146 0.14242 0.025 -1.27785e+06
0.214919 0.144965 0.025 -2.12108e+06
0.218732 0.147537 0.025 -1.22818e+06
0.222583 0.150134 0.025 -2.42727e+06
0.226472 0.152757 0.025 -1.24032e+06
0.230399 0.155406 0.025 -2.14364e+06
0.234362 0.15808 0.025 -2.21662e+06
0.238362 0.160777 0.025 -2.75276e+06
0.242396 0.163498 0.025 -1.69453e+06
0.246466 0.166244 0.025 -2.83371e+06
0.250569 0.169012 0.025 -1.20834e+06
0.254706 0.171801 0.025 -1.9498e+06
0.258874 0.174613 0.025 -1.60816e+06
0.263074 0.177446 0.025 -2.72408e+06
0.267304 0.180299 0.025 -1.65714e+06
0.271564 0.183172 0.025 -1.24749e+06
0.275852 0.186064 0.025 -1.75662e+06
0.280168 0.188975 0.025 -1.25486e+06
0.28451 0.191904 0.025 -2.03402e+06
0.288876 0.19485 0.025 -3.24815e+06
0.293268 0.197812 0.025 -1.74837e+06
0.297683 0.20079 0.025 -1.3731e+06
0.302119 0.203782 0.025 -3.20132e+06
0.306577 0.206788 0.025 -1.20014e+06
0.311054 0.209808 0.025 -2.1319e+06
0.315549 0.212841 0.025 -1.43928e+06
0.320063 0.215885 0.025 -2.59091e+06
0.324591 0.218939 0.025 -1.65713e+06
0.329134 0.222003 0.025 -1.61083e+06
0.333691 0.225077 0.025 -3.11381e+06
0.33826 0.228159 0.025 -1.27003e+06
0.342839 0.231248 0.025 -1.57153e+06
0.347428 0.234343 0.025 -1.13063e+06
0.352025 0.237444 0.025 -2.53841e+06
0.356628 0.240548 0.025 -1.50359e+06
0.361237 0.243658 0.025 -1.43746e+06
0.36585 0.246769 0.025 -3.37574e+06
0.370465 0.249882 0.025 -1.23111e+06
0.375082 0.252996 0.025 -1.23203e+06
0.379698 0.25611 0.025 -3.23254e+06
0.384313 0.259223 0.025 -1.36486e+06
0.388926 0.262333 0.025 -1.57248e+06
0.393534 0.265442 0.025 -1.51932e+06
0.398136 0.268546 0.025 -1.24835e+06
0.40273 0.271645 0.025 -2.31932e+06
0.407317 0.274739 0.025 -1.72081e+06
0.411894 0.277826 0.025 -2.94983e+06
0.41646 0.280906 0.025 -1.12256e+06
0.421014 0.283977 0.025 -1.61318e+06
0.425554 0.28704 0.025 -2.86124e+06
0.430079 0.290092 0.025 -1.71834e+06
0.434588 0.293133 0.025 -1.63523e+06
0.439079 0.296162 0.025 -1.51298e+06
0.443551 0.299179 0.025 -1.88095e+06
0.448004 0.302183 0.025 -1.69442e+06
0.452437 0.305172 0.025 -1.72069e+06
0.456846 0.308146 0.025 -1.64445e+06
0.461232 0.311105 0.025 -2.30815e+06
0.465593 0.314047 0.025 -1.79412e+06
0.469929 0.316971 0.025 -1.78512e+06
0.474238 0.319878 0.025 -1.39795e+06
0.47852 0.322766 0.025 -1.46781e+06
0.482773 0.325635 0.025 -1.3146e+06
0.486996 0.328483 0.025 -1.53843e+06
0.491189 0.331311 0.025 -3.3063e+06
0.49535 0.334118 0.025 -1.08575e+06
