# y+ ()       
# Time        	patch         	min           	max           	average       
1900          	base	5.619009e-03	3.071774e+01	5.376737e+00
