# wallHeatFlux  FACE_DATA 398
# x  y  z  wallHeatFlux
-0.7975 0 0.025 -653671
-0.79239 0 0.025 -120055
-0.787056 0 0.025 -71292.1
-0.781492 0 0.025 -64185
-0.775691 0 0.025 -65624
-0.769649 0 0.025 -66440.8
-0.763362 0 0.025 -67047.1
-0.756822 0 0.025 -66983.1
-0.750025 0 0.025 -66498.7
-0.742968 0 0.025 -65722.3
-0.735648 0 0.025 -64822.1
-0.72806 0 0.025 -63857
-0.720203 0 0.025 -62919.3
-0.712076 0 0.025 -62014.4
-0.703677 0 0.025 -61188.3
-0.695006 0 0.025 -60414.7
-0.686065 0 0.025 -59688.4
-0.676855 0 0.025 -59025.5
-0.667379 0 0.025 -58313.3
-0.65764 0 0.025 -57627.5
-0.647644 0 0.025 -57040
-0.637397 0 0.025 -56499.2
-0.626906 0 0.025 -55884.3
-0.616179 0 0.025 -55366
-0.605224 0 0.025 -54858.9
-0.594054 0 0.025 -54371
-0.582678 0 0.025 -53857.9
-0.57111 0 0.025 -53401.8
-0.559364 0 0.025 -52971.5
-0.547454 0 0.025 -52602.4
-0.535396 0 0.025 -52167.3
-0.523205 0 0.025 -51749.1
-0.510901 0 0.025 -51363.3
-0.4985 0 0.025 -51005.1
-0.486021 0 0.025 -50704.6
-0.473483 0 0.025 -50391
-0.460905 0 0.025 -50069
-0.448308 0 0.025 -49735.4
-0.435709 0 0.025 -49405.2
-0.42313 0 0.025 -49104.1
-0.41059 0 0.025 -48871.7
-0.39811 0 0.025 -48686.1
-0.385706 0 0.025 -48460.8
-0.373398 0 0.025 -48197.8
-0.361205 0 0.025 -47928.4
-0.349141 0 0.025 -47672.9
-0.337226 0 0.025 -47438.9
-0.325475 0 0.025 -47247.2
-0.313901 0 0.025 -47092.9
-0.30252 0 0.025 -46975.3
-0.291343 0 0.025 -46842.8
-0.280382 0 0.025 -46667.4
-0.269646 0 0.025 -46485.7
-0.259148 0 0.025 -46304.5
-0.248893 0 0.025 -46141.3
-0.23889 0 0.025 -45989.3
-0.229143 0 0.025 -45847.5
-0.219659 0 0.025 -45718.2
-0.210441 0 0.025 -45588.7
-0.201491 0 0.025 -45446.4
-0.192812 0 0.025 -45301.8
-0.184405 0 0.025 -45167.3
-0.176269 0 0.025 -45052.3
-0.168404 0 0.025 -44960.6
-0.160808 0 0.025 -44895.7
-0.15348 0 0.025 -44855.3
-0.146415 0 0.025 -44831.8
-0.13961 0 0.025 -44822.9
-0.133063 0 0.025 -44810.7
-0.126767 0 0.025 -44794
-0.120718 0 0.025 -44772.6
-0.11491 0 0.025 -44741.2
-0.109339 0 0.025 -44689.1
-0.103997 0 0.025 -44625.5
-0.0988805 0 0.025 -44555.4
-0.0939808 0 0.025 -44471.9
-0.0892928 0 0.025 -44384.5
-0.0848096 0 0.025 -44297.2
-0.0805248 0 0.025 -44215.7
-0.0764316 0 0.025 -44129.1
-0.0725237 0 0.025 -44048
-0.0687943 0 0.025 -43972.9
-0.065237 0 0.025 -43897.2
-0.0618454 0 0.025 -43833.2
-0.058613 0 0.025 -43768.5
-0.0555337 0 0.025 -43715.4
-0.0526013 0 0.025 -43661.7
-0.0498099 0 0.025 -43613.6
-0.0471536 0 0.025 -43570.9
-0.0446266 0 0.025 -43533.6
-0.0422235 0 0.025 -43501.6
-0.039939 0 0.025 -43475
-0.0377676 0 0.025 -43453.4
-0.0357044 0 0.025 -43432.8
-0.0337445 0 0.025 -43416.6
-0.0318832 0 0.025 -43406
-0.0301159 0 0.025 -43218.5
-0.0284383 0 0.025 -39948.1
-0.0268461 0 0.025 -32124.5
-0.0253353 0 0.025 -40215.6
-0.023902 0 0.025 -59089.5
-0.0225426 0 0.025 -70103.4
-0.0212532 0 0.025 -76852.5
-0.0200306 0 0.025 -82414.8
-0.0188715 0 0.025 -87341.1
-0.0177728 0 0.025 -91318.9
-0.0167313 0 0.025 -94922.2
-0.0157444 0 0.025 -98199.4
-0.0148092 0 0.025 -101105
-0.0139232 0 0.025 -103841
-0.0130838 0 0.025 -106409
-0.0122887 0 0.025 -108740
-0.0115356 0 0.025 -110786
-0.0108223 0 0.025 -112562
-0.0101469 0 0.025 -114113
-0.00950727 0 0.025 -115479
-0.00890168 0 0.025 -116695
-0.00832835 0 0.025 -117817
-0.00778557 0 0.025 -118908
-0.00727176 0 0.025 -120019
-0.0067854 0 0.025 -121206
-0.00632507 0 0.025 -122485
-0.00588937 0 0.025 -123879
-0.00547703 0 0.025 -125391
-0.0050868 0 0.025 -127006
-0.00471753 0 0.025 -128724
-0.0043681 0 0.025 -130568
-0.00403746 0 0.025 -132546
-0.00372461 0 0.025 -134638
-0.0034286 0 0.025 -136851
-0.00314855 0 0.025 -139221
-0.0028836 0 0.025 -141798
-0.00263294 0 0.025 -144524
-0.00239581 0 0.025 -147198
-0.0021715 0 0.025 -149946
-0.00195929 0 0.025 -152857
-0.00175856 0 0.025 -155886
-0.00156869 0 0.025 -159042
-0.00138908 0 0.025 -162305
-0.0012192 0 0.025 -165656
-0.00105853 0 0.025 -169089
-0.000906546 0 0.025 -172581
-0.000762803 0 0.025 -175999
-0.000626848 0 0.025 -179071
-0.000498265 0 0.025 -180974
-0.000376656 0 0.025 -179814
-0.000261642 0 0.025 -171844
-0.00015287 0 0.025 -149818
-5e-05 0 0.025 -97074.6
4.14519e-05 2.79596e-05 0.025 -69483
0.000125371 8.45641e-05 0.025 -83146.9
0.000211347 0.000142556 0.025 -98863
0.000299429 0.000201968 0.025 -110034
0.000389669 0.000262835 0.025 -119440
0.000482118 0.000325193 0.025 -128382
0.000576831 0.000389077 0.025 -136775
0.000673861 0.000454524 0.025 -144367
0.000773265 0.000521574 0.025 -151089
0.0008751 0.000590262 0.025 -157027
0.000979426 0.000660632 0.025 -162274
0.0010863 0.000732721 0.025 -166963
0.00119579 0.000806572 0.025 -171301
0.00130795 0.000882227 0.025 -175326
0.00142285 0.00095973 0.025 -179088
0.00154056 0.00103912 0.025 -182727
0.00166115 0.00112046 0.025 -186242
0.00178467 0.00120378 0.025 -189729
0.00191121 0.00128913 0.025 -193212
0.00204083 0.00137656 0.025 -196645
0.00217362 0.00146612 0.025 -200148
0.00230964 0.00155787 0.025 -203711
0.00244897 0.00165185 0.025 -207292
0.00259169 0.00174812 0.025 -210962
0.00273789 0.00184673 0.025 -214749
0.00288765 0.00194774 0.025 -218675
0.00304105 0.00205122 0.025 -222705
0.00319818 0.00215719 0.025 -226861
0.00335912 0.00226575 0.025 -231222
0.00352397 0.00237695 0.025 -235721
0.00369283 0.00249085 0.025 -240435
0.00386579 0.00260751 0.025 -245324
0.00404294 0.00272699 0.025 -250444
0.00422438 0.00284938 0.025 -255832
0.00441022 0.00297474 0.025 -261499
0.00460056 0.00310312 0.025 -267443
0.00479552 0.00323462 0.025 -273662
0.00499519 0.0033693 0.025 -280286
0.00519968 0.00350723 0.025 -287210
0.00540911 0.00364849 0.025 -294602
0.00562361 0.00379318 0.025 -302419
0.00584329 0.00394134 0.025 -310616
0.00606826 0.00409309 0.025 -319399
0.00629865 0.00424849 0.025 -328655
0.0065346 0.00440764 0.025 -338516
0.00677623 0.00457063 0.025 -349039
0.00702368 0.00473753 0.025 -360180
0.00727707 0.00490844 0.025 -372102
0.00753655 0.00508347 0.025 -384853
0.00780227 0.00526269 0.025 -398530
0.00807436 0.00544622 0.025 -413165
0.00835298 0.00563415 0.025 -428935
0.00863826 0.00582659 0.025 -446188
0.00893038 0.00602362 0.025 -464955
0.00922949 0.00622537 0.025 -484712
0.00953574 0.00643195 0.025 -505833
0.00984929 0.00664345 0.025 -530013
0.0101703 0.00686 0.025 -556528
0.0104991 0.00708171 0.025 -585099
0.0108356 0.00730871 0.025 -619102
0.0111801 0.0075411 0.025 -656430
0.0115329 0.00777902 0.025 -695597
0.011894 0.00802259 0.025 -741127
0.0122637 0.00827194 0.025 -786710
0.0126421 0.00852719 0.025 -831064
0.0130295 0.0087885 0.025 -875755
0.013426 0.00905597 0.025 -918975
0.013832 0.00932978 0.025 -960969
0.0142475 0.00961003 0.025 -1.00249e+06
0.0146727 0.0098969 0.025 -1.04038e+06
0.0151081 0.0101905 0.025 -1.0817e+06
0.0155536 0.010491 0.025 -1.12574e+06
0.0160097 0.0107986 0.025 -1.17143e+06
0.0164764 0.0111134 0.025 -1.22137e+06
0.016954 0.0114356 0.025 -1.27471e+06
0.0174427 0.0117653 0.025 -1.32899e+06
0.0179429 0.0121026 0.025 -1.38723e+06
0.0184548 0.0124479 0.025 -1.45673e+06
0.0189786 0.0128013 0.025 -1.50592e+06
0.0195146 0.0131628 0.025 -1.55861e+06
0.020063 0.0135327 0.025 -1.62089e+06
0.0206242 0.0139112 0.025 -1.66154e+06
0.0211983 0.0142984 0.025 -1.6912e+06
0.0217857 0.0146947 0.025 -1.72642e+06
0.0223867 0.0151 0.025 -1.75574e+06
0.0230015 0.0155147 0.025 -1.77917e+06
0.0236304 0.0159389 0.025 -1.80837e+06
0.0242738 0.0163729 0.025 -1.8095e+06
0.0249318 0.0168167 0.025 -1.82435e+06
0.025605 0.0172708 0.025 -1.83265e+06
0.0262935 0.0177352 0.025 -1.80602e+06
0.0269977 0.0182102 0.025 -1.77431e+06
0.0277178 0.0186959 0.025 -1.73221e+06
0.0284544 0.0191927 0.025 -1.7425e+06
0.0292075 0.0197008 0.025 -1.67488e+06
0.0299777 0.0202203 0.025 -1.63685e+06
0.0307653 0.0207514 0.025 -1.60485e+06
0.0315704 0.0212945 0.025 -1.57745e+06
0.0323937 0.0218499 0.025 -1.5535e+06
0.0332354 0.0224176 0.025 -1.52829e+06
0.0340959 0.022998 0.025 -1.50584e+06
0.0349755 0.0235913 0.025 -1.47435e+06
0.0358747 0.0241978 0.025 -1.47382e+06
0.0367938 0.0248178 0.025 -1.43986e+06
0.0377331 0.0254513 0.025 -1.41645e+06
0.0386932 0.0260989 0.025 -1.39834e+06
0.0396743 0.0267606 0.025 -1.38064e+06
0.0406769 0.0274369 0.025 -1.36931e+06
0.0417013 0.0281279 0.025 -1.35178e+06
0.042748 0.0288339 0.025 -1.35269e+06
0.0438175 0.0295552 0.025 -1.33707e+06
0.04491 0.0302922 0.025 -1.32174e+06
0.0460262 0.031045 0.025 -1.32598e+06
0.0471662 0.031814 0.025 -1.33221e+06
0.0483306 0.0325995 0.025 -1.32045e+06
0.0495199 0.0334016 0.025 -1.32249e+06
0.0507344 0.0342208 0.025 -1.31788e+06
0.0519746 0.0350573 0.025 -1.31198e+06
0.0532409 0.0359114 0.025 -1.31516e+06
0.0545339 0.0367835 0.025 -1.30004e+06
0.0558538 0.0376739 0.025 -1.29796e+06
0.0572012 0.0385827 0.025 -1.29683e+06
0.0585766 0.0395104 0.025 -1.29508e+06
0.0599804 0.0404573 0.025 -1.30326e+06
0.061413 0.0414236 0.025 -1.28906e+06
0.0628748 0.0424096 0.025 -1.3169e+06
0.0643665 0.0434157 0.025 -1.32052e+06
0.0658883 0.0444422 0.025 -1.29679e+06
0.0674408 0.0454894 0.025 -1.28266e+06
0.0690245 0.0465576 0.025 -1.28383e+06
0.0706398 0.0476471 0.025 -1.27381e+06
0.0722871 0.0487582 0.025 -1.27073e+06
0.0739669 0.0498912 0.025 -1.27033e+06
0.0756797 0.0510466 0.025 -1.28003e+06
0.0774258 0.0522244 0.025 -1.28909e+06
0.0792059 0.053425 0.025 -1.28023e+06
0.0810203 0.0546489 0.025 -1.30098e+06
0.0828694 0.0558961 0.025 -1.27487e+06
0.0847537 0.0571671 0.025 -1.3201e+06
0.0866737 0.0584622 0.025 -1.28124e+06
0.0886298 0.0597816 0.025 -1.28125e+06
0.0906224 0.0611256 0.025 -1.29103e+06
0.0926518 0.0624944 0.025 -1.25586e+06
0.0947185 0.0638884 0.025 -1.29801e+06
0.096823 0.065308 0.025 -1.25568e+06
0.0989659 0.0667532 0.025 -1.3381e+06
0.101147 0.0682245 0.025 -1.6786e+06
0.103367 0.0697219 0.025 -1.58065e+06
0.105626 0.0712458 0.025 -1.19218e+06
0.107926 0.0727965 0.025 -1.1904e+06
0.110265 0.074374 0.025 -1.23432e+06
0.112644 0.0759789 0.025 -1.84851e+06
0.115063 0.0776111 0.025 -1.25254e+06
0.117524 0.0792709 0.025 -1.73281e+06
0.120026 0.0809585 0.025 -1.89671e+06
0.122569 0.0826741 0.025 -1.67363e+06
0.125155 0.0844179 0.025 -1.48782e+06
0.127782 0.0861901 0.025 -1.28912e+06
0.130451 0.0879908 0.025 -1.24364e+06
0.133163 0.08982 0.025 -1.22173e+06
0.135918 0.0916781 0.025 -1.19149e+06
0.138716 0.0935651 0.025 -1.19351e+06
0.141556 0.095481 0.025 -1.20356e+06
0.14444 0.097426 0.025 -1.5825e+06
0.147367 0.0994004 0.025 -2.34908e+06
0.150337 0.101404 0.025 -1.66277e+06
0.153351 0.103437 0.025 -1.6111e+06
0.156408 0.105498 0.025 -2.24882e+06
0.159508 0.107589 0.025 -1.02493e+06
0.162651 0.10971 0.025 -1.51106e+06
0.165838 0.111859 0.025 -3.60617e+06
0.169069 0.114039 0.025 -1.6139e+06
0.172343 0.116247 0.025 -1.97477e+06
0.175659 0.118483 0.025 -1.87142e+06
0.179018 0.120749 0.025 -1.86875e+06
0.182421 0.123045 0.025 -1.93302e+06
0.185866 0.125368 0.025 -1.69769e+06
0.189353 0.12772 0.025 -1.73432e+06
0.192882 0.1301 0.025 -1.84034e+06
0.196453 0.132509 0.025 -1.74119e+06
0.200065 0.134946 0.025 -2.15553e+06
0.203718 0.13741 0.025 -1.93703e+06
0.207412 0.139901 0.025 -925279
0.211146 0.14242 0.025 -988544
0.214919 0.144965 0.025 -1.61548e+06
0.218732 0.147537 0.025 -988397
0.222583 0.150134 0.025 -1.94137e+06
0.226472 0.152757 0.025 -978351
0.230399 0.155406 0.025 -1.82883e+06
0.234362 0.15808 0.025 -1.72411e+06
0.238362 0.160777 0.025 -2.35205e+06
0.242396 0.163498 0.025 -1.95067e+06
0.246466 0.166244 0.025 -2.10998e+06
0.250569 0.169012 0.025 -932219
0.254706 0.171801 0.025 -1.53142e+06
0.258874 0.174613 0.025 -1.53259e+06
0.263074 0.177446 0.025 -1.94509e+06
0.267304 0.180299 0.025 -1.57603e+06
0.271564 0.183172 0.025 -948161
0.275852 0.186064 0.025 -1.62208e+06
0.280168 0.188975 0.025 -924543
0.28451 0.191904 0.025 -1.64933e+06
0.288876 0.19485 0.025 -2.27071e+06
0.293268 0.197812 0.025 -1.60596e+06
0.297683 0.20079 0.025 -1.92024e+06
0.302119 0.203782 0.025 -1.84806e+06
0.306577 0.206788 0.025 -1.39517e+06
0.311054 0.209808 0.025 -1.57029e+06
0.315549 0.212841 0.025 -1.16436e+06
0.320063 0.215885 0.025 -2.01414e+06
0.324591 0.218939 0.025 -1.42163e+06
0.329134 0.222003 0.025 -1.40811e+06
0.333691 0.225077 0.025 -2.21103e+06
0.33826 0.228159 0.025 -1.77873e+06
0.342839 0.231248 0.025 -1.82472e+06
0.347428 0.234343 0.025 -873860
0.352025 0.237444 0.025 -1.92288e+06
0.356628 0.240548 0.025 -1.40946e+06
0.361237 0.243658 0.025 -1.15347e+06
0.36585 0.246769 0.025 -2.55379e+06
0.370465 0.249882 0.025 -1.02156e+06
0.375082 0.252996 0.025 -1.42367e+06
0.379698 0.25611 0.025 -2.10535e+06
0.384313 0.259223 0.025 -1.37179e+06
0.388926 0.262333 0.025 -1.69929e+06
0.393534 0.265442 0.025 -1.40385e+06
0.398136 0.268546 0.025 -879589
0.40273 0.271645 0.025 -1.62134e+06
0.407317 0.274739 0.025 -1.67593e+06
0.411894 0.277826 0.025 -2.10673e+06
0.41646 0.280906 0.025 -835489
0.421014 0.283977 0.025 -1.58504e+06
0.425554 0.28704 0.025 -1.86961e+06
0.430079 0.290092 0.025 -1.47802e+06
0.434588 0.293133 0.025 -1.81363e+06
0.439079 0.296162 0.025 -1.27455e+06
0.443551 0.299179 0.025 -1.6546e+06
0.448004 0.302183 0.025 -1.68489e+06
0.452437 0.305172 0.025 -1.64431e+06
0.456846 0.308146 0.025 -1.5289e+06
0.461232 0.311105 0.025 -1.5541e+06
0.465593 0.314047 0.025 -1.44034e+06
0.469929 0.316971 0.025 -1.93389e+06
0.474238 0.319878 0.025 -990385
0.47852 0.322766 0.025 -1.10927e+06
0.482773 0.325635 0.025 -880260
0.486996 0.328483 0.025 -1.32113e+06
0.491189 0.331311 0.025 -2.00656e+06
0.49535 0.334118 0.025 -1.28066e+06
