# p  FACE_DATA 203
# x  y  z  p
-0.873265 0 0.0205 3481.34
-0.846493 0 0.0205 2974.11
-0.820677 0 0.0205 2840.82
-0.795786 0 0.0205 2789.28
-0.771783 0 0.0205 2768.23
-0.74637 0 0.0205 2765.28
-0.719597 0 0.0205 2762.14
-0.693782 0 0.0205 2754.87
-0.66889 0 0.0205 2750.74
-0.644887 0 0.0205 2750.54
-0.621743 0 0.0205 2748.78
-0.599426 0 0.0205 2744.33
-0.577905 0 0.0205 2740.22
-0.557154 0 0.0205 2738.59
-0.537145 0 0.0205 2738.44
-0.517849 0 0.0205 2737.04
-0.499243 0 0.0205 2733.87
-0.481301 0 0.0205 2730.38
-0.463999 0 0.0205 2727.92
-0.447314 0 0.0205 2727.39
-0.431225 0 0.0205 2728.19
-0.41571 0 0.0205 2728.11
-0.400747 0 0.0205 2726.23
-0.386317 0 0.0205 2723.17
-0.372401 0 0.0205 2719.91
-0.358981 0 0.0205 2717.32
-0.346039 0 0.0205 2716.1
-0.333556 0 0.0205 2716.21
-0.321518 0 0.0205 2717.77
-0.309908 0 0.0205 2719.57
-0.298709 0 0.0205 2720.54
-0.287908 0 0.0205 2720.57
-0.27749 0 0.0205 2719.12
-0.267441 0 0.0205 2716.6
-0.257748 0 0.0205 2713.32
-0.248397 0 0.0205 2709.77
-0.239378 0 0.0205 2706.71
-0.230677 0 0.0205 2704.14
-0.222282 0 0.0205 2702.27
-0.214183 0 0.0205 2701.26
-0.20637 0 0.0205 2701.02
-0.19883 0 0.0205 2701.82
-0.191555 0 0.0205 2703.25
-0.184536 0 0.0205 2705
-0.177762 0 0.0205 2706.83
-0.171224 0 0.0205 2708.58
-0.164914 0 0.0205 2710.17
-0.158824 0 0.0205 2711.49
-0.152944 0 0.0205 2712.49
-0.147268 0 0.0205 2713.14
-0.141788 0 0.0205 2713.49
-0.136496 0 0.0205 2713.49
-0.131387 0 0.0205 2713.08
-0.126452 0 0.0205 2712.35
-0.121685 0 0.0205 2711.32
-0.117081 0 0.0205 2710.03
-0.112632 0 0.0205 2708.53
-0.108332 0 0.0205 2706.86
-0.104177 0 0.0205 2705.08
-0.100161 0 0.0205 2703.27
-0.0962773 0 0.0205 2701.48
-0.0925221 0 0.0205 2699.74
-0.08889 0 0.0205 2698.08
-0.0853762 0 0.0205 2696.52
-0.0819759 0 0.0205 2695.04
-0.0786847 0 0.0205 2693.85
-0.0754981 0 0.0205 2691.86
-0.0724121 0 0.0205 2725.33
-0.0694223 0 0.0205 4455.23
-0.066525 0 0.0205 7770.32
-0.0637161 0 0.0205 9519.65
-0.060992 0 0.0205 10217.3
-0.0583491 0 0.0205 10554
-0.0557837 0 0.0205 10717.9
-0.0532926 0 0.0205 10845.5
-0.0508723 0 0.0205 10949
-0.0485197 0 0.0205 11041.5
-0.0462317 0 0.0205 11134.2
-0.0440053 0 0.0205 11219.1
-0.0418373 0 0.0205 11312.2
-0.039725 0 0.0205 11410.4
-0.0376655 0 0.0205 11511.3
-0.0356562 0 0.0205 11609.2
-0.0336943 0 0.0205 11703.6
-0.0317773 0 0.0205 11795.2
-0.0299025 0 0.0205 11884.7
-0.0280674 0 0.0205 11971.6
-0.0262697 0 0.0205 12055.4
-0.024507 0 0.0205 12135.8
-0.0227768 0 0.0205 12212.4
-0.021077 0 0.0205 12284.8
-0.0194052 0 0.0205 12352.6
-0.0177593 0 0.0205 12416.1
-0.016137 0 0.0205 12476.4
-0.014536 0 0.0205 12534
-0.0129545 0 0.0205 12592.3
-0.0113902 0 0.0205 12651
-0.00984104 0 0.0205 12708.3
-0.00830498 0 0.0205 12763.1
-0.00677997 0 0.0205 12813.9
-0.00526398 0 0.0205 12876.4
-0.00375499 0 0.0205 13101.2
-0.002251 0 0.0205 13630.9
-0.00075 0 0.0205 16318.3
0.000689475 0.000398068 0.0205 13807.3
0.00206843 0.0011942 0.0205 13884.9
0.00344737 0.00199034 0.0205 14040.8
0.00482631 0.00278648 0.0205 14447.6
0.00620527 0.00358261 0.0205 14970.8
0.00758422 0.00437875 0.0205 15595.4
0.00896317 0.00517489 0.0205 16290.6
0.0103421 0.00597102 0.0205 17048.7
0.0117211 0.00676715 0.0205 17883
0.0131 0.00756329 0.0205 18804.6
0.0144789 0.00835943 0.0205 19827.6
0.0158579 0.00915557 0.0205 20970.4
0.0172368 0.00995171 0.0205 22249.5
0.0186158 0.0107478 0.0205 23682.8
0.0199947 0.0115439 0.0205 25283.6
0.0213737 0.0123401 0.0205 27096.7
0.0227526 0.0131362 0.0205 29110.2
0.0241316 0.0139323 0.0205 31350.5
0.0255106 0.0147285 0.0205 33850.3
0.0268895 0.0155246 0.0205 36578.1
0.0282685 0.0163208 0.0205 39565
0.0296474 0.0171169 0.0205 42792.1
0.0310264 0.017913 0.0205 46231.4
0.0324053 0.0187092 0.0205 49890.5
0.0337843 0.0195054 0.0205 53747.3
0.0351632 0.0203015 0.0205 57837.1
0.0365421 0.0210976 0.0205 62241.5
0.037921 0.0218938 0.0205 67065.2
0.0393 0.0226898 0.0205 72468.2
0.0406789 0.023486 0.0205 78482.9
0.0420579 0.0242821 0.0205 85127.1
0.0434368 0.0250783 0.0205 92364.6
0.0448158 0.0258745 0.0205 100074
0.0461948 0.0266706 0.0205 108234
0.0475737 0.0274667 0.0205 116580
0.0489527 0.0282628 0.0205 124962
0.0503316 0.029059 0.0205 133214
0.0517106 0.0298551 0.0205 141116
0.0530895 0.0306512 0.0205 148543
0.0544684 0.0314473 0.0205 155658
0.0558474 0.0322435 0.0205 161886
0.0572264 0.0330397 0.0205 166563
0.0586053 0.0338357 0.0205 168916
0.0599842 0.0346319 0.0205 170175
0.0613632 0.0354281 0.0205 165331
0.0627422 0.0362242 0.0205 159674
0.0641211 0.0370204 0.0205 153079
0.0655001 0.0378164 0.0205 146025
0.066879 0.0386126 0.0205 138944
0.0682579 0.0394088 0.0205 132512
0.0696369 0.0402049 0.0205 127096
0.0710158 0.041001 0.0205 122564
0.0723947 0.0417971 0.0205 118631
0.0737737 0.0425932 0.0205 114993
0.0751527 0.0433894 0.0205 111588
0.0765316 0.0441856 0.0205 108324
0.0779106 0.0449817 0.0205 105421
0.0792895 0.0457778 0.0205 102875
0.0806685 0.0465739 0.0205 100815
0.0820474 0.0473701 0.0205 99145.2
0.0834263 0.0481662 0.0205 97838.1
0.0848053 0.0489624 0.0205 96695.7
0.0861843 0.0497585 0.0205 95807.1
0.0875632 0.0505546 0.0205 95063.4
0.0889421 0.0513508 0.0205 94544.9
0.0903211 0.0521469 0.0205 94274.3
0.0917 0.0529431 0.0205 94166.7
0.093079 0.0537392 0.0205 94173.7
0.094458 0.0545353 0.0205 94272.5
0.0958369 0.0553315 0.0205 94341.8
0.0972159 0.0561276 0.0205 94488.4
0.0985948 0.0569238 0.0205 94670.3
0.0999737 0.0577198 0.0205 94923.3
0.101352 0.058516 0.0205 95176.6
0.102732 0.0593121 0.0205 95473.3
0.10411 0.0601083 0.0205 95790.4
0.105489 0.0609044 0.0205 96117.4
0.106868 0.0617005 0.0205 96405.1
0.108248 0.0624967 0.0205 96651.2
0.109627 0.0632928 0.0205 96884.6
0.111006 0.064089 0.0205 97054.9
0.112385 0.0648851 0.0205 97214.4
0.113764 0.0656812 0.0205 97335.8
0.115143 0.0664774 0.0205 97412
0.116522 0.0672735 0.0205 97511.8
0.117901 0.0680697 0.0205 97603.7
0.119279 0.0688658 0.0205 97807.4
0.120658 0.0696619 0.0205 97836.4
0.122037 0.0704581 0.0205 97932.8
0.123415 0.0712542 0.0205 98022.2
0.124794 0.0720503 0.0205 98142
0.126173 0.0728465 0.0205 98224.8
0.127552 0.0736426 0.0205 98300.1
0.128931 0.0744387 0.0205 98432.8
0.13031 0.0752348 0.0205 98527.9
0.131689 0.076031 0.0205 98650.1
0.133069 0.0768271 0.0205 98790
0.134447 0.0776233 0.0205 98895.6
0.135827 0.0784194 0.0205 98898.1
