# wallHeatFlux  FACE_DATA 203
# x  y  z  wallHeatFlux
-0.873265 0 0.0205 -297668
-0.846493 0 0.0205 -81741.8
-0.820677 0 0.0205 -75850
-0.795786 0 0.0205 -73461.5
-0.771783 0 0.0205 -71391.4
-0.74637 0 0.0205 -69958.2
-0.719597 0 0.0205 -68418.9
-0.693782 0 0.0205 -66667.3
-0.66889 0 0.0205 -65181.1
-0.644887 0 0.0205 -64013.4
-0.621743 0 0.0205 -62951.8
-0.599426 0 0.0205 -61890.2
-0.577905 0 0.0205 -60987.9
-0.557154 0 0.0205 -60138.6
-0.537145 0 0.0205 -59342.4
-0.517849 0 0.0205 -58546.2
-0.499243 0 0.0205 -57750
-0.481301 0 0.0205 -57060
-0.463999 0 0.0205 -56529.2
-0.447314 0 0.0205 -56104.6
-0.431225 0 0.0205 -55733
-0.41571 0 0.0205 -55255.3
-0.400747 0 0.0205 -54777.6
-0.386317 0 0.0205 -54246.8
-0.372401 0 0.0205 -53716
-0.358981 0 0.0205 -53238.3
-0.346039 0 0.0205 -52919.8
-0.333556 0 0.0205 -52654.5
-0.321518 0 0.0205 -52495.2
-0.309908 0 0.0205 -52336
-0.298709 0 0.0205 -52176.7
-0.287908 0 0.0205 -51964.4
-0.27749 0 0.0205 -51645.9
-0.267441 0 0.0205 -51327.5
-0.257748 0 0.0205 -50955.9
-0.248397 0 0.0205 -50584.4
-0.239378 0 0.0205 -50212.8
-0.230677 0 0.0205 -49894.3
-0.222282 0 0.0205 -49628.9
-0.214183 0 0.0205 -49416.6
-0.20637 0 0.0205 -49257.4
-0.19883 0 0.0205 -49204.3
-0.191555 0 0.0205 -49151.2
-0.184536 0 0.0205 -49098.2
-0.177762 0 0.0205 -49098.2
-0.171224 0 0.0205 -49098.2
-0.164914 0 0.0205 -49098.2
-0.158824 0 0.0205 -49098.2
-0.152944 0 0.0205 -49098.2
-0.147268 0 0.0205 -49045.1
-0.141788 0 0.0205 -48938.9
-0.136496 0 0.0205 -48885.8
-0.131387 0 0.0205 -48779.7
-0.126452 0 0.0205 -48620.4
-0.121685 0 0.0205 -48461.2
-0.117081 0 0.0205 -48355
-0.112632 0 0.0205 -48195.8
-0.108332 0 0.0205 -47983.5
-0.104177 0 0.0205 -47824.3
-0.100161 0 0.0205 -47665
-0.0962773 0 0.0205 -47452.7
-0.0925221 0 0.0205 -47293.5
-0.08889 0 0.0205 -47134.2
-0.0853762 0 0.0205 -46975
-0.0819759 0 0.0205 -46815.8
-0.0786847 0 0.0205 -46656.5
-0.0754981 0 0.0205 -46444.2
-0.0724121 0 0.0205 -50531.3
-0.0694223 0 0.0205 -232115
-0.066525 0 0.0205 -178240
-0.0637161 0 0.0205 -111360
-0.060992 0 0.0205 -91349.1
-0.0583491 0 0.0205 -80521
-0.0557837 0 0.0205 -76274.6
-0.0532926 0 0.0205 -73886.1
-0.0508723 0 0.0205 -72983.7
-0.0485197 0 0.0205 -73408.4
-0.0462317 0 0.0205 -74257.6
-0.0440053 0 0.0205 -75000.7
-0.0418373 0 0.0205 -76009.2
-0.039725 0 0.0205 -77017.8
-0.0376655 0 0.0205 -77973.2
-0.0356562 0 0.0205 -78397.8
-0.0336943 0 0.0205 -78291.6
-0.0317773 0 0.0205 -77495.5
-0.0299025 0 0.0205 -76062.3
-0.0280674 0 0.0205 -74310.7
-0.0262697 0 0.0205 -72771.4
-0.024507 0 0.0205 -71338.3
-0.0227768 0 0.0205 -69958.2
-0.021077 0 0.0205 -68578.2
-0.0194052 0 0.0205 -67304.3
-0.0177593 0 0.0205 -66189.6
-0.016137 0 0.0205 -65340.4
-0.014536 0 0.0205 -64809.6
-0.0129545 0 0.0205 -64756.5
-0.0113902 0 0.0205 -65128
-0.00984104 0 0.0205 -66083.5
-0.00830498 0 0.0205 -67782
-0.00677997 0 0.0205 -70595.2
-0.00526398 0 0.0205 -73939.2
-0.00375499 0 0.0205 -79247.1
-0.002251 0 0.0205 -90287.5
-0.00075 0 0.0205 -119799
0.000689475 0.000398068 0.0205 -45967.8
0.00206843 0.0011942 0.0205 -79861.4
0.00344737 0.00199034 0.0205 -93345.6
0.00482631 0.00278648 0.0205 -102110
0.00620527 0.00358261 0.0205 -110691
0.00758422 0.00437875 0.0205 -119578
0.00896317 0.00517489 0.0205 -128955
0.0103421 0.00597102 0.0205 -139497
0.0117211 0.00676715 0.0205 -149059
0.0131 0.00756329 0.0205 -160702
0.0144789 0.00835943 0.0205 -173025
0.0158579 0.00915557 0.0205 -187118
0.0172368 0.00995171 0.0205 -203917
0.0186158 0.0107478 0.0205 -222418
0.0199947 0.0115439 0.0205 -240687
0.0213737 0.0123401 0.0205 -264287
0.0227526 0.0131362 0.0205 -287635
0.0241316 0.0139323 0.0205 -309694
0.0255106 0.0147285 0.0205 -337598
0.0268895 0.0155246 0.0205 -363629
0.0282685 0.0163208 0.0205 -394599
0.0296474 0.0171169 0.0205 -429821
0.0310264 0.017913 0.0205 -465684
0.0324053 0.0187092 0.0205 -501852
0.0337843 0.0195054 0.0205 -533287
0.0351632 0.0203015 0.0205 -554187
0.0365421 0.0210976 0.0205 -567065
0.037921 0.0218938 0.0205 -574474
0.0393 0.0226898 0.0205 -588989
0.0406789 0.023486 0.0205 -611696
0.0420579 0.0242821 0.0205 -644272
0.0434368 0.0250783 0.0205 -688863
0.0448158 0.0258745 0.0205 -742457
0.0461948 0.0266706 0.0205 -794935
0.0475737 0.0274667 0.0205 -858137
0.0489527 0.0282628 0.0205 -938538
0.0503316 0.029059 0.0205 -1.01317e+06
0.0517106 0.0298551 0.0205 -1.10252e+06
0.0530895 0.0306512 0.0205 -1.20856e+06
0.0544684 0.0314473 0.0205 -1.30806e+06
0.0558474 0.0322435 0.0205 -1.45591e+06
0.0572264 0.0330397 0.0205 -1.55702e+06
0.0586053 0.0338357 0.0205 -1.62343e+06
0.0599842 0.0346319 0.0205 -1.73187e+06
0.0613632 0.0354281 0.0205 -1.7294e+06
0.0627422 0.0362242 0.0205 -1.71931e+06
0.0641211 0.0370204 0.0205 -1.69103e+06
0.0655001 0.0378164 0.0205 -1.61672e+06
0.066879 0.0386126 0.0205 -1.53706e+06
0.0682579 0.0394088 0.0205 -1.47354e+06
0.0696369 0.0402049 0.0205 -1.40667e+06
0.0710158 0.041001 0.0205 -1.34657e+06
0.0723947 0.0417971 0.0205 -1.29151e+06
0.0737737 0.0425932 0.0205 -1.23136e+06
0.0751527 0.0433894 0.0205 -1.20574e+06
0.0765316 0.0441856 0.0205 -1.15101e+06
0.0779106 0.0449817 0.0205 -1.09854e+06
0.0792895 0.0457778 0.0205 -1.05981e+06
0.0806685 0.0465739 0.0205 -1.01006e+06
0.0820474 0.0473701 0.0205 -978083
0.0834263 0.0481662 0.0205 -966119
0.0848053 0.0489624 0.0205 -942873
0.0861843 0.0497585 0.0205 -934277
0.0875632 0.0505546 0.0205 -928776
0.0889421 0.0513508 0.0205 -911693
0.0903211 0.0521469 0.0205 -918263
0.0917 0.0529431 0.0205 -909180
0.093079 0.0537392 0.0205 -895312
0.094458 0.0545353 0.0205 -909944
0.0958369 0.0553315 0.0205 -904751
0.0972159 0.0561276 0.0205 -909699
0.0985948 0.0569238 0.0205 -925896
0.0999737 0.0577198 0.0205 -927111
0.101352 0.058516 0.0205 -934444
0.102732 0.0593121 0.0205 -948695
0.10411 0.0601083 0.0205 -948940
0.105489 0.0609044 0.0205 -946335
0.106868 0.0617005 0.0205 -940115
0.108248 0.0624967 0.0205 -928041
0.109627 0.0632928 0.0205 -943883
0.111006 0.064089 0.0205 -940728
0.112385 0.0648851 0.0205 -943760
0.113764 0.0656812 0.0205 -957521
0.115143 0.0664774 0.0205 -952373
0.116522 0.0672735 0.0205 -956693
0.117901 0.0680697 0.0205 -967572
0.119279 0.0688658 0.0205 -963702
0.120658 0.0696619 0.0205 -962638
0.122037 0.0704581 0.0205 -965427
0.123415 0.0712542 0.0205 -954272
0.124794 0.0720503 0.0205 -969380
0.126173 0.0728465 0.0205 -967021
0.127552 0.0736426 0.0205 -958072
0.128931 0.0744387 0.0205 -979064
0.13031 0.0752348 0.0205 -977930
0.131689 0.076031 0.0205 -984029
0.133069 0.0768271 0.0205 -1.00024e+06
0.134447 0.0776233 0.0205 -996010
0.135827 0.0784194 0.0205 -1.00891e+06
