/*--------------------------------*- C++ -*----------------------------------*\
| =========                 |                                                 |
| \\      /  F ield         | OpenFOAM: The Open Source CFD Toolbox           |
|  \\    /   O peration     | Version:  v2012                                 |
|   \\  /    A nd           | Website:  www.openfoam.com                      |
|    \\/     M anipulation  |                                                 |
\*---------------------------------------------------------------------------*/
FoamFile
{
    version     2.0;
    format      ascii;
    class       volScalarField;
    location    "600";
    object      alphat;
}
// * * * * * * * * * * * * * * * * * * * * * * * * * * * * * * * * * * * * * //

dimensions      [1 -1 -1 0 0 0 0];


internalField   nonuniform List<scalar> 
27324
(
1.43407e-05
1.36821e-05
3.63037e-05
1.29432e-05
3.58012e-05
3.8767e-05
1.22447e-05
3.48967e-05
3.77404e-05
2.65701e-05
1.15844e-05
3.39832e-05
3.63202e-05
2.55135e-05
1.44742e-05
1.09665e-05
3.30612e-05
3.49184e-05
2.4248e-05
1.37575e-05
7.13923e-06
1.03829e-05
3.21678e-05
3.35392e-05
2.30173e-05
1.29618e-05
6.73716e-06
3.33373e-06
9.82471e-06
3.12901e-05
3.22214e-05
2.18269e-05
1.2203e-05
6.30932e-06
3.12451e-06
1.47707e-06
9.28244e-06
3.04027e-05
3.0954e-05
2.06885e-05
1.14786e-05
5.906e-06
2.90662e-06
1.37341e-06
6.2129e-07
8.75503e-06
2.94652e-05
2.97076e-05
1.95892e-05
1.07779e-05
5.52098e-06
2.70218e-06
1.26811e-06
5.73742e-07
2.53258e-07
8.25747e-06
2.84617e-05
2.84417e-05
1.8509e-05
1.00947e-05
5.14413e-06
2.50776e-06
1.17043e-06
5.26624e-07
2.33688e-07
1.06304e-07
7.80096e-06
2.74363e-05
2.71356e-05
1.7435e-05
9.42176e-06
4.77305e-06
2.31745e-06
1.07831e-06
4.83543e-07
2.14699e-07
9.90679e-08
4.92637e-08
7.39457e-06
2.64368e-05
2.58155e-05
1.63752e-05
8.76555e-06
4.4078e-06
2.13065e-06
9.88544e-07
4.4343e-07
1.9758e-07
9.20689e-08
4.67557e-08
2.58575e-08
7.029e-06
2.55109e-05
2.45108e-05
1.53472e-05
8.14548e-06
4.0579e-06
1.94857e-06
9.01084e-07
4.04825e-07
1.81869e-07
8.5842e-08
4.42668e-08
2.49778e-08
1.49074e-08
6.68129e-06
2.4629e-05
2.32471e-05
1.43683e-05
7.56562e-06
3.73784e-06
1.77689e-06
8.16987e-07
3.6776e-07
1.66962e-07
8.01805e-08
4.20588e-08
2.4045e-08
1.45613e-08
9.03225e-09
6.33262e-06
2.36931e-05
2.19861e-05
1.34319e-05
7.02974e-06
3.44691e-06
1.62289e-06
7.39075e-07
3.32848e-07
1.52867e-07
7.48517e-08
4.0047e-08
2.32091e-08
1.41565e-08
8.86874e-09
5.57913e-09
5.9826e-06
2.26366e-05
2.06803e-05
1.25074e-05
6.51314e-06
3.18187e-06
1.48477e-06
6.70715e-07
3.01189e-07
1.3983e-07
6.98538e-08
3.81459e-08
2.24328e-08
1.37842e-08
8.65835e-09
5.48756e-09
3.47548e-09
5.64296e-06
2.14718e-05
1.93191e-05
1.15844e-05
6.00153e-06
2.9236e-06
1.36002e-06
6.10625e-07
2.74014e-07
1.28219e-07
6.52832e-08
3.63552e-08
2.16838e-08
1.34277e-08
8.45961e-09
5.36303e-09
3.42054e-09
2.18919e-09
5.32864e-06
2.02782e-05
1.79509e-05
1.06711e-05
5.49319e-06
2.66585e-06
1.23854e-06
5.57158e-07
2.50555e-07
1.18397e-07
6.12303e-08
3.4712e-08
2.09628e-08
1.30736e-08
8.26455e-09
5.24339e-09
3.34347e-09
2.15652e-09
1.40884e-09
5.04199e-06
1.91323e-05
1.66546e-05
9.80028e-06
5.00575e-06
2.41054e-06
1.11829e-06
5.05632e-07
2.29926e-07
1.10013e-07
5.78101e-08
3.32425e-08
2.02854e-08
1.27233e-08
8.0673e-09
5.12434e-09
3.26863e-09
2.10925e-09
1.39052e-09
9.39703e-10
4.77287e-06
1.80375e-05
1.54556e-05
8.98777e-06
4.5536e-06
2.17431e-06
1.00248e-06
4.55641e-07
2.10296e-07
1.02672e-07
5.4892e-08
3.19869e-08
1.96631e-08
1.23837e-08
7.86849e-09
5.00427e-09
3.19399e-09
2.06313e-09
1.36253e-09
9.3081e-10
6.6094e-10
4.51206e-06
1.69325e-05
1.43134e-05
8.22946e-06
4.13493e-06
1.96111e-06
8.99623e-07
4.08848e-07
1.91611e-07
9.57352e-08
5.23238e-08
3.08942e-08
1.91141e-08
1.20629e-08
7.67173e-09
4.88335e-09
3.11985e-09
2.01756e-09
1.33533e-09
9.15359e-10
6.58143e-10
4.96476e-10
4.25719e-06
1.5774e-05
1.3174e-05
7.49228e-06
3.73822e-06
1.76829e-06
8.10073e-07
3.6883e-07
1.74528e-07
8.92144e-08
4.98843e-08
2.99043e-08
1.86195e-08
1.17682e-08
7.48261e-09
4.76296e-09
3.04656e-09
1.97309e-09
1.30876e-09
9.0053e-10
6.50717e-10
4.97575e-10
3.99903e-10
4.01476e-06
1.45645e-05
1.20197e-05
6.76627e-06
3.35058e-06
1.5849e-06
7.30517e-07
3.34896e-07
1.60278e-07
8.33417e-08
4.75902e-08
2.894e-08
1.81539e-08
1.14943e-08
7.30388e-09
4.64591e-09
2.97384e-09
1.92993e-09
1.28336e-09
8.86256e-10
6.4378e-10
4.95223e-10
4.03271e-10
3.43439e-10
3.79629e-06
1.33435e-05
1.08772e-05
6.06015e-06
2.97707e-06
1.40758e-06
6.54635e-07
3.05082e-07
1.4838e-07
7.85203e-08
4.55242e-08
2.80145e-08
1.7687e-08
1.12285e-08
7.13383e-09
4.5333e-09
2.90238e-09
1.88775e-09
1.25908e-09
8.72884e-10
6.37251e-10
4.93267e-10
4.03963e-10
3.47571e-10
3.13952e-10
3.59336e-06
1.21618e-05
9.77281e-06
5.3956e-06
2.63312e-06
1.24091e-06
5.82011e-07
2.76634e-07
1.37976e-07
7.45223e-08
4.3824e-08
2.7163e-08
1.72258e-08
1.09596e-08
6.96815e-09
4.42451e-09
2.83272e-09
1.84594e-09
1.23568e-09
8.60355e-10
6.31294e-10
4.91585e-10
4.05016e-10
3.49947e-10
3.15418e-10
3.04371e-10
3.39194e-06
1.09858e-05
8.71141e-06
4.77334e-06
2.32494e-06
1.09437e-06
5.151e-07
2.49601e-07
1.28014e-07
7.0992e-08
4.2389e-08
2.64429e-08
1.67896e-08
1.06902e-08
6.80288e-09
4.32026e-09
2.7655e-09
1.8048e-09
1.21264e-09
8.48538e-10
6.25902e-10
4.90275e-10
4.06304e-10
3.52715e-10
3.17924e-10
3.02694e-10
3.34682e-10
3.16875e-06
9.76277e-06
7.65731e-06
4.16146e-06
2.04526e-06
9.67695e-07
4.58402e-07
2.25223e-07
1.18641e-07
6.75571e-08
4.10722e-08
2.58085e-08
1.64058e-08
1.04309e-08
6.63916e-09
4.21954e-09
2.70252e-09
1.76535e-09
1.18992e-09
8.37328e-10
6.21119e-10
4.89357e-10
4.07886e-10
3.55739e-10
3.21462e-10
3.03117e-10
3.13345e-10
7.84117e-10
2.92831e-06
8.4124e-06
6.58346e-06
3.55756e-06
1.76558e-06
8.5521e-07
4.10772e-07
2.05073e-07
1.10289e-07
6.4307e-08
3.97323e-08
2.51908e-08
1.60535e-08
1.01947e-08
6.47966e-09
4.12211e-09
2.64423e-09
1.72897e-09
1.16833e-09
8.26649e-10
6.17026e-10
4.88905e-10
4.09777e-10
3.59081e-10
3.2534e-10
3.04497e-10
3.04638e-10
3.86259e-10
5.8727e-08
2.67343e-06
6.9747e-06
5.48709e-06
2.97577e-06
1.49353e-06
7.42771e-07
3.69328e-07
1.88494e-07
1.03509e-07
6.1417e-08
3.84267e-08
2.45281e-08
1.56985e-08
9.97233e-09
6.32948e-09
4.02611e-09
2.58931e-09
1.69654e-09
1.14862e-09
8.16659e-10
6.13617e-10
4.8904e-10
4.11988e-10
3.62677e-10
3.29396e-10
3.07356e-10
3.03454e-10
3.58593e-10
2.99484e-08
1.0175e-06
2.38137e-06
5.50526e-06
4.40679e-06
2.46701e-06
1.24655e-06
6.35761e-07
3.28209e-07
1.74249e-07
9.79862e-08
5.90821e-08
3.72416e-08
2.38607e-08
1.53131e-08
9.74642e-09
6.18541e-09
3.93163e-09
2.53515e-09
1.66688e-09
1.13121e-09
8.07486e-10
6.10662e-10
4.89706e-10
4.14538e-10
3.66432e-10
3.3371e-10
3.11299e-10
3.04911e-10
3.3823e-10
1.56038e-08
8.26448e-07
2.88568e-06
1.72576e-06
3.99319e-06
3.36524e-06
2.02006e-06
1.05646e-06
5.42665e-07
2.8965e-07
1.60173e-07
9.32028e-08
5.71605e-08
3.62583e-08
2.32431e-08
1.49205e-08
9.5061e-09
6.04212e-09
3.83971e-09
2.47973e-09
1.63775e-09
1.11569e-09
7.99217e-10
6.0788e-10
4.90746e-10
4.17359e-10
3.70218e-10
3.38411e-10
3.15787e-10
3.07703e-10
3.23904e-10
8.60455e-09
6.29079e-07
2.17531e-06
6.32415e-06
8.80819e-07
2.10355e-06
2.37887e-06
1.61073e-06
9.06233e-07
4.7832e-07
2.56907e-07
1.46967e-07
8.84001e-08
5.54475e-08
3.54203e-08
2.27103e-08
1.45573e-08
9.26222e-09
5.89699e-09
3.75116e-09
2.42442e-09
1.60668e-09
1.10093e-09
7.92007e-10
6.05122e-10
4.92008e-10
4.20284e-10
3.74229e-10
3.4343e-10
3.21331e-10
3.12008e-10
3.16417e-10
5.56689e-09
4.52415e-07
1.65219e-06
4.95526e-06
1.4986e-05
2.47025e-07
9.54854e-07
1.41427e-06
1.28518e-06
7.77017e-07
4.32454e-07
2.35227e-07
1.35652e-07
8.38053e-08
5.36508e-08
3.46309e-08
2.22387e-08
1.42382e-08
9.03344e-09
5.75185e-09
3.66713e-09
2.37288e-09
1.57485e-09
1.08562e-09
7.85806e-10
6.0268e-10
4.93231e-10
4.23462e-10
3.78743e-10
3.48794e-10
3.28715e-10
3.15574e-10
3.10916e-10
3.92308e-09
3.05854e-07
1.24277e-06
3.946e-06
1.24115e-05
3.63885e-05
1.2583e-07
4.04877e-07
7.45215e-07
9.06011e-07
6.96258e-07
3.94324e-07
2.19973e-07
1.2812e-07
7.97847e-08
5.18537e-08
3.37542e-08
2.17665e-08
1.39481e-08
8.82833e-09
5.61344e-09
3.5863e-09
2.32713e-09
1.54538e-09
1.06964e-09
7.80466e-10
6.01148e-10
4.94325e-10
4.27386e-10
3.83631e-10
3.55338e-10
3.36031e-10
3.16999e-10
3.00679e-10
3.14275e-09
1.92309e-07
9.23535e-07
3.14543e-06
1.02584e-05
3.09038e-05
8.4517e-05
1.12935e-07
2.82598e-07
3.98139e-07
5.77323e-07
5.45435e-07
3.72964e-07
2.06054e-07
1.22682e-07
7.71475e-08
5.02229e-08
3.28152e-08
2.12288e-08
1.36493e-08
8.63447e-09
5.48665e-09
3.50744e-09
2.28617e-09
1.52081e-09
1.05389e-09
7.75419e-10
6.00902e-10
4.9585e-10
4.31995e-10
3.89152e-10
3.63412e-10
3.40596e-10
3.1467e-10
2.79051e-10
2.05535e-09
1.08827e-07
6.78322e-07
2.50162e-06
8.43178e-06
2.61233e-05
7.33372e-05
0.000189636
1.09782e-07
2.63882e-07
2.79727e-07
3.85489e-07
3.91948e-07
3.03564e-07
1.97317e-07
1.17286e-07
7.5244e-08
4.91301e-08
3.1891e-08
2.06325e-08
1.33144e-08
8.4311e-09
5.36393e-09
3.43132e-09
2.24517e-09
1.49991e-09
1.04099e-09
7.70222e-10
6.02123e-10
4.98754e-10
4.36882e-10
3.97207e-10
3.69383e-10
3.41519e-10
2.99643e-10
2.46364e-10
1.09566e-09
5.53237e-08
4.86583e-07
1.97658e-06
6.8926e-06
2.19461e-05
6.33237e-05
0.000167455
0.000416485
1.07564e-07
2.56848e-07
2.5877e-07
3.10471e-07
2.96482e-07
2.37924e-07
1.62486e-07
1.11844e-07
7.31047e-08
4.82087e-08
3.1166e-08
2.00275e-08
1.29417e-08
8.20933e-09
5.23734e-09
3.35566e-09
2.20215e-09
1.4794e-09
1.03175e-09
7.65237e-10
6.04618e-10
5.02656e-10
4.43433e-10
4.04099e-10
3.70413e-10
3.31321e-10
2.71361e-10
2.10558e-10
5.29446e-10
2.48068e-08
3.32139e-07
1.54912e-06
5.59917e-06
1.83346e-05
5.4397e-05
0.000147204
0.000373502
0.000898436
1.0506e-07
2.51457e-07
2.5075e-07
2.92708e-07
2.52455e-07
1.97652e-07
1.34957e-07
9.22227e-08
6.85663e-08
4.69339e-08
3.04485e-08
1.9509e-08
1.25622e-08
7.96406e-09
5.10688e-09
3.27966e-09
2.15844e-09
1.45634e-09
1.02423e-09
7.62696e-10
6.05961e-10
5.09746e-10
4.48842e-10
4.05221e-10
3.63187e-10
3.05392e-10
2.32164e-10
1.81288e-10
2.81678e-10
9.72648e-09
2.11721e-07
1.19459e-06
4.51681e-06
1.52317e-05
4.64808e-05
0.000128991
0.00033338
0.000817647
0.00189405
1.02267e-07
2.45211e-07
2.43764e-07
2.83544e-07
2.4008e-07
1.70424e-07
1.19943e-07
8.03094e-08
5.66136e-08
4.192e-08
2.93036e-08
1.89805e-08
1.22066e-08
7.70417e-09
4.96684e-09
3.2042e-09
2.11495e-09
1.43155e-09
1.01503e-09
7.61792e-10
6.0626e-10
5.15392e-10
4.47545e-10
3.99784e-10
3.35901e-10
2.60772e-10
1.97369e-10
1.64896e-10
1.92574e-10
3.47024e-09
1.22915e-07
9.00742e-07
3.61425e-06
1.25852e-05
3.95168e-05
0.000112675
0.000296897
0.000740171
0.00174857
0.0038628
9.92376e-08
2.38169e-07
2.36452e-07
2.76593e-07
2.32303e-07
1.63372e-07
1.07457e-07
7.49511e-08
5.27624e-08
3.49834e-08
2.5036e-08
1.76909e-08
1.17945e-08
7.41054e-09
4.79467e-09
3.1156e-09
2.06816e-09
1.40368e-09
9.99661e-10
7.6015e-10
6.01989e-10
5.12143e-10
4.35017e-10
3.65862e-10
2.85729e-10
2.1791e-10
1.77354e-10
1.58162e-10
1.64064e-10
1.27408e-09
6.34596e-08
6.54992e-07
2.86485e-06
1.03408e-05
3.34304e-05
9.80787e-05
0.000263851
0.000668721
0.0016048
0.00361651
0.00751313
9.62003e-08
2.30604e-07
2.2905e-07
2.70205e-07
2.2656e-07
1.58844e-07
1.02605e-07
6.793e-08
5.30397e-08
3.52208e-08
2.17107e-08
1.45273e-08
1.01931e-08
6.88529e-09
4.55837e-09
2.97823e-09
1.99963e-09
1.3645e-09
9.74876e-10
7.46922e-10
5.885e-10
4.8515e-10
3.92471e-10
3.04941e-10
2.35467e-10
1.92082e-10
1.69197e-10
1.56192e-10
1.55036e-10
5.4241e-10
2.88116e-08
4.50386e-07
2.24259e-06
8.44795e-06
2.81483e-05
8.5064e-05
0.000233969
0.000603132
0.00147032
0.00336468
0.00713169
0.0136896
9.31636e-08
2.23211e-07
2.2189e-07
2.63989e-07
2.21147e-07
1.55212e-07
9.99323e-08
6.35939e-08
4.92265e-08
3.79513e-08
2.38546e-08
1.35928e-08
8.37029e-09
5.60639e-09
3.8267e-09
2.60073e-09
1.81131e-09
1.27248e-09
8.87839e-10
6.83706e-10
5.20808e-10
4.06989e-10
3.15274e-10
2.48297e-10
2.06483e-10
1.81476e-10
1.65974e-10
1.57407e-10
1.53344e-10
2.85226e-10
1.15942e-08
2.87646e-07
1.72616e-06
6.85584e-06
2.36056e-05
7.34737e-05
0.000207011
0.000543107
0.00134509
0.00312584
0.00672467
0.0131771
0.0229219
9.01524e-08
2.16137e-07
2.15331e-07
2.57945e-07
2.1574e-07
1.5132e-07
9.7284e-08
6.25641e-08
4.46561e-08
3.57274e-08
2.7716e-08
1.60467e-08
8.75931e-09
5.00043e-09
3.10172e-09
2.04351e-09
1.39464e-09
9.81203e-10
6.96608e-10
5.30281e-10
4.03319e-10
3.19149e-10
2.59769e-10
2.20275e-10
1.95076e-10
1.77295e-10
1.6702e-10
1.59277e-10
1.54323e-10
1.96899e-10
4.28939e-09
1.68039e-07
1.29736e-06
5.51963e-06
1.97223e-05
6.32092e-05
0.000182712
0.000488357
0.00122891
0.00290011
0.00633316
0.0125942
0.0223686
0.0349212
8.72339e-08
2.09611e-07
2.09405e-07
2.51997e-07
2.10147e-07
1.47435e-07
9.43099e-08
6.15176e-08
4.39697e-08
3.21793e-08
2.69339e-08
1.97271e-08
1.08248e-08
5.74518e-09
3.18534e-09
1.86984e-09
1.18064e-09
7.94537e-10
5.6459e-10
4.25412e-10
3.3551e-10
2.75976e-10
2.3713e-10
2.10534e-10
1.91252e-10
1.78582e-10
1.68773e-10
1.61705e-10
1.56048e-10
1.67105e-10
1.58905e-09
8.79592e-08
9.41608e-07
4.39971e-06
1.64192e-05
5.41612e-05
0.000160861
0.000438504
0.00112155
0.00268761
0.00595757
0.0120237
0.0216666
0.034501
0.0492297
8.4208e-08
2.03184e-07
2.04027e-07
2.4618e-07
2.04206e-07
1.43588e-07
9.1499e-08
6.03816e-08
4.35656e-08
3.13192e-08
2.42912e-08
1.98626e-08
1.3732e-08
7.23975e-09
3.80963e-09
2.09351e-09
1.22725e-09
7.76634e-10
5.31947e-10
3.9623e-10
3.15838e-10
2.64343e-10
2.31436e-10
2.10096e-10
1.93383e-10
1.80768e-10
1.7128e-10
1.64001e-10
1.58012e-10
1.58005e-10
6.4656e-10
4.05385e-08
6.49487e-07
3.45986e-06
1.36288e-05
4.6238e-05
0.000141242
0.000393224
0.00102258
0.00248833
0.00559883
0.0114667
0.0209659
0.0338222
0.0491113
0.0654274
8.09603e-08
1.96174e-07
1.98408e-07
2.39824e-07
1.98025e-07
1.39707e-07
8.90986e-08
5.94618e-08
4.30346e-08
3.0984e-08
2.3e-08
1.804e-08
1.44659e-08
9.23262e-09
4.75903e-09
2.52388e-09
1.41516e-09
8.49349e-10
5.57809e-10
4.03901e-10
3.18472e-10
2.67679e-10
2.35337e-10
2.12927e-10
1.96443e-10
1.8368e-10
1.73695e-10
1.66127e-10
1.60002e-10
1.5598e-10
3.15358e-10
1.64906e-08
4.16524e-07
2.674e-06
1.1266e-05
3.93509e-05
0.000123692
0.000352136
0.000931637
0.002302
0.00525743
0.0109259
0.0202662
0.0331323
0.0485765
0.0657962
0.0826896
7.75172e-08
1.88724e-07
1.92512e-07
2.32685e-07
1.91182e-07
1.35617e-07
8.69349e-08
5.88333e-08
4.25113e-08
3.06e-08
2.27825e-08
1.67466e-08
1.34224e-08
1.01435e-08
5.94531e-09
3.06913e-09
1.66441e-09
9.66569e-10
6.12168e-10
4.29963e-10
3.31693e-10
2.75649e-10
2.41039e-10
2.17478e-10
2.00029e-10
1.8648e-10
1.75999e-10
1.68137e-10
1.61951e-10
1.56594e-10
2.03243e-10
6.00169e-09
2.45329e-07
2.02487e-06
9.24021e-06
3.3412e-05
0.000108056
0.000314917
0.000848193
0.00212853
0.00493345
0.0104032
0.0195736
0.0324253
0.0480248
0.0655654
0.0837591
0.0974797
7.4057e-08
1.80911e-07
1.86582e-07
2.25393e-07
1.84199e-07
1.3134e-07
8.48746e-08
5.83317e-08
4.20454e-08
3.0237e-08
2.26174e-08
1.65124e-08
1.22723e-08
9.75468e-09
6.77538e-09
3.72867e-09
1.96189e-09
1.10397e-09
6.76195e-10
4.60581e-10
3.47588e-10
2.84877e-10
2.47096e-10
2.21856e-10
2.03436e-10
1.89213e-10
1.78238e-10
1.70115e-10
1.63887e-10
1.58123e-10
1.67909e-10
2.08636e-09
1.29815e-07
1.48134e-06
7.49142e-06
2.83354e-05
9.41959e-05
0.000281266
0.000771765
0.00196746
0.00462741
0.00989936
0.018891
0.0317105
0.0474407
0.0653172
0.0840529
0.0994958
0.106397
7.08324e-08
1.73071e-07
1.8066e-07
2.18231e-07
1.77507e-07
1.27185e-07
8.29708e-08
5.78669e-08
4.15706e-08
2.99485e-08
2.24855e-08
1.64052e-08
1.18857e-08
8.8668e-09
6.89577e-09
4.32067e-09
2.31314e-09
1.26636e-09
7.51126e-10
4.95655e-10
3.64901e-10
2.94515e-10
2.5329e-10
2.26284e-10
2.06815e-10
1.91932e-10
1.80512e-10
1.72117e-10
1.65822e-10
1.59994e-10
1.58516e-10
7.55537e-10
6.02827e-08
1.03159e-06
6.0035e-06
2.40245e-05
8.19913e-05
0.000250879
0.000701877
0.00181838
0.00433933
0.00941611
0.0182211
0.0309905
0.0468371
0.0650178
0.084345
0.100645
0.109125
0.109914
6.79878e-08
1.65961e-07
1.75123e-07
2.11219e-07
1.70979e-07
1.23176e-07
8.13765e-08
5.73862e-08
4.10276e-08
2.96954e-08
2.23991e-08
1.63287e-08
1.1816e-08
8.39897e-09
6.33545e-09
4.71915e-09
2.72199e-09
1.46072e-09
8.40126e-10
5.3715e-10
3.84648e-10
3.04916e-10
2.59764e-10
2.30898e-10
2.10361e-10
1.94768e-10
1.82861e-10
1.74168e-10
1.67772e-10
1.61974e-10
1.57189e-10
3.22543e-10
2.40495e-08
6.70608e-07
4.73242e-06
2.03534e-05
7.12966e-05
0.000223533
0.000638008
0.00168076
0.00406942
0.00895423
0.0175673
0.0302686
0.0462152
0.0646872
0.0845694
0.101821
0.111011
0.113003
0.109762
6.54874e-08
1.59647e-07
1.70085e-07
2.04551e-07
1.64781e-07
1.19218e-07
8.0038e-08
5.69426e-08
4.04619e-08
2.9452e-08
2.23291e-08
1.62872e-08
1.17781e-08
8.32107e-09
5.86444e-09
4.43029e-09
3.12032e-09
1.6973e-09
9.45341e-10
5.85958e-10
4.07754e-10
3.16624e-10
2.66771e-10
2.3581e-10
2.1411e-10
1.97744e-10
1.85305e-10
1.76274e-10
1.69739e-10
1.63993e-10
1.58357e-10
1.93438e-10
8.11514e-09
3.99971e-07
3.64795e-06
1.7213e-05
6.1978e-05
0.000199004
0.00057979
0.00155379
0.00381767
0.00851509
0.016932
0.0295498
0.0455778
0.0643252
0.0847531
0.102922
0.112978
0.115316
0.112997
0.107076
6.33517e-08
1.54262e-07
1.65197e-07
1.97782e-07
1.58926e-07
1.15534e-07
7.89524e-08
5.64859e-08
3.99188e-08
2.92596e-08
2.22583e-08
1.62636e-08
1.17774e-08
8.29665e-09
5.69927e-09
4.02314e-09
3.06614e-09
1.96732e-09
1.06793e-09
6.41345e-10
4.34498e-10
3.29935e-10
2.74437e-10
2.41065e-10
2.18086e-10
2.00862e-10
1.87832e-10
1.78432e-10
1.71732e-10
1.66043e-10
1.60279e-10
1.62715e-10
2.41828e-09
2.13657e-07
2.73464e-06
1.44961e-05
5.39036e-05
0.000177138
0.000526827
0.00143684
0.00358351
0.00810009
0.0163178
0.0288375
0.0449296
0.0639352
0.0848929
0.103979
0.11491
0.117733
0.115534
0.11034
0.102529
6.14221e-08
1.49636e-07
1.60271e-07
1.90711e-07
1.5319e-07
1.12109e-07
7.81116e-08
5.59708e-08
3.93939e-08
2.91326e-08
2.2201e-08
1.62531e-08
1.17918e-08
8.30791e-09
5.67868e-09
3.81805e-09
2.79001e-09
2.04464e-09
1.20717e-09
7.03102e-10
4.64761e-10
3.45228e-10
2.82897e-10
2.4667e-10
2.22281e-10
2.04127e-10
1.90447e-10
1.80645e-10
1.73762e-10
1.68123e-10
1.62488e-10
1.58e-10
7.12505e-10
9.89781e-08
1.96923e-06
1.20814e-05
4.69559e-05
0.000157756
0.000478841
0.00132913
0.0033664
0.00771003
0.0157279
0.0281362
0.044275
0.0635211
0.0849912
0.104979
0.116843
0.120142
0.118182
0.112983
0.105751
0.0965734
5.95285e-08
1.45162e-07
1.55125e-07
1.83254e-07
1.47507e-07
1.08936e-07
7.74061e-08
5.5348e-08
3.89026e-08
2.90714e-08
2.21726e-08
1.62575e-08
1.1813e-08
8.33484e-09
5.68324e-09
3.78119e-09
2.56413e-09
1.93571e-09
1.31705e-09
7.73522e-10
4.98212e-10
3.62804e-10
2.92388e-10
2.52672e-10
2.26696e-10
2.0755e-10
1.93156e-10
1.82919e-10
1.75842e-10
1.7025e-10
1.64849e-10
1.5936e-10
2.66555e-10
3.79583e-08
1.33242e-06
9.94399e-06
4.10168e-05
0.000140698
0.000435503
0.00123015
0.00316519
0.00734595
0.0151646
0.02745
0.043621
0.0630865
0.0850512
0.105919
0.118763
0.122579
0.120837
0.115737
0.108424
0.0997052
0.0895753
5.7595e-08
1.40876e-07
1.49831e-07
1.75494e-07
1.41789e-07
1.06112e-07
7.67777e-08
5.46116e-08
3.84672e-08
2.90476e-08
2.21831e-08
1.62887e-08
1.18432e-08
8.36681e-09
5.70328e-09
3.77747e-09
2.46618e-09
1.74161e-09
1.3402e-09
8.50024e-10
5.34879e-10
3.82429e-10
3.03126e-10
2.59163e-10
2.31339e-10
2.11146e-10
1.95973e-10
1.8526e-10
1.77983e-10
1.72439e-10
1.67327e-10
1.62091e-10
1.74432e-10
1.11716e-08
8.28466e-07
8.08405e-06
3.59316e-05
0.000125755
0.000396567
0.00113937
0.002979
0.0070077
0.014632
0.0267821
0.0429756
0.0626356
0.0850757
0.106793
0.120668
0.12503
0.123531
0.118506
0.111203
0.10235
0.0925763
0.0818701
5.5583e-08
1.36871e-07
1.44694e-07
1.67609e-07
1.36226e-07
1.03656e-07
7.61751e-08
5.37395e-08
3.80894e-08
2.90384e-08
2.22133e-08
1.6349e-08
1.18855e-08
8.40306e-09
5.73051e-09
3.78959e-09
2.45447e-09
1.62359e-09
1.21931e-09
9.13896e-10
5.7595e-10
4.03015e-10
3.15166e-10
2.66278e-10
2.36234e-10
2.1493e-10
1.98917e-10
1.87674e-10
1.80195e-10
1.74716e-10
1.69924e-10
1.65113e-10
1.63146e-10
2.25899e-09
4.60878e-07
6.46735e-06
3.15118e-05
0.000112717
0.000361743
0.00105654
0.00280669
0.00669494
0.0141329
0.0261384
0.0423459
0.0621737
0.0850671
0.107593
0.122547
0.127492
0.126253
0.12132
0.114003
0.105095
0.0951455
0.0847065
0.0737772
5.36241e-08
1.33125e-07
1.39706e-07
1.59806e-07
1.30934e-07
1.01519e-07
7.54948e-08
5.2736e-08
3.77497e-08
2.90321e-08
2.22606e-08
1.64242e-08
1.19433e-08
8.44647e-09
5.75927e-09
3.80914e-09
2.45744e-09
1.57554e-09
1.09004e-09
8.83535e-10
6.19193e-10
4.23761e-10
3.28158e-10
2.74202e-10
2.41444e-10
2.18913e-10
2.02008e-10
1.90171e-10
1.82489e-10
1.77101e-10
1.72658e-10
1.68347e-10
1.65244e-10
3.42819e-10
2.18703e-07
5.08384e-06
2.76071e-05
0.00010139
0.000330812
0.000981388
0.00264764
0.00640619
0.0136703
0.0255253
0.0417363
0.0617052
0.085027
0.108326
0.124394
0.129958
0.128999
0.124168
0.116852
0.107867
0.0978106
0.0871611
0.0764212
0.0655908
5.16911e-08
1.29494e-07
1.34904e-07
1.52248e-07
1.25944e-07
9.96983e-08
7.46457e-08
5.16342e-08
3.74604e-08
2.90305e-08
2.23205e-08
1.6502e-08
1.20191e-08
8.49671e-09
5.78838e-09
3.82912e-09
2.46663e-09
1.57188e-09
1.02348e-09
7.87675e-10
6.36818e-10
4.45815e-10
3.41262e-10
2.83065e-10
2.4709e-10
2.23105e-10
2.05265e-10
1.92761e-10
1.84876e-10
1.79611e-10
1.75565e-10
1.71773e-10
1.68425e-10
1.75935e-10
8.05901e-08
3.89867e-06
2.40683e-05
9.16149e-05
0.000303568
0.000913709
0.00250126
0.00614011
0.0132453
0.0249496
0.0411468
0.0612391
0.0849587
0.109006
0.126198
0.13242
0.131762
0.127047
0.119738
0.110689
0.100505
0.0897056
0.0787289
0.0680217
0.0575671
4.96743e-08
1.25743e-07
1.30271e-07
1.45153e-07
1.21441e-07
9.81118e-08
7.37007e-08
5.05172e-08
3.72013e-08
2.90049e-08
2.23859e-08
1.6578e-08
1.20978e-08
8.55132e-09
5.81683e-09
3.84639e-09
2.47799e-09
1.57456e-09
9.98754e-10
6.99274e-10
6.07858e-10
4.66333e-10
3.53667e-10
2.92689e-10
2.53341e-10
2.27531e-10
2.08697e-10
1.95462e-10
1.87367e-10
1.82269e-10
1.78669e-10
1.75381e-10
1.72143e-10
1.76551e-10
1.74194e-08
2.89693e-06
2.0801e-05
8.32571e-05
0.000279747
0.000853248
0.00236742
0.00589503
0.012858
0.0244178
0.0405845
0.0607844
0.0848701
0.109636
0.127951
0.134871
0.134537
0.129949
0.122658
0.11355
0.103251
0.092283
0.0811205
0.0701585
0.0597723
0.0499124
4.75803e-08
1.21633e-07
1.25677e-07
1.38644e-07
1.17458e-07
9.65417e-08
7.26032e-08
4.95224e-08
3.69707e-08
2.8983e-08
2.24535e-08
1.66448e-08
1.21749e-08
8.6071e-09
5.84353e-09
3.8609e-09
2.4869e-09
1.57932e-09
9.95937e-10
6.56118e-10
5.31215e-10
4.74805e-10
3.6588e-10
3.02292e-10
2.60363e-10
2.32246e-10
2.12301e-10
1.98301e-10
1.89967e-10
1.85108e-10
1.81974e-10
1.79186e-10
1.76164e-10
1.77882e-10
3.14352e-10
2.10659e-06
1.79384e-05
7.60771e-05
0.000259078
0.000799619
0.00224615
0.00567007
0.0125065
0.0239363
0.0400576
0.0603482
0.0847706
0.11022
0.129643
0.137302
0.137313
0.132869
0.125605
0.116448
0.106039
0.0949126
0.0835473
0.0723727
0.0617224
0.0518877
0.0427794
4.53225e-08
1.16892e-07
1.21077e-07
1.32889e-07
1.14111e-07
9.49714e-08
7.1306e-08
4.86683e-08
3.68369e-08
2.89946e-08
2.25148e-08
1.66994e-08
1.22489e-08
8.66228e-09
5.87088e-09
3.87271e-09
2.49251e-09
1.58362e-09
9.95438e-10
6.38871e-10
4.63764e-10
4.44861e-10
3.772e-10
3.10755e-10
2.68151e-10
2.37363e-10
2.16063e-10
2.0131e-10
1.92685e-10
1.88162e-10
1.85487e-10
1.83219e-10
1.80446e-10
1.80596e-10
3.08428e-10
1.5361e-06
1.54248e-05
6.97768e-05
0.000241222
0.000752515
0.0021375
0.00546506
0.0121887
0.0235081
0.0395783
0.0599367
0.0846715
0.110764
0.131264
0.139702
0.140084
0.135799
0.128575
0.119377
0.108866
0.0975852
0.0860262
0.0746236
0.0637435
0.0536437
0.044528
0.0362682
4.29664e-08
1.1162e-07
1.16382e-07
1.27997e-07
1.11388e-07
9.33954e-08
6.98367e-08
4.78854e-08
3.67633e-08
2.90668e-08
2.25826e-08
1.67579e-08
1.23188e-08
8.71513e-09
5.90046e-09
3.88404e-09
2.49591e-09
1.58612e-09
9.97323e-10
6.36477e-10
4.3084e-10
3.84466e-10
3.79945e-10
3.1804e-10
2.76239e-10
2.43043e-10
2.19991e-10
2.04507e-10
1.95557e-10
1.91419e-10
1.89225e-10
1.87482e-10
1.84957e-10
1.8419e-10
3.06949e-10
1.19275e-06
1.32831e-05
6.41025e-05
0.000225929
0.000711622
0.00204161
0.00528021
0.0119027
0.0231338
0.0391594
0.0595609
0.0845812
0.111277
0.132807
0.142062
0.142838
0.13873
0.131559
0.12233
0.111725
0.100298
0.0885491
0.0769257
0.0658017
0.0554644
0.0460897
0.0377991
0.0304321
4.06292e-08
1.06028e-07
1.11766e-07
1.24007e-07
1.09281e-07
9.17363e-08
6.8172e-08
4.71691e-08
3.67391e-08
2.92044e-08
2.26787e-08
1.68212e-08
1.23865e-08
8.75827e-09
5.92908e-09
3.89853e-09
2.49947e-09
1.5873e-09
9.99595e-10
6.3578e-10
4.17402e-10
3.27543e-10
3.57273e-10
3.25267e-10
2.83539e-10
2.4943e-10
2.24139e-10
2.0788e-10
1.98655e-10
1.94859e-10
1.93255e-10
1.91974e-10
1.89683e-10
1.88608e-10
3.07812e-10
1.05145e-06
1.13642e-05
5.8792e-05
0.000213049
0.00067676
0.00195837
0.0051164
0.0116473
0.0228111
0.0388124
0.0592367
0.0845072
0.111773
0.134266
0.144371
0.145565
0.141653
0.134548
0.125302
0.114613
0.103047
0.0911139
0.0792719
0.0679093
0.0573214
0.0477099
0.0391726
0.031759
0.0252858
3.82719e-08
1.0025e-07
1.07352e-07
1.20872e-07
1.07694e-07
8.99791e-08
6.6366e-08
4.65106e-08
3.67674e-08
2.93711e-08
2.27933e-08
1.68998e-08
1.24556e-08
8.79938e-09
5.95663e-09
3.91495e-09
2.50609e-09
1.58844e-09
1.0013e-09
6.36731e-10
4.15529e-10
2.9734e-10
3.09934e-10
3.27178e-10
2.89157e-10
2.56452e-10
2.28625e-10
2.11399e-10
2.02054e-10
1.98478e-10
1.97595e-10
1.9669e-10
1.94661e-10
1.93455e-10
3.10209e-10
1.03164e-06
9.70953e-06
5.40156e-05
0.000202503
0.000647652
0.00188757
0.00497432
0.0114234
0.0225365
0.038544
0.0589871
0.0844575
0.112262
0.135638
0.146616
0.14825
0.144555
0.137534
0.128283
0.11752
0.105826
0.0937154
0.0816605
0.0700603
0.0592254
0.0493651
0.0405984
0.0329544
0.0264251
0.0208145
3.59303e-08
9.44043e-08
1.03324e-07
1.18384e-07
1.06336e-07
8.81165e-08
6.44791e-08
4.59423e-08
3.68469e-08
2.95522e-08
2.29026e-08
1.70173e-08
1.25282e-08
8.83643e-09
5.98384e-09
3.93126e-09
2.51578e-09
1.59123e-09
1.00251e-09
6.38399e-10
4.15124e-10
2.85512e-10
2.57966e-10
3.12138e-10
2.93924e-10
2.6348e-10
2.33622e-10
2.15082e-10
2.05721e-10
2.02311e-10
2.02231e-10
2.01666e-10
1.99903e-10
1.98688e-10
3.15322e-10
1.03347e-06
8.45678e-06
4.9899e-05
0.000193823
0.000623929
0.00182877
0.00485482
0.0112327
0.0223088
0.0383541
0.0588359
0.0844485
0.112749
0.136921
0.148786
0.150879
0.147421
0.140509
0.131274
0.12045
0.10863
0.09635
0.084087
0.0722537
0.0611712
0.0510641
0.0420573
0.0341965
0.0274555
0.021784
0.0169825
3.36197e-08
8.86264e-08
9.98169e-08
1.16542e-07
1.04998e-07
8.59824e-08
6.26027e-08
4.5478e-08
3.70033e-08
2.97058e-08
2.30047e-08
1.71495e-08
1.26107e-08
8.87106e-09
6.00276e-09
3.94665e-09
2.52582e-09
1.59525e-09
1.00368e-09
6.39626e-10
4.16207e-10
2.83211e-10
2.25059e-10
2.76655e-10
2.96724e-10
2.69329e-10
2.39303e-10
2.18992e-10
2.0964e-10
2.06513e-10
2.07139e-10
2.0694e-10
2.0543e-10
2.04282e-10
3.22336e-10
1.05525e-06
7.73274e-06
4.6431e-05
0.000186528
0.000605089
0.00178174
0.00475856
0.0110784
0.0221285
0.0382392
0.0587992
0.0845095
0.113229
0.138111
0.15086
0.15342
0.15023
0.143457
0.134263
0.1234
0.111469
0.099019
0.0865487
0.0744861
0.0631582
0.0528028
0.0435566
0.0354694
0.0285274
0.0226641
0.0178003
0.0137403
3.14459e-08
8.30255e-08
9.68403e-08
1.1516e-07
1.0351e-07
8.35599e-08
6.08115e-08
4.51652e-08
3.72374e-08
2.98268e-08
2.30839e-08
1.72774e-08
1.26948e-08
8.90583e-09
6.01762e-09
3.95809e-09
2.53464e-09
1.60045e-09
1.00505e-09
6.40277e-10
4.17769e-10
2.82776e-10
2.11025e-10
2.29571e-10
2.91171e-10
2.73517e-10
2.45662e-10
2.23261e-10
2.13786e-10
2.11098e-10
2.12296e-10
2.12551e-10
2.11267e-10
2.10197e-10
3.31162e-10
1.09099e-06
7.46882e-06
4.35239e-05
0.000180206
0.000590951
0.00174647
0.00468645
0.0109636
0.0219996
0.0381939
0.0588806
0.0846731
0.113708
0.139194
0.152795
0.155847
0.152961
0.146364
0.137243
0.12636
0.114331
0.101722
0.0890497
0.0767548
0.065183
0.054581
0.0450928
0.036779
0.0296276
0.023581
0.0185453
0.0144241
0.0110307
2.94087e-08
7.77743e-08
9.4271e-08
1.13947e-07
1.01695e-07
8.09069e-08
5.91531e-08
4.50507e-08
3.75539e-08
2.99206e-08
2.31536e-08
1.73946e-08
1.27699e-08
8.94135e-09
6.03075e-09
3.96391e-09
2.54204e-09
1.6047e-09
1.00726e-09
6.40646e-10
4.18836e-10
2.82906e-10
2.05799e-10
1.91354e-10
2.6731e-10
2.77141e-10
2.52153e-10
2.28063e-10
2.1813e-10
2.1608e-10
2.1775e-10
2.18508e-10
2.17425e-10
2.1641e-10
3.41587e-10
1.13858e-06
7.33461e-06
4.09279e-05
0.000174783
0.000581598
0.00172327
0.00463924
0.0108911
0.0219276
0.0382153
0.059071
0.0849602
0.114219
0.139464
0.152802
0.158151
0.155606
0.149223
0.140194
0.129294
0.117172
0.104425
0.0915688
0.0790534
0.0672428
0.0563966
0.0466656
0.0381225
0.030761
0.0245237
0.0193229
0.0150488
0.0115971
0.00879329
2.7441e-08
7.28764e-08
9.20435e-08
1.1256e-07
9.94001e-08
7.81708e-08
5.77363e-08
4.51011e-08
3.7896e-08
3.00003e-08
2.32229e-08
1.74954e-08
1.28326e-08
8.98118e-09
6.04245e-09
3.96537e-09
2.54428e-09
1.60807e-09
1.01062e-09
6.40835e-10
4.19303e-10
2.83793e-10
2.05073e-10
1.71051e-10
2.29458e-10
2.76831e-10
2.57606e-10
2.33475e-10
2.22723e-10
2.21443e-10
2.23553e-10
2.24838e-10
2.23918e-10
2.22939e-10
3.5313e-10
1.19703e-06
7.33328e-06
3.91485e-05
0.000170827
0.000577076
0.00171224
0.00461758
0.010863
0.0219182
0.0383019
0.0593534
0.0853728
0.114678
0.139387
0.152171
0.160334
0.158162
0.15201
0.143068
0.132166
0.120014
0.10716
0.0941246
0.08139
0.0693402
0.0582462
0.0482726
0.0394998
0.0319251
0.025496
0.0201238
0.0157026
0.012116
0.00925766
0.00696756
2.54793e-08
6.83083e-08
9.00742e-08
1.10735e-07
9.65144e-08
7.54313e-08
5.65981e-08
4.53021e-08
3.82094e-08
3.00576e-08
2.33055e-08
1.75864e-08
1.28805e-08
9.01807e-09
6.06368e-09
3.96722e-09
2.54452e-09
1.60983e-09
1.01376e-09
6.41232e-10
4.19413e-10
2.8458e-10
2.05027e-10
1.62832e-10
1.89045e-10
2.65681e-10
2.61425e-10
2.39586e-10
2.27762e-10
2.2716e-10
2.29769e-10
2.31561e-10
2.3077e-10
2.298e-10
3.65704e-10
1.26937e-06
7.46595e-06
3.76677e-05
0.000168648
0.000576555
0.00171315
0.00462201
0.0108806
0.0219744
0.0384546
0.0597085
0.0857775
0.11506
0.139921
0.151555
0.16149
0.160612
0.154679
0.145822
0.135014
0.122855
0.109888
0.0966876
0.0837469
0.0714641