/*--------------------------------*- C++ -*----------------------------------*\
| =========                 |                                                 |
| \\      /  F ield         | OpenFOAM: The Open Source CFD Toolbox           |
|  \\    /   O peration     | Version:  v2012                                 |
|   \\  /    A nd           | Website:  www.openfoam.com                      |
|    \\/     M anipulation  |                                                 |
\*---------------------------------------------------------------------------*/
FoamFile
{
    version     2.0;
    format      ascii;
    class       volScalarField;
    location    "0";
    object      c;
}
// * * * * * * * * * * * * * * * * * * * * * * * * * * * * * * * * * * * * * //

dimensions      [0 1 -1 0 0 0 0];


internalField   nonuniform List<scalar> 
27324
(
251.529
252.674
250.21
253.345
251.298
247.981
254.094
251.919
248.973
245.148
254.845
252.613
249.532
246.06
242.317
255.65
253.313
250.165
246.581
243.218
240.055
256.488
254.069
250.809
247.177
243.745
240.981
238.431
257.334
254.855
251.496
247.78
244.345
241.515
239.385
237.319
258.168
255.652
252.205
248.421
244.942
242.118
239.938
238.286
236.549
258.979
256.438
252.921
249.085
245.574
242.726
240.564
238.839
237.539
235.996
259.768
257.192
253.626
249.759
246.225
243.378
241.187
239.467
238.112
237.019
235.762
260.576
257.931
254.309
250.426
246.888
244.053
241.841
240.094
238.756
237.61
236.789
235.675
261.437
258.683
254.982
251.076
247.557
244.74
242.514
240.758
239.398
238.282
237.384
236.71
235.672
262.317
259.475
255.668
251.713
248.209
245.423
243.195
241.445
240.073
238.944
238.059
237.32
236.718
235.712
263.215
260.271
256.38
252.36
248.859
246.078
243.872
242.141
240.768
239.624
238.725
238.013
237.343
236.77
235.736
264.088
261.101
257.124
253.032
249.51
246.713
244.531
242.841
241.47
240.318
239.41
238.698
238.05
237.401
236.798
235.761
264.968
261.896
257.872
253.757
250.2
247.361
245.191
243.532
242.183
241.025
240.11
239.394
238.742
238.123
237.44
236.847
235.807
265.899
262.704
258.59
254.475
250.918
248.051
245.872
244.225
242.889
241.739
240.832
240.095
239.437
238.825
238.171
237.499
236.9
235.795
266.911
263.559
259.345
255.19
251.634
248.778
246.598
244.938
243.601
242.454
241.575
240.816
240.134
239.52
238.883
238.24
237.551
236.891
235.743
267.94
264.49
260.133
255.907
252.341
249.541
247.371
245.689
244.323
243.176
242.336
241.551
240.852
240.211
239.58
238.962
238.291
237.543
236.849
235.678
268.989
265.414
260.974
256.658
253.043
250.277
248.153
246.468
245.064
243.918
243.095
242.31
241.589
240.917
240.266
239.669
239.01
238.277
237.498
236.798
235.597
269.997
266.353
261.813
257.431
253.785
251.028
248.912
247.246
245.818
244.676
243.854
243.077
242.364
241.651
240.965
240.361
239.722
238.992
238.228
237.447
236.736
235.429
271.035
267.259
262.668
258.235
254.574
251.798
249.665
247.993
246.571
245.45
244.612
243.846
243.151
242.424
241.693
241.057
240.427
239.707
238.94
238.174
237.391
236.571
235.196
272.126
268.2
263.514
259.06
255.418
252.636
250.447
248.73
247.319
246.243
245.38
244.596
243.93
243.218
242.458
241.78
241.125
240.424
239.663
238.885
238.124
237.232
236.323
235.027
273.364
269.196
264.389
259.909
256.293
253.513
251.295
249.512
248.081
247.048
246.172
245.352
244.678
243.995
243.249
242.536
241.835
241.136
240.391
239.61
238.838
237.969
236.992
236.041
235.37
274.744
270.328
265.331
260.78
257.175
254.405
252.168
250.363
248.894
247.868
246.994
246.137
245.421
244.736
244.029
243.312
242.566
241.837
241.117
240.341
239.56
238.686
237.743
236.707
235.923
236.497
276.103
271.578
266.386
261.713
258.066
255.275
253.055
251.254
249.775
248.718
247.832
246.975
246.196
245.462
244.778
244.096
243.313
242.541
241.828
241.077
240.288
239.408
238.479
237.46
236.505
236.603
240.458
277.131
272.784
267.56
262.755
258.994
256.145
253.904
252.144
250.684
249.605
248.688
247.84
247.047
246.226
245.511
244.868
244.088
243.264
242.53
241.808
241.025
240.133
239.222
238.214
237.226
236.872
238.455
248.309
277.938
273.678
268.699
263.894
260.02
257.063
254.782
253.033
251.624
250.519
249.555
248.713
247.939
247.08
246.273
245.634
244.88
244.031
243.251
242.536
241.78
240.872
239.974
238.987
237.953
237.266
238.129
244.544
256.878
278.504
274.388
269.561
265.008
261.134
258.085
255.746
253.976
252.577
251.449
250.444
249.567
248.827
247.983
247.123
246.41
245.684
244.855
244.018
243.277
242.549
241.636
240.733
239.767
238.697
237.827
238.428
242.868
254.111
258.305
278.373
274.887
270.236
265.817
262.198
259.207
256.845
254.995
253.561
252.395
251.35
250.432
249.667
248.876
248.028
247.234
246.477
245.705
244.847
244.041
243.323
242.421
241.506
240.544
239.459
238.505
238.777
241.374
251.741
255.363
250.451
272.195
274.42
270.637
266.464
263.078
260.37
258.062
256.114
254.603
253.391
252.303
251.313
250.5
249.719
248.936
248.106
247.273
246.539
245.72
244.839
244.09
243.218
242.288
241.304
240.266
239.227
239.296
240.34
248.591
252.314
246.052
242.209
254.019
269.055
270.48
266.99
263.827
261.341
259.287
257.32
255.687
254.46
253.316
252.259
251.369
250.535
249.809
249.003
248.089
247.322
246.59
245.674
244.845
244.011
243.061
242.077
241.097
240.089
239.957
239.728
244.874
248.058
243.698
240.309
240.425
235.696
251.595
264.972
267.083
264.443
262.15
260.312
258.521
256.829
255.553
254.397
253.278
252.325
251.403
250.654
249.9
248.962
248.098
247.406
246.542
245.612
244.777
243.843
242.898
241.932
241.194
240.442
239.087
240.299
243.099
241.237
239.682
240.143
240.676
229.479
234.251
248.677
260.665
264.397
262.73
261.076
259.527
257.996
256.682
255.472
254.348
253.375
252.384
251.547
250.774
249.893
248.934
248.187
247.425
246.426
245.512
244.696
243.723
242.926
242.223
240.594
238.108
235.233
237.414
239.073
239.209
240.009
240.646
241.008
228.965
228.139
232.526
245.55
257.263
262.476
261.568
260.233
259.039
257.837
256.554
255.389
254.476
253.452
252.543
251.668
250.841
249.876
248.976
248.289
247.31
246.269
245.603
244.619
244.09
242.809
240.452
235.92
229.695
231.496
237.089
238.891
239.867
240.602
241.132
241.775
229.014
227.649
226.615
230.483
242.722
254.709
260.635
260.629
259.749
258.918
257.673
256.4
255.547
254.57
253.626
252.629
251.773
250.886
249.896
249.116
248.281
247.139
246.515
245.79
244.894
243.031
239
232.054
224.487
226.383
235.25
238.496
239.731
240.516
241.2
242.023
242.856
229.38
227.654
226.127
224.776
228.377
240.446
252.46
259.041
260.034
259.594
258.73
257.445
256.547
255.647
254.736
253.671
252.712
251.889
250.964
249.96
249.319
248.077
247.602
246.765
245.066
242.052
236.033
227.281
220.841
222.453
233.105
238.134
239.567
240.421
241.16
242.162
243.26
244.065
229.64
228.017
226.114
224.219
222.629
226.774
238.711
249.921
257.537
259.637
259.329
258.477
257.546
256.606
255.847
254.764
253.695
252.857
252.096
250.973
250.253
249.283
248.531
247.021
244.512
239.783
231.188
223.126
219.111
219.972
230.464
237.483
239.345
240.312
241.153
242.313
243.491
244.617
245.235
229.822
228.26
226.525
224.219
221.973
220.403
225.897
237.437
246.976
255.498
258.684
258.938
258.467
257.496
256.841
255.895
254.759
253.842
253.169
252.077
251.14
250.342
248.717
246.665
242.369
234.804
226.403
220.914
218.539
218.741
227.363
236.54
239.052
240.195
241.111
242.45
243.75
244.928
245.915
246.294
229.901
228.409
226.762
224.658
222.027
219.585
218.686
226.069
236.438
243.759
252.229
257.056
258.412
258.179
257.489
256.795
255.763
254.78
253.981
253.144
251.696
250.552
248.071
244.33
237.259
229.386
223.518
220.241
218.432
218.296
224.165
235.118
238.664
240.07
241.068
242.577
244
245.273
246.298
247.082
247.17
229.951
228.443
226.89
224.872
222.391
219.716
217.556
217.677
227.028
235.717
240.535
247.328
253.93
256.643
257.359
256.884
256.345
255.405
254.418
253.449
251.412
249.309
245.165
238.457
231.274
225.752
222.567
220.354
218.584
218.21
221.421
233.104
238.129
239.928
241.028
242.704
244.245
245.604
246.721
247.531
248.054
247.832
229.979
228.465
226.945
225.005
222.577
219.998
217.674
216.127
217.364
228.713
235.359
237.881
241.817
247.668
252.309
253.779
254.261
254.538
252.519
251.624
248.431
243.931
238.067
232.073
227.346
224.443
222.38
220.615
218.935
218.241
219.527
230.486
237.387
239.754
241.017
242.737
244.478
245.934
247.126
248.027
248.565
248.778
248.4
230.03
228.48
226.988
225.056
222.683
220.173
217.879
216.019
215.114
217.984
230.817
235.338
236.366
237.765
240.594
243.623
245.591
246.428
245.248
243.543
240.008
236.055
231.88
228.428
225.929
224.192
222.802
221.131
219.429
218.306
218.517
227.444
236.358
239.519
241.045
242.794
244.695
246.261
247.53
248.5
249.129
249.335
249.363
249.236
230.034
228.492
227.02
225.141
222.735
220.262
218.04
216.261
214.977
214.492
219.687
233.077
235.521
235.964
236.2
236.472
236.916
237.062
236.672
235.399
233.438
231.232
229.172
227.365
226.059
224.636
223.186
221.708
219.921
218.406
218.102
224.349
234.955
239.191
241.079
242.809
244.893
246.584
247.929
248.967
249.67
249.951
249.941
250.122
251.451
230.051
228.467
227.003
225.127
222.81
220.323
218.136
216.421
215.197
214.149
214.348
222.496
235.172
235.827
236.211
236.093
235.19
234.278
233.437
232.497
231.348
230.06
228.731
227.724
226.304
225.04
223.75
222.244
220.421
218.626
217.98
221.656
233.105
238.718
241.138
242.824
245.069
246.903
248.327
249.425
250.203
250.547
250.579
250.678
252.14
255.314
230.065
228.477
226.996
225.091
222.753
220.355
218.169
216.515
215.331
214.355
213.669
214.701
226.27
236.652
236.582
236.519
236.077
234.967
233.897
232.835
231.745
230.579
229.35
228.06
226.857
225.615
224.257
222.734
220.911
218.927
217.95
219.712
230.782
238.064
241.171
242.844
245.234
247.212
248.723
249.879
250.725
251.14
251.203
251.294
252.582
255.845
260.317
230.037
228.477
227.002
225.073
222.731
220.298
218.186
216.589
215.403
214.522
213.774
213.284
216.325
229.97
237.171
237.046
236.776
235.875
234.687
233.429
232.257
231.106
229.908
228.696
227.428
226.115
224.733
223.196
221.385
219.327
217.952
218.574
228.096
237.199
241.112
242.895
245.349
247.51
249.115
250.328
251.237
251.724
251.827
251.903
253.075
256.192
260.821
265.497
230.004
228.436
226.995
225.065
222.727
220.292
218.146
216.667
215.438
214.653
213.868
213.247
213.295
219.664
232.782
237.162
237.02
236.505
235.497
234.211
232.958
231.752
230.5
229.224
227.932
226.598
225.188
223.648
221.855
219.773
218.092
218.05
225.341
236.005
240.886
242.998
245.471
247.79
249.503
250.775
251.739
252.298
252.446
252.519
253.57
256.572
261.154
266.075
270.346
229.996
228.419
226.983
225.055
222.689
220.29
218.135
216.637
215.449
214.719
213.939
213.354
213
213.822
224.737
234.535
236.972
236.824
236.15
234.917
233.56
232.315
231.042
229.742
228.416
227.063
225.646
224.103
222.322
220.247
218.337
217.863
222.873
234.443
240.568
243.162
245.581
248.047
249.881
251.221
252.235
252.861
253.06
253.135
254.078
256.956
261.504
266.466
271.029
274.684
229.984
228.392
226.979
225.07
222.711
220.253
218.134
216.623
215.418
214.781
213.983
213.445
213.05
212.91
215.543
230.152
235.898
236.907
236.674
235.696
234.219
232.88
231.575
230.26
228.916
227.543
226.112
224.565
222.791
220.731
218.701
217.802
221.006
232.516
240.075
243.359
245.693
248.28
250.249
251.667
252.726
253.412
253.667
253.751
254.595
257.348
261.853
266.869
271.506
275.478
278.455
230.001
228.369
226.961
225.063
222.741
220.298
218.16
216.614
215.426
214.792
213.977
213.535
213.096
212.869
212.97
219.67
234.241
236.891
237.017
236.443
234.958
233.492
232.127
230.795
229.43
228.036
226.59
225.033
223.26
221.22
219.138
217.795
219.876
230.286
239.362
243.612
245.808
248.492
250.603
252.108
253.216
253.953
254.266
254.365
255.117
257.749
262.202
267.269
271.995
276.043
279.354
281.664
230.067
228.356
226.943
225.049
222.742
220.303
218.239
216.61
215.453
214.779
213.951
213.576
213.162
212.899
212.698
213.754
225.958
236.387
237.146
236.946
235.724
234.16
232.704
231.347
229.96
228.539
227.074
225.508
223.734
221.714
219.624
218.088
219.368
227.943
238.455
243.538
245.94
248.689
250.943
252.542
253.704
254.485
254.855
254.975
255.646
258.157
262.553
267.667
272.48
276.624
280.004
282.655
284.357
230.125
228.34
226.916
225.023
222.738
220.28
218.276
216.595
215.556
214.774
213.957
213.528
213.182
212.965
212.685
212.656
216.652
231.618
237.053
237.092
236.411
234.902
233.317
231.909
230.503
229.054
227.566
225.989
224.212
222.213
220.15
218.465
219.211
225.773
237.233
243.468
246.095
248.883
251.267
252.965
254.192
255.012
255.433
255.579
256.179
258.572
262.905
268.062
272.964
277.203
280.671
283.38
285.427
286.601
230.161
228.343
226.9
224.981
222.724
220.259
218.285
216.587
215.674
214.784
213.975
213.499
213.173
213.012
212.714
212.563
213.039
222.94
234.925
237.066
236.887
235.705
233.989
232.489
231.054
229.579
228.065
226.477
224.699
222.72
220.704
219.004
219.19
224.072
235.661
243.11
246.369
249.081
251.575
253.373
254.674
255.535
256.001
256.173
256.715
258.993
263.258
268.454
273.447
277.782
281.339
284.122
286.213
287.74
288.472
230.182
228.339
226.905
224.971
222.726
220.221
218.29
216.592
215.75
214.798
214.03
213.485
213.168
213.024
212.79
212.56
212.518
215.131
230.363
236.511
237.109
236.475
234.735
233.094
231.612
230.117
228.575
226.974
225.196
223.238
221.279
219.625
219.329
223.001
233.797
242.658
246.654
249.29
251.864
253.765
255.15
256.058
256.56
256.756
257.257
259.421
263.611
268.842
273.925
278.362
282.009
284.868
287.018
288.572
289.666
290.038
230.178
228.31
226.877
224.951
222.733
220.222
218.221
216.602
215.786
214.801
214.138
213.494
213.198
213.03
212.84
212.637
212.485
212.735
221.205
235.121
237.178
237.006
235.54
233.742
232.18
230.667
229.097
227.48
225.705
223.773
221.876
220.294
219.594
222.508
231.781
242.01
246.914
249.504
252.14
254.141
255.613
256.578
257.113
257.328
257.801
259.852
263.965
269.226
274.4
278.939
282.682
285.619
287.829
289.429
290.536
291.279
291.362
230.157
228.277
226.855
224.896
222.717
220.243
218.146
216.611
215.803
214.801
214.202
213.548
213.279
213.058
212.875
212.728
212.543
212.449
214.554
229.331
236.903
237.193
236.313
234.456
232.765
231.23
229.634
227.995
226.228
224.328
222.5
221.015
220.159
222.384
229.846
241.164
247.137
249.731
252.408
254.504
256.062
257.094
257.664
257.89
258.343
260.285
264.317
269.603
274.869
279.515
283.356
286.374
288.646
290.291
291.431
292.175
292.642
292.495
230.18
228.243
226.833
224.904
222.734
220.281
218.137
216.627
215.737
214.754
214.239
213.578
213.362
213.103
212.914
212.789
212.66
212.475
212.7
220.734
234.769
237.199
236.894
235.243
233.384
231.802
230.188
228.523
226.766
224.905
223.156
221.778
220.861
222.368
228.281
240.054
246.897
249.996
252.68
254.855
256.494
257.602
258.213
258.444
258.877
260.717
264.666
269.973
275.33
280.087
284.03
287.131
289.469
291.161
292.333
293.101
293.555
293.805
293.479
230.211
228.263
226.803
224.911
222.735
220.307
218.158
216.638
215.659
214.739
214.197
213.595
213.433
213.153
212.957
212.83
212.763
212.554
212.499
214.49
229.67
236.831
237.157
236.053
234.064
232.388
230.757
229.064
227.322
225.51
223.851
222.578
221.676
222.598
227.283
238.608
246.638
250.324
252.963
255.197
256.909
258.095
258.76
258.992
259.401
261.15
265.014
270.333
275.783
280.655
284.703
287.892
290.296
292.037
293.244
294.034
294.505
294.732
294.813
294.349
230.239
228.276
226.843
224.916
222.725
220.322
218.182
216.667
215.601
214.74
214.088
213.589
213.468
213.193
212.999
212.86
212.818
212.689
212.493
212.678
221.338
235.344
237.199
236.733
234.826
232.996
231.339
229.623
227.894
226.146
224.586
223.415
222.555
222.925
226.823
236.929
246.244
250.676
253.255
255.529
257.307
258.57
259.301
259.537
259.916
261.579
265.36
270.686
276.228
281.217
285.376
288.656
291.129
292.921
294.163
294.976
295.459
295.698
295.747
295.701
295.132
230.232
228.316
226.873
224.983
222.706
220.324
218.184
216.65
215.569
214.742
213.999
213.56
213.471
213.211
213.035
212.883
212.836
212.772
212.516
212.479
214.9
230.7
237.021
237.098
235.656
233.643
231.929
230.207
228.486
226.82
225.363
224.29
223.487
223.538
226.666
235.175
245.728
250.966
253.548
255.853
257.693
259.024
259.829
260.082
260.423
262.003
265.706
271.03
276.661
281.774
286.049
289.422
291.966
293.81
295.089
295.927
296.425
296.669
296.725
296.639
296.497
295.853
230.223
228.286
226.968
225.067
222.735
220.28
218.127
216.606
215.592
214.783
213.911
213.528
213.4
213.166
213.059
212.902
212.825
212.806
212.644
212.479
212.695
223.092
235.846
237.178
236.45
234.358
232.527
230.814
229.103
227.531
226.182
225.201
224.464
224.307
226.843
233.659
245.067
251.172
253.846
256.175
258.07
259.456
260.339
260.623
260.927
262.42
266.048
271.369
277.083
282.324
286.718
290.189
292.808
294.706
296.023
296.884
297.399
297.651
297.707
297.623
297.434
297.224
296.529
230.224
228.267
226.991
225.153
222.745
220.248
218.03
216.554
215.612
214.823
213.866
213.501
213.309
213.119
213.062
212.93
212.82
212.816
212.715
212.515
212.344
216.134
232.358
237.18
237.013
235.161
233.14
231.441
229.757
228.278
227.053
226.15
225.478
225.237
227.053
232.599
244.08
250.987
254.174
256.504
258.441
259.869
260.825
261.154
261.432
262.832
266.386
271.703
277.497
282.866
287.386
290.958
293.654
295.607
296.963
297.851
298.381
298.642
298.7
298.613
298.423
298.158
297.9
297.177
230.269
228.248
227
225.15
222.742
220.185
217.971
216.514
215.644
214.837
213.89
213.573
213.24
213.062
213.043
212.956
212.826
212.823
212.751
212.626
212.315
213.06
225.821
236.496
237.224
236.02
233.794
232.08
230.46
229.063
227.971
227.136
226.534
226.24
227.38
232.004
242.802
250.838
254.555
256.843
258.803
260.264
261.285
261.67
261.938
263.246
266.718
272.033
277.9
283.4
288.051
291.729
294.505
296.516
297.911
298.826
299.373
299.642
299.703
299.613
299.415
299.147
298.83
298.544
297.81
230.298
228.256
226.993
225.136
222.679
220.1
217.931
216.486
215.655
214.755
213.932
213.617
213.216
213.014
213.027
212.968
212.89
212.845
212.764
212.729
212.361
212.428
218.391
234.216
237.254
236.792
234.518
232.73
231.212
229.893
228.932
228.163
227.632
227.317
227.968
231.711
241.351
250.593
254.913
257.184
259.155
260.641
261.72
262.164
262.442
263.666
267.043
272.357
278.295
283.926
288.713
292.502
295.36
297.429
298.865
299.808
300.372
300.65
300.716
300.623
300.42
300.14
299.817
299.466
299.167
298.443
230.292
228.245
226.983
225.072
222.581
219.988
217.901
216.525
215.642
214.653
213.95
213.664
213.207
213.005
212.976
212.982
212.938
212.888
212.776
212.786
212.48
212.386
213.859
229.258
236.959
237.262
235.343
233.4
232.008
230.786
229.928
229.24
228.773
228.456
228.734
231.987
239.925
250.262
255.182
257.511
259.496
261.006
262.133
262.634
262.937
264.095
267.368
272.67
278.681
284.443
289.373
293.274
296.216
298.347
299.827
300.798
301.381
301.668
301.736
301.643
301.433
301.145
300.806
300.447
300.079
299.785
299.086
230.265
228.18
226.933
225.029
222.466
219.92
217.909
216.626
215.637
214.542
213.946
213.666
213.24
213.028
212.934
212.954
212.966
212.943
212.793
212.813
212.613
212.397
212.412
222.267
235.695
237.397
236.25
234.114
232.844
231.747
230.959
230.371
229.959
229.644
229.664
232.232
238.737
249.751
255.326
257.832
259.831
261.362
262.529
263.078
263.414
264.531
267.7
272.972
279.054
284.953
290.027
294.043
297.073
299.27
300.796
301.798
302.398
302.696
302.767
302.672
302.458
302.16
301.809
301.431
301.053
300.684
300.407
299.754
230.277
228.058
226.856
224.98
222.425
219.895
217.954
216.696
215.616
214.47
213.911
213.626
213.269
213.063
212.917
212.896
212.975
212.977
212.833
212.829
212.679
212.504
212.166
216.222
232.397
237.417
237.1
234.909
233.714
232.768
232.03
231.555
231.189
230.872
230.73
232.628
237.829
248.912
255.282
258.165
260.168
261.709
262.908
263.498
263.865
264.961
268.037
273.263
279.412
285.449
290.674
294.807
297.93
300.198
301.772
302.802
303.419
303.728
303.805
303.711
303.491
303.184
302.821
302.429
302.03
301.647
301.292
301.045
300.454
230.331
227.997
226.774
224.894
222.457
219.944
218.004
216.753
215.584
214.418
213.939
213.551
213.259
213.094
212.91
212.852
212.929
212.986
212.894
212.84
212.694
212.64
212.146
213.203
226.887
236.78
237.657
235.811
234.623
233.841
233.16
232.794
232.462
232.141
231.866
233.08
237.196
247.881
255.245
258.511
260.505
262.049
263.271
263.894
264.285
265.374
268.375
273.552
279.751
285.929
291.311
295.566
298.787
301.127
302.743
303.807
304.449
304.77
304.852
304.757
304.534
304.219
303.846
303.438
303.019
302.613
302.24
301.912
301.711
301.201
230.379
228.027
226.796
224.893
222.552
220.076
218.131
216.78
215.495
214.429
213.991
213.51
213.245
213.099
212.949
212.832
212.86
212.945
212.944
212.862
212.69
212.741
212.187
212.334
220.447
234.941
237.866
236.827
235.592
234.962
234.364
234.084
233.777
233.449
233.061
233.729
237.332
246.706
255.16
258.791
260.829
262.378
263.618
264.263
264.665
265.751
268.699
273.836
280.071
286.374
291.934
296.321
299.643
302.043
303.713
304.817
305.483
305.818
305.906
305.813
305.586
305.264
304.878
304.456
304.02
303.593
303.191
302.843
302.558
302.417
302.006
230.54
228.123
226.92
224.998
222.697
220.198
218.266
216.8
215.413
214.442
214.046
213.506
213.212
213.061
212.978
212.838
212.814
212.901
212.961
212.909
212.679
212.783
212.378
212.216
215.42
231.176
237.897
237.913
236.629
236.128
235.641
235.427
235.137
234.794
234.309
234.538
237.464
245.533
255
258.967
261.13
262.697
263.943
264.598
264.999
266.074
268.989
274.101
280.376
286.781
292.532
297.071
300.484
302.952
304.681
305.824
306.517
306.87
306.968
306.876
306.646
306.317
305.922
305.485
305.032
304.584
304.159
303.778
303.467
303.238
303.171
302.88
230.734
228.304
227.094
225.167
222.85
220.311
218.357
216.806
215.351
214.478
214.087
213.54
213.201
213.005
212.979
212.91
212.796
212.842
212.963
212.972
212.686
212.799
212.562
212.211
212.86
226.11
236.912
238.884
237.743
237.348
236.998
236.821
236.536
236.177
235.603
235.477
237.873
244.453
254.512
259.02
261.42
263.006
264.241
264.885
265.277
266.331
269.228
274.334
280.659
287.151
293.084
297.808
301.304
303.854
305.641
306.828
307.551
307.925
308.034
307.946
307.714
307.379
306.974
306.526
306.056
305.586
305.137
304.728
304.381
304.121
303.965
303.989
303.834
230.841
228.455
227.26
225.32
222.983
220.398
218.408
216.778
215.316
214.513
214.121
213.584
213.2
212.964
212.966
212.947
212.838
212.813
212.915
213.005
212.743
212.809
212.667
212.316
212.009
220.486
234.938
239.518
238.92
238.642
238.434
238.268
237.974
237.598
236.93
236.529
238.354
243.578
253.84
259.077
261.71
263.297
264.498
265.109
265.486
266.518
269.397
274.527
280.902
287.497
293.578
298.489
302.098
304.739
306.591
307.822
308.581
308.978
309.101
309.022
308.791
308.451
308.037
307.575
307.09
306.601
306.129
305.692
305.312
305.012
304.818
304.749
304.877
304.874
230.658
228.457
227.35
225.375
222.998
220.418
218.389
216.658
215.302
214.625
214.106
213.561
213.225
212.966
212.912
212.962
212.897
212.816
212.835
213.009
212.839
212.813
212.695
212.515
211.842
216.165
231.33
239.657
240.195
240.039
239.943
239.771
239.449
239.055
238.282
237.67
238.891
242.937
252.977
259.099
261.946
263.54
264.693
265.254
265.622
266.638
269.494
274.664
281.104
287.812
294.032
299.107
302.87
305.598
307.518
308.805
309.602
310.027
310.168
310.098
309.87
309.529
309.108
308.635
308.134
307.627
307.132
306.669
306.257
305.919
305.679
305.567
305.601
305.846
306.006
230.559
228.25
227.312
225.348
222.93
220.351
218.337
216.531
215.291
214.701
214.092
213.507
213.188
212.997
212.878
212.929
212.923
212.859
212.779
212.968
212.932
212.84
212.677
212.734
211.81
213.712
226.966
238.852
241.605
241.554
241.523
241.326
240.96
240.545
239.662
238.827
239.452
242.432
252.021
259.051
262.086
263.699
264.807
265.322
265.688
266.696
269.537
274.737
281.272
288.075
294.473
299.664
303.594
306.429
308.42
309.766
310.609
311.065
311.23
311.174
310.953
310.612
310.187
309.703
309.189
308.664
308.147
307.657
307.217
306.842
306.56
306.396
306.378
306.529
306.902
307.231
230.722
228.164
227.078
225.228
222.813
220.231
218.232
216.415
215.283
214.743
214.059
213.447
213.14
213.032
212.912
212.864
212.912
212.92
212.765
212.887
212.972
212.896
212.61
212.842
211.89
212.818
222.329
237.089
242.972
243.128
243.171
242.935
242.509
242.062
241.063
240.009
240.178
242.82
251.025
258.82
262.108
263.757
264.841
265.327
265.699
266.711
269.552
274.776
281.384
288.303
294.859
300.209
304.237
307.218
309.293
310.699
311.593
312.089
312.28
312.244
312.033
311.698
311.27
310.781
310.254
309.711
309.173
308.66
308.188
307.78
307.458
307.244
307.169
307.262
307.542
308.049
308.549
231.4
228.209
226.935
224.992
222.728
220.115
218.094
216.324
215.376
214.748
214.004
213.414
213.099
213.037
212.971
212.845
212.829
212.946
212.814
212.825
212.98
212.987
212.559
212.875
212.418
212.652
218.64
234.413
243.867
244.748
244.883
244.597
244.096
243.598
242.482
241.207
241.001
243.047
250.045
258.335
262.063
263.74
264.837
265.312
265.662
266.636
269.427
274.632
281.42
288.503
295.159
300.748
304.826
307.93
310.128
311.6
312.547
313.089
313.316
313.302
313.11
312.781
312.355
311.862
311.326
310.77
310.212
309.675
309.175
308.733
308.37
308.11
307.98
308.009
308.225
308.642
309.284
309.947
232.526
228.335
226.922
224.845
222.627
220.14
218.069
216.279
215.507
214.755
213.904
213.407
213.104
213.01
212.997
212.864
212.749
212.918
212.918
212.813
212.86
213.031
212.549
212.861
212.948
212.702
216.497
230.887
243.61
246.45
246.671
246.312
245.722
245.144
243.913
242.422
241.896
243.472
249.046
257.65
261.789
263.676
264.787
265.169
265.514
266.515
269.301
274.525
281.306
288.606
295.462
301.115
305.536
308.532
310.896
312.463
313.468
314.058
314.326
314.346
314.174
313.859
313.439
312.946
312.404
311.836
311.261
310.701
310.174
309.7
309.298
308.994
308.812
308.78
308.926
309.272
309.831
310.604
311.42
248.085
234.135
227.425
224.779
222.501
220.142
218.226
216.446
215.625
214.774
213.86
213.381
213.18
212.983
213
212.901
212.739
212.86
213.004
212.856
212.718
213.042
212.747
212.842
213.446
212.959
215.678
227.169
242.844
248.269
248.526
248.079
247.385
246.701
245.352
243.649
242.834
243.949
248.144
256.747
261.428
263.347
264.547
264.989
265.314
266.312
269.105
274.348
281.198
288.597
295.734
301.512
305.949
309.341
311.504
313.27
314.348
314.993
315.305
315.362
315.221
314.926
314.517
314.028
313.484
312.908
312.32
311.739
311.187
310.681
310.243
309.896
309.663
309.571
309.65
309.924
310.408
311.105
311.999
312.954
249.645
246.629
233.811
226.076
222.401
220.064
218.351
216.834
215.756
214.77
213.867
213.358
213.205
213.051
212.913
212.896
212.821
212.791
213.017
212.941
212.61
212.988
212.981
212.967
213.874
213.726
215.521
224.15
241.1
249.876
250.399
249.889
249.08
248.266
246.793
244.881
243.79
244.421
247.353
255.648
260.901
263.031
264.313
264.768
265.084
266.087
268.893
274.129
281.027
288.536
295.807
302.023
306.431
309.788
312.37
313.888
315.177
315.884
316.249
316.347
316.243
315.977
315.586
315.106
314.563
313.983
313.385
312.787
312.212
311.677
311.204
310.813
310.532
310.384
310.397
310.598
311.007
311.628
312.459
313.459
314.539
249.598
248.883
245.814
233.414
224.714
220.148
218.219
217.092
215.833
214.708
213.94
213.398
213.188
213.116
212.895
212.844
212.921
212.789
212.875
213.023
212.579
212.907
213.3
213.149
214.318
214.628
216.196
222.519
238.959
250.954
252.244
251.738
250.812
249.836
248.223
246.108
244.725
244.821
246.7
254.388
260.235
262.591
263.999
264.519
264.83
265.839
268.659
273.894
280.838
288.444
295.85
302.229
307.079
310.315
312.846
314.777
315.806
316.724
317.147
317.295
317.231
317.001
316.636
316.173
315.639
315.058
314.453
313.843
313.247
312.686
312.179
311.749
311.42
311.216
311.167
311.298
311.63
312.175
312.93
313.879
314.977
316.166
249.615
248.853
247.285
243.72
232.665
223.588
218.228
216.973
215.926
214.69
213.95
213.57
213.212
213.126
212.961
212.784
212.943
212.883
212.731
213.035
212.81
212.863
213.645
213.513
214.866
215.763
217.275
221.968
236.2
251.446
254.066
253.62
252.588
251.398
249.624
247.304
245.582
245.112
246.196
253.025
259.429
262.084
263.629
264.242
264.564
265.574
268.404
273.647
280.639
288.325
295.87
302.417
307.405
311.03
313.398
315.277
316.698
317.363
317.99
318.198
318.18
317.989
317.66
317.222
316.703
316.127
315.52
314.902
314.291
313.707
313.17
312.701
312.325
312.069
311.958
312.02
312.277
312.744
313.422
314.301
315.359
316.538
317.825
249.584
248.854
247.198
245.117
242.479
232.44
222.701
217.05
215.727
214.879
213.952
213.63
213.288
213.039
212.991
212.822
212.841
212.978
212.674
212.93
213.142
212.918
213.969
214.1
215.645
217.084
218.832
222.74
233.634
250.669
255.845
255.516
254.409
252.944
250.978
248.431
246.318
245.306
245.845
251.631
258.494
261.511
263.202
263.934
264.286
265.293
268.13
273.393
280.424
288.191
295.876
302.585
307.719
311.429
314.145
315.845
317.221
318.25
318.639
319.042
319.085
318.938
318.648
318.244
317.749
317.188
316.585
315.962
315.34
314.737
314.172
313.67
313.251
312.942
312.771
312.765
312.948
313.338
313.94
314.745
315.734
316.886
318.139
319.511
249.566
248.831
247.23
245.04
243.016
241.804
232.846
222.913
216.385
214.867
214.349
213.495
213.398
213.017
212.946
212.981
212.734
213.013
212.894
212.872
213.506
213.221
214.384
214.989
216.727
218.603
220.607
223.49
231.932
249.855
257.272
257.406
256.268
254.457
252.259
249.496
246.97
245.446
245.632
250.281
257.437
260.885
262.72
263.586
263.991
265.002
267.843
273.116
280.183
288.04
295.86
302.732
308.015
311.818
314.587
316.6
317.798
318.788
319.514
319.697
319.926
319.842
319.596
319.23
318.768
318.23
317.64
317.018
316.389
315.772
315.186
314.652
314.193
313.835
313.606
313.533
313.644
313.956
314.48
315.211
316.131
317.22
318.454
319.769
321.221
249.607
248.802
247.216
245.091
242.865
241.634
241.965
233.837
224.269
217.453
214.92
214.05
213.349
213.188
212.856
213.073
212.88
212.947
213.21
212.879
213.826
213.799
215.101
216.244
218.161
220.32
222.519
224.828
230.91
248.335
258.031
259.267
258.136
255.911
253.443
250.395
247.536
245.557
245.512
249.039
256.267
260.204
262.187
263.187
263.674