/*--------------------------------*- C++ -*----------------------------------*\
| =========                 |                                                 |
| \\      /  F ield         | OpenFOAM: The Open Source CFD Toolbox           |
|  \\    /   O peration     | Version:  v2012                                 |
|   \\  /    A nd           | Website:  www.openfoam.com                      |
|    \\/     M anipulation  |                                                 |
\*---------------------------------------------------------------------------*/
FoamFile
{
    version     2.0;
    format      ascii;
    class       volScalarField;
    location    "0";
    object      Fs;
}
// * * * * * * * * * * * * * * * * * * * * * * * * * * * * * * * * * * * * * //

dimensions      [0 0 0 0 0 0 0];


internalField   nonuniform List<scalar> 
27324
(
2.59265e-05
2.45703e-05
2.47001e-05
2.53725e-05
2.34934e-05
2.31835e-05
2.44703e-05
2.43281e-05
2.21418e-05
2.16978e-05
2.33535e-05
2.35509e-05
2.29866e-05
2.0844e-05
2.02948e-05
2.24254e-05
2.25072e-05
2.23252e-05
2.16825e-05
1.94838e-05
1.9069e-05
2.19231e-05
2.16088e-05
2.13822e-05
2.10797e-05
2.03196e-05
1.82546e-05
1.78899e-05
2.24165e-05
2.11491e-05
2.05583e-05
2.02244e-05
1.98603e-05
1.91487e-05
1.70842e-05
1.68323e-05
2.37608e-05
2.14717e-05
2.01174e-05
1.94136e-05
1.91109e-05
1.87849e-05
1.80192e-05
1.60517e-05
1.5838e-05
2.51758e-05
2.27263e-05
2.04011e-05
1.90467e-05
1.83739e-05
1.80892e-05
1.77235e-05
1.69615e-05
1.49873e-05
1.48809e-05
2.60587e-05
2.39073e-05
2.16237e-05
1.92619e-05
1.80838e-05
1.74349e-05
1.71636e-05
1.67341e-05
1.59083e-05
1.39215e-05
1.40203e-05
2.52552e-05
2.46419e-05
2.2597e-05
2.03478e-05
1.82549e-05
1.71405e-05
1.66219e-05
1.6246e-05
1.57578e-05
1.48467e-05
1.29968e-05
1.31866e-05
2.39568e-05
2.38852e-05
2.31629e-05
2.12115e-05
1.91229e-05
1.72752e-05
1.63728e-05
1.57464e-05
1.53681e-05
1.47273e-05
1.3866e-05
1.20826e-05
1.23711e-05
2.31867e-05
2.27235e-05
2.22818e-05
2.16119e-05
1.98313e-05
1.80275e-05
1.64244e-05
1.553e-05
1.49546e-05
1.44782e-05
1.38115e-05
1.28227e-05
1.1135e-05
1.15966e-05
2.26923e-05
2.21498e-05
2.13006e-05
2.07122e-05
2.00043e-05
1.86082e-05
1.69794e-05
1.55163e-05
1.47948e-05
1.42026e-05
1.36957e-05
1.27653e-05
1.18094e-05
1.02138e-05
1.08172e-05
2.27227e-05
2.18877e-05
2.06885e-05
1.9826e-05
1.92269e-05
1.87122e-05
1.73503e-05
1.58831e-05
1.4713e-05
1.41099e-05
1.35315e-05
1.28282e-05
1.17958e-05
1.08352e-05
9.37104e-06
9.96741e-06
2.29379e-05
2.21093e-05
2.08413e-05
1.92998e-05
1.83569e-05
1.7935e-05
1.73145e-05
1.6126e-05
1.48784e-05
1.39401e-05
1.3386e-05
1.28316e-05
1.20222e-05
1.08009e-05
9.95043e-06
8.55875e-06
9.08596e-06
2.26991e-05
2.20065e-05
2.1153e-05
1.97855e-05
1.81265e-05
1.71675e-05
1.6554e-05
1.60346e-05
1.4998e-05
1.39066e-05
1.31246e-05
1.26693e-05
1.21656e-05
1.11755e-05
9.83704e-06
9.095e-06
7.791e-06
8.20996e-06
2.17997e-05
2.14861e-05
2.09936e-05
2.0069e-05
1.88376e-05
1.69668e-05
1.59914e-05
1.54215e-05
1.49097e-05
1.38964e-05
1.28563e-05
1.24186e-05
1.19896e-05
1.14461e-05
1.02904e-05
9.00139e-06
8.35413e-06
7.07063e-06
7.33981e-06
2.11627e-05
2.05621e-05
2.01025e-05
1.99691e-05
1.92369e-05
1.77941e-05
1.58383e-05
1.50023e-05
1.44919e-05
1.37963e-05
1.27276e-05
1.19761e-05
1.17303e-05
1.13831e-05
1.07107e-05
9.36858e-06
8.31058e-06
7.71356e-06
6.39553e-06
6.48785e-06
2.083e-05
2.00887e-05
1.92524e-05
1.87801e-05
1.89545e-05
1.83355e-05
1.69055e-05
1.49981e-05
1.42657e-05
1.35887e-05
1.2697e-05
1.17574e-05
1.1124e-05
1.1077e-05
1.07876e-05
9.80791e-06
8.5744e-06
7.6834e-06
7.10725e-06
5.74227e-06
5.73417e-06
2.17195e-05
2.00185e-05
1.87235e-05
1.79729e-05
1.75994e-05
1.79205e-05
1.75016e-05
1.59404e-05
1.4281e-05
1.35121e-05
1.2881e-05
1.18102e-05
1.07906e-05
1.04233e-05
1.04261e-05
1.00402e-05
8.82245e-06
7.85032e-06
7.1028e-06
6.49207e-06
5.08746e-06
5.2364e-06
2.22849e-05
2.07155e-05
1.89088e-05
1.74118e-05
1.66159e-05
1.65907e-05
1.71265e-05
1.65806e-05
1.49275e-05
1.34684e-05
1.30567e-05
1.23231e-05
1.09307e-05
9.95653e-06
9.8002e-06
9.7855e-06
9.14082e-06
7.9521e-06
7.16113e-06
6.51609e-06
5.82862e-06
4.48076e-06
5.31896e-06
2.0627e-05
2.11405e-05
1.94843e-05
1.77301e-05
1.61725e-05
1.55336e-05
1.56685e-05
1.6311e-05
1.54175e-05
1.37736e-05
1.30427e-05
1.26982e-05
1.17544e-05
1.01521e-05
9.33918e-06
9.30216e-06
9.18339e-06
8.13827e-06
7.19069e-06
6.5503e-06
5.87642e-06
5.13469e-06
4.09471e-06
7.32832e-06
1.83077e-05
1.93272e-05
1.97469e-05
1.82079e-05
1.65611e-05
1.52006e-05
1.46346e-05
1.47916e-05
1.52433e-05
1.39956e-05
1.28127e-05
1.25757e-05
1.23263e-05
1.10632e-05
9.46453e-06
8.98895e-06
8.99363e-06
8.46307e-06
7.28505e-06
6.545e-06
5.97326e-06
5.1756e-06
4.54915e-06
4.36064e-06
1.85536e-05
1.7876e-05
1.71406e-05
1.78312e-05
1.82605e-05
1.70664e-05
1.55858e-05
1.42787e-05
1.37635e-05
1.39427e-05
1.39594e-05
1.26795e-05
1.18028e-05
1.21944e-05
1.18312e-05
1.01946e-05
8.86338e-06
8.79036e-06
8.65322e-06
7.61741e-06
6.59396e-06
5.99654e-06
5.29969e-06
4.46663e-06
4.42266e-06
7.62882e-06
0.000138662
2.13906e-05
1.66622e-05
1.5781e-05
1.64558e-05
1.69284e-05
1.60246e-05
1.46585e-05
1.3443e-05
1.30152e-05
1.31691e-05
1.2627e-05
1.12952e-05
1.09679e-05
1.16108e-05
1.0904e-05
9.16946e-06
8.43666e-06
8.55355e-06
8.02371e-06
6.7266e-06
5.97317e-06
5.34013e-06
4.50762e-06
4.09641e-06
5.68288e-06
2.69099e-05
0.00822928
2.43777e-05
2.01771e-05
1.52654e-05
1.44576e-05
1.52019e-05
1.57335e-05
1.49134e-05
1.37641e-05
1.27958e-05
1.24892e-05
1.24576e-05
1.1201e-05
1.00388e-05
1.01374e-05
1.08229e-05
9.48998e-06
8.13132e-06
8.06315e-06
8.01041e-06
6.93247e-06
5.87441e-06
5.30452e-06
4.50541e-06
3.89086e-06
4.46726e-06
1.51113e-05
0.000954636
0.0282864
2.58578e-05
2.3445e-05
1.86962e-05
1.3917e-05
1.33326e-05
1.40671e-05
1.44945e-05
1.38016e-05
1.29021e-05
1.22609e-05
1.20902e-05
1.16791e-05
9.85995e-06
9.00486e-06
9.49307e-06
9.68707e-06
8.01193e-06
7.25041e-06
7.50808e-06
6.97708e-06
5.74545e-06
5.10529e-06
4.49582e-06
3.80352e-06
4.04889e-06
9.01965e-06
0.000149662
0.0340063
0.00709973
4.41472e-05
2.50292e-05
2.20813e-05
1.71906e-05
1.27009e-05
1.23971e-05
1.30059e-05
1.33165e-05
1.27948e-05
1.21042e-05
1.17629e-05
1.18035e-05
1.07579e-05
8.79446e-06
8.3389e-06
9.06787e-06
8.20847e-06
6.7302e-06
6.67983e-06
6.7819e-06
5.73105e-06
4.90654e-06
4.45355e-06
3.79962e-06
3.75411e-06
6.01026e-06
3.79445e-05
0.00805421
0.245583
0.0317699
0.000198023
4.37194e-05
2.31643e-05
2.0703e-05
1.57798e-05
1.17369e-05
1.157e-05
1.21452e-05
1.21508e-05
1.17799e-05
1.12861e-05
1.13349e-05
1.14702e-05
9.88974e-06
8.03465e-06
8.20855e-06
8.38796e-06
6.79027e-06
6.02456e-06
6.42277e-06
5.88728e-06
4.84663e-06
4.42381e-06
3.99371e-06
3.41231e-06
4.36787e-06
1.46638e-05
0.00341397
0.645106
0.750672
0.20739
0.241441
0.000211878
4.38844e-05
2.20916e-05
1.93815e-05
1.44714e-05
1.09543e-05
1.10146e-05
1.13584e-05
1.09436e-05
1.06645e-05
1.05525e-05
1.08798e-05
1.08523e-05
8.78903e-06
7.74996e-06
8.36648e-06
7.68471e-06
5.81961e-06
5.99467e-06
6.1562e-06
4.96363e-06
4.50464e-06
4.13339e-06
3.20331e-06
3.42405e-06
8.18602e-06
0.00195123
0.938681
0.970563
0.37996
0.0107413
0.999802
0.358826
0.000252555
4.24909e-05
2.17017e-05
1.85337e-05
1.32339e-05
1.0369e-05
1.05862e-05
1.05295e-05
9.77509e-06
9.58041e-06
9.75707e-06
1.05055e-05
9.85722e-06
7.71981e-06
7.75938e-06
8.30315e-06
6.48803e-06
5.60277e-06
6.22016e-06
5.29497e-06
4.60761e-06
3.81108e-06
3.1636e-06
2.60291e-06
7.72301e-06
0.00181504
0.989855
0.99739
0.210804
0.00249728
0.000127812
0.899917
0.999939
0.60476
0.000344899
4.21617e-05
2.10802e-05
1.75215e-05
1.20634e-05
9.97694e-06
1.01463e-05
9.75677e-06
8.76724e-06
8.52233e-06
9.01853e-06
9.87159e-06
8.35083e-06
7.03102e-06
7.96077e-06
7.35781e-06
5.42499e-06
5.80116e-06
5.74364e-06
4.17958e-06
3.63348e-06
2.94266e-06
2.28637e-06
1.61201e-05
0.00482391
0.997705
0.999483
0.166441
0.000717048
8.08483e-05
4.29806e-05
0.000388938
0.948288
0.999984
0.830308
0.000553797
4.46736e-05
2.10487e-05
1.64323e-05
1.08213e-05
9.64323e-06
9.85888e-06
9.03761e-06
7.82254e-06
7.66474e-06
8.42564e-06
8.68154e-06
6.65688e-06
6.64779e-06
7.81945e-06
5.70652e-06
5.05728e-06
5.73672e-06
3.83167e-06
3.54777e-06
2.52031e-06
4.84834e-06
7.11669e-05
0.0513114
0.998818
0.999805
0.122951
0.000320085
6.94251e-05
4.44644e-05
2.61664e-05
6.07049e-05
0.000440766
0.97194
0.999995
0.949767
0.00109718
5.20699e-05
2.24516e-05
1.48814e-05
9.63387e-06
9.52376e-06
9.59604e-06
8.20126e-06
7.09557e-06
7.09266e-06
7.93209e-06
7.12663e-06
5.63206e-06
6.66967e-06
6.23512e-06
4.35575e-06
4.68752e-06
3.95564e-06
2.96057e-06
3.50553e-06
1.88101e-05
0.00116905
0.543647
0.997389
0.999585
0.0989195
0.000217784
6.6447e-05
4.52337e-05
2.61313e-05
1.69888e-05
4.04648e-05
5.93885e-05
0.000483644
0.988993
0.999998
0.986091
0.00335303
6.66986e-05
2.66502e-05
1.33192e-05
8.80205e-06
9.48311e-06
9.28153e-06
7.47084e-06
6.56845e-06
6.8996e-06
7.3719e-06
5.46296e-06
4.92113e-06
6.43174e-06
3.82797e-06
3.87879e-06
3.997e-06
2.83194e-06
1.3386e-05
0.000252084
0.0528638
0.90494
0.970682
0.992854
0.1215
0.000205217
6.6858e-05
4.69615e-05
2.83013e-05
1.57816e-05
1.15e-05
3.38645e-05
3.92469e-05
5.72095e-05
0.000585054
0.995852
0.999998
0.997087
0.0195879
0.000107371
3.55136e-05
1.34063e-05
7.96752e-06
9.45976e-06
8.64354e-06
6.61695e-06
6.15976e-06
6.85343e-06
5.88348e-06
4.0468e-06
5.03137e-06
4.39755e-06
3.24914e-06
3.90508e-06
1.06791e-05
0.00013833
0.0136628
0.685512
0.90611
0.400555
0.738619
0.235767
0.000322239
7.18587e-05
4.7887e-05
2.97266e-05
1.60803e-05
1.03441e-05
8.53729e-06
3.01318e-05
3.32171e-05
3.75035e-05
5.58944e-05
0.000834637
0.998327
0.999997
0.999496
0.246523
0.000336421
4.99602e-05
1.67897e-05
7.53453e-06
9.504e-06
7.13437e-06
5.71453e-06
5.9482e-06
6.27518e-06
4.26464e-06
4.02365e-06
6.25827e-06
2.90092e-06
1.34249e-05
0.000112114
0.00745167
0.596899
0.90437
0.460416
0.0103267
0.0502038
0.392225
0.000845744
8.92512e-05
4.83182e-05
2.99584e-05
1.60014e-05
1.06541e-05
7.65493e-06
6.98036e-06
2.94734e-05
3.10023e-05
3.24381e-05
3.60971e-05
5.48881e-05
0.00159602
0.999244
0.999975
0.999879
0.953094
0.00484986
9.86486e-05
2.82262e-05
1.07757e-05
1.17949e-05
6.16005e-06
5.68388e-06
6.70459e-06
7.31e-06
4.08753e-06
7.77034e-06
1.52361e-05
0.000155646
0.00923318
0.60659
0.953825
0.684975
0.0164657
0.000397779
0.00226131
0.442861
0.00333723
0.000118811
4.80748e-05
3.02005e-05
1.6169e-05
1.04246e-05
8.18703e-06
6.20298e-06
6.18136e-06
2.9575e-05
3.10643e-05
3.15503e-05
3.20164e-05
3.47961e-05
5.6397e-05
0.00455341
0.999461
0.999248
0.999891
0.999728
0.46703
0.00120383
9.79734e-05
2.97483e-05
2.42742e-05
9.87985e-06
8.96273e-06
1.24788e-05
1.43162e-05
6.95155e-05
0.00061163
0.0236588
0.830039
0.97818
0.904724
0.0484075
0.000385769
5.60172e-05
0.000271482
0.282397
0.0177218
0.000186779
4.81795e-05
2.95236e-05
1.63866e-05
1.03846e-05
8.10574e-06
6.84048e-06
5.39756e-06
5.80131e-06
3.25601e-05
3.12319e-05
3.2408e-05
3.21974e-05
3.15998e-05
3.41448e-05
6.07579e-05
0.0240639
0.999143
0.934184
0.998271
0.999995
0.999546
0.520523
0.00697157
0.000853326
0.000330302
0.000132928
0.000541131
0.00105749
0.0112486
0.459996
0.962325
0.994466
0.962686
0.159371
0.000856222
3.40093e-05
1.95259e-05
7.64862e-05
0.0771588
0.0875403
0.000360065
5.0151e-05
2.80799e-05
1.72719e-05
1.04379e-05
8.10738e-06
6.85619e-06
6.07384e-06
4.96633e-06
3.76305e-06
3.54114e-05
3.41703e-05
3.30748e-05
3.3664e-05
3.25832e-05
3.13213e-05
3.40726e-05
7.36769e-05
0.233681
0.996238
0.086379
0.656168
0.999954
0.999998
0.999938
0.993901
0.92395
0.631762
0.839341
0.948974
0.990709
0.998412
0.997913
0.975769
0.215161
0.00153833
4.87121e-05
1.07569e-05
1.07902e-05
3.79356e-05
0.0111235
0.249886
0.000895245
5.58515e-05
2.60215e-05
1.80406e-05
1.06279e-05
8.08395e-06
6.95351e-06
6.13929e-06
5.65242e-06
3.30587e-06
2.20146e-06
4.0866e-05
3.666e-05
3.59502e-05
3.57925e-05
3.54829e-05
3.30718e-05
3.09298e-05
3.53622e-05
0.000119818
0.892949
0.951635
0.00129976
0.00367218
0.730411
0.999765
0.999991
0.999992
0.999987
0.999941
0.999951
0.999731
0.998385
0.931186
0.0929241
0.00109657
5.68614e-05
1.28823e-05
6.90711e-06
7.88582e-06
2.60311e-05
0.00156177
0.34007
0.00289248
6.94419e-05
2.42962e-05
1.83223e-05
1.0964e-05
8.07953e-06
7.00758e-06
6.31494e-06
5.72053e-06
4.11881e-06
1.80264e-06
1.50629e-06
4.80062e-05
4.15506e-05
3.78791e-05
3.70381e-05
3.7967e-05
3.72887e-05
3.32446e-05
3.06246e-05
3.68179e-05
0.000318121
0.996572
0.407967
6.93311e-05
7.97816e-05
0.000625948
0.0413826
0.82176
0.987052
0.99361
0.987118
0.844494
0.212553
0.00736881
0.000305917
4.02816e-05
1.35721e-05
8.67388e-06
6.4114e-06
6.92001e-06
1.96781e-05
0.000312569
0.233869
0.0111745
0.000101019
2.31637e-05
1.85681e-05
1.14128e-05
8.11762e-06
7.04936e-06
6.46156e-06
5.91735e-06
4.44209e-06
2.28022e-06
1.19223e-06
1.1316e-06
5.32417e-05
4.7123e-05
4.25987e-05
3.95014e-05
3.80243e-05
3.88759e-05
3.77786e-05
3.32852e-05
3.11655e-05
4.01087e-05
0.00210858
0.999734
0.0173146
1.10221e-05
1.50463e-05
1.81606e-05
5.1108e-05
0.000287908
0.000958761
0.00121772
0.000590661
0.000182929
5.4351e-05
2.07581e-05
1.29035e-05
9.41726e-06
7.76658e-06
6.78794e-06
6.72149e-06
1.46716e-05
9.86034e-05
0.0718956
0.0422602
0.000178746
2.3179e-05
1.81431e-05
1.18706e-05
8.23202e-06
7.093e-06
6.59827e-06
6.10725e-06
4.90856e-06
2.42098e-06
1.4736e-06
9.42347e-07
9.69123e-07
5.71238e-05
5.18005e-05
4.74784e-05
4.34229e-05
4.12631e-05
3.98494e-05
4.00127e-05
3.84983e-05
3.35872e-05
3.19826e-05
4.9158e-05
0.065396
0.999783
0.00127007
9.2494e-06
1.06122e-05
8.32627e-06
8.04508e-06
1.19228e-05
1.70007e-05
1.78231e-05
1.5017e-05
1.17948e-05
1.08092e-05
9.41844e-06
8.56786e-06
8.10846e-06
7.5312e-06
6.85794e-06
1.09022e-05
4.59187e-05
0.0122856
0.113649
0.000388595
2.58939e-05
1.72153e-05
1.24677e-05
8.44219e-06
7.15362e-06
6.7175e-06
6.31046e-06
5.40359e-06
2.65187e-06
1.53625e-06
1.13304e-06
8.24345e-07
9.08026e-07
5.52565e-05
5.43009e-05
5.10443e-05
4.75066e-05
4.39053e-05
4.292e-05
4.16883e-05
4.1432e-05
3.87234e-05
3.33918e-05
3.49357e-05
8.72709e-05
0.925755
0.997475
0.000617095
2.89344e-05
1.67766e-05
8.93299e-06
7.91222e-06
9.47056e-06
1.08267e-05
1.09209e-05
1.03844e-05
9.63635e-06
9.22686e-06
9.08613e-06
8.73875e-06
8.01192e-06
7.06605e-06
8.38215e-06
2.66205e-05
0.00191322
0.162282
0.00107362
3.32745e-05
1.58117e-05
1.29086e-05
8.77469e-06
7.25848e-06
6.81158e-06
6.51238e-06
5.95575e-06
2.89781e-06
1.65601e-06
1.18369e-06
9.6369e-07
7.44275e-07
9.48242e-07
5.08299e-05
5.34804e-05
5.28431e-05
5.03136e-05
4.6606e-05
4.45688e-05
4.3971e-05
4.35523e-05
4.2227e-05
3.78731e-05
3.44358e-05
4.00916e-05
0.000407288
0.999496
0.81616
0.000355872
4.98691e-05
1.77444e-05
1.00002e-05
9.74568e-06
1.0918e-05
1.099e-05
1.06709e-05
1.0437e-05
1.01665e-05
9.59672e-06
9.02857e-06
8.30155e-06
7.22687e-06
7.1383e-06
1.70672e-05
0.000384509
0.114668
0.00349026
4.6849e-05
1.43738e-05
1.29984e-05
9.22843e-06
7.42618e-06
6.89687e-06
6.69703e-06
6.32607e-06
3.18149e-06
1.78584e-06
1.26929e-06
1.00408e-06
8.6691e-07
7.16311e-07
1.15463e-06
4.53525e-05
4.97981e-05
5.20411e-05
5.17307e-05
4.93629e-05
4.60481e-05
4.49229e-05
4.53228e-05
4.49812e-05
4.26399e-05
3.78791e-05
3.56264e-05
4.78026e-05
0.0147028
0.999886
0.015049
9.8176e-05
3.10005e-05
1.27528e-05
9.52926e-06
1.13003e-05
1.20929e-05
1.14833e-05
1.07377e-05
1.02404e-05
9.74271e-06
9.11008e-06
8.36282e-06
7.34165e-06
6.48716e-06
1.17616e-05
0.000111098
0.039548
0.010956
7.68491e-05
1.35209e-05
1.29682e-05
9.7951e-06
7.66532e-06
6.99282e-06
6.8568e-06
6.58067e-06
3.50264e-06
1.93948e-06
1.36277e-06
1.06611e-06
8.97277e-07
8.4249e-07
8.01538e-07
1.50093e-06
4.18292e-05
4.50813e-05
4.89182e-05
5.07902e-05
4.97805e-05
4.85827e-05
4.56578e-05
4.5707e-05
4.57409e-05
4.5837e-05
4.30749e-05
3.73071e-05
3.89873e-05
8.0248e-05
0.901059
0.996318
0.00016013
3.63763e-05
1.80486e-05
9.20937e-06
9.87012e-06
1.15933e-05
1.1544e-05
1.07258e-05
1.01036e-05
9.58151e-06
9.00164e-06
8.36648e-06
7.4276e-06
6.22644e-06
8.43135e-06
4.31648e-05
0.00782631
0.0265881
0.000157102
1.35212e-05
1.28193e-05
1.03951e-05
7.98496e-06
7.11911e-06
6.99103e-06
6.84038e-06
3.86749e-06
2.11743e-06
1.47311e-06
1.13289e-06
9.44462e-07
8.62104e-07
9.60144e-07
9.68196e-07
1.96043e-06
4.04592e-05
4.22855e-05
4.49596e-05
4.82953e-05
4.92069e-05
4.81644e-05
4.67965e-05
4.57499e-05
4.52607e-05
4.679e-05
4.67154e-05
4.21092e-05
3.74121e-05
4.53025e-05
0.000476752
0.999832
0.434882
4.27227e-05
2.84756e-05
1.24863e-05
8.88167e-06
1.05052e-05
1.11335e-05
1.04819e-05
9.86663e-06
9.44386e-06
8.93751e-06
8.34836e-06
7.48416e-06
6.06052e-06
6.42525e-06
1.89606e-05
0.00131491
0.0408811
0.000380785
1.7011e-05
1.24502e-05
1.09111e-05
8.37271e-06
7.31005e-06
7.10647e-06
7.08723e-06
4.28227e-06
2.32311e-06
1.59988e-06
1.20902e-06
9.94661e-07
8.97152e-07
9.76598e-07
1.18843e-06
1.18763e-06
2.51781e-06
4.26096e-05
4.08152e-05
4.2514e-05
4.50354e-05
4.72238e-05
4.7786e-05
4.64486e-05
4.51158e-05
4.41106e-05
4.53294e-05
4.75428e-05
4.59981e-05
4.0674e-05
3.85651e-05
5.56606e-05
0.0621334
0.999948
0.00718578
5.25646e-05
2.36803e-05
9.43153e-06
9.20947e-06
1.05596e-05
1.03264e-05
9.69931e-06
9.31123e-06
8.89135e-06
8.32965e-06
7.47837e-06
5.96073e-06
5.31408e-06
9.30228e-06
0.00026609
0.0346363
0.00106914
2.44725e-05
1.19153e-05
1.12134e-05
8.82674e-06
7.58163e-06
7.23342e-06
7.30054e-06
4.74542e-06
2.56009e-06
1.74265e-06
1.29574e-06
1.05151e-06
9.34418e-07
1.00931e-06
1.21235e-06
1.49175e-06
1.45266e-06
3.16756e-06
4.61834e-05
4.28399e-05
4.09866e-05
4.25124e-05
4.47771e-05
4.66692e-05
4.6211e-05
4.50193e-05
4.23657e-05
4.36746e-05
4.50062e-05
4.72005e-05
4.48356e-05
3.84375e-05
4.21888e-05
0.00013298
0.994463
0.989171
0.000422646
4.262e-05
1.30342e-05
7.99528e-06
9.59761e-06
1.01755e-05
9.62368e-06
9.19462e-06
8.83822e-06
8.28571e-06
7.40622e-06
5.82377e-06
4.51875e-06
5.33937e-06
7.45392e-05
0.0159025
0.00314041
3.86623e-05
1.10088e-05
1.12733e-05
9.33602e-06
7.95099e-06
7.39612e-06
7.4779e-06
5.24838e-06
2.83429e-06
1.90077e-06
1.39504e-06
1.11753e-06
9.78483e-07
1.04392e-06
1.25627e-06
1.52906e-06
1.85925e-06
1.76642e-06
3.92121e-06
4.82619e-05
4.53812e-05
4.30384e-05
4.14704e-05
4.2584e-05
4.46639e-05
4.60782e-05
4.53242e-05
4.22001e-05
4.15583e-05
4.22192e-05
4.52064e-05
4.57051e-05
4.21337e-05
3.80393e-05
4.8376e-05
0.00421371
0.999937
0.0426892
7.27754e-05
2.18679e-05
7.87792e-06
8.36001e-06
9.85632e-06
9.60467e-06
9.06857e-06
8.75771e-06
8.21784e-06
7.26056e-06
5.61907e-06
3.93996e-06
3.28386e-06
2.5947e-05
0.00450031
0.00759676
7.19535e-05
1.0548e-05
1.11438e-05
9.90105e-06
8.4074e-06
7.62971e-06
7.62239e-06
5.76884e-06
3.15033e-06
2.0729e-06
1.50943e-06
1.1956e-06
1.03163e-06
1.08467e-06
1.3033e-06
1.59156e-06
1.91305e-06
2.29667e-06
2.14641e-06
4.79789e-06
5.00671e-05
4.81023e-05
4.48803e-05
4.2838e-05
4.20894e-05
4.29993e-05
4.52704e-05
4.5501e-05
4.33834e-05
4.13027e-05
3.95245e-05
4.17058e-05
4.42298e-05
4.36594e-05
3.80491e-05
3.92894e-05
7.77499e-05
0.914461
0.997035
0.000257726
3.44744e-05
1.08537e-05
7.337e-06
9.24745e-06
9.57872e-06
8.9436e-06
8.62959e-06
8.12061e-06
7.05433e-06
5.31918e-06
3.41627e-06
2.2608e-06
1.08657e-05
0.000998982
0.0124552
0.000149814
1.14883e-05
1.10452e-05
1.04724e-05
8.92525e-06
7.95221e-06
7.77391e-06
6.27783e-06
3.50616e-06
2.26043e-06
1.64323e-06
1.28973e-06
1.09724e-06
1.13421e-06
1.35904e-06
1.65958e-06
1.99993e-06
2.36742e-06
2.82014e-06
2.6151e-06
5.82618e-06
4.86353e-05
4.95952e-05
4.84748e-05
4.5165e-05
4.24814e-05
4.2645e-05
4.47443e-05
4.66266e-05
4.4834e-05
4.27943e-05
3.94936e-05
3.8776e-05
4.07494e-05
4.26052e-05
4.00238e-05
3.40524e-05
4.15946e-05
0.00108076
0.999906
0.135951
5.24297e-05
2.08951e-05
7.33182e-06
8.28409e-06
9.42524e-06
8.83205e-06
8.45948e-06
7.98712e-06
6.79573e-06
4.94264e-06
2.97183e-06
1.71037e-06
4.94862e-06
0.000233813
0.012435
0.000366949
1.41183e-05
1.09941e-05
1.09578e-05
9.46281e-06
8.37723e-06
7.96612e-06
6.76034e-06
3.89108e-06
2.47639e-06
1.80178e-06
1.40423e-06
1.17911e-06
1.19514e-06
1.42507e-06
1.73966e-06
2.09348e-06
2.4798e-06
2.90642e-06
3.45692e-06
3.20246e-06
7.03829e-06
4.51908e-05
4.8251e-05
4.97118e-05
4.82483e-05
4.56981e-05
4.30567e-05
4.47164e-05
4.60355e-05
4.75093e-05
4.52823e-05
4.14596e-05
3.83326e-05
3.76699e-05
4.05172e-05
4.05792e-05
3.52123e-05
3.39221e-05
5.87367e-05
0.698174
0.998986
0.00075485
3.87496e-05
9.80209e-06
7.19954e-06
8.95211e-06
8.74496e-06
8.25357e-06
7.81651e-06
6.47992e-06
4.51904e-06
2.55843e-06
1.36008e-06
2.53087e-06
6.96317e-05
0.00735455
0.000968691
2.31384e-05
1.08068e-05
1.12327e-05
9.99787e-06
8.89053e-06
8.2489e-06
7.22416e-06
4.28623e-06
2.74186e-06
1.9891e-06
1.54226e-06
1.27991e-06
1.26917e-06
1.50378e-06
1.83244e-06
2.20241e-06
2.60187e-06
3.04675e-06
3.55607e-06
4.2405e-06
3.94336e-06
8.4654e-06
4.42895e-05
4.52563e-05
4.79111e-05
4.92431e-05
4.78676e-05
4.58044e-05
4.45917e-05
4.52962e-05
4.83565e-05
4.81877e-05
4.50348e-05
4.08854e-05
3.76122e-05
3.85594e-05
4.02536e-05
3.81594e-05
3.15339e-05
3.79232e-05
0.000698205
0.999798
0.180228
7.86913e-05
1.80225e-05
6.65608e-06
8.06184e-06
8.63961e-06
8.05033e-06
7.586e-06
6.11604e-06
4.06211e-06
2.16598e-06
1.12162e-06
1.50727e-06
2.39948e-05
0.00275764
0.002423
4.21139e-05
1.05244e-05
1.12797e-05
1.05329e-05
9.48038e-06
8.6511e-06
7.701e-06
4.67011e-06
3.05958e-06
2.20721e-06
1.70351e-06
1.39944e-06
1.35867e-06
1.5959e-06
1.93941e-06
2.32727e-06
2.74279e-06
3.19697e-06
3.72402e-06
4.34595e-06
5.20426e-06
4.87657e-06
1.0122e-05
4.42662e-05
4.38035e-05
4.57471e-05
4.77138e-05
4.93059e-05
4.75893e-05
4.57226e-05
4.48751e-05
4.7631e-05
4.99875e-05
4.9839e-05
4.52029e-05
4.0749e-05
3.8932e-05
4.01263e-05
4.02836e-05
3.50988e-05
3.19983e-05
5.6599e-05
0.680134
0.998294
0.000485427
3.402e-05
7.86644e-06
6.90017e-06
8.41607e-06
7.88825e-06
7.27718e-06
5.71707e-06
3.57252e-06
1.81091e-06
9.48112e-07
9.94195e-07
9.55292e-06
0.000796156
0.00471609
7.46497e-05
1.0647e-05
1.125e-05
1.10839e-05
1.0119e-05
9.18842e-06
8.23974e-06
5.02789e-06
3.41118e-06
2.46435e-06
1.88531e-06
1.53735e-06
1.464e-06
1.70314e-06
2.06213e-06
2.4692e-06
2.90106e-06
3.36997e-06
3.90186e-06
4.54148e-06
5.3113e-06
6.37982e-06
6.03669e-06
1.20156e-05
4.64012e-05
4.42252e-05
4.35027e-05
4.60009e-05
4.81332e-05
4.89877e-05
4.73798e-05
4.44244e-05
4.61523e-05
4.92786e-05
5.30614e-05
4.98659e-05
4.52737e-05
4.09882e-05
4.04866e-05
4.20333e-05
4.04749e-05
3.28967e-05
3.96263e-05
0.0010096
0.999811
0.103326
6.12682e-05
1.34249e-05
5.96875e-06
7.90644e-06
7.79942e-06
6.87349e-06
5.29301e-06
3.06349e-06
1.51409e-06
8.10477e-07
7.32675e-07
4.32676e-06
0.000228367
0.00619628
0.000154887
1.22274e-05
1.13589e-05
1.16432e-05
1.07594e-05
9.8474e-06
8.89929e-06
5.369e-06
3.77022e-06
2.77208e-06
2.08997e-06
1.69281e-06
1.58703e-06
1.82668e-06
2.20214e-06
2.62947e-06
3.08069e-06
3.56407e-06
4.10639e-06
4.74791e-06
5.53397e-06
6.48227e-06
7.79659e-06
7.45572e-06
1.41325e-05
4.69619e-05
4.57786e-05
4.42e-05
4.33568e-05
4.5866e-05
4.84981e-05
4.84863e-05
4.57799e-05
4.44842e-05
4.57796e-05
5.13784e-05
5.32214e-05
5.00247e-05
4.50654e-05
4.12939e-05
4.29823e-05
4.45519e-05
3.8054e-05
3.3863e-05
6.83662e-05
0.865516
0.994981
0.000349705
2.70855e-05
6.08154e-06
7.02884e-06
7.73155e-06
6.41739e-06
4.80589e-06
2.57376e-06
1.2659e-06
6.96892e-07
5.79217e-07
2.13701e-06
7.18515e-05
0.00511757
0.000349922
1.62325e-05
1.16715e-05
1.21287e-05
1.13777e-05
1.05952e-05
9.71782e-06
5.73396e-06
4.09987e-06
3.12726e-06
2.32625e-06
1.86401e-06
1.72873e-06
1.9681e-06
2.3623e-06
2.81019e-06
3.28114e-06
3.78077e-06
4.33571e-06
4.98273e-06
5.76487e-06
6.7316e-06
7.88746e-06
9.46902e-06
9.1537e-06
1.64457e-05
4.61157e-05
4.68277e-05
4.51754e-05
4.31729e-05
4.42584e-05
4.59467e-05
4.82504e-05
4.72384e-05
4.43849e-05
4.4004e-05
4.78618e-05
5.1669e-05
5.4247e-05
4.91569e-05
4.37839e-05
4.26191e-05
4.55415e-05
4.36458e-05
3.34916e-05
4.11687e-05
0.00302204
0.999778
0.0248214
4.86212e-05
8.75395e-06
5.98122e-06
7.53775e-06
5.97994e-06
4.22024e-06
2.14853e-06
1.05561e-06
6.02373e-07
4.82824e-07
1.19964e-06
2.64742e-05
0.00264416
0.000854168
2.7208e-05
1.19078e-05
1.24258e-05
1.19721e-05
1.14079e-05
1.04602e-05
6.17878e-06
4.38179e-06
3.5029e-06
2.60788e-06
2.05015e-06
1.88854e-06
2.13103e-06
2.54614e-06
3.01448e-06
3.50467e-06
4.02199e-06
4.58968e-06
5.24442e-06
6.02985e-06
6.98533e-06
8.16141e-06
9.5441e-06
1.14001e-05
1.11343e-05
1.89033e-05
4.45725e-05
4.62941e-05
4.68036e-05
4.53267e-05
4.32071e-05
4.49949e-05
4.62849e-05
4.73721e-05
4.51217e-05
4.30668e-05
4.32272e-05
4.76645e-05
5.36483e-05
5.1689e-05
4.65255e-05
4.23055e-05
4.37176e-05
4.51046e-05
3.73879e-05
3.47848e-05
9.61062e-05
0.976875
0.95514
0.000158665
1.74152e-05
5.31909e-06
7.0129e-06
5.62052e-06
3.55164e-06
1.79792e-06
8.74955e-07
5.27536e-07
4.07771e-07
7.49707e-07
1.17345e-05
0.00101336
0.00189189
4.72383e-05
1.20409e-05
1.25602e-05
1.25998e-05
1.22559e-05
1.13319e-05
6.75775e-06
4.63484e-06
3.8487e-06
2.94736e-06
2.25838e-06
2.06569e-06
2.31838e-06
2.75605e-06
3.24802e-06
3.75773e-06
4.29105e-06
4.87147e-06
5.53369e-06
6.32251e-06
7.27629e-06
8.43443e-06
9.8354e-06
1.14517e-05
1.35697e-05
1.33822e-05
2.14515e-05
4.52207e-05
4.44927e-05
4.64757e-05
4.71812e-05
4.54263e-05
4.36934e-05
4.48392e-05
4.72787e-05
4.73556e-05
4.37498e-05
4.10912e-05
4.25329e-05
4.79066e-05
5.22575e-05
4.75422e-05
4.28124e-05
4.00911e-05
4.3613e-05
4.14152e-05
3.19034e-05
4.14522e-05
0.021563
0.999596
0.00387988
3.38539e-05
5.9344e-06
6.09519e-06
5.24866e-06
2.89041e-06
1.4945e-06
7.33542e-07
4.61508e-07
3.47663e-07
5.25974e-07
5.25626e-06
0.000358554
0.00317165
8.05887e-05
1.28065e-05
1.27991e-05
1.33248e-05
1.31344e-05
1.22922e-05
7.50048e-06
4.91629e-06
4.11998e-06
3.33329e-06
2.51496e-06
2.26068e-06
2.53232e-06
2.99878e-06
3.51935e-06
4.05024e-06
4.59626e-06
5.1841e-06
5.85194e-06
6.64382e-06
7.59547e-06
8.74605e-06
1.01221e-05
1.17556e-05
1.35972e-05
1.59496e-05
1.58621e-05
2.40181e-05
4.73815e-05
4.48399e-05
4.46702e-05
4.6807e-05
4.77438e-05
4.55286e-05
4.34761e-05
4.55718e-05
4.81697e-05
4.79302e-05
4.27314e-05
4.00498e-05
4.39685e-05
4.82034e-05
5.00624e-05
4.38989e-05
3.83044e-05
4.07526e-05
4.30269e-05
3.43496e-05
3.28332e-05
0.000216778
0.99723
0.530478
8.75231e-05
9.56727e-06
5.01315e-06
4.75532e-06
2.35944e-06
1.21721e-06
6.20419e-07
3.99612e-07
2.99833e-07
3.9434e-07
2.61267e-06
0.000117229
0.00368294
0.000159551
1.56565e-05
1.34774e-05
1.41489e-05
1.40086e-05
1.32835e-05
8.39968e-06
5.29566e-06
4.32664e-06
3.72081e-06
2.85722e-06
2.4894e-06
2.77727e-06
3.2928e-06
3.84563e-06
4.3981e-06
4.94264e-06
5.52519e-06
6.19476e-06
6.99043e-06
7.93829e-06
9.08649e-06
1.04496e-05
1.20511e-05
1.39069e-05
1.59489e-05
1.84838e-05
1.85154e-05
2.65464e-05
4.75566e-05
4.64629e-05
4.45289e-05
4.56453e-05
4.76614e-05
4.76703e-05
4.52642e-05
4.42312e-05
4.63589e-05
4.98259e-05
4.53925e-05
4.20821e-05
4.05089e-05
4.42745e-05
5.10731e-05
4.64023e-05
4.04006e-05
3.84916e-05
4.26363e-05
3.90143e-05
2.87665e-05
4.94731e-05
0.353968
0.997035
0.000645666
1.92322e-05
4.27061e-06
4.06936e-06
1.93935e-06
9.67224e-07
5.35831e-07
3.41473e-07
2.60653e-07
3.15773e-07
1.47802e-06
4.3673e-05
0.00293657
0.000343886
2.17455e-05
1.44621e-05
1.49378e-05
1.48449e-05
1.42475e-05
9.42774e-06
5.83996e-06
4.54583e-06
4.06399e-06
3.30692e-06
2.7975e-06
3.06499e-06
3.65593e-06
4.25316e-06
4.78951e-06
5.30681e-06
5.87718e-06
6.54855e-06
7.35208e-06
8.30502e-06
9.45579e-06
1.08044e-05
1.23876e-05
1.42004e-05
1.62534e-05
1.84569e-05
2.1115e-05
2.12753e-05
2.89731e-05
4.70717e-05
4.70187e-05
4.58436e-05
4.46263e-05
4.6198e-05
4.78048e-05
4.61383e-05
4.45306e-05
4.5555e-05
4.8031e-05
4.97861e-05
4.58171e-05
4.10549e-05
4.20481e-05
4.80575e-05
5.06191e-05
4.38052e-05
3.8655e-05
4.08832e-05
4.22551e-05
3.20712e-05
3.48634e-05
0.00170863
0.999204
0.0421323
3.86114e-05
4.50163e-06
3.20464e-06
1.60883e-06
7.66858e-07
4.595e-07
2.89511e-07
2.2962e-07
2.67323e-07
9.16473e-07
2.04145e-05
0.00170333
0.000780529
3.40576e-05
1.54371e-05
1.55238e-05
1.56276e-05
1.51905e-05
1.05467e-05
6.60787e-06
4.8919e-06
4.37431e-06
3.82637e-06
3.24048e-06
3.4112e-06
4.10525e-06
4.72606e-06
5.22466e-06
5.74874e-06
6.33644e-06
7.03674e-06
7.84729e-06
8.77828e-06
9.88486e-06
1.12115e-05
1.27519e-05
1.45391e-05
1.65378e-05
1.8749e-05
2.10631e-05
2.37723e-05
2.40638e-05
3.12599e-05
4.49315e-05
4.6117e-05
4.65277e-05
4.56242e-05
4.46925e-05
4.58535e-05
4.75422e-05
4.56529e-05
4.44888e-05
4.66886e-05
4.9789e-05
5.03776e-05
4.54641e-05
4.15915e-05
4.6037e-05
5.24742e-05
4.89517e-05
4.23558e-05
3.83483e-05
4.34899e-05
3.82339e-05
3.00572e-05
0.00010323
0.955337
0.917444
0.000152506
6.56941e-06
2.37402e-06
1.32884e-06
6.1728e-07
3.86025e-07
2.48068e-07
2.04056e-07
2.32739e-07
6.27957e-07
1.00248e-05
0.000820501
0.00155556
5.42327e-05
1.64985e-05
1.60453e-05
1.64215e-05
1.61652e-05
1.1751e-05
7.66089e-06
5.48805e-06
4.7567e-06
4.34197e-06
3.85848e-06
3.8821e-06
4.603e-06
5.24971e-06
5.78234e-06
6.31165e-06
6.97738e-06
7.69359e-06
8.44603e-06
9.32756e-06
1.04001e-05
1.16932e-05
1.31677e-05
1.49222e-05
1.68714e-05
1.90175e-05
2.13347e-05
2.37e-05
2.63883e-05
2.68037e-05
3.29268e-05
4.52273e-05
4.47942e-05
4.5656e-05
4.68752e-05
4.5043e-05
4.43795e-05
4.61287e-05
4.78399e-05
4.58662e-05
4.40619e-05
4.66204e-05
5.21495e-05
4.84311e-05
4.36682e-05
4.25651e-05
5.0034e-05
5.50925e-05
4.77726e-05
3.80765e-05
4.27881e-05
4.38556e-05
2.97645e-05
3.92154e-05
0.0545621
0.998049
0.0023171
1.16025e-05
1.80007e-06
1.06388e-06
5.02244e-07
3.16798e-07
2.1386e-07
1.82843e-07
2.0713e-07
4.70281e-07
5.27973e-06
0.000289328
0.00238906
9.0236e-05
1.87892e-05
1.6888e-05
1.73286e-05
1.72652e-05
1.31198e-05
9.07787e-06
6.49455e-06
5.37343e-06
4.88388e-06
4.64408e-06
4.63136e-06
5.13212e-06
5.89463e-06
6.45319e-06
7.13381e-06
7.82645e-06
8.35313e-06
8.96928e-06
9.80551e-06
1.0848e-05
1.21196e-05
1.36247e-05
1.53472e-05
1.72444e-05
1.93335e-05
2.1578e-05
2.39446e-05
2.6303e-05
2.8904e-05
2.91285e-05
3.34299e-05
4.46024e-05
4.50407e-05
4.48154e-05
4.56909e-05
4.56774e-05
4.44909e-05
4.3844e-05
4.66529e-05
4.79827e-05
4.46438e-05
4.3408e-05
4.77359e-05
5.18487e-05
4.69532e-05
4.08408e-05
4.52629e-05
5.4515e-05
5.20797e-05
4.04156e-05
4.01101e-05
4.58339e-05
3.3953e-05