/*--------------------------------*- C++ -*----------------------------------*\
| =========                 |                                                 |
| \\      /  F ield         | OpenFOAM: The Open Source CFD Toolbox           |
|  \\    /   O peration     | Version:  v2012                                 |
|   \\  /    A nd           | Website:  www.openfoam.com                      |
|    \\/     M anipulation  |                                                 |
\*---------------------------------------------------------------------------*/
FoamFile
{
    version     2.0;
    format      ascii;
    class       volScalarField;
    location    "0";
    object      I1_4;
}
// * * * * * * * * * * * * * * * * * * * * * * * * * * * * * * * * * * * * * //

dimensions      [0 0 0 0 0 0 0];


internalField   nonuniform List<scalar> 
27324
(
-1.94438
-2.02868
-2.16889
-2.14141
-2.29539
-2.27383
-2.12309
-2.2938
-2.48593
-2.34299
-2.06906
-2.23455
-2.38882
-2.64547
-2.28364
-2.0649
-2.16946
-2.34624
-2.45473
-2.57802
-2.27858
-2.16231
-2.18715
-2.30798
-2.43111
-2.36898
-2.55449
-2.344
-2.34745
-2.30726
-2.38471
-2.44404
-2.42327
-2.44569
-2.5682
-2.53307
-2.49456
-2.47968
-2.56214
-2.56918
-2.5334
-2.53032
-2.52666
-2.7298
-2.51599
-2.48737
-2.55768
-2.76067
-2.74218
-2.70777
-2.61158
-2.65871
-2.70487
-2.65789
-2.49415
-2.34421
-2.49698
-2.82825
-2.89504
-2.86515
-2.71534
-2.78841
-2.7916
-2.65503
-2.57405
-2.6401
-2.26393
-2.41038
-2.75335
-2.93145
-2.9476
-2.82114
-2.92556
-2.85491
-2.75208
-2.60468
-2.70714
-2.74103
-2.41904
-2.48611
-2.71032
-2.90002
-2.93418
-2.94566
-3.0549
-2.92454
-2.83975
-2.72865
-2.83629
-2.74954
-2.6894
-2.80708
-2.86417
-2.88348
-2.9757
-2.92436
-3.09834
-3.18812
-3.01487
-2.93604
-2.8749
-2.95995
-2.78771
-2.66291
-2.58907
-3.26038
-3.42034
-3.34778
-3.23914
-3.07755
-3.29879
-3.31282
-3.1367
-3.05256
-3.03587
-3.05229
-2.83443
-2.68907
-2.55706
-2.5591
-3.42449
-3.72199
-3.803
-3.64137
-3.40789
-3.57821
-3.41563
-3.24884
-3.18709
-3.1958
-3.089
-2.88082
-2.73483
-2.61834
-2.53768
-2.56084
-3.16593
-3.48346
-3.80479
-3.79099
-3.7577
-3.78217
-3.50012
-3.32708
-3.30262
-3.32426
-3.08185
-2.93172
-2.7885
-2.69214
-2.64355
-2.54851
-2.55592
-2.93191
-3.05073
-3.40684
-3.58122
-3.78724
-3.75398
-3.51702
-3.4102
-3.39693
-3.40579
-3.06069
-2.97689
-2.86049
-2.78302
-2.75221
-2.66775
-2.55827
-2.58068
-3.05143
-2.97922
-3.12051
-3.29202
-3.58964
-3.50327
-3.45408
-3.46882
-3.51521
-3.43857
-3.06955
-3.0217
-2.94158
-2.89933
-2.86612
-2.77065
-2.66578
-2.58747
-2.57724
-3.41376
-3.37547
-3.32662
-3.34174
-3.43659
-3.27481
-3.35538
-3.48956
-3.63566
-3.47066
-3.12514
-3.09144
-3.02795
-3.01272
-2.99026
-2.87822
-2.75936
-2.67023
-2.58292
-2.57926
-3.71498
-3.93247
-3.9232
-3.84936
-3.61753
-3.30051
-3.37453
-3.55392
-3.73289
-3.49289
-3.27595
-3.19702
-3.11427
-3.1147
-3.11169
-2.98944
-2.85357
-2.7511
-2.67373
-2.57093
-2.54789
-3.68853
-4.18939
-4.41022
-4.46223
-4.05401
-3.65371
-3.6148
-3.73817
-3.84876
-3.50943
-3.43317
-3.33431
-3.22261
-3.20482
-3.20497
-3.10158
-2.95711
-2.8336
-2.75221
-2.66501
-2.53439
-2.47568
-3.52696
-4.02781
-4.41225
-4.59944
-4.3801
-4.13425
-4.01024
-4.01455
-3.95912
-3.58308
-3.53778
-3.4538
-3.35206
-3.3094
-3.28555
-3.20564
-3.0639
-2.91772
-2.82726
-2.73701
-2.63888
-2.50177
-2.29662
-3.74829
-3.83916
-4.16212
-4.3159
-4.31769
-4.39816
-4.32659
-4.224
-3.99036
-3.66676
-3.66914
-3.5656
-3.47022
-3.41285
-3.36066
-3.2983
-3.15914
-3.00473
-2.90559
-2.81151
-2.71365
-2.62014
-2.44758
-2.54812
-4.13893
-4.11603
-4.08801
-4.10866
-4.15573
-4.35761
-4.41089
-4.23001
-3.9653
-3.68807
-3.79526
-3.72639
-3.58796
-3.51315
-3.43579
-3.37384
-3.24584
-3.08326
-2.98289
-2.89187
-2.79186
-2.70659
-2.53255
-2.4925
-7.22747
-4.25377
-4.55294
-4.47104
-4.25543
-4.22514
-4.33497
-4.3544
-4.12242
-3.89532
-3.77733
-3.82338
-3.87446
-3.74292
-3.61135
-3.51193
-3.45015
-3.3489
-3.16225
-3.06768
-2.97243
-2.87897
-2.7925
-2.64262
-2.44657
-2.26406
-5.93662
-4.25656
-4.79672
-4.90476
-4.76379
-4.57223
-4.49695
-4.38141
-4.06514
-3.86844
-3.90355
-3.94349
-3.91819
-3.89992
-3.7461
-3.59444
-3.51522
-3.45809
-3.26104
-3.15306
-3.05302
-2.965
-2.88166
-2.74273
-2.56512
-2.67314
-1.11709
-4.40881
-4.75005
-5.10183
-5.09573
-5.11761
-5.02964
-4.76799
-4.51468
-4.2291
-3.9949
-4.03816
-4.11893
-4.03439
-3.99981
-3.92796
-3.71836
-3.5737
-3.56556
-3.36998
-3.23846
-3.15465
-3.0461
-2.9792
-2.83496
-2.67135
-2.61851
-3.15608
-1.23598
-5.52815
-5.68729
-5.72163
-5.33515
-5.18505
-5.18464
-5.02783
-4.65968
-4.52592
-4.3173
-4.31183
-4.25339
-4.21606
-4.1389
-4.09402
-3.89808
-3.6974
-3.66422
-3.48493
-3.33853
-3.2581
-3.14626
-3.07972
-2.95833
-2.80042
-2.73133
-4.22289
-2.93473
-1.99692
-7.73937
-7.16041
-6.2155
-5.54628
-5.32
-5.21197
-5.08277
-4.83007
-4.84154
-4.72115
-4.72074
-4.52526
-4.36634
-4.30014
-4.24711
-4.06416
-3.87629
-3.81829
-3.60863
-3.45232
-3.36362
-3.26431
-3.18476
-3.07416
-2.93075
-2.78244
-3.63001
-2.39444
-2.77891
-3.05783
-7.83938
-4.64628
-24.3483
-5.50301
-5.32224
-5.34871
-5.22771
-4.914
-5.14784
-5.12849
-5.02675
-4.86759
-4.67874
-4.43452
-4.36861
-4.20479
-4.04598
-3.96469
-3.78873
-3.55741
-3.48222
-3.37319
-3.29058
-3.17294
-3.04943
-2.78907
-3.19723
-1.96379
-1.95543
-3.44762
-5.0783
-4.7014
-3.55912
-5.62252
-5.27728
-4.99311
-5.31321
-5.54917
-5.24785
-5.26338
-5.51977
-5.20072
-5.08951
-5.12109
-4.70688
-4.48821
-4.28407
-4.22024
-4.06086
-3.96461
-3.65593
-3.60684
-3.4737
-3.38843
-3.28748
-3.11238
-2.77917
-3.12707
-1.74251
-1.25049
-2.86705
-4.38633
-2.14218
-4.21854
-2.18773
-3.8074
-5.79942
-2.20418
-5.1736
-5.75301
-5.83124
-5.63229
-5.68473
-5.40161
-5.24054
-5.4179
-5.13158
-4.68968
-4.3134
-4.36044
-4.16399
-4.13208
-3.77937
-3.73444
-3.57994
-3.51416
-3.36681
-3.12885
-3.09873
-2.88861
-1.9013
-0.23271
-2.71653
-3.5555
-2.43884
-2.04408
-5.60658
-1.33831
-2.10564
-3.9685
-5.2738
-3.13301
-5.48051
-6.04297
-6.26394
-6.00699
-5.53652
-5.44881
-5.58016
-5.37068
-5.01471
-4.43113
-4.44448
-4.26874
-4.27525
-3.86351
-3.82541
-3.70323
-3.64484
-3.38709
-3.38681
-3.26986
-2.95714
-8.80967
-24.782
-2.89994
-2.79929
-1.90858
-3.59563
-3.0976
-4.37967
-0.889934
-1.38402
-2.14905
-4.53882
-5.5159
-2.99875
-5.26931
-6.38443
-6.41783
-5.90648
-5.62455
-5.75087
-5.46009
-5.25552
-4.72241
-4.58941
-4.31768
-4.426
-3.95514
-3.92072
-3.82774
-3.81693
-3.49336
-3.67563
-3.13484
-4.89613
-24.0126
-5.57948
-1.98059
-2.32552
-1.51112
-2.64185
-4.17433
-2.83144
-3.48758
-0.440504
-0.802645
-1.51885
-2.22662
-5.39134
-6.24198
-3.11845
-4.63991
-5.97969
-6.26515
-5.97904
-5.97523
-5.53828
-5.32883
-5.09516
-4.83367
-4.43272
-4.53025
-4.10402
-4.10412
-3.89637
-4.0638
-3.8385
-3.65584
-3.61381
-25.5782
-7.245
-2.39925
-1.11183
-1.93727
-2.56412
-3.86531
-3.21788
-3.43789
-2.98427
-3.656
-1.84063
-0.501293
-0.711845
-1.68592
-2.26569
-6.15951
-6.96533
-3.48424
-3.91508
-5.67997
-6.2846
-6.29299
-5.75029
-5.37233
-5.31619
-5.07352
-4.64124
-4.67354
-4.32982
-4.37415
-4.05271
-4.46461
-3.99238
-3.64984
-15.8353
-12.9587
-3.69802
-1.36946
-0.904731
-1.34569
-3.5428
-4.1127
-3.25698
-3.42071
-3.55736
-3.0387
-3.74556
-0.540973
-2.0204
-0.573961
-0.608836
-1.86136
-2.24626
-6.48848
-7.71608
-3.99535
-3.77383
-5.31644
-6.14635
-6.19682
-5.64444
-5.39677
-5.26956
-4.98871
-4.9213
-4.59247
-4.73367
-4.39719
-4.46331
-3.71908
-10.8252
-22.8514
-5.35779
-1.94469
-0.983865
-0.972487
-1.05394
-2.23747
-4.18872
-3.73553
-3.59181
-3.36846
-3.45432
-3.01956
-3.98675
-0.320914
-0.50273
-1.17595
-0.585432
-0.499134
-2.09116
-2.15147
-6.02409
-8.23497
-5.01142
-3.60036
-4.65503
-5.40739
-6.16861
-5.55665
-5.32199
-5.38957
-5.31921
-4.86195
-4.84318
-4.6239
-4.30632
-7.68505
-27.2247
-7.21773
-2.69376
-1.2446
-0.938239
-1.4036
-1.0863
-1.51692
-4.73323
-4.35985
-3.74392
-3.24924
-3.39963
-3.49574
-3.22763
-4.24057
-0.189973
-0.281283
-0.377657
-0.73853
-0.506911
-0.443559
-2.35575
-2.06812
-5.08263
-8.23437
-6.33949
-4.32296
-5.10539
-4.47962
-5.68158
-5.03857
-5.54319
-5.16179
-5.15481
-4.71779
-4.28471
-18.3276
-28.2864
-8.76786
-3.40167
-1.57852
-1.08167
-1.07375
-2.40608
-1.49917
-1.11534
-4.2096
-4.89834
-3.96173
-3.10168
-3.42754
-3.45152
-3.75349
-3.497
-4.47464
-0.113026
-0.146523
-0.235024
-0.347665
-0.62491
-0.410594
-0.437917
-2.69539
-2.0178
-3.84741
-7.33372
-7.71563
-6.38561
-4.99009
-5.08875
-8.08444
-4.69875
-6.38639
-7.23069
-13.8126
-23.457
-17.5748
-7.73415
-3.72954
-1.87974
-1.24242
-1.12534
-1.27894
-3.82058
-2.42387
-0.914966
-3.38322
-5.20143
-4.19349
-2.99664
-3.42797
-3.54681
-3.70699
-4.0291
-3.75879
-4.67608
-0.111572
-0.112536
-0.151186
-0.307015
-0.508963
-0.731622
-0.357526
-0.495947
-2.94018
-2.1271
-2.64472
-5.32809
-7.64688
-7.80689
-7.34075
-7.70397
-6.30062
-10.7242
-12.7734
-12.7689
-10.1518
-6.12571
-3.42458
-1.96862
-1.40673
-1.22171
-1.33377
-1.38883
-2.73874
-2.51717
-0.861713
-2.46834
-5.28917
-4.44873
-2.91844
-3.44864
-3.62406
-3.78879
-3.98737
-4.28706
-3.96949
-4.9314
-1.30803
-0.800808
-0.200351
-0.31715
-0.576574
-0.850331
-0.720635
-0.297415
-0.629348
-3.09679
-2.63136
-1.70848
-3.11519
-5.13507
-6.56631
-6.88669
-7.30281
-7.59524
-6.94714
-5.6227
-4.35698
-3.02141
-2.04247
-1.54005
-1.33592
-1.39954
-1.59388
-1.54526
-1.78424
-0.158749
-0.963059
-1.74304
-4.99987
-4.63531
-2.94824
-3.41278
-3.70618
-3.83912
-4.07494
-4.26448
-4.49563
-4.218
-4.9889
-0.260162
-0.960019
-3.02722
-0.963535
-0.633662
-0.783984
-0.817042
-0.790314
-0.280564
-0.870313
-3.05494
-3.3031
-1.04037
-1.69802
-2.6168
-3.52608
-3.84804
-4.02893
-3.82067
-2.9296
-2.52002
-1.88318
-1.5572
-1.38915
-1.48904
-1.75944
-1.78046
-1.60386
-1.36825
-8.09696
-1.33
-1.26111
-4.34618
-4.67817
-3.0479
-3.35122
-3.80321
-3.89721
-4.13224
-4.36587
-4.50378
-4.71317
-4.45695
-5.0894
-0.073514
-0.25306
-0.311708
-0.486742
-1.79911
-0.904009
-0.546508
-0.747261
-0.709405
-0.311709
-1.27469
-2.80286
-1.97283
-0.429899
-0.888782
-1.39455
-1.80969
-1.95461
-1.90741
-1.73235
-1.66097
-1.4775
-1.45803
-1.60562
-1.89314
-1.8982
-1.92867
-1.7079
-1.15017
-1.80688
-2.29935
-0.990267
-3.45485
-4.61516
-3.30455
-3.29427
-3.8505
-3.95541
-4.20179
-4.43306
-4.62705
-4.73101
-4.88941
-4.85348
-5.28064
-0.15612
-0.263361
-0.331047
-0.310191
-0.598578
-1.5479
-0.510982
-0.656391
-0.671769
-0.509873
-0.384279
-1.85309
-2.47799
-1.72988
-7.75127
-0.145064
-0.953688
-1.27906
-1.33813
-1.40481
-1.47434
-1.57509
-1.87419
-1.84655
-2.17822
-2.1397
-1.99214
-1.51803
-1.15749
-1.15375
-3.68759
-0.892196
-2.55929
-4.52266
-3.75338
-3.25707
-3.87407
-4.01795
-4.27505
-4.51106
-4.71711
-4.85722
-4.9545
-5.05102
-5.7427
-5.17267
-0.978798
-1.24634
-0.940626
-0.785545
-0.983504
-1.38472
-0.790408
-0.650326
-0.934287
-0.364243
-0.355447
-0.543043
-2.46785
-1.98658
-1.95233
-2.66808
-2.24354
-2.18393
-1.66865
-1.5942
-1.83256
-2.0667
-2.12967
-2.1139
-2.36336
-2.02379
-1.71262
-1.51969
-1.18821
-0.992348
-0.271178
-0.959611
-1.88404
-4.52145
-4.42522
-3.20734
-3.85833
-4.08454
-4.3537
-4.59279
-4.81165
-4.96258
-5.09807
-5.15131
-5.55734
-6.51314
-4.97259
-0.46467
-65.2706
-5.95388
-2.32457
-2.37061
-2.04446
-1.37656
-0.863562
-0.736067
-0.595535
-0.235211
-0.283929
-0.840212
-2.84601
-1.71816
-1.96565
-2.46775
-3.46368
-2.91966
-2.7396
-2.56011
-2.56769
-2.47372
-2.34082
-2.0183
-1.82374
-1.6865
-1.49704
-1.26536
-0.974257
-11.0894
-1.27019
-1.42866
-4.11661
-4.98097
-3.16384
-3.8014
-4.15403
-4.43428
-4.6795
-4.90028
-5.0728
-5.2257
-5.27291
-5.75082
-5.91732
-6.49935
-4.5984
-0.144452
-0.125429
-1.60418
-6.70107
-2.78356
-2.42723
-1.84657
-1.12486
-1.30168
-0.627555
-1.13444
-0.0855664
-0.331802
-1.33729
-2.714
-2.03976
-1.67314
-2.94338
-2.86032
-2.59217
-2.49331
-2.33185
-2.17664
-2.01512
-1.93879
-1.80203
-1.64772
-1.53222
-1.33978
-1.04065
-1.96649
-2.14937
-1.15546
-3.36227
-4.92749
-3.1349
-3.72116
-4.23735
-4.51229
-4.77216
-4.98906
-5.17952
-5.35989
-5.3955
-5.86288
-6.27713
-5.79654
-5.85887
-4.20289
-0.389865
-0.195317
-0.0495963
-0.836948
-2.7076
-2.85795
-2.10467
-1.23662
-1.48573
-0.975871
-0.962503
-1.19547
-0.171194
-0.47912
-1.97533
-2.32423
-1.51236
-2.09546
-2.90894
-2.60414
-2.41238
-2.28645
-2.17323
-2.04746
-1.90652
-1.79164
-1.69269
-1.57692
-1.40577
-1.1115
-1.14818
-4.09963
-1.02972
-2.6238
-4.67495
-3.30944
-3.67067
-4.30645
-4.58582
-4.86874
-5.08115
-5.28448
-5.49326
-5.51952
-5.99842
-6.43573
-6.25306
-5.24824
-5.08351
-3.80705
-9.10924
-2.58702
-0.541099
-0.0503292
-0.356769
-1.77147
-2.23411
-1.60009
-1.6519
-1.51094
-1.00302
-1.07278
-1.84857
-0.244372
-0.774274
-2.42237
-2.01414
-5.22922
-3.19529
-2.76028
-2.50926
-2.29033
-2.17661
-2.07374
-1.97504
-1.85756
-1.73624
-1.61887
-1.45574
-1.18593
-1.04554
-6.27651
-1.02864
-2.00454
-4.36086
-3.70343
-3.66564
-4.35738
-4.65145
-4.9644
-5.18199
-5.38622
-5.62345
-5.65023
-6.13101
-6.64979
-6.46861
-5.70701
-4.593
-4.3759
-3.44891
-0.403502
-0.433974
-2.4148
-1.70329
-0.0855922
-0.422294
-1.04275
-1.86318
-1.67295
-1.46314
-1.11032
-1.16106
-1.11034
-364.344
-0.356716
-1.30616
-2.57988
-1.56311
-2.52265
-2.79406
-2.64844
-2.3941
-2.26178
-2.14413
-2.02718
-1.90753
-1.78051
-1.65127
-1.4943
-1.24609
-0.991763
-2.94325
-1.13628
-1.58097
-4.04082
-4.42345
-3.70431
-4.36142
-4.7113
-5.05662
-5.29355
-5.48837
-5.74885
-5.78905
-6.26651
-6.8456
-6.75669
-5.93935
-4.98845
-3.98973
-3.79402
-3.14447
-0.917626
-0.0776353
-0.296948
-2.36147
-1.78022
-0.335787
-0.155815
-1.2739
-1.44988
-1.40717
-1.0915
-1.16962
-1.05951
-1.08259
-0.180846
-0.556588
-2.05777
-2.66682
-0.701138
-2.4854
-2.75218
-2.50187
-2.34589
-2.20822
-2.07601
-1.94905
-1.8175
-1.68114
-1.52496
-1.29593
-1.02873
-0.987009
-1.30565
-1.34407
-3.66494
-5.14401
-3.70954
-4.3235
-4.77089
-5.14271
-5.41438
-5.59631
-5.86297
-5.93584
-6.40017
-7.04165
-7.02758
-6.25107
-5.18465
-4.31333
-3.48687
-3.34886
-2.8924
-2.35102
-0.127356
-0.0751288
-1.09095
-2.3597
-2.04431
-1.48377
-1.42165
-0.615824
-1.42949
-1.27645
-0.893026
-1.10012
-1.14108
-1.16004
-0.320393
-0.906429
-2.75774
-2.87784
-1.50785
-2.80886
-2.63291
-2.43938
-2.27035
-2.11738
-1.98824
-1.85777
-1.71181
-1.55163
-1.33988
-1.04187
-0.854568
-1.42532
-1.24312
-3.02802
-5.35441
-3.71655
-4.26388
-4.83766
-5.22326
-5.53809
-5.71455
-5.96782
-6.09299
-6.53499
-7.22946
-7.30662
-6.56488
-5.4542
-4.46455
-3.74463
-3.09877
-3.01343
-2.69328
-0.0337498
-1.17538
-0.421258
-0.313828
-2.61768
-2.92345
-2.49505
-2.48756
-0.0919819
-1.05354
-1.16904
-1.12752
-0.847405
-0.956277
-1.20107
-3.57145
-0.501206
-1.4807
-2.91833
-1.71927
-2.59271
-2.74735
-2.55034
-2.33702
-2.16143
-2.0259
-1.90062
-1.7449
-1.57745
-1.38168
-1.09254
-1.01111
-1.57535
-1.23879
-2.3966
-4.9804
-3.77708
-4.23117
-4.91369
-5.30034
-5.65688
-5.84304
-6.06813
-6.25401
-6.67016
-7.40629
-7.58224
-6.90031
-5.72518
-4.67346
-3.85455
-3.30277
-2.80924
-2.76656
-2.5368
-0.116341
-0.204496
-1.84483
-1.05405
-3.60341
-2.56564
-1.5182
-2.23797
-1.27691
-1.36776
-1.0311
-0.952882
-0.684936
-0.812303
-1.00578
-1.07045
-0.323988
-0.768264
-2.23324
-2.68399
-1.79961
-2.75476
-2.65979
-2.41017
-2.21546
-2.06545
-1.94571
-1.7799
-1.60106
-1.41835
-1.17472
-1.21039
-1.84571
-1.3042
-1.90637
-4.57016
-4.19124
-4.24128
-4.98352
-5.372
-5.76516
-5.98341
-6.17532
-6.40746
-6.80165
-7.57225
-7.85748
-7.25286
-6.02265
-4.88406
-4.01134
-3.38504
-2.97371
-2.59498
-2.58346
-2.41464
-0.673899
-0.319475
-0.43489
-1.05919
-1.09621
-19.567
-0.39178
-1.50413
-1.87332
-3.29847
-0.525091
-0.809696
-0.418249
-0.503009
-0.831825
-0.962665
-2.07125
-0.513496
-1.26266
-2.97575
-4.57019
-2.53591
-2.74048
-2.49071
-2.28721
-2.11015
-1.98977
-1.81755
-1.62337
-1.44911
-1.26415
-1.32736
-2.51704
-1.37508
-1.61587
-4.18677
-4.85251
-4.32502
-5.01859
-5.44121
-5.85875
-6.12875
-6.29777
-6.54589
-6.93588
-7.72886
-8.13397
-7.62708
-6.34516
-5.11233
-4.16655
-3.50089
-3.03331
-2.73008
-2.43764
-2.44823
-2.32041
-10.6369
-7.84052
-0.944969
-0.296209
-0.791307
-1.71352
-0.00266603
-0.916575
-1.89889
-1.87478
-2.35193
-0.583861
-0.452772
-2.71901
-0.892117
-0.838533
-1.14535
-0.472084
-0.71561
-2.16803
-4.07174
-1.41432
-2.74325
-2.57043
-2.38296
-2.16591
-2.02919
-1.85747
-1.64393
-1.47988
-1.34233
-1.38711
-2.1967
-1.42146
-1.49455
-3.70558
-5.6889
-4.40153
-5.00696
-5.51398
-5.93995
-6.27128
-6.43601
-6.67064
-7.07403
-7.88317
-8.41735
-8.02399
-6.69336
-5.35766
-4.33119
-3.61242
-3.12174
-2.7756
-2.55191
-2.3237
-2.3489
-2.24905
-0.258884
-0.706159
-3.03914
-0.281763
-0.68206
-1.62053
-1.26495
-0.799145
-0.719741
-1.31446
-1.46006
-0.52892
-0.613284
-1.81362
-1.73372
-0.653839
-0.874957
-0.982383
-0.557671
-1.12936
-3.29392
-9.51987
-2.6024
-2.6227
-2.49814
-2.23963
-2.0628
-1.89675
-1.66479
-1.51521
-1.41949
-1.4679
-1.8034
-1.45538
-1.47292
-3.10603
-5.8585
-4.37187
-4.97165
-5.59722
-6.01754
-6.4041
-6.58861
-6.80006
-7.20697
-8.04105
-8.69931
-8.43319
-7.07517
-5.61972
-4.5029
-3.72962
-3.20437
-2.84364
-2.58704
-2.42087
-2.24135
-2.27663
-2.19448
-13.3232
-0.245449
-0.868452
-1.70566
-15.5966
-2.01562
-1.72822
-2.54697
-0.361754
-0.874509
-0.702914
-0.297222
-0.626069
-1.21082
-1.34356
-0.617077
-0.880811
-0.962306
-0.380636
-0.720945
-2.01218
-4.55866
-1.99301
-2.62189
-2.60485
-2.33815
-2.09485
-1.92815
-1.69371
-1.55023
-1.51971
-1.53576
-1.62467
-1.5906
-1.51934
-2.54098
-5.48641
-4.48996
-4.95704
-5.69448
-6.09868
-6.52165
-6.74503
-6.9431
-7.32736
-8.20141
-8.96787
-8.84502
-7.48401
-5.90252
-4.68413
-3.84985
-3.28784
-2.90616
-2.64085
-2.44879
-2.32568
-2.18242
-2.22451
-2.15524
-0.0139133
-0.896563
-3.6312
-2.44077
-1.01541
-0.136026
-1.07899
-2.04078
-1.96215
-2.71904
-0.52876
-2.58528
-0.787866
-1.23917
-0.937348
-0.691299
-1.24671
-0.933262
-1.73942
-0.649147
-1.12144
-3.50771
-94.9473
-2.56469
-2.65656
-2.46274
-2.13672
-1.94568
-1.73717
-1.58101
-1.63288
-1.58046
-1.61399
-1.87742
-1.58424
-2.13314
-5.04675
-4.95422
-5.01549
-5.78834
-6.18271
-6.6223
-6.90077
-7.10443
-7.44421
-8.34548
-9.22608
-9.25531
-7.92423
-6.20577
-4.8736
-3.9733
-3.37316
-2.96885
-2.68923
-2.49384
-2.34882
-2.25645
-2.14278
-2.18886
-2.12852
-1.40695
-0.057247
-0.124023
-0.0589899
-0.94392
-0.284678
-0.0318064
-1.79241
-2.23389
-2.26715
-0.398624
-1.89318
-1.00788
-1.3795
-1.04252
-1.03396
-1.32807
-0.893028
-0.812677
-0.559941
-0.742731
-2.19143
-6.86013
-2.36298
-2.62046
-2.59713
-2.20038
-1.95009
-1.79335
-1.63614
-1.7298
-1.63235
-1.64974
-2.25365
-1.6704
-1.93964
-4.66972
-5.68861
-5.15182
-5.84606
-6.26694
-6.71313
-7.04483
-7.28036
-7.57004
-8.46472
-9.46826
-9.65559
-8.39016
-6.52683
-5.07231
-4.09855
-3.45752
-3.02986
-2.73779
-2.53213
-2.38603
-2.27643
-2.20762
-2.11757
-2.16732
-2.11394
-13.1771
-0.991982
-0.0367848
-0.0879128
-0.119968
-0.207274
-0.420396
-0.338173
-1.21778
-1.84418
-2.47282
-1.76807
-0.573543
-1.13885
-1.12005
-1.11382
-1.02853
-0.995973
-0.815015
-1.46839
-0.719847
-1.16707
-4.1393
-2.33394
-2.53274
-2.68716
-2.29599
-1.95619
-1.84123
-1.74724
-1.7808
-1.69817
-1.70014
-2.34898
-1.70781
-1.87765
-4.09666
-6.53943
-5.25578
-5.84906
-6.35316
-6.80523
-7.1772
-7.45907
-7.71964
-8.56097
-9.6776
-10.0445
-8.87529
-6.87025
-5.27959
-4.22441
-3.54048
-3.08939
-2.78339
-2.57024
-2.41822
-2.30832
-2.22576
-2.1756
-2.10488
-2.15846
-2.10992
-0.64558
-3.80413
-0.0951719
-0.0921538
-0.941525
-0.049775
-0.525042
-1.72063
-8.79751
-1.57307
-1.28313
-0.214455
-0.587626
-0.802871
-0.952307
-1.04958
-1.02982
-0.984973
-0.824234
-0.856269
-0.867793
-0.776988
-2.48496
-11.8587
-2.51002
-2.64998
-2.43083
-1.9848
-1.86136
-1.90377
-1.8196
-1.77268
-1.75441
-2.18698
-1.76908
-1.88337
-3.45046
-6.57143
-5.18363
-5.82594
-6.45209
-6.90577
-7.30033
-7.62834
-7.89335
-8.65328
-9.83857
-10.4052
-9.38713
-7.23817
-5.49113
-4.35088
-3.6219
-3.14603
-2.82681
-2.60614
-2.44917
-2.33525
-2.25394
-2.19127
-2.15634
-2.10192
-2.16119
-2.118
-1.10085
-2.24037
-1.28711
-21.7146
-0.178313
-0.111957
-0.121256
-1.76263
-1.81471
-0.11304
-0.719202
-0.540077
-0.790645
-1.11783
-1.3918
-0.83005
-0.919498
-1.23396
-0.806109
-0.852059
-5.18361
-0.73729
-1.35833
-5.52156
-1.60718
-2.46078
-2.58817
-2.04805
-1.91369
-2.04043
-1.88518
-1.84884
-1.82183
-2.08023
-1.94476
-1.91366
-2.91473
-6.22733
-5.3941
-5.84277
-6.57228
-7.01766
-7.41749
-7.77726
-8.08155
-8.76694
-9.93879
-10.7269
-9.92582
-7.6336
-5.70723
-4.47574
-3.69841
-3.19989
-2.8679
-2.63976
-2.47737
-2.36109
-2.27669
-2.21599
-2.17032
-2.14855
-2.1096
-2.17574
-2.13607
-0.445768
-7.12075
-0.711416
-1.12406
-0.0362025
-0.449924
-2.31821
-0.0932515
-2.16882
-0.654519
-0.118773
-0.907494
-0.802213
-0.977101
-1.15281
-0.203344
-0.844841
-1.3497
-0.623601
-0.854325
-1.08312
-0.997575
-0.833868
-3.27908
-137.074
-2.24691
-2.69563
-2.14553
-2.01676
-2.08372
-1.98367
-1.91312
-1.89712
-2.054
-2.33456
-1.98166
-2.6054
-5.87441
-5.91687
-5.95985
-6.69841
-7.13176
-7.53274
-7.89811
-8.26235
-8.91236
-10.0038
-10.9679
-10.5015
-8.06641
-5.92363
-4.59066
-3.76959
-3.25127
-2.90885
-2.67189
-2.5045
-2.38557
-2.29879
-2.23537
-2.19279
-2.16115
-2.15123
-2.12596
-2.20166
-2.16794
-0.272725
-0.650348
-1.86235
-0.0278045
-0.101575
-0.031171
-1.54774
-0.304727
-0.734939
-0.982363
-1.23879
-0.641717
-1.1103
-0.634478
-1.02582
-1.15259
-0.647112
-1.14726
-1.13676
-1.09326
-0.775813
-0.238178
-0.731311
-1.7534
-9.10349
-2.22098
-2.62204
-2.29329
-2.16003
-2.11514
-2.09284
-1.97506
-1.98033
-2.0822
-2.60948
-2.06235
-2.46965
-5.43925
-6.69169
-6.16098
-6.78834
-7.2337
-7.64442
-7.99772
-8.4249
-9.08626
-10.1105
-11.1155
-11.0894
-8.5435
-6.12858
-4.70184
-3.84775
-3.31034
-2.95121
-2.69999
-2.52727
-2.40685
-2.31778
-2.25315
-2.2101
-2.18081
-2.16199
-2.16378
-2.15258
-2.2409
-2.21365
-1.59754
-0.059405
-0.0991794
-0.18789
-0.0109909
-0.627865
-0.102465
-0.26685
-1.33729
-0.213996
-1.61481
-0.0713125
-1.10926
-0.927654
-0.71911
-1.2119
-0.482466
-0.965158
-1.07115
-2.95626
-0.771949
-1.17909
-0.96685
-1.00478
-4.39866
-0.506744
-2.31882
-2.51286
-2.32735
-2.18313
-2.19002
-2.06205
-2.07269
-2.14283
-2.77743
-2.11691
-2.38846
-4.77998
-7.34545
-6.25691
-6.82809
-7.32277
-7.74902
-8.08598
-8.54728
-9.25786
-10.3026
-11.2531
-11.5616
-9.05124
-6.33158
-4.83599
-3.94005
-3.3519
-2.9446
-2.68179
-2.51776
-2.40647
-2.32432
-2.26766
-2.22707
-2.19543
-2.17932
-2.17287
-2.18654
-2.18931
-2.29545
-2.27625
-1.59466
-0.0676813
-0.0601762
-0.00602085
-0.153309
-0.286773
-0.239611
-0.0195032
-1.57421
-2.4815
-0.992873
-0.883451
-0.806925
-1.21474
-2.64419
-0.954726
-1.01382
-0.814639
-0.845202
-7.90675
-0.808861
-0.605584
-1.57568
-0.742537
-2.52094
-42.617
-1.93782
-2.80995
-2.45256
-2.29761
-2.2955
-2.15818
-2.17813
-2.22039
-2.70407
-2.17205
-2.40191
-4.09732
-7.34661
-6.23534
-6.85086
-7.4179
-7.84668
-8.17606
-8.63272
-9.41604
-10.5827
-11.5129
-11.8284
-9.63312
-6.58575
-5.00517
-4.00266
-3.31291
-2.90271
-2.68238
-2.53842
-2.42746
-2.34309
-2.2834
-2.23702
-2.20747
-2.19279
-2.1881
-2.19402
-2.22029
-2.2382
-2.36889
-2.35863
-0.0339882
-0.268696
-0.292374
-0.0494492
-0.372025
-0.0764881
-0.0609025
-0.584466
-0.196778
-1.31321
-0.08819
-1.13872
-0.822381
-1.02064
-1.16586
-0.515683
-0.95172
-0.454865
-0.703191
-1.61696
-0.743925
-0.738599
-4.64934
-0.797651
-1.40469
-7.05943
-1.47059
-2.95683
-2.53216
-2.44474
-2.3639
-2.26394
-2.29543
-2.31885
-2.63292
-2.40104
-2.44831
-3.57774
-7.13086
-6.53769
-6.93666
-7.53106
-7.92949
-8.26551
-8.6931
-9.55112
-10.9581
-12.0279
-12.0123
-10.3394
-6.99804
-5.1585
-3.95013
-3.23682
-2.91006
-2.71957
-2.56974
-2.45324
-2.3659
-2.30195
-2.25131
-2.21993
-2.20444
-2.19952
-2.20675
-2.22608
-2.26707
-2.3025
-2.46366
-2.46398
-0.0517835
-25.2058
-6.00627
-0.310798
-4.81051
-0.0515451
-0.00247515
-1.82837
-0.445649
-0.651403
-0.528902
-0.3109
-0.949561
-0.129619
-1.15656
-1.25861
-0.906757
-1.39685
-0.718674
-1.09424
-0.908724
-0.806538
-0.997524
-1.2187
-0.882871
-3.83745
-6.0101
-2.77246
-2.64641
-2.58996
-2.4426
-2.38143
-2.42554
-2.43551
-2.63232
-2.78648
-2.52882
-3.28081
-6.93052
-7.21918
-7.11337
-7.63899
-7.98699
-8.34407
-8.74768
-9.64291
-11.3817
-12.7857
-12.4531
-11.1859
-7.58515
-5.15981
-3.82875
-3.23125
-2.95529
-2.73358
-2.56045
-2.44339
-2.36386
-2.30507
-2.26177
-2.23373
-2.21498
-2.20853
-2.21569
-2.23641
-2.26993
-2.32814
-2.3839
-2.58642
-2.5982
-0.364854
-0.426574
-0.964276
-1.80992
-0.270235
-0.000428223
-0.00591393
-2.48682
-0.755234
-0.844467
-0.350334
-2.03647
-0.754538
-0.880745
-0.55831
-1.27519
-0.830991
-1.01279
-0.181979
-0.989223
-2.20464
-1.11302
-0.637191
-1.51076
-0.742581
-2.21253
-7.8931
-2.54455
-2.79774
-2.72055
-2.56761
-2.5134
-2.57074
-2.56687
-2.68357
-3.13885
-2.60907
-3.0802
-6.50683
-7.99762
-7.28807
-7.69531
-8.01425
-8.40654
-8.82809
-9.69899
-11.8166
-13.7678
-13.4793
-12.3751
-8.32131
-5.05998
-3.77149
-3.29366
-2.96193
-2.701
-2.53746
-2.43538
-2.36195
-2.30761
-2.26727
-2.23912
-2.22176
-2.2161
-2.22245
-2.24156
-2.27647
-2.32648
-2.40771
-2.48724
-2.74352
-2.76777
-0.0779804
-0.930229
-0.869251
-0.115289
-0.103
-0.0659052
-0.179893
-0.166685
-0.0562122
-1.36979
-4.2146
-1.63926
-0.108186
-1.21668
-1.42928
-0.843389
-0.823023
-0.796473
-1.35007
-0.700809
-1.32163
-0.463147
-0.640556
-2.74685
-0.884828
-1.38412
-4.92352
-2.8497
-2.99379
-2.85342
-2.70022
-2.66334
-2.72934
-2.71446
-2.76939
-3.42893
-2.64369
-2.98525
-5.83284
-8.22961
-7.2129
-7.70418
-8.03657
-8.47973
-8.94757
-9.74795
-12.0605
-15.0136
-15.163
-14.2169
-8.96153
-4.92886
-3.78854
-3.31745
-2.91216
-2.65278
-2.50966
-2.41372
-2.34745
-2.3006
-2.26667
-2.24155
-2.22657
-2.22125
-2.22717
-2.2459
-2.27887
-2.33044
-2.40042
-2.50871
-2.6176
-2.94582
-2.97962
-0.566367
-0.251643
-3.87133
-2.33728
-0.00697911
-0.0514489
-0.207728
-0.229458
-1.3092
-0.0587223
-1.85218
-0.18241
-1.10118
-0.365683
-1.13878
-0.12601
-0.852888
-0.51814
-0.87736
-0.555571
-0.827386
-0.288143
-0.911063
-0.795842
-1.63792
-0.928182
-3.62273
-12.2319
-3.17205
-2.95797
-2.85774
-2.83125
-2.90157
-2.87594
-2.88561
-3.53951
-2.68193
-2.98779
-5.14084
-8.17876
-7.33971
-7.73477
-8.1149
-8.57983
-9.09744
-9.82261
-11.8474
-16.0913
-17.4539
-17.1835
-9.76342
-4.95335
-3.83224
-3.24883
-2.82141
-2.59751
-2.46302
-2.37652
-2.32181
-2.2857
-2.25952
-2.24022
-2.22768
-2.22324
-2.22948
-2.24785
-2.2806
-2.32914
-2.40005
-2.49474
-2.63777
-2.78252
-3.20241
-3.24057
-0.452111
-36.0969
-1.12994
-250.42
-1.73911
-0.0255214
-0.538543
-0.0613072
-0.247773
-0.165903
-0.928446
-0.446554
-0.619184
-1.57815
-0.955942
-1.61347
-0.770079
-2.73721
-0.669836
-4.77814
-0.589528
-1.16172
-0.958419
-0.551648
-4.13402
-0.816932
-2.18867
-6.67015
-3.23812
-3.00226
-3.04212
-3.02333
-3.08764
-3.04915
-3.02043
-3.44678
-2.69678
-3.03586
-4.61362
-8.04543
-7.72518
-7.89039
-8.28281
-8.68677
-9.24435
-9.87588
-11.2399
-14.7822
-20.8766
-21.0134
-11.3297
-5.16578
-3.81551
-3.12767
-2.71006
-2.51438
-2.39591
-2.32502
-2.28507
-2.25923
-2.24285
-2.23195
-2.22435
-2.22303
-2.22977
-2.24733
-2.27855
-2.32603
-2.3937
-2.48865
-2.61483
-2.80108
-2.98987
-3.52949
-3.56099
-9.48036
-1.3122
-2.36857
-3.47561
-5.64232
-1.63355
-0.441429
-0.20521
-0.938255
-0.0479928
-0.603009
-0.52057
-0.732959
-1.5173
-1.48835
-1.32892
-0.387168
-0.986909
-0.452343
-1.0747
-0.590625
-1.47968
-0.835689
-0.560025
-5.87719
-0.914884
-1.46063
-4.09349
-3.19036
-3.14767
-3.24824
-3.24269
-3.28903
-3.2361
-3.17846
-3.42182
-3.14269
-3.1242
-4.19817
-7.91417
-8.16761
-8.08921
-8.36772
-8.72488
-9.34524
-9.83542
-10.7753
-11.3577
-20.6494
-23.5687
-14.5235
-5.49182
-3.72324
-2.91453
-2.57434
-2.39266
-2.29911
-2.25457
-2.23126
-2.22075
-2.21621
-2.21518
-2.21535
-2.21906
-2.22734
-2.24454
-2.27483
-2.32023
-2.38568
-2.47666
-2.601
-2.76673
-3.00865
-3.25145
-3.94358
-3.94716
-0.2508
-17.0029
-1.30355
-0.870737
-2.62165
-0.398182
-1.21587
-2.40311
-0.160545
-1.1199
-0.388795
-0.108251
-1.12762
-0.103411
-0.990179
-0.680189
-1.21676
-0.752679
-1.50118
-0.847689
-2.70139
-0.707974
-0.553999
-0.229927
-0.536382
-1.2694
-1.09674
-3.53265
-4.5808
-3.39646
-3.47664
-3.48695
-3.50679
-3.43505
-3.3556
-3.47219
-3.51329
-3.20545
-3.92541
-7.64404
-8.39575
-8.30323
-8.58258
-8.78599
-9.3005
-9.39057
-8.64665
-6.38939
-9.39083
-26.0048
-18.5857
-5.93009
-3.60609
-2.63047
-2.37979
-2.2382
-2.17199
-2.156
-2.15826
-2.16686
-2.17788
-2.188
-2.19846
-2.20821
-2.22075
-2.23953
-2.26849
-2.31249
-2.37563
-2.46237
-2.58094
-2.74319
-2.95902
-3.271
-3.57492
-4.46157
-4.40913
-0.10397
-2.58246
-8.33427
-2.97877
-9.6409
-1.5189
-0.0435126
-1.15746
-0.456469
-0.33487
-0.420948
-2.49428
-0.371816
-1.68187
-0.673822
-5.46949
-0.764666
-0.117881
-0.793563
-0.569432
-1.01926
-0.673309
-2.14849
-2.60064
-0.650497
-1.66839
-1.0326
-2.50499
-7.11782
-3.54985
-3.71033
-3.75737
-3.7423
-3.64864
-3.54662
-3.56271
-3.85456
-3.267
-3.64762
-7.1992
-8.5872
-8.34019
-8.6738
-8.68189
-9.18602
-8.8867
-7.3236
-3.36895
-2.48634
-8.28267
-32.3146
-7.40685
-3.13255
-2.27189
-2.03322
-2.02861
-2.01729
-2.02798
-2.06007
-2.09479
-2.12381
-2.14915
-2.17124
-2.19038
-2.20928
-2.23135
-2.26035
-2.30286
-2.36275
-2.44539
-2.55891
-2.71375
-2.92365
-3.20097
-3.60174
-3.97137
-5.10623
-4.95463
-2.06626
-0.506261
-0.877173
-43.5175
-3.94145
-2.85029
-2.40415
-0.585786
-0.0124249
-2.97645
-0.825184
-1.51302
-1.62791
-1.32002
-3.25556
-1.33837
-0.533593
-1.66681
-0.606065
-0.523693
-0.683228
-0.333218
-1.13109
-0.893201
-0.852424
-2.21227
-1.16083
-1.75756
-5.67796
-3.55663
-3.95187
-4.06298
-3.99518
-3.88939
-3.74217
-3.67516
-4.05025
-3.2631
-3.4916
-6.68124
-8.72173
-8.19942
-8.93206
-9.01789
-9.11408
-8.22261
-5.9542
-2.84024
-1.25992
-1.13134
-93.4982
-11.1105
-3.66175
-1.99162
-1.5523
-1.69572
-1.80855
-1.87239
-1.93244
-1.99644
-2.05205
-2.095
-2.13236
-2.16395
-2.19128
-2.21832
-2.25003
-2.29101
-2.34812
-2.42669
-2.53477
-2.68109
-2.88011
-3.15018
-3.50669
-4.01232
-4.44996
-5.90135
-5.56617
-2.96556
-6.22724
-0.477734
-0.362468
-1209.95
-3.95252
-0.794424
-0.261753
-2.17544
-1.56397
-1.86921
-2.43161
-0.4444
-0.733751
-1.1614
-0.393186
-1.62771
-0.968114
-0.667714
-1.27156
-0.523689
-1.2615
-0.86276
-1.07904
-1.79937
-2.86174
-1.32064
-1.34815
-4.2195
-3.97457
-4.25812
-4.40119
-4.26701
-4.15792
-3.94652
-3.80809
-4.08245
-3.13527
-3.37661
-6.06847
-8.98681
-8.11689
-8.83098
-8.9761
-9.0515
-8.13116
-5.47462
-2.58715
-1.02016
-0.338633
-0.183876
-22.0833
-1.2338
-1.80482
-1.44384
-1.15838