/*--------------------------------*- C++ -*----------------------------------*\
| =========                 |                                                 |
| \\      /  F ield         | OpenFOAM: The Open Source CFD Toolbox           |
|  \\    /   O peration     | Version:  v2012                                 |
|   \\  /    A nd           | Website:  www.openfoam.com                      |
|    \\/     M anipulation  |                                                 |
\*---------------------------------------------------------------------------*/
FoamFile
{
    version     2.0;
    format      ascii;
    class       volScalarField;
    location    "0";
    object      I2_1;
}
// * * * * * * * * * * * * * * * * * * * * * * * * * * * * * * * * * * * * * //

dimensions      [0 0 0 0 0 0 0];


internalField   nonuniform List<scalar> 
27324
(
0.0397002
0.0428906
0.0728325
0.0442562
0.0749383
0.0780192
0.0450803
0.0750023
0.0790003
0.0790757
0.0457125
0.0751002
0.0787905
0.0795091
0.0777165
0.0466938
0.0751626
0.0787052
0.0793526
0.0775153
0.0714627
0.0481624
0.0756088
0.078752
0.079271
0.0776164
0.0708832
0.0600705
0.0500609
0.0764787
0.0791925
0.079493
0.0777654
0.0717046
0.0594997
0.0422864
0.0516716
0.0775324
0.079928
0.0801143
0.0781798
0.07226
0.0613719
0.0398102
0.0185294
0.052527
0.0782654
0.0806948
0.0809209
0.0787924
0.0728713
0.0618064
0.0420844
0.0122488
0.000181664
0.0530202
0.0784996
0.0812518
0.0816398
0.0794765
0.0735368
0.062093
0.0411467
0.0131431
0.000691041
0.00502368
0.053798
0.0785885
0.0816195
0.0821536
0.0801937
0.0743223
0.0625226
0.039696
0.0105779
0.000123762
0.0131934
0.00797977
0.0558183
0.079064
0.0821085
0.0825923
0.0810553
0.0754885
0.0634095
0.0382602
0.00860555
0.000413882
0.00824831
0.0196652
0.00939213
0.0589758
0.080368
0.0829419
0.0832752
0.0822015
0.0772357
0.0649264
0.0375427
0.00759821
0.000567151
0.00979286
0.0134044
0.0224671
0.0102522
0.0618086
0.082057
0.0840774
0.0842757
0.0836216
0.079224
0.0668234
0.0375883
0.00780438
0.000567183
0.0104708
0.015271
0.0147421
0.0243788
0.0109639
0.0633774
0.083184
0.0849399
0.0853755
0.084972
0.0809663
0.0677397
0.0380279
0.00854898
0.000464447
0.0114376
0.0152741
0.0158116
0.0159858
0.0260298
0.0114458
0.0636142
0.0834077
0.0851962
0.0860907
0.0859217
0.0816454
0.0670165
0.0371903
0.00919718
0.000550526
0.0126455
0.0157221
0.0151502
0.0172924
0.0172248
0.026928
0.0116573
0.0637763
0.0830554
0.0850996
0.086435
0.0863726
0.0814161
0.0641809
0.0348201
0.00859271
0.00099547
0.0142449
0.0164444
0.0154766
0.0167276
0.018683
0.017823
0.0273493
0.0114677
0.0653987
0.0833143
0.0853892
0.0868322
0.0867353
0.0808511
0.0615259
0.0313601
0.00686557
0.00239325
0.0160072
0.0175118
0.0163808
0.0168912
0.0182235
0.0194684
0.0181203
0.0270976
0.011407
0.0683813
0.0848452
0.0867957
0.0880051
0.0875343
0.0811946
0.0607393
0.0303833
0.00476476
0.00494203
0.0174345
0.0184165
0.0178888
0.0176303
0.0180129
0.019055
0.0198731
0.0179603
0.0270527
0.0113148
0.0714
0.0869287
0.0889397
0.0900288
0.0891255
0.0823928
0.064244
0.0329663
0.00419595
0.00771812
0.0176782
0.0187485
0.019186
0.0190186
0.0181743
0.0188118
0.0195668
0.0196932
0.0176896
0.0269429
0.0111926
0.0740768
0.0886696
0.090801
0.0921531
0.0909606
0.0840094
0.0683344
0.0392171
0.00459623
0.00933363
0.0174594
0.0184125
0.020066
0.020306
0.0191366
0.0186477
0.0195704
0.0195452
0.019407
0.017408
0.0266871
0.0109554
0.0762631
0.0900453
0.0921508
0.0937188
0.0924042
0.0850119
0.0708986
0.042815
0.00502496
0.0104038
0.0180261
0.0181527
0.0199619
0.0214979
0.0204565
0.0191578
0.0196014
0.0198599
0.0194135
0.0191798
0.0171686
0.0257904
0.0112562
0.0784751
0.091532
0.0934486
0.0951087
0.0934909
0.0854272
0.0695233
0.0412093
0.00304901
0.012332
0.0193642
0.0187338
0.0198293
0.0221261
0.0218819
0.0203822
0.0198239
0.0202532
0.0200122
0.0192629
0.0189192
0.0167004
0.025326
0.0111454
0.0811615
0.0937325
0.0954262
0.097002
0.0951914
0.0862382
0.0667034
0.0325678
0.000404354
0.0161375
0.0208808
0.020444
0.0199407
0.0222992
0.0229602
0.0219127
0.0206915
0.0205651
0.0204513
0.0199012
0.0189497
0.0183734
0.0166358
0.0246005
4.13459e-05
0.0849035
0.0967508
0.0983309
0.0998681
0.0978954
0.0884534
0.0644804
0.0244597
0.000676098
0.0201306
0.0222774
0.0222813
0.0214363
0.0221305
0.0233194
0.0230717
0.0217867
0.0208943
0.0207116
0.0203408
0.0194164
0.0183573
0.0183295
0.0172946
0.0109301
0.0396741
0.0902949
0.100657
0.102051
0.103259
0.101115
0.091188
0.0645542
0.0194247
0.002591
0.0222449
0.0231586
0.0238617
0.0232274
0.0226583
0.0231339
0.0238986
0.0226696
0.0216179
0.0207317
0.020669
0.0198309
0.0187874
0.0184229
0.0188465
0.0167392
0.0424976
0.00876529
0.0952719
0.105746
0.106597
0.107016
0.103432
0.0926385
0.064352
0.0180063
0.00286986
0.0226138
0.0240392
0.0240244
0.025001
0.0239904
0.0229707
0.0240943
0.0235939
0.0226608
0.021072
0.0208646
0.0204412
0.019283
0.0190119
0.0189631
0.0191155
0.000147627
0.0325304
0.0157106
0.0990338
0.111381
0.112161
0.111487
0.105429
0.0907646
0.0617631
0.0160401
0.00185199
0.0211995
0.0252059
0.0242302
0.0254146
0.0259214
0.0238354
0.0238715
0.024269
0.0239759
0.0221452
0.0210583
0.0211865
0.020009
0.019624
0.0195965
0.0189943
0.00540974
0.0539104
0.0253251
0.00359102
0.102609
0.117572
0.118138
0.117307
0.108558
0.0884696
0.0548225
0.0130123
0.00165475
0.0187308
0.0254296
0.0255392
0.0257274
0.0267928
0.0260535
0.0237298
0.0242638
0.0252802
0.0237122
0.0215479
0.0218276
0.0209369
0.0202756
0.0199138
0.0191574
0.0132709
0.0636645
0.0230548
0.000526575
0.0145269
0.106068
0.125742
0.12513
0.123057
0.114762
0.0891366
0.0502843
0.0092146
0.00319961
0.0190882
0.0253218
0.026583
0.0264459
0.027544
0.0276943
0.0256969
0.0237098
0.0254337
0.0255224
0.0225091
0.0220951
0.0217575
0.0209038
0.0200605
0.0198104
0.0160711
0.00578036
0.018016
0.00927744
0.031442
0.000455601
0.00278689
0.134952
0.134606
0.12961
0.120453
0.0974377
0.0519867
0.00966228
0.00625467
0.0236186
0.0270954
0.0271128
0.0272173
0.0273079
0.0289068
0.0278473
0.0250703
0.0244884
0.0265379
0.0239822
0.022115
0.0223968
0.0211104
0.0203065
0.02101
0.0192574
0.00483
0.00381149
0.0252807
0.0368653
0.00158853
0.00191761
0.0169706
0.0737635
0.139362
0.138496
0.126693
0.105628
0.0654275
0.0147544
0.00662017
0.0285173
0.0304649
0.028846
0.0280218
0.0275791
0.0289482
0.0289446
0.0271922
0.0233405
0.0268746
0.025276
0.0224406
0.0224815
0.0214085
0.0211035
0.0218305
0.0282806
0.0146642
0.00295953
0.0422049
0.0466304
0.00514482
0.0113396
0.00186856
0.0172728
1.44047e-05
0.0841002
0.140814
0.136167
0.113515
0.0792383
0.027255
0.00362054
0.0301459
0.0335056
0.0313135
0.0298571
0.0284861
0.0284692
0.0300112
0.0294683
0.0246088
0.0258242
0.0262082
0.0236412
0.0217736
0.022602
0.0221457
0.0250141
0.0329917
0.00857075
0.00385654
0.0520134
0.0538293
0.0167634
0.00892843
0.00109046
0.000506845
0.0341993
0.000694508
3.81385e-06
0.0563563
0.125754
0.1274
0.0933018
0.0410407
0.00077386
0.027326
0.0338646
0.0335016
0.0324139
0.0302885
0.0288478
0.0290574
0.031774
0.0277632
0.0249552
0.0271506
0.0254825
0.021233
0.0252792
0.0227884
0.0336563
0.0267925
0.0481991
0.000143661
0.0411112
0.0599227
0.0287287
0.00892874
0.000162943
0.00279148
9.9316e-08
0.0762618
0.070848
0.00100032
0.00117498
0.0100063
0.0927133
0.120723
0.0669625
5.15884e-05
0.0208375
0.0290531
0.0339471
0.0338283
0.0335688
0.0307076
0.0286055
0.0328532
0.030848
0.026999
0.0263288
0.0282026
0.0225287
0.0256888
0.0313101
0.0334165
0.00371678
0.0245223
3.48677e-06
0.0205255
0.056575
0.0275277
0.00399122
0.00186822
0.00363513
0.000158398
0.000166071
0.0771862
0.0927535
0.0649554
0.00223321
0.00866304
0.000156449
0.0537247
0.1099
0.022312
0.0136482
0.018769
0.0338033
0.0322067
0.0363229
0.0342181
0.0310746
0.0307992
0.0318841
0.0316055
0.0231637
0.0313365
0.0244821
0.0288891
0.0345156
0.00820346
0.0496386
0.00775908
0.000687886
0.0070474
0.0421567
0.0104577
0.000112449
0.00303795
0.00455463
0.00157702
0.000152938
0.00073369
0.074536
0.0921959
0.0898169
0.0592242
0.0108045
0.0186292
0.00178803
0.0130963
0.0649512
0.0263145
0.00478921
0.0254292
0.0320874
0.0337094
0.0376101
0.0347593
0.0305723
0.0293775
0.0345036
0.0258016
0.03011
0.032688
0.033651
0.0148979
0.0493496
0.0155344
0.00471281
0.00264061
0.00125184
0.0233011
0.00196727
0.00188551
0.00349913
0.00527908
0.00412613
6.17357e-06
0.00113452
0.00184618
0.0722692
0.0883493
0.0878275
0.0867985
0.0431987
0.0229349
0.0259572
0.00147865
0.00162137
0.0313434
0.0728423
0.00339878
0.0257658
0.0287411
0.0355518
0.0383422
0.0323245
0.0272853
0.0347103
0.0325609
0.0262876
0.0347869
0.0184158
0.054472
0.0172151
0.00434341
0.0059687
0.00624256
3.81994e-06
0.00779094
9.59646e-05
0.00102113
0.00213816
0.00606409
0.00629169
0.000285889
0.000303617
0.0032648
0.00334432
0.0706513
0.0858581
0.0828644
0.0839364
0.0836567
0.00984645
0.0226801
0.030629
0.00141773
0.000610628
0.0110954
0.0675113
0.0161155
0.0178701
0.0302528
0.0356415
0.0336412
0.0307858
0.0327427
0.0341856
0.0247306
0.00116437
0.0428609
0.0144635
0.00353095
0.00396374
0.0104549
0.014164
0.00211356
0.00117626
4.94159e-05
0.000365754
0.00165217
0.00725757
0.00928301
0.00110676
0.000116588
0.00128615
0.00647058
0.00507384
0.0704506
0.0843861
0.0817369
0.0829434
0.0821369
0.0797944
0.0188957
0.0131098
0.0351743
0.00152627
0.000494931
0.00165456
0.0205062
0.0758834
0.0365962
4.96865e-05
0.0126273
0.0246936
0.0216159
0.000251143
0.0549391
0.0254921
0.0143395
0.00186302
0.0034609
0.00677385
0.0171794
0.0458395
0.0192052
9.36629e-06
0.000214573
1.63218e-05
0.00112577
0.00914464
0.0116772
0.00252186
2.62352e-06
0.000905566
0.00301475
0.0104029
0.00681371
0.0732508
0.0850249
0.0832348
0.0852337
0.0862708
0.0821735
0.068982
0.0298845
0.00534708
0.0415166
0.00129033
8.96475e-05
0.000754443
0.00298321
0.0197094
0.0255241
0.0238248
0.0883997
0.00863563
0.0267746
0.0159044
0.00299566
0.00278083
0.00225506
0.00572912
0.0111295
0.0382401
0.0682874
0.000331603
0.000545846
0.000280378
1.74764e-05
0.000818217
0.0121218
0.0126274
0.00582901
8.22772e-05
0.000500165
0.00245602
0.00544069
0.0146715
0.00751634
0.0760388
0.0876672
0.0866365
0.0885462
0.0898357
0.0871768
0.0815871
0.0481865
0.0122694
0.000647105
0.049251
0.000500587
7.54166e-06
0.000404255
0.00127007
0.0033349
0.00246866
0.0063156
0.00206753
0.00239775
0.00223495
0.00127811
0.00317046
0.00526045
0.00918371
0.0263342
0.0803869
0.0038798
0.00133153
4.93469e-05
0.000247852
2.18311e-05
0.00065063
0.0165372
0.0125596
0.00966456
0.000482613
0.000227885
0.00171323
0.00480417
0.00849658
0.0169592
0.00640599
0.0807287
0.0906169
0.0893228
0.0911964
0.0922339
0.0892618
0.0845232
0.0779228
0.00267281
0.00253082
0.000471465
0.0341405
0.000126533
0.000175695
0.000408932
0.00131244
0.00127027
0.000561754
0.00271646
0.000617107
0.00275447
0.00317084
0.00522182
0.00954981
0.0300052
0.0779034
0.00456994
0.000761025
0.00154519
8.91801e-05
0.00016437
3.16384e-06
0.000539429
0.0210596
0.0124423
0.0126148
0.00154538
5.08673e-05
0.00117538
0.00367198
0.00809811
0.0106031
0.0152772
0.00176209
0.084118
0.0951276
0.0934684
0.0924144
0.0929843
0.0900708
0.0866175
0.0799813
0.0663572
0.0208871
0.00046132
0.00513363
0.0661453
0.0121454
0.0177234
0.01093
0.00465331
0.00267288
0.00322243
0.0020384
0.00539538
0.00717962
0.0150043
0.0495068
0.0714828
0.00252648
0.00056823
0.00142186
0.000482247
7.43184e-06
7.64845e-05
0.000125869
0.000459955
0.0234116
0.0129128
0.0154654
0.0033597
4.12306e-06
0.000749746
0.00277638
0.00679063
0.010796
0.00998436
0.00623313
0.00140681
0.0841044
0.0963545
0.0958354
0.0942113
0.0931491
0.0899885
0.0877917
0.0845751
0.0691328
0.0339169
0.0024526
9.54802e-05
0.0179207
0.0181654
0.00129773
0.00390207
0.120229
0.0670329
0.0357285
0.0301926
0.0399082
0.0629509
0.0838669
0.0253693
0.000793422
0.00051856
0.00178982
0.000836502
5.23917e-05
8.66143e-05
1.51232e-05
0.000394811
0.00045689
0.0218247
0.0152175
0.0166396
0.00596525
0.000173067
0.000422656
0.00201231
0.00562002
0.00984082
0.0105879
0.00420751
0.000222667
0.0117475
0.0829217
0.0947905
0.0935729
0.0922345
0.0918573
0.0894181
0.0881171
0.0876332
0.0729423
0.0408904
0.00531575
0.000594983
3.90723e-05
0.0188555
0.00581613
0.00679948
0.0162928
0.00611397
8.26148e-05
0.00872702
0.0103942
0.00249511
0.00013467
0.000479098
0.00124997
0.00197961
0.000906239
0.000166532
9.05603e-06
0.000185522
2.51858e-10
0.000690153
0.000573783
0.0173899
0.0228008
0.0161567
0.00976622
0.000703268
0.000176808
0.00140789
0.00444584
0.00893091
0.0101825
0.00486923
0.000408048
0.00968635
0.0220207
0.0813084
0.0930937
0.0908632
0.0894154
0.0889021
0.0874981
0.0879943
0.0883171
0.0743518
0.0475741
0.0319393
0.00539332
5.13866e-05
0.000349428
0.0119395
0.000711604
0.0137516
0.0066354
0.00533556
0.00249501
0.000984942
0.0005717
0.000721081
0.00143426
0.00131421
0.000567189
0.000178721
8.47827e-06
4.94828e-05
0.000116919
2.31387e-05
0.00109287
0.000990378
0.0126869
0.0373881
0.014607
0.0137054
0.00177344
2.44491e-05
0.000950913
0.00338498
0.00784149
0.00984461
0.00503851
0.000232353
0.0103428
0.0208253
0.0274409
0.0798543
0.0903116
0.0886423
0.0881481
0.0873624
0.0866178
0.0883425
0.0890513
0.0736091
0.0516864
0.0430853
0.0235072
0.000117863
2.47498e-05
0.00128551
0.0456933
0.00513618
7.74836e-05
0.000253037
0.000507911
0.000766208
0.000588899
0.000276543
0.000100408
6.26369e-05
6.47073e-05
2.09236e-05
6.94404e-07
5.34506e-05
6.01919e-05
0.000137689
0.00171948
0.00200409
0.00982237
0.0524074
0.0134886
0.0165492
0.00365516
2.55386e-05
0.000596259
0.0024877
0.00666043
0.00931729
0.00522443
0.000146118
0.0100606
0.0220067
0.0266725
0.0298137
0.0819843
0.0895883
0.0865107
0.0862238
0.08664
0.086655
0.089536
0.0893546
0.0733892
0.0524029
0.0523124
0.0301257
6.90438e-06
1.44844e-06
0.000321045
0.000104918
0.0176644
0.00175455
1.27003e-05
2.15169e-05
0.000157008
0.000137735
5.96591e-05
4.06011e-06
3.95957e-07
4.43856e-06
7.04777e-06
4.40446e-07
4.1003e-05
2.03524e-05
0.000112043
0.00269965
0.00408219
0.00849881
0.0605037
0.0140215
0.0185118
0.00633986
0.000294624
0.000313084
0.00178432
0.00543363
0.0086546
0.0053033
8.03011e-05
0.00988859
0.0223979
0.0283539
0.0290546
0.0307225
0.0839853
0.0917732
0.0880053
0.0861552
0.0853476
0.0863554
0.0903482
0.0891637
0.0705245
0.0534064
0.055485
0.0368957
0.00665557
5.0222e-07
0.000222312
0.00111876
0.0751345
3.96818e-05
0.0021871
0.000133571
9.57418e-05
0.000214995
0.000156026
2.34069e-05
1.09157e-06
1.7459e-05
1.57616e-05
1.97566e-11
3.06565e-05
3.49687e-06
0.000150177
0.00289294
0.0085322
0.00854775
0.057195
0.0160493
0.019079
0.00970646
0.000985179
0.000100105
0.00125385
0.00426215
0.00784037
0.00529194
4.05813e-05
0.0097033
0.0228378
0.0293103
0.0309693
0.0298662
0.0307781
0.0882494
0.0937712
0.0894228
0.0872969
0.0859299
0.0868303
0.091026
0.0885066
0.0684555
0.053797
0.0563837
0.0375835
0.0103404
0.00246493
0.000325766
0.000126592
0.00112432
0.0743933
0.00478523
0.000137318
0.000143974
0.000142389
7.23107e-05
1.91314e-06
7.26211e-06
2.20154e-05
1.84308e-05
4.37231e-09
2.38246e-05
1.25949e-06
0.000369817
0.00125692
0.0183256
0.00974027
0.0459924
0.0293715
0.0184788
0.0133169
0.00225264
3.02611e-07
0.000851287
0.00324099
0.00687772
0.00518259
1.84126e-05
0.00954134
0.0232667
0.030298
0.0321698
0.0318991
0.0298209
0.030162
0.0920838
0.0969884
0.0905241
0.0875622
0.0863079
0.088231
0.0934376
0.0867942
0.0665236
0.0545387
0.058237
0.0333307
0.0108282
0.00573584
0.000591679
0.00013468
0.000109975
0.00105958
0.00112344
0.00072347
0.00045845
0.000136774
4.65496e-05
3.33165e-08
1.00813e-05
1.86331e-05
1.26192e-05
1.06666e-07
1.46931e-05
2.41067e-05
0.000718137
0.00583375
0.037074
0.0118617
0.0349245
0.0503068
0.0171807
0.0166284
0.00417589
0.000122629
0.000523258
0.00242126
0.00582364
0.0049667
7.22695e-06
0.00941617
0.0236947
0.0312991
0.0333977
0.0331964
0.0319284
0.0291511
0.0290532
0.0932395
0.0981526
0.0900675
0.0872052
0.086416
0.0891369
0.0949008
0.0859451
0.0638548
0.055448
0.0584827
0.0285426
0.00917477
0.00780253
0.00964387
0.00137627
3.63684e-05
0.000331005
0.0175483
0.00327462
0.000466427
4.50728e-05
2.46869e-05
6.22305e-08
3.08637e-06
8.98484e-06
7.0213e-06
2.57391e-07
4.3729e-06
9.91614e-05
0.00134177
0.0074732
0.0562819
0.0158088
0.0267163
0.0713776
0.0164386
0.0191233
0.00671297
0.000621886
0.000243595
0.00180587
0.00476799
0.00462051
2.43677e-06
0.00933749
0.0241381
0.0323103
0.0346657
0.0345063
0.0332785
0.0313031
0.0280295
0.0276344
0.0935023
0.0978658
0.0874569
0.0846217
0.0862152
0.089806
0.0952406
0.0850713
0.0603498
0.0577101
0.0577706
0.0264809
0.00505491
0.00715577
0.0115204
0.000561484
2.05859e-05
2.42764e-05
7.76066e-07
0.00577857
1.85759e-05
4.45668e-06
1.15907e-05
2.92904e-06
1.33985e-07
2.29288e-06
3.76637e-06
4.0204e-08
2.97417e-07
0.000266743
0.00225262
0.00945321
0.0322805
0.0242804
0.0238025
0.0822858
0.0174664
0.0205493
0.00973446
0.00164807
4.1766e-05
0.00134317
0.00382448
0.0041332
7.1488e-07
0.00930962
0.0246081
0.0333437
0.035959
0.0358588
0.0346235
0.0326697
0.0302115
0.0266398
0.0260632
0.0943812
0.0972338
0.0858497
0.0828412
0.0852143
0.0918377
0.0957617
0.0843306
0.0586346
0.0590617
0.0552975
0.0229118
0.00325213
0.004407
0.0088302
0.00249469
2.56983e-05
3.37295e-05
0.000231564
0.0133181
0.000792153
3.36673e-05
2.65472e-05
2.26974e-05
7.11126e-06
2.00648e-07
2.76289e-06
4.99981e-07
1.82016e-05
0.000583319
0.00343269
0.0100368
0.00163409
0.0417186
0.0246424
0.0796738
0.0243833
0.020702
0.01298
0.00325826
2.7251e-05
0.000949237
0.00307497
0.0035374
3.09329e-07
0.00933753
0.0251088
0.0344006
0.0372937
0.0372378
0.036008
0.0340297
0.031566
0.0288188
0.0251452
0.024493
0.0963375
0.0978189
0.0846004
0.0819151
0.0851602
0.0942695
0.0963071
0.0838644
0.057602
0.0608033
0.0519455
0.0174106
0.00129166
0.00256941
0.00474437
0.000585439
5.84846e-08
2.03429e-07
3.22302e-05
9.18103e-05
0.0090818
1.87182e-05
0.000106716
6.91348e-05
2.12932e-05
4.59188e-10
3.30843e-06
4.65503e-06
8.22938e-05
0.00110218
0.00485451
0.0108703
0.00285377
0.0688078
0.0281277
0.0684404
0.036588
0.0203889
0.0160956
0.0053981
0.000378654
0.000572235
0.00251776
0.00292499
1.09972e-06
0.00941576
0.0256503
0.0354862
0.0386729
0.0386492
0.0374155
0.0354229
0.0329164
0.0301363
0.0272813
0.0236771
0.0230504
0.0977359
0.0991046
0.0845817
0.0814223
0.0855667
0.0957655
0.0965099
0.0822236
0.0569569
0.0613288
0.049572
0.0163443
0.000295361
0.00171123
0.00185572
3.3623e-05
0.000351139
0.0001747
2.53094e-06
2.19608e-05
0.00132188
0.000337589
0.00024427
0.000107742
2.8011e-05
1.76384e-08
5.03974e-06
1.7677e-05
0.000226338
0.00188154
0.00645193
0.0118492
0.0105511
0.0893481
0.0344084
0.0543642
0.0632124
0.0199282
0.0187052
0.00792297
0.00125937
0.000221442
0.00209649
0.00240313
8.24237e-06
0.00952763
0.0262293
0.0366035
0.0400977
0.0401013
0.0388494
0.0368317
0.0342995
0.0314572
0.0285315
0.0257247
0.0223315
0.0218266
0.0986402
0.0997308
0.0847355
0.0825688
0.0867433
0.0973528
0.0965731
0.0796925
0.0563914
0.0634491
0.0473268
0.0160694
0.00108189
0.00257464
0.000816253
1.3092e-05
0.000633151
0.000172795
0.000103269
1.60406e-05
1.58283e-06
0.000982526
0.000348319
0.000107549
2.21712e-05
5.05263e-07
7.73845e-06
4.74972e-05
0.00049574
0.00295939
0.00817648
0.012832
0.0139074
0.0656627
0.0464486
0.0444034
0.0848814
0.0200028
0.0205368
0.0106548
0.0027369
8.40864e-06
0.00171861
0.00202511
3.37037e-05
0.00968341
0.0268392
0.037743
0.0415758
0.0415955
0.0403108
0.038265
0.0356973
0.0328064
0.0298054
0.0268898
0.0242516
0.0211989
0.0208791
0.0987196
0.0994701
0.0844652
0.0833964
0.08887
0.0989305
0.096492
0.0779518
0.0572729
0.0646443
0.0424319
0.0157266
0.00310445
0.00562801
0.000841535
1.17865e-05
0.000449937
0.000276163
0.000287462
1.12727e-05
3.2833e-06
0.000458555
0.000331471
0.000101782
1.24605e-05
1.43482e-06
1.05044e-05
0.000106413
0.000944214
0.00435914
0.00998463
0.0137545
0.0154794
0.0178278
0.0672003
0.0401869
0.0932953
0.0247799
0.0215529
0.0134593
0.00473098
0.000143407
0.00128781
0.00179941
8.1414e-05
0.00995558
0.0274496
0.0388974
0.0430951
0.0431364
0.0418075
0.0397222
0.0371108
0.0341773
0.031101
0.0280874
0.025322
0.0229558
0.0203232
0.0202564
0.0979614
0.0986187
0.0833693
0.0844742
0.0911096
0.0997756
0.0960246
0.0763257
0.0586058
0.0652798
0.0386955
0.0110405
0.00483657
0.00943051
0.00160126
5.13339e-05
4.75757e-05
8.32186e-07
2.24528e-05
3.14954e-06
7.54037e-06
6.40543e-06
7.99569e-06
0.000152156
5.6055e-06
1.81536e-06
1.29287e-05
0.000214271
0.00164508
0.00605842
0.011793
0.0146098
0.0161446
0.000381379
0.0914537
0.0406301
0.089894
0.0345656
0.0219979
0.0162023
0.00705095
0.000835835
0.000763718
0.00167509
0.000134371
0.0103906
0.0280711
0.0400341
0.0446526
0.0447326
0.0433403
0.0411998
0.0385454
0.0355617
0.0324172
0.0293118
0.0264189
0.0239059
0.0218947
0.0197422
0.0199836
0.0984195
0.0966927
0.081634
0.085673
0.0938379
0.100825
0.0955795
0.0735013
0.0589877
0.066756
0.0390253
0.00675671
0.00543786
0.0112607
0.00232999
0.000684297
1.26119e-09
4.81629e-05
9.84e-05
2.17881e-05
3.93804e-06
3.43975e-05
0.000330288
0.000251148
1.75203e-06
1.43406e-06
1.63024e-05
0.000403428
0.00266884
0.00799156
0.0134395
0.0153973
0.0166948
0.00329254
0.108659
0.0451906
0.0796591
0.0508003
0.0224722
0.018737
0.00950335
0.00217448
0.000255783
0.00154358
0.000158018
0.0109536
0.0287513
0.0411298
0.0462349
0.0463751
0.0449213
0.0427113
0.0400005
0.0369583
0.0337534
0.0305573
0.0275529
0.0248961
0.0227027
0.0210958
0.0194787
0.0200746
0.0998171
0.0959449
0.0806979
0.0868172
0.0961518
0.10121
0.0941602
0.0699459
0.0586208
0.0666688
0.0409229
0.00730407
0.00402001
0.00969656
0.00245953
0.0015395
1.00224e-05
8.91073e-05
0.000148162
4.10058e-05
5.56275e-06
1.15316e-07
6.64796e-06
9.0387e-05
1.59498e-07
1.02928e-06
2.3729e-05
0.00072175
0.0040621
0.0101053
0.0149511
0.0161616
0.0171405
0.00975184
0.0916452
0.0557554
0.0655639
0.074862
0.0235292
0.0208476
0.0119793
0.00406346
1.21513e-06
0.0012862
0.000137828
0.011497
0.0295716
0.0421702
0.0478128
0.0480732
0.0465493
0.0442543
0.0414782
0.03838
0.0351031
0.0318192
0.0287093
0.0259117
0.0235698
0.0217633
0.0205966
0.0195516
0.0205532
0.101353
0.0963151
0.0813553
0.089577
0.0984326
0.100883
0.0909705
0.0647645
0.0569759
0.0651391
0.039117
0.00950759
0.00541926
0.00510345
0.000763107
0.00173777
7.4001e-05
6.49588e-06
0.000248979
0.000311185
0.000195123
3.15347e-05
3.19298e-05
3.40744e-05
3.21763e-06
4.19719e-07
4.24443e-05
0.00123524
0.00583876
0.0122626
0.0163099
0.0169309
0.0175893
0.0142927
0.0483721
0.0721272
0.0555427
0.0904773
0.0260259
0.022452
0.0144449
0.00629426
0.000254934
0.000856335
0.000100169
0.0117983
0.0305624
0.0431857
0.0493562
0.0498163
0.0482228
0.0458396
0.0429857
0.0398138
0.0364703
0.0331063
0.0298873
0.0269586
0.0244609
0.0224967
0.0211305
0.020421
0.0199705
0.0214278
0.102926
0.0970251
0.0819156
0.0925629
0.100544
0.10014
0.0880548
0.0601186
0.0575895
0.0619906
0.036984
0.00981182
0.0100287
0.00178597
4.62014e-05
0.000505495
1.61928e-06
6.64357e-08
5.23761e-05
5.47819e-05
9.87665e-06
5.40372e-05
1.71732e-05
1.12943e-05
2.07011e-05
4.0335e-07
9.12371e-05
0.00203557
0.00804585
0.014351
0.0174458
0.0177169
0.0181331
0.0163456
0.011109
0.0922211
0.0512325
0.0963735
0.0336137
0.0237208
0.0169038
0.00867522
0.001129
0.000358259
8.35943e-05
0.0117066
0.0316029
0.0442689
0.0508307
0.0515929
0.0499417
0.0474617
0.0445187
0.0412725
0.0378525
0.0344054
0.0310856
0.0280338
0.0253874
0.0232545
0.0217114
0.0208047
0.020592
0.0207611
0.0227296
0.104895
0.098135
0.0831078
0.0946698
0.101488
0.0990605
0.084424
0.058481
0.0596967
0.0594673
0.0339304
0.0126001
0.0162083
0.00232724
3.89024e-05
3.4988e-05
9.13198e-05
1.52512e-05
1.57514e-06
4.09222e-06
9.41074e-06
4.32948e-05
2.0887e-05
5.94057e-05
4.03998e-05
9.83205e-06
0.000225118
0.00315888
0.010641
0.0163449
0.018322
0.018589
0.0187278
0.0179805
0.000160802
0.114113
0.0515886
0.0919712
0.0458975
0.0250725
0.0193158
0.0110809
0.0025441
3.01404e-05
0.000119306
0.0113012
0.0324292
0.045492
0.0522443
0.0533713
0.0517049
0.049107
0.0460797
0.0427484
0.0392562
0.0357278
0.0323045
0.0291323
0.0263447
0.024046
0.0223265
0.0212288
0.0208187
0.0211355
0.0219361
0.0244827
0.107914
0.100175
0.0843999
0.0964761
0.101369
0.0969491
0.0794551
0.0582507
0.0624355
0.0571516
0.0278
0.0160525
0.0180642
0.00351309
7.8896e-05
8.63789e-07
6.23026e-05
4.0795e-05
8.88039e-07
2.15133e-06
2.93197e-05
5.11341e-06
4.79321e-05
4.34988e-05
9.19442e-06
1.37243e-05
0.000587206
0.00459619
0.0133813
0.0182683
0.0190973
0.0195296
0.0193837
0.019166
0.00261587
0.115041
0.0564789
0.0811434
0.0624854
0.027092
0.0215709
0.0134451
0.00430257
9.41463e-05
0.00026787
0.0108809
0.0328072
0.0467811
0.0536829
0.0551296
0.053482
0.0507756
0.0476474
0.0442602
0.0407116
0.0370899
0.0335621
0.0302674
0.0273395
0.0248706
0.0229751
0.0216983
0.0210871
0.0212025
0.0220741
0.023509
0.0266966
0.11263
0.10317
0.0861054
0.0971823
0.100076
0.09369
0.0742609
0.0586999
0.0667117
0.0569327
0.0222509
0.0178773
0.0209802
0.00407637
4.01883e-07
2.10524e-05
1.95527e-06
2.01828e-05
4.3099e-06
5.05004e-07
6.55268e-07
5.22729e-05
6.57176e-08
9.47857e-10
4.3303e-05
4.71737e-05
0.00138271
0.00643443
0.0159851
0.0199841
0.0197721
0.0204808
0.0201143
0.0200223
0.00884877
0.0875414
0.0640984
0.0674972
0.0790727
0.0304272
0.0235348
0.0157297
0.00623374
0.000620558
0.000643974
0.0107773
0.0327563
0.0479
0.0552342
0.0568653
0.0552524
0.0524277
0.0492533
0.0458395
0.0421561
0.0384261
0.0348015
0.0313922
0.0283305
0.0257341
0.0236595
0.0222015
0.0213998
0.021306
0.0219633
0.0234182
0.0255135
0.029359
0.116581
0.106433
0.0881696
0.0968194
0.0983075
0.090018
0.0700556
0.0598938
0.072134
0.0555015
0.0216804
0.0185812
0.0211716
0.00595162
0.000643245
0.000103029
5.11511e-06
1.51932e-07
3.29716e-06
1.0038e-06
5.8179e-05
0.000280704
4.66542e-05
9.05748e-05
0.000125578
9.91211e-05
0.00248488
0.0089742
0.0181359
0.0214192
0.0206621
0.021426
0.020875
0.0208511
0.0141959
0.0442003
0.0753966
0.0584164
0.0886868
0.0360446
0.0253262
0.0178964
0.00825953
0.00150521
0.00136228
0.0111992
0.0325823
0.0485852
0.0568496
0.0586598
0.0569524
0.054074
0.0509095
0.047321
0.0435912
0.0398092
0.0360521
0.0325278
0.0293399
0.026592
0.0243528
0.0227363
0.0217426
0.0214498
0.0219076
0.0231358
0.0251884
0.0279387
0.0324251
0.119972
0.108889
0.087747
0.0954321
0.0955858
0.0862507
0.0681015
0.0642557
0.0737208
0.0536639
0.0229186
0.0193088
0.0172892
0.00524429
0.00172589
4.25094e-05
6.0483e-05
5.97336e-06
2.53864e-07
4.27629e-05
7.14929e-05
0.000210515
1.95991e-05
0.000136602
4.41139e-05
3.05046e-07
0.00315064
0.0129509
0.0198913
0.0226074
0.0219092
0.0222817
0.0217209
0.0217802
0.0174784
0.0137869
0.0990047
0.0553508
0.0910889
0.0452982
0.027319
0.0199519
0.0103536
0.00260965
0.00242047
0.0122223
0.0326128
0.0488964
0.0582381
0.0605514
0.0585761
0.0557612
0.0524169
0.0488026
0.045052
0.0411278
0.0373213
0.033715
0.030393
0.0274973
0.0251133
0.0232965
0.0221226
0.0216359
0.0218692
0.0228976
0.0247197
0.0274121
0.0307712
0.0358542
0.123365
0.111139
0.086101
0.0931628
0.0920876
0.0830101
0.068401
0.0693059
0.0748693
0.0507121
0.0233543
0.0282787
0.0123699
0.00272234
0.00154114
7.38004e-05
5.46485e-05
2.8872e-05
5.19691e-07
0.000199035
2.08707e-05
3.40557e-05
2.88397e-05
0.000124613
3.03264e-06
3.83441e-05
0.00252485
0.0196245
0.0215569
0.0236303
0.0232544
0.0230953
0.0226585
0.022771
0.0200984
0.000817203
0.116703
0.0552439
0.0842845
0.0569574
0.0300164
0.0219132
0.0124443
0.00388986
0.00363172
0.0138181
0.032989
0.0491212
0.0591156
0.0624067
0.0602884
0.0572849
0.0538202
0.0503067
0.0463942
0.0425066
0.0386408
0.0349032
0.0314675
0.0284318
0.0258849
0.0239049
0.0225485
0.0218586
0.0218906
0.0226897
0.0242974
0.0267373
0.0300544
0.0339758
0.0395406
0.125505
0.113156
0.0844463
0.0909457
0.0889144
0.0809801
0.0713755
0.076904
0.0749095
0.0448043
0.0254705
0.0352626
0.0144455
0.000660815
0.000650581
0.000198571
4.20154e-06
4.01412e-05
5.77236e-07
0.000229576
1.45e-05
1.29836e-06
0.000124122
7.39649e-05
7.49906e-05
1.60041e-05
0.0186236
0.0265059
0.0232073
0.0243893
0.0246321
0.0240182
0.0236503
0.0238877
0.0222673
0.00119897
0.115907
0.0548702
0.0686815
0.0681545
0.0337916
0.0238087
0.0144855
0.0053328
0.00480807
0.0156577
0.0337605
0.0494002
0.0595484
0.0638873
0.0622061
0.0585925
0.0552652
0.0516213
0.0477873
0.0438983
0.0399252
0.036114
0.0325759
0.0294137
0.0267151
0.0245614
0.0230113
0.0221255
0.0219539
0.0225421
0.0239289
0.0261414
0.0292021
0.0330968
0.0374786
0.0433077
0.12839
0.114784
0.0827431
0.0891465
0.0869185
0.0799692
0.0747557
0.0834305
0.0751657
0.0397144
0.0256892
0.0391197
0.0185349
0.000144864
1.64261e-05
3.35629e-05
6.25492e-06
0.00014859
2.3279e-05
0.000156419
3.6955e-07
1.60023e-06
4.12631e-05
9.34491e-06
4.46336e-05
1.00879e-05
0.00587723
0.0232509
0.0248175
0.0253839
0.0260994
0.0250369
0.0246988
0.025147
0.0240404
0.006538
0.0935316
0.0580222
0.0548166
0.075677
0.0392576
0.0258353
0.0163563
0.00686383
0.00589261
0.0171067
0.0349074
0.049625
0.0598982
0.0647643
0.0639632
0.0598897
0.0565181
0.0528731
0.049204
0.0452214
0.0412279
0.0373545
0.0337059
0.0304056
0.0275655
0.025244
0.0235288
0.0224493
0.0220646
0.0224355
0.023591
0.0255866
0.0284215
0.0320762
0.0364657
0.0411389
0.0469982
0.132808
0.117616
0.0829997
0.0887765
0.0863754
0.0810453
0.079887
0.0869761
0.0718631
0.0384481
0.0297183
0.0393397
0.0194487
0.00135506
3.5565e-05
2.98437e-06
7.37536e-05
0.000105062
4.45131e-06
5.89063e-05
6.14491e-05
4.00504e-07
3.44638e-06
9.50647e-05
4.94541e-05
0.000228403
0.00145563
0.00731605
0.0276898
0.0269422
0.0274692
0.0262734
0.0258114
0.026538
0.0255536
0.0131756
0.0560638
0.0639383
0.0479195
0.080287
0.0462946
0.0283224
0.0178322
0.00820248
0.00673274
0.017768
0.0359944
0.0499231
0.0601871
0.0653216
0.0652087
0.0614227
0.0574991
0.0541035
0.0504629
0.0465207
0.0425306
0.0385865
0.0348374
0.0314228
0.0284415
0.0259672
0.0240764
0.0228139
0.0222328
0.0223783
0.023315
0.0250619
0.0276763
0.0311206
0.0353069
0.0400576
0.0448211
0.0504548
0.137375
0.121579
0.0853219
0.0894853
0.0872108
0.0836436
0.0854086
0.0893225
0.0674648
0.037269
0.0361476
0.0392917
0.0192987
0.00233693
4.76426e-05
3.4331e-06
5.18379e-05
1.07182e-05
1.51929e-06
6.87094e-06
0.000172189
4.6596e-06
6.85625e-06
0.000279309
0.000217069
0.00108077
0.00159372