/*--------------------------------*- C++ -*----------------------------------*\
| =========                 |                                                 |
| \\      /  F ield         | OpenFOAM: The Open Source CFD Toolbox           |
|  \\    /   O peration     | Version:  v2012                                 |
|   \\  /    A nd           | Website:  www.openfoam.com                      |
|    \\/     M anipulation  |                                                 |
\*---------------------------------------------------------------------------*/
FoamFile
{
    version     2.0;
    format      ascii;
    class       volScalarField;
    location    "0";
    object      I2_2;
}
// * * * * * * * * * * * * * * * * * * * * * * * * * * * * * * * * * * * * * //

dimensions      [0 0 0 0 0 0 0];


internalField   nonuniform List<scalar> 
27324
(
-0.00736183
-0.000567571
-0.0185824
-0.000595174
-0.019277
-0.00106049
-0.00884112
-0.00108686
-0.0209813
-0.00117323
-0.00901534
-0.00112064
-0.0209982
-0.00128719
-0.0201936
-0.000661565
-0.0194003
-0.00111553
-0.021112
-0.00152577
-0.0174531
-0.000707248
-0.019541
-0.00115329
-0.0210371
-0.00145558
-0.017092
-0.000844347
-0.0102946
-0.00121924
-0.0210535
-0.00128274
-0.0201064
-0.00155336
-0.0133168
0.000930152
-0.010809
-0.001204
-0.0213461
-0.00133308
-0.0202236
-0.00159266
-0.013918
0.0015136
-0.00432179
-0.000838775
-0.0207138
-0.00119268
-0.0216039
-0.00160246
-0.0178283
-0.000856738
-0.0090632
0.00293164
-0.000850921
-0.00084965
-0.0208786
-0.00113173
-0.0219128
-0.00164222
-0.0180371
-0.000812719
-0.00889104
0.002568
-0.000944437
0.000441343
-0.0114904
-0.00104292
-0.0222034
-0.00131878
-0.0209397
-0.00171161
-0.0143455
0.00150959
-0.00317188
0.000824753
0.00146419
0.0007224
-0.012116
-0.00107154
-0.0224391
-0.00128593
-0.0213118
-0.00176935
-0.0146424
0.00172837
-0.00286803
0.000799753
0.000713489
0.00277512
0.000910012
-0.00104957
-0.0216295
-0.00110083
-0.0227094
-0.00167407
-0.0193726
-0.000851734
-0.00826511
0.00249231
-0.000705422
0.00108847
0.00155183
0.00339851
0.00103655
-0.00112149
-0.022334
-0.00114529
-0.0230811
-0.00170993
-0.0201363
-0.000995626
-0.00831958
0.00257711
-0.000735864
0.00117039
0.00188688
0.00184026
0.00379976
0.00116605
-0.0146907
-0.00113776
-0.0235548
-0.00140271
-0.0228781
-0.00200517
-0.0160055
0.00193478
-0.00303336
0.00085104
0.00120563
0.00191306
0.00197387
0.00209629
0.00419575
0.0012341
-0.0147618
-0.00112267
-0.0236789
-0.00144802
-0.0232029
-0.00205798
-0.0157828
0.00199865
-0.00318069
0.000857871
0.00140659
0.00201629
0.00183883
0.00238876
0.00225738
0.00444364
0.00125857
-0.0012086
-0.0227676
-0.00115026
-0.0239179
-0.00191925
-0.0208653
-0.000666373
-0.0077549
0.0027557
-0.000690251
0.00177592
0.00210328
0.00209239
0.00214451
0.0026081
0.00237815
0.00452692
0.00122805
-0.00128395
-0.0228398
-0.00117873
-0.0240798
-0.00192325
-0.020595
-0.00035432
-0.00709741
0.00263032
-0.00038596
0.0020679
0.00231251
0.00224175
0.0021782
0.00252075
0.00271481
0.00244282
0.00446063
0.00121831
-0.0163703
-0.00122324
-0.0242891
-0.00149969
-0.0238203
-0.00210205
-0.0139615
0.00267325
-0.0024697
0.000796975
0.00230169
0.00254299
0.00237921
0.00243494
0.00241207
0.00265657
0.00280139
0.00240711
0.00444952
0.00120357
-0.0174827
-0.00124959
-0.0251806
-0.00160951
-0.0244313
-0.00217288
-0.0149527
0.00268502
-0.00243113
0.00101055
0.00234991
0.00262732
0.00264929
0.0026789
0.00244574
0.00261372
0.00273689
0.0027636
0.00235273
0.00442274
0.00118409
-0.00152255
-0.0251116
-0.00134877
-0.0262066
-0.00220116
-0.021724
-0.000862487
-0.0089679
0.00256702
0.000785534
0.00234015
0.00248719
0.0029237
0.00289113
0.00268227
0.00254285
0.00274236
0.0027325
0.00270366
0.00229679
0.00436168
0.00114653
-0.00159034
-0.0257458
-0.00136114
-0.0268292
-0.00233804
-0.022056
-0.00098038
-0.00978564
0.00271107
0.000949655
0.00244737
0.00242875
0.00292752
0.0031506
0.00294899
0.00264797
0.0027575
0.00279876
0.00270495
0.00265621
0.00224995
0.00414085
0.00119585
-0.0201045
-0.00125771
-0.0271587
-0.00184203
-0.0259416
-0.0023281
-0.0167406
0.00233078
-0.00242666
0.00166167
0.0026941
0.0026663
0.00277603
0.00331326
0.00323616
0.00294673
0.00278955
0.0028841
0.002831
0.00267396
0.00260227
0.00216387
0.00402935
0.00120353
-0.0210155
-0.00139712
-0.0280213
-0.00190401
-0.0266161
-0.00237444
-0.0159598
0.0030588
-0.00186902
0.00221189
0.00301728
0.00297488
0.00280156
0.00335731
0.00347874
0.00326277
0.00297511
0.00295759
0.00292464
0.00280794
0.00260857
0.00249493
0.00214523
0.00385908
-0.000920407
-0.00209607
-0.0284636
-0.00160568
-0.029463
-0.00267469
-0.0232194
0.000128314
-0.00624145
0.00126935
0.00285126
0.00333134
0.00332382
0.00320978
0.00328951
0.00356949
0.00350418
0.00322208
0.00301961
0.00298442
0.00290102
0.00270562
0.00248708
0.00248854
0.00227433
0.0015122
-0.0187128
-0.0020534
-0.0301964
-0.00184368
-0.0308024
-0.00286002
-0.0242417
0.000170158
-0.00541047
0.00118688
0.00331711
0.00357075
0.00368207
0.00358146
0.00340829
0.00354601
0.00369428
0.00341325
0.00317823
0.00299358
0.00297147
0.00279283
0.00257507
0.00250417
0.0025872
0.00222554
-0.00863476
0.0300617
-0.027462
-0.00152315
-0.0327249
-0.0026137
-0.0298562
-0.00282303
-0.0153142
0.00378537
-0.000776534
0.00343224
0.00371997
0.00384413
0.00394918
0.00373704
0.00347496
0.00376256
0.00362407
0.00341167
0.00305803
0.00301895
0.00292253
0.00267798
0.00262139
0.00261243
0.0026413
0.00141261
-0.0588154
0.0652855
-0.0293956
-0.00133564
-0.0356406
-0.00288287
-0.0304454
-0.00261741
-0.0146396
0.00380529
-0.00106522
0.00322004
0.00400083
0.00394698
0.0040428
0.00419304
0.00367285
0.00377767
0.00378049
0.0037125
0.00329446
0.0030777
0.00308379
0.00283035
0.00274904
0.00274369
0.00261738
0.000898012
-0.0262612
0.0944786
-0.0440645
-0.000242389
-0.0390316
-0.00170053
-0.0372665
-0.0037081
-0.0230466
0.00165275
-0.00450699
0.00138507
0.00250441
0.00406304
0.00406991
0.00426346
0.00438367
0.00425897
0.00364129
0.00382692
0.00401935
0.00366444
0.00315964
0.00323219
0.00302945
0.00288913
0.00281017
0.00265306
0.00146254
-0.00327668
-0.0616763
0.0369223
0.000596825
0.0103213
-0.0444811
-0.0017046
-0.0404986
-0.00387011
-0.0232727
0.00243274
-0.00401894
0.00137877
0.00256794
0.00407917
0.00433194
0.00441407
0.00456717
0.00464051
0.00411312
0.0037553
0.0040544
0.00408369
0.00337345
0.0033069
0.00320924
0.00302436
0.00284125
0.00278833
0.00200056
0.00352409
-0.0468355
0.0123236
0.00436303
0.0164851
-0.0446497
0.00657945
-0.0491584
-0.00257304
-0.0378106
-0.00310841
-0.0125383
0.00403434
-0.000220283
0.00383454
0.00445519
0.00446869
0.00448622
0.00459872
0.00491158
0.00466285
0.00396354
0.00391269
0.00432298
0.00373529
0.00328601
0.00335331
0.00306713
0.00289479
0.00304534
0.0028662
-0.000628314
0.0171749
0.00153197
0.00797732
-0.0297286
0.00246853
-0.002862
0.0628487
-0.0612684
-0.000526322
-0.0412983
-0.00376578
-0.0159582
0.00444495
-0.000224784
0.00490428
0.00531644
0.00490415
0.00468863
0.00467509
0.00491316
0.00492764
0.00448336
0.00366832
0.0044049
0.00401985
0.0033596
0.00337443
0.00313233
0.00306773
0.00322213
0.00487909
0.00166643
0.000424116
0.0084703
0.0106068
-0.00851967
0.00464534
8.05402e-05
0.00663249
-0.0312386
0.0741483
-0.0693936
-0.000681395
-0.0337611
-0.00100637
-0.00738364
0.00164843
0.00522427
0.00613526
0.00553872
0.00521811
0.00479795
0.00503871
0.00519635
0.00505898
0.00385334
0.0042068
0.00424279
0.00364185
0.00321139
0.00339945
0.00329289
0.00408303
0.00599096
0.000820354
-0.00288988
0.0120159
0.0123831
0.00468082
0.000795519
0.00024579
-1.14605e-05
0.026953
-0.0181277
0.0291924
-0.097294
0.0359036
-0.0451142
-0.00266542
-0.00992783
0.00181674
0.00446918
0.006263
0.00612613
0.00597452
0.00525621
0.00517529
0.00493014
0.00566594
0.00462397
0.00408256
0.00447363
0.00406784
0.003089
0.0040354
0.00342197
0.00623321
0.00438336
0.00656995
-0.0301829
0.0136966
0.0146684
0.00493626
0.000834827
0.00047156
-0.0001526
7.52314e-06
-0.0231416
0.0191945
-0.015386
0.0178603
-0.0714028
0.0696022
-0.0448245
6.218e-05
-0.00186226
0.00358298
0.00490453
0.00631306
0.00619306
0.0063591
0.00535352
0.00513537
0.00594611
0.00543816
0.00442127
0.00434622
0.00473623
0.00346033
0.00409173
0.00566709
0.00610815
0.00219248
-0.0641847
0.0609628
-0.0165675
0.0140201
0.00367322
0.00165673
-0.000969258
-2.05467e-05
-5.05887e-05
2.10833e-05
-0.0208251
0.00134717
-0.0357008
0.0103972
-0.00478104
0.0403841
-0.109267
0.0132631
-0.00522646
0.00218691
0.00236759
0.00622268
0.00572333
0.007161
0.00631166
0.00570641
0.00536963
0.00578425
0.00561341
0.00383648
0.00554667
0.0039767
0.00483131
0.0064133
0.000498516
0.0429384
-0.0845301
0.0861735
-0.0289455
0.0118138
-0.015956
0.0097323
-0.00135751
8.0432e-06
-0.000113472
7.49879e-05
-5.07183e-06
-0.00121608
-0.0274109
0.00118432
-0.0322224
0.00356654
0.00150083
0.0290945
-0.0941011
0.0447711
-0.00468256
0.00155296
0.00402485
0.00594024
0.00614378
0.00744066
0.00647118
0.00562425
0.0049891
0.00648986
0.00410435
0.0054698
0.00590002
0.00629855
0.00167745
0.0257661
-0.0806094
0.10021
-0.0895375
0.0259428
-0.00346923
0.0457472
-0.0218072
0.00200134
-0.000476981
-2.53699e-05
-7.68514e-05
0.000163466
5.70231e-05
-0.00134177
-0.0251286
-0.000753876
-0.0264634
0.0208163
0.00346102
0.00448744
-0.0253591
0.0675317
-0.0922802
0.00230932
-0.00113027
0.00418541
0.00483034
0.00691196
0.00750462
0.00598176
0.00439598
0.00663613
0.00586565
0.00486653
0.00648544
0.00262
-0.0306048
0.0720216
-0.0903771
0.106171
-0.0742114
0.0158337
-0.0109052
0.0675107
-0.0340167
0.00376257
-0.000599468
-6.3317e-05
-0.000147256
0.000105188
8.74206e-05
0.000238312
-0.0174202
-0.0011967
-0.0226353
-0.000809051
-0.0249758
0.0212434
0.00287728
0.00543074
-0.0214553
0.0523884
-0.0946678
0.0446804
-0.00447222
0.00278614
0.00523968
0.00673679
0.00616846
0.00574849
0.00587764
0.00638516
0.00388758
0.0018501
-0.0364033
0.0652502
-0.0838943
0.100796
-0.0900149
0.052875
-0.00927421
0.00950867
-0.0769766
0.0457589
-0.00724822
6.59128e-05
-0.000978345
0.0002262
-0.000135551
0.000161008
0.00043949
0.000404849
-0.0173845
-0.00113207
-0.022157
-0.00114162
-0.0226242
0.00107191
0.00131715
0.00884231
0.00659492
0.0183846
-0.0397047
0.0642489
-0.0951442
0.0373349
-0.0077291
0.00195627
0.00105496
0.00401013
0.00316869
0.00225861
-0.0188105
0.045086
-0.0737513
0.0768204
-0.0960169
0.0864939
-0.0639268
0.0324984
-0.00349548
0.00350923
-0.0736352
0.0554809
-0.0135613
9.24511e-05
-0.00136072
0.000325492
-0.000180292
0.000179173
9.41558e-05
0.0012653
0.000556742
-0.00114395
-0.0236927
-0.00107613
-0.0237985
-0.00117176
-0.0224863
0.00213668
0.00366589
0.0225675
0.00844291
0.0182882
-0.0284367
0.0446707
-0.0679248
0.0904467
-0.0844535
0.0542024
-0.0582401
0.0389853
-0.0584282
0.0701508
-0.0673682
0.08229
-0.0871649
0.0820334
-0.061146
0.0419156
-0.015613
0.000876697
-0.000317637
0.0587131
-0.0643073
0.0232805
-0.00178169
-0.000213359
-0.000815498
0.000242081
-0.00015294
0.000288755
0.000349454
0.00195713
0.00064844
-0.000943502
-0.0250953
-0.000998921
-0.0254397
-0.0010311
-0.0244067
-0.00128651
-0.016274
0.016198
-0.047395
0.0118421
-0.0230014
0.0251414
-0.0337862
0.0473287
-0.0647666
0.0655038
-0.0787965
0.0674062
-0.0688951
0.0743274
-0.0754757
0.0843932
-0.0726332
0.0572192
-0.0449011
-0.00142614
-0.00253618
0.000763729
2.95868e-07
0.0368396
-0.0714982
0.0353612
-0.00351275
-7.63548e-05
-0.00135246
0.000323333
-0.000206536
0.000264526
0.000248019
0.000899569
0.00218508
0.000544756
-0.0225214
-0.000635464
-0.0259592
-0.000694918
-0.0272503
-0.0011059
-0.022911
-0.00133357
-0.0100999
0.0328089
-0.0806961
0.0215328
-0.0360606
0.0350977
-0.0364251
0.0429069
-0.0482608
0.0519716
-0.0647032
0.0599008
-0.0728326
0.0674161
-0.0605109
0.0508533
-0.0417697
5.25862e-05
-0.0029459
0.0012188
-0.000680129
2.58569e-05
-0.0162418
0.0750807
-0.0478352
0.00485445
-0.00167178
0.000165815
-0.000479363
0.000267583
-0.000152271
0.000426379
0.000676624
0.00117767
0.00186411
0.000217288
-0.0248076
-0.000201193
-0.0280603
-0.000535817
-0.0278313
-0.000707159
-0.0240585
-0.00179813
-0.0159669
0.00657673
-0.0427903
0.119955
-0.0464731
0.0236639
-0.064768
0.0613639
-0.0516031
0.0505658
-0.0508736
0.0487475
-0.0542298
0.0500841
-0.0470906
0.0301429
-0.016626
0.00282611
-0.00109206
0.00110495
-0.000988636
0.00029396
-0.00402333
0.0720785
-0.0593013
0.0141834
-0.00181088
2.3586e-05
-0.000725479
0.000335447
-0.000222208
0.000387576
0.00048339
0.00124435
0.000982098
0.000793398
-0.000759917
0.000995826
-0.0301578
-9.28641e-05
-0.0286327
-0.000459485
-0.0264631
-0.000905445
-0.0228533
-0.00145102
-0.00594982
0.0329851
-0.0511039
0.156786
-0.00332945
6.31219e-05
-0.00203914
0.000539969
-0.0649289
0.0539423
-0.0533605
0.0425016
-0.0418461
-0.0012512
-0.00634265
0.00219734
-0.00128484
0.00116166
-0.000973503
0.00126959
-0.000771652
0.000295163
-0.0608276
0.0694713
-0.0319637
0.00010459
-0.00259217
0.000681611
-0.000427816
0.00032528
-0.000125762
0.000652338
0.000935643
0.00119048
0.000158501
0.000869587
-0.0024229
0.00137423
-0.0297246
0.000252719
-0.0279857
-0.000201518
-0.0263338
-0.000617503
-0.0248518
-0.00150092
-0.00791739
0.000238669
-0.0465259
0.0612207
-0.151114
0.00098651
0.000553103
0.0031198
-0.00106402
0.00339635
-0.00475981
0.00453881
-0.0036401
0.00243057
-0.00148264
0.00158709
-0.000967459
0.00115844
-0.00122522
0.00143716
-0.00120182
1.42286e-12
-0.0430231
0.077227
-0.0479148
-0.00036211
-0.00254989
0.000696174
-0.000556321
0.000375435
-0.000221054
0.000569245
0.000783681
0.00114527
0.00022101
0.000757659
-0.00235139
0.00124982
-0.0242562
0.000654997
-0.0278384
0.000184936
-0.0264444
-0.000147489
-0.025715
-0.00060758
-0.0191899
-0.000494551
-0.00562959
0.00305649
-0.0513229
0.0679237
-0.0449494
0.000943536
0.0015151
0.00243332
-0.00121217
0.00214003
-0.00191672
0.00208813
-0.00180839
0.00171936
-0.00127643
0.00139114
-0.0013522
0.00140374
-0.00151176
0.00138918
-2.54819e-05
0.0246666
-0.0812533
0.0622676
-0.00719816
0.00036229
-0.0023717
0.000718796
-0.000444247
0.000405744
-1.82294e-05
0.000920181
0.000937685
0.000581787
-0.000738936
0.00153623
-0.00421771
0.00100193
-0.0230777
0.0005251
-0.0268972
0.000308876
-0.0259051
-5.2012e-05
-0.0261448
-0.000189199
-0.0194574
-0.00078096
-0.0084853
-9.13052e-05
-0.04135
0.0556819
-0.070875
0.0101254
-0.000368056
0.00290654
-0.00314743
0.00300867
-0.0023767
0.00226347
-0.00210496
0.0019969
-0.00182685
0.00165354
-0.00154009
0.00150924
-0.00153716
0.00142339
-0.000231427
0.0108386
-0.080612
0.0752358
-0.0139938
0.000641675
-0.00293553
0.00089636
-0.000542735
0.000447936
-0.000157997
0.00081508
0.000846231
0.000612103
-0.000720955
0.00156569
-0.00434303
0.00141361
-0.0055889
-6.61858e-05
-0.0270729
0.00039292
-0.0256612
0.000212206
-0.0255461
-3.62666e-05
-0.0268764
1.48205e-05
-0.0115424
-0.000792509
-0.00526938
1.81062e-06
-0.0524259
0.0684536
-0.103319
0.00264746
-0.00131689
0.00306224
-0.00363021
0.00335103
-0.00294079
0.00261072
-0.00228709
0.00201709
-0.00180873
0.00164066
-0.00155731
0.00155136
-0.001403
0.000597165
-0.00324955
0.074762
-0.0845198
0.011435
-0.00255802
0.000615456
-0.00144395
0.000678826
-0.000478694
0.00050456
0.0002219
0.00100872
0.000254502
0.00071474
-0.00229307
0.00144556
-0.00552305
0.00122785
-0.00564776
-0.000392695
-0.0277602
0.000209562
-0.0255691
0.000190617
-0.0255503
1.05796e-06
-0.0267943
0.000144867
-0.0124288
-0.000385372
-0.00676926
0.000229031
-0.0067827
0.0492022
-0.0909221
0.0878619
2.49134e-07
0.00159402
-0.00338806
0.00356266
-0.00316521
0.00280268
-0.00243133
0.00211125
-0.00185068
0.00168441
-0.00160432
0.00156889
-0.00137834
0.000859623
-0.000155314
0.0637648
-0.0918818
0.0336498
-0.00309986
0.000641666
-0.00199251
0.000854994
-0.000577376
0.000535535
3.47069e-05
0.000937489
0.000242036
0.000707005
-0.00227463
0.00142823
-0.00572469
0.00096332
-0.00569087
0.000502673
-0.0256947
-0.000193125
-0.0267171
0.000166621
-0.0253695
0.000100892
-0.0275194
0.000110585
-0.0178882
0.000319886
-0.0138672
-0.000356607
-0.00136293
-6.95095e-08
-0.0308924
0.0539066
-0.105653
-0.000870297
0.000298617
0.00310593
-0.00381952
0.00336912
-0.00283277
0.00246425
-0.00217348
0.00192309
-0.00174536
0.00166137
-0.00159218
0.00134517
-0.000854095
4.78911e-05
-0.0505962
0.0963947
-0.0641632
0.000196862
-0.00339127
0.00118957
-0.00108336
0.00069426
-0.000490335
0.000623804
0.000432071
0.000654489
-0.000704351
0.00159377
-0.00458637
0.00108856
-0.00619805
0.000800906
-0.00558354
0.000425903
-0.027646
-0.0002705
-0.0270927
-4.56037e-06
-0.0254483
0.000118277
-0.0285634
-3.40982e-05
-0.0168327
2.78116e-05
-0.0147365
0.000160595
-0.00119578
0.000264436
-3.06173e-05
0.0451418
-0.0645568
0.0719544
-0.000146334
0.00221348
-0.00404813
0.0036328
-0.00296143
0.00253329
-0.00226194
0.00201199
-0.00182329
0.00172922
-0.00161912
0.00130601
-0.000797609
0.000458785
-0.0373273
0.0950976
-0.0782952
-0.001579
-0.0031897
0.00120898
-0.00141349
0.000843022
-0.000593267
0.000623384
0.000255531
0.000654091
-0.000709301
0.00160573
-0.0046659
0.00103343
-0.00645555
0.000725879
-0.0059038
0.000919876
-0.00499664
8.45756e-05
-0.0306183
-0.000248563
-0.0256136
-4.26397e-05
-0.0266906
3.54815e-05
-0.0251312
-0.00064172
-0.0127648
-2.4533e-05
-0.00518709
-1.63901e-05
-0.000953939
5.91269e-06
-0.00854914
0.0527895
-0.0763074
0.013687
-0.000210332
0.00368106
-0.00375624
0.00314469
-0.00264468
0.00238059
-0.00212237
0.00190946
-0.00179434
0.00163932
-0.00124111
0.000837563
0.000630433
0.00750152
-0.0879873
0.0869701
-0.0200352
0.00124853
-0.00380732
0.00148995
-0.00101674
0.000730205
-0.000410287
0.000729546
0.000109486
0.000720367
-0.00224932
0.00138045
-0.00634455
0.000748885
-0.006555
0.000597139
-0.00567676
0.000878043
-0.00463048
0.000262202
-0.030625
-0.000138296
-0.0244004
-0.000183846
-0.0268641
8.07912e-05
-0.0247997
-0.000611478
-0.0132227
-0.000580142
-0.00432198
5.83121e-06
-0.000636671
0.000361585
-4.52722e-05
0.0373905
-0.0682201
0.0902757
0.000419909
0.00161668
-0.00368187
0.00337676
-0.00280794
0.00250635
-0.0022426
0.00199804
-0.00185405
0.00164406
-0.00115497
0.000791477
0.000895317
0.000363395
-0.076987
0.0954127
-0.0347421
0.00160726
-0.0041477
0.00164362
-0.00124819
0.000845743
-0.000526106
0.00069982
2.55321e-05
0.000737551
-0.00225489
0.00135821
-0.00656133
0.00066414
-0.00684378
0.000495621
-0.00594884
0.000552859
-0.00474506
0.000321131
-0.0294455
0.00016753
-0.0251026
-0.000167839
-0.0246495
-0.000174307
-0.0297278
6.69839e-05
-0.0138091
-0.00066396
-0.0120917
-0.00013967
-0.000183458
1.58092e-06
-0.00115145
0.000151771
-0.0033641
0.0494047
-0.0889734
0.0713037
6.79332e-07
0.00328272
-0.00366689
0.00305953
-0.00263717
0.00236014
-0.00208788
0.00190515
-0.00163219
0.00111401
-0.000213956
0.00112564
-0.000832123
0.058106
-0.101419
0.0316365
-0.00511999
0.00138457
-0.00293447
0.00151358
-0.00100451
0.000754082
-0.000232867
0.000615853
-0.000762144
0.00164461
-0.00492029
0.000834728
-0.00730404
0.000440459
-0.00674608
0.000400063
-0.00562888
0.000512969
-0.00439926
0.000292511
-0.0302415
0.000268685
-0.024794
-5.16982e-05
-0.0246215
-0.000223375
-0.0300185
0.00030866
-0.0137096
-0.000450687
-0.0110048
0.000141636
-0.0001044
2.27683e-05
-0.000466288
0.000248878
1.41386e-11
0.0287686
-0.0644899
0.0894349
-0.00182865
0.00184763
-0.00392396
0.00338761
-0.00277652
0.0024672
-0.00218129
0.00194756
-0.00159847
0.00105065
4.5623e-05
0.00123819
4.44845e-05
0.0332718
-0.101769
0.0547412
-0.00779318
0.00147889
-0.00352368
0.0017538
-0.00120271
0.000833251
-0.000353926
0.000612368
-0.000793
0.00165406
-0.00501317
0.000753051
-0.00761347
0.000334887
-0.00704778
0.00028695
-0.00588864
0.000410732
-0.00463352
0.000761788
-0.00353756
-2.14601e-05
-0.0314096
0.000287606
-0.0233574
-4.37059e-05
-0.0294187
9.75407e-05
-0.0237782
0.000402027
-0.0152364
-0.000565992
-0.00221942
9.3518e-05
-0.000134471
7.73796e-05
-9.2697e-05
1.05729e-05
-0.000584488
0.0494071
-0.0812619
0.0386432
-7.48076e-05
0.0038627
-0.00370613
0.00293944
-0.00255879
0.00228084
-0.00197869
0.00156604
-0.000721442
0.000920764
0.0012788
0.00115954
-0.0330466
0.0928467
-0.0812357
-0.00165497
-0.00420223
0.00185047
-0.00236529
0.00147926
-0.000921819
0.000754195
-0.000289905
0.000829573
-0.00230086
0.00125228
-0.007248
0.000366122
-0.00778546
0.000165159
-0.00679946
0.000218453
-0.00550013
0.000376554
-0.00425941
0.000698144
-0.0032481
-0.00011409
-0.0315037
0.000196459
-0.023927
0.000118225
-0.0303864
9.4563e-06
-0.0225165
0.000622551
-0.0167463
-1.34746e-05
-0.00200213
0.000161313
-0.000282778
5.43281e-05
-1.32034e-05
2.44508e-05
1.19789e-06
0.0251482
-0.0692424
0.0854056
-0.000396521
0.00257707
-0.00393784
0.00314245
-0.00264252
0.00238331
-0.00200183
0.00151152
-0.000499261
0.0010756
0.00144766
0.00166863
-0.0154206
0.0783477
-0.0897946
0.000646814
-0.00438807
0.00193293
-0.00285338
0.00175542
-0.00110132
0.000798043
-0.000374308
0.000872638
-0.00232306
0.00120391
-0.00749096
0.000251721
-0.00813182
4.65092e-05
-0.00710736
9.54963e-05
-0.00575785
0.000261287
-0.00446289
0.000382706
-0.00345323
0.000156042
-0.0308815
-0.000107212
-0.0245922
0.000137878
-0.0267579
0.000186483
-0.0300721
-0.000102817
-0.014156
0.00120476
-0.00988366
-3.33012e-05
-0.000254909
0.000219387
-7.9232e-05
3.39791e-06
9.46857e-06
5.21567e-05
-0.000399482
0.0484912
-0.0856333
0.0439002
-0.000280138
0.00393171
-0.00339703
0.00274417
-0.00248105
0.0020318
-0.00130992
0.00102736
0.000918669
0.00165627
0.0019255
0.00273893
-0.0718139
0.0913576
-0.0395648
0.00219694
-0.00474166
0.00224619
-0.00209552
0.0013201
-0.000687941
0.000673563
-0.000914091
0.0016674
-0.00531167
0.00046549
-0.00864384
-1.45134e-05
-0.0080366
-7.70296e-05
-0.00674149
4.84413e-05
-0.00532348
0.000230859
-0.00408819
0.000321533
-0.00320833
9.64032e-05
-0.0307597
-0.000105528
-0.0239275
3.33115e-05
-0.0277315
0.000364039
-0.0300529
-0.000195601
-0.0143321
0.000937946
-0.00957707
0.000343949
-0.000331017
8.59926e-05
-0.000134105
6.25801e-06
3.21164e-07
0.000122497
-4.35672e-06
0.0204292
-0.0705349
0.0771165
-7.9909e-05
0.00309149
-0.00367334
0.00289898
-0.00256479
0.00205407
-0.00112063
0.0011265
0.00123675
0.00179426
0.00205118
0.00129
-0.0577139
0.0936079
-0.0547253
0.00182777
-0.00487135
0.00231288
-0.00249225
0.00158927
-0.000839991
0.000703925
-0.000950843
0.0016654
-0.00541351
0.000364603
-0.00902318
-0.000139583
-0.00840068
-0.00020365
-0.00704954
-8.01045e-05
-0.00557182
0.000116876
-0.00426927
0.000247889
-0.00331757
0.000413584
-0.00275161
0.000176677
-0.0300585
-0.000140588
-0.0249015
9.21453e-05
-0.0324213
0.000484394
-0.0199459
-0.000164522
-0.0173043
0.00144476
-0.00110217
0.000285183
-0.0011923
6.64622e-05
-2.96013e-05
5.04127e-14
-3.38073e-05
0.000149666
-0.000389313
0.0501718
-0.0846142
0.020475
-0.000827823
0.00385153
-0.00313511
0.0026326
-0.00200966
0.00133843
0.000437515
0.00171157
0.00190978
0.00216271
-0.000261683
0.00498234
-0.0949925
0.0474408
-0.0113983
0.00215626
-0.00436086
0.00241448
-0.00184103
0.00104807
-0.000536343
0.000981642
-0.00248509
0.00103898
-0.00823366
-0.000117907
-0.00930153
-0.000327556
-0.00811845
-0.000290178
-0.00659567
-0.000109075
-0.00511119
9.06844e-05
-0.00390579
0.000189216
-0.00309871
0.000300827
-0.00272874
0.000101904
-0.02981
-0.000102205
-0.0253621
-3.81687e-05
-0.0324137
0.000498269
-0.0187666
-0.000194615
-0.0168752
0.000502111
-0.00103721
0.000749595
-0.00134383
6.29676e-06
-8.38113e-05
2.26043e-09
-1.84907e-06
0.000231337
-2.54861e-06
0.0213373
-0.0779341
0.0683278
-8.50234e-07
0.00354685
-0.00344824
0.00269689
-0.00193936
0.00135704
0.000839579
0.00193972
0.00205417
0.00225498
0.000815223
-0.00302075
-0.0862169
0.0630557
-0.0191792
0.00227604
-0.00480209
0.00254907
-0.00216387
0.00122399
-0.000608867
0.000988499
-0.00255134
0.000964428
-0.00846824
-0.000242462
-0.00974162
-0.000456515
-0.00849076
-0.000422134
-0.00690019
-0.000239524
-0.00534709
-2.07752e-05
-0.00407414
0.000108209
-0.00320763
9.83908e-05
-0.00280168
-8.75432e-05
-0.0321689
7.8103e-05
-0.0232536
-5.46977e-05
-0.0307524
9.76047e-05
-0.0276652
0.000288451
-0.013539
-0.000454923
-0.00744375
6.62511e-05
-0.00118705
0.000525779
-2.55589e-05
3.57761e-05
-1.29132e-06
7.15336e-10
-8.32629e-05
0.000123471
-0.00102155
0.0583894
-0.0844769
0.00912883
-0.00192981
0.0037869
-0.00278336
0.00198755
-0.000242
0.00171773
0.00207599
0.00220835
0.00233208
0.00200598
-0.011412
0.0580691
-0.0842879
0.00188543
-0.00592109
0.00249022
-0.00378967
0.00234425
-0.00143761
0.000815285
-0.00098213
0.00163824
-0.00583387
8.0819e-05
-0.0102291
-0.000526345
-0.00963353
-0.000593024
-0.00806374
-0.000478641
-0.00638362
-0.000251985
-0.0048787
-4.04956e-05
-0.00372958
5.55984e-05
-0.00302681
2.18229e-05
-0.00280029
-0.000143067
-0.0329867
-6.3181e-05
-0.0235051
0.000120658
-0.0319311
-4.27197e-05
-0.0261132
0.000241253
-0.0141198
-0.00021704
-0.00667744
-2.74311e-06
-0.0012144
0.000262658
-1.68926e-06
9.86788e-06
-7.02851e-06
1.34599e-09
-6.62013e-06
0.000160654
-1.01068e-06
0.0301362
-0.082767
0.0500312
-0.000119431
0.00398525
-0.00292095
0.00189821
0.000193152
0.00198215
0.00229995
0.00235932
0.00244066
0.00232797
-0.00394832
0.0373067
-0.0884502
0.0108145
-0.00756003
0.00254092
-0.00421077
0.00248235
-0.00166358
0.000893104
-0.000989818
0.00164144
-0.00601551
-1.99123e-05
-0.0106264
-0.000654749
-0.010095
-0.000724832
-0.00843584
-0.000614719
-0.00667795
-0.00038093
-0.00510151
-0.000145598
-0.00388267
-1.54846e-05
-0.00311329
-1.06411e-05
-0.00282959
-2.94534e-05
-0.00318816
0.000271416
-0.0306925
-6.9739e-05
-0.029259
0.000254231
-0.0312906
-0.000223189
-0.0141135
0.000466341
-0.0152037
-0.00029393
-0.00146626
-5.60423e-05
-0.000174121
2.44426e-07
-5.03665e-07
5.87843e-06
5.50514e-08
2.82085e-07
-5.97953e-05
5.92707e-05
-0.0058186
0.0696458
-0.076374
0.000578807
-0.00346007
0.00312904
-0.00122229
0.00190392
0.00206102
0.00252823
0.00253445
0.00260389
0.00238715
0.0019317
-0.0500677
0.079903
-0.0516337
0.00121225
-0.00569601
0.00261986
-0.00322995
0.00193068
-0.00101483
0.00102481
-0.00251803
0.000687353
-0.00923622
-0.000584918
-0.0112032
-0.000845569
-0.00973766
-0.000825566
-0.00789638
-0.00064187
-0.00612534
-0.000376913
-0.00463773
-0.000156827
-0.0035669
-5.87298e-05
-0.00297088
-7.56664e-05
-0.00289379
-0.000126241
-0.00355788
0.00034213
-0.0318044
-7.94384e-05
-0.0300273
0.000269879
-0.0304657
-7.37996e-05
-0.0137931
0.000162941
-0.0147512
-5.5417e-05
-0.00196003
-1.83157e-05
-0.000205794
7.62244e-07
8.02512e-10
6.83701e-07
-9.47881e-07
1.38226e-07
-3.53979e-06
0.000149373
-1.06939e-06
0.0416956
-0.0851191
0.0262544
-0.00144719
0.00333445
-0.000875157
0.00221424
0.00245035
0.00266729
0.00272911
0.00275606
0.00263304
0.00131948
-0.035262
0.073201
-0.0607016
-0.000740463
-0.00604086
0.00255848
-0.00358888
0.00211364
-0.00117438
0.00108435
-0.00245968
0.000636312
-0.00954391
-0.000697277
-0.0117189
-0.000972671
-0.0101946
-0.000957137
-0.00826525
-0.000777259
-0.00641553
-0.000500916
-0.00484911
-0.00025384
-0.00370375
-0.00012149
-0.00304232
-0.000109761
-0.00290011
-0.000181943
-0.00334045
-0.000273126
-0.0380851
0.000203367
-0.0253176
-1.52578e-05
-0.0318046
0.000247763
-0.0202225
-0.000261321
-0.0172375
0.000622364
-0.00377284
3.79132e-05
-0.00293979
4.5803e-05
-4.13843e-07
3.64873e-06
8.06212e-10
2.76826e-06
-1.18566e-06
8.13407e-08
-0.000112993
4.85044e-05
-0.013283
0.0794681
-0.0633964
4.59818e-06
-0.00312245
0.00197084
0.00188903
0.00296917
0.00277982
0.0029417
0.00284865
0.00304099
0.000337576
-0.00279073
-0.0759048
0.0531907
-0.0207907
0.00223661
-0.00534463
0.00259125
-0.00241569
0.00134992
-0.00114495
0.00164109
-0.00616696
-0.000381084
-0.0118689
-0.00100988
-0.0116172
-0.00110955
-0.00966514
-0.0010243
-0.00765629
-0.000782481
-0.00583507
-0.0004843
-0.00439657
-0.000255217
-0.00342251
-0.0001531
-0.00294646
-0.000160802
-0.0030228
-0.000236302
-0.00374858
-0.000299744
-0.0397044
0.000144301
-0.0263261
8.29909e-05
-0.030819
3.43913e-05
-0.0186413
-0.000104933
-0.0192081
0.000257848
-0.00360494
0.000765874
-0.00309315
6.36552e-05
-1.78549e-05
3.43141e-06
-1.20788e-06
1.73606e-07
-1.15021e-05
3.9536e-08
-2.21821e-05
0.000293747
-0.000616532
0.0599827
-0.080017
0.00686387
-0.00226783
0.00228246
0.00237286
0.00325391
0.00296992
0.00315874
0.00301051
0.00323066
0.00142531
0.00353484
-0.0684577
0.0621689
-0.0286176
0.00194947
-0.00567499
0.00254825
-0.00267075
0.00148731
-0.00122319
0.00158256
-0.0060896
-0.000462364
-0.0123546
-0.00111864
-0.0121411
-0.00122232
-0.0101247
-0.00115934
-0.00800067
-0.00092936
-0.00609355
-0.000606824
-0.00458035
-0.000344048
-0.00353698
-0.000207019
-0.00299764
-0.00018648
-0.00300373
-0.000241398
-0.00368618
-0.000343298
-0.00550692
-9.70598e-05
-0.0359048
6.95957e-05
-0.0296688
-4.01978e-06
-0.0251854
-8.74158e-05
-0.0164963
0.000146374
-0.0121863
2.35951e-07
-0.00381704
0.000400529
-0.000377024
2.46428e-05
2.70595e-07
1.20187e-05
1.45952e-08
2.01273e-05
-1.34517e-06
4.959e-07
-0.000263007
2.32245e-06
-0.0307772
0.0831974
-0.0438422
0.00112572
0.000766847
0.00310345
0.00339397
0.00324299
0.00332443
0.00332123
0.00319256
0.00298208
-0.00523289
0.0252644
-0.0758863
0.00964029
-0.00975883
0.00232625
-0.00456602
0.00230016
-0.00155897
0.0012751
-0.00248005
0.000497853
-0.0100343
-0.00102828
-0.013435
-0.00128853
-0.0116651
-0.0013334
-0.00944272
-0.0012064
-0.00731694
-0.000896064
-0.00552316
-0.000563911
-0.00416235
-0.000330938
-0.00329584
-0.000226145
-0.00295092
-0.000223924
-0.00319161
-0.000282664
-0.00419756
-0.000383879
-0.00645678
-0.000198559
-0.0370125
-3.99838e-05
-0.0285041
2.43394e-05
-0.023753
-0.000335427
-0.0183529
0.000624363
-0.0112316
-0.000152559
-0.0051439
0.000876966
-0.000169954
6.76047e-05
-6.3394e-07
1.05551e-05
-3.30818e-06
3.97296e-06
-2.11702e-05
1.86119e-08
-6.31352e-05
0.000111909
-0.00844974
0.0746073
-0.0715965
0.000127176
0.0022757
0.00342749
0.00363015
0.00354833
0.0035071
0.00355531
0.00341281
0.00344606
-0.00303654
0.00378816
-0.0755261
0.0201811
-0.0124549
0.00200488
-0.00482128
0.00220731
-0.00161079
0.00121366
-0.00254562
0.000350376
-0.0100714
-0.00108344
-0.0140936
-0.00136502
-0.0121476
-0.00143543
-0.00986686
-0.00133157
-0.00764977
-0.00102697
-0.00577186
-0.000670531
-0.00433589
-0.000404394
-0.00339897
-0.000270316
-0.00298281
-0.000242962