/*--------------------------------*- C++ -*----------------------------------*\
| =========                 |                                                 |
| \\      /  F ield         | OpenFOAM: The Open Source CFD Toolbox           |
|  \\    /   O peration     | Version:  v2012                                 |
|   \\  /    A nd           | Website:  www.openfoam.com                      |
|    \\/     M anipulation  |                                                 |
\*---------------------------------------------------------------------------*/
FoamFile
{
    version     2.0;
    format      ascii;
    class       volScalarField;
    location    "0";
    object      I2_3;
}
// * * * * * * * * * * * * * * * * * * * * * * * * * * * * * * * * * * * * * //

dimensions      [0 0 0 0 0 0 0];


internalField   nonuniform List<scalar> 
27324
(
0.0417092
0.0452966
0.073563
0.0463126
0.0757666
0.078639
0.0473372
0.0757146
0.0797012
0.0798653
0.0482356
0.0758669
0.07941
0.0803998
0.0791853
0.04944
0.0760011
0.0793772
0.0801639
0.0792049
0.0750266
0.0509775
0.0764967
0.0794859
0.0801691
0.0791895
0.0750406
0.0691879
0.0526161
0.0773563
0.0799645
0.0804814
0.0795061
0.0755648
0.0700924
0.062385
0.0537708
0.0783126
0.0806869
0.0811663
0.0801044
0.0764959
0.071169
0.0630272
0.0516347
0.0542457
0.0788893
0.0813652
0.0819605
0.080861
0.0775628
0.0724394
0.0638612
0.0492273
0.0258846
0.0545388
0.0790156
0.0817883
0.0825771
0.081552
0.078594
0.0736874
0.0646229
0.0481017
0.0240498
0.00327759
0.0554586
0.07906
0.0820833
0.0829343
0.082133
0.0794883
0.0749016
0.0650665
0.0470073
0.024169
0.00353962
6.1683e-05
0.0576979
0.0795854
0.0825605
0.0833018
0.0827665
0.0804429
0.0760791
0.0652312
0.0462622
0.0246354
0.00403921
1.95986e-05
0.000132421
0.0609236
0.0809387
0.0834679
0.0840091
0.0838234
0.0817435
0.0773544
0.0652246
0.0461715
0.0253246
0.00433852
2.99634e-06
0.000646021
0.000954595
0.0637553
0.0826251
0.0846484
0.0851493
0.0853484
0.0835761
0.0786325
0.0652369
0.0468515
0.0259809
0.00407763
1.41943e-09
0.00105952
0.001856
0.000783339
0.065233
0.0837284
0.0855189
0.0863314
0.0869846
0.0855806
0.0796491
0.0652677
0.0477031
0.0262145
0.00328631
1.94723e-05
0.00163888
0.00203272
0.00107223
0.000299439
0.0653939
0.0839056
0.0857339
0.0870681
0.0881446
0.0870072
0.0800201
0.0651788
0.0485181
0.0246346
0.00216444
0.000201814
0.002248
0.00206918
0.000884936
0.000373289
1.55468e-05
0.0656015
0.0835482
0.085597
0.0873262
0.0886142
0.0873997
0.0794031
0.0650625
0.0488269
0.022001
0.000790383
0.000557861
0.00274191
0.00197136
0.00071474
0.000260036
1.60027e-05
2.44937e-09
0.0673832
0.0838401
0.0858988
0.0876851
0.088791
0.0870548
0.0783524
0.0649012
0.0488632
0.0182785
0.000123622
0.00104993
0.0028431
0.00176053
0.000558782
0.000216046
6.92624e-06
1.23303e-08
1.05483e-08
0.0704214
0.0854153
0.0873737
0.0888984
0.0895448
0.0870026
0.0781073
0.0656853
0.0481684
0.0147561
3.73246e-07
0.0012911
0.00276917
0.0013386
0.000466517
0.000193867
4.87126e-06
1.6156e-11
3.32054e-07
5.02714e-07
0.073405
0.087495
0.0895664
0.0910898
0.0913321
0.0881216
0.080009
0.0680635
0.0479313
0.0115764
3.4614e-06
0.00138776
0.002532
0.000933923
0.000365246
0.000199487
4.61577e-06
2.85937e-12
1.12125e-07
3.28402e-06
1.21911e-07
0.0758018
0.0891958
0.0914342
0.0933169
0.093668
0.090418
0.0835801
0.0718462
0.0478221
0.00908095
3.78055e-05
0.00131358
0.00220666
0.000672601
0.000273208
0.000221027
5.75354e-06
1.84943e-11
2.39185e-07
1.80274e-06
1.30745e-06
6.46783e-13
0.0778408
0.0904987
0.0927314
0.0949367
0.0955043
0.0928026
0.0874811
0.0749237
0.0469222
0.00650967
5.3135e-05
0.00118302
0.00197263
0.000405047
0.000210425
0.000240133
6.74893e-06
2.0813e-09
4.0099e-07
2.43855e-06
1.9551e-07
2.70542e-08
1.12934e-07
0.0803574
0.0919714
0.0939707
0.0962544
0.0968026
0.0944223
0.089562
0.0762858
0.0433724
0.00407544
5.79567e-05
0.000988056
0.00155234
0.000278599
0.000161272
0.000235514
1.10804e-05
5.80266e-09
6.16953e-07
2.74559e-06
1.48138e-07
2.26442e-09
8.07994e-09
0.000150868
0.0835271
0.0942902
0.0959759
0.0980912
0.0983884
0.0957666
0.0896578
0.0742128
0.0381842
0.001802
3.7379e-05
0.000829603
0.00126549
0.000173958
0.000125635
0.000233959
1.44442e-05
2.27408e-08
8.94808e-07
2.97709e-06
7.07421e-08
9.6002e-09
4.35814e-13
1.19838e-12
0.000555679
0.0872572
0.0974326
0.099068
0.101071
0.100995
0.0977242
0.0889955
0.0701431
0.0315861
0.0006913
4.25533e-05
0.000681375
0.000984429
0.000125278
0.000119184
0.000205044
1.55302e-05
9.68853e-08
8.35831e-07
3.08896e-06
2.81146e-08
3.59778e-08
1.04112e-09
2.16556e-07
9.81807e-07
0.0067022
0.0917555
0.101309
0.102952
0.10487
0.104572
0.100322
0.0889094
0.0661106
0.0268554
0.000364444
3.57991e-05
0.000665975
0.000840807
9.94544e-05
0.000131766
0.000192144
2.06015e-05
1.31919e-07
1.03423e-06
3.50798e-06
1.33369e-08
7.48945e-08
5.8678e-09
4.20756e-08
9.16294e-05
0.00160452
0.0159974
0.0962346
0.106141
0.107467
0.109022
0.107998
0.102975
0.089367
0.0639732
0.0256599
0.000640233
5.25394e-06
0.000681146
0.000739605
7.87975e-05
0.000177699
0.00020445
2.33166e-05
8.12146e-07
1.15172e-06
2.94771e-06
1.04551e-08
1.30079e-07
5.19828e-09
3.37839e-09
2.76478e-06
6.1187e-06
0.0152123
0.00617564
0.0997469
0.111654
0.112704
0.113495
0.11119
0.104404
0.0904134
0.063085
0.0279732
0.00173179
6.80194e-08
0.000432709
0.000637261
7.53982e-05
0.00024466
0.000170771
3.6606e-05
2.83319e-06
1.42806e-06
2.06164e-06
1.90565e-09
2.2133e-07
6.79589e-08
2.72036e-11
9.81401e-08
0.000233435
0.000745782
0.0397496
0.000246059
0.102488
0.117737
0.118538
0.11862
0.114611
0.105611
0.0907382
0.0646951
0.0303541
0.00403781
3.47247e-05
0.000179307
0.000352427
7.18489e-05
0.000249246
0.000143262
2.36224e-05
1.0779e-05
1.64479e-06
1.82677e-06
1.58923e-13
3.36224e-07
2.18416e-07
2.87815e-08
2.98266e-07
0.000608465
3.92277e-05
0.000821606
0.0207256
0.000549048
0.110377
0.125553
0.125374
0.124032
0.118934
0.107461
0.0922162
0.06711
0.0323803
0.00561079
0.000248927
4.89265e-05
0.00017817
6.6505e-05
0.000250465
0.000104875
1.18663e-05
1.35374e-05
2.3024e-06
1.39848e-06
1.10298e-08
4.39347e-07
2.45278e-07
5.85534e-08
2.40336e-06
0.00036829
3.44959e-13
0.00747935
0.0033266
0.000163867
6.29349e-08
0.0884538
0.135802
0.134178
0.130172
0.123453
0.110863
0.0947245
0.0725817
0.0323803
0.00558974
0.000536253
9.15826e-06
5.79615e-05
8.23402e-05
0.000291159
6.50516e-05
5.16787e-06
2.36634e-05
4.15753e-06
4.13419e-07
5.82426e-08
4.71174e-07
3.18621e-07
4.58566e-13
2.34504e-05
0.000355826
8.52967e-06
0.00951992
0.00634426
0.000129523
0.0328643
0.00544206
0.073806
0.138387
0.14037
0.137502
0.128291
0.114667
0.0988213
0.078335
0.0340948
0.00419048
0.000628835
2.56026e-07
5.54413e-05
9.67292e-05
0.000380054
7.62714e-05
4.01046e-07
4.10505e-05
2.3812e-06
1.3014e-07
2.07696e-07
1.57109e-06
7.35354e-09
8.5318e-07
1.84894e-05
0.000392164
0.000644882
0.0181559
0.00823633
0.000747063
0.0028668
3.29696e-05
0.000314196
0.0625263
0.12182
0.157998
0.143771
0.133665
0.118338
0.102052
0.0829982
0.0355533
0.00335593
0.000999726
2.47787e-07
0.000156494
0.000307709
0.000502749
9.85584e-05
1.82506e-07
4.88362e-05
5.20483e-06
1.99962e-07
8.76324e-07
2.74798e-06
1.61797e-07
3.59725e-07
4.93525e-05
1.67874e-05
0.00946693
0.0205346
0.00216958
0.00194127
0.00291656
0.0009216
1.23174e-07
6.01441e-07
0.0749037
0.0936845
0.133072
0.161342
0.137507
0.120583
0.104105
0.0831915
0.0358453
0.00277854
0.00200844
1.32137e-08
0.000499108
0.000855085
0.000718949
0.00011081
1.15475e-06
4.90014e-05
9.70215e-06
5.97401e-07
1.65486e-06
2.95534e-07
2.70656e-06
1.2285e-05
0.000130012
0.00133302
0.0165637
0.0111708
0.0137355
0.000195358
0.00307151
8.12437e-05
2.16754e-09
8.48956e-06
1.46434e-09
0.0776184
0.0945868
0.099356
0.132164
0.147887
0.128555
0.104027
0.0807769
0.0293417
0.00241311
0.00368922
4.95216e-09
0.00115906
0.00135783
0.00104575
9.8102e-05
6.54072e-07
0.000103685
1.38304e-05
3.01179e-08
1.06244e-07
5.45679e-08
7.75489e-06
0.000144165
1.79862e-05
0.0181771
0.0187397
1.08311e-06
0.0469929
0.00534144
0.00246277
5.1764e-08
1.8727e-09
1.0628e-06
1.02434e-07
3.4558e-06
0.0774585
0.0938186
0.0958715
0.100346
0.120216
0.129609
0.124995
0.0754573
0.0213743
0.001139
0.00500942
6.21538e-09
0.00247492
0.00177981
0.00120128
9.37383e-05
3.97949e-07
0.000143555
1.84007e-05
1.05566e-08
2.4028e-07
3.44051e-05
1.50557e-05
1.04348e-11
0.0165368
0.0255064
0.00775241
0.02987
0.0330486
0.0165078
0.00016121
6.17867e-06
6.10056e-15
1.67271e-06
3.73866e-10
7.68693e-09
2.11182e-06
0.0755949
0.0924986
0.0916002
0.0950177
0.0938337
0.0993463
0.122782
0.0968982
0.00871156
0.000417659
0.00373086
4.85739e-07
0.00288163
0.00273884
0.0012787
9.10914e-05
4.50122e-06
0.000161526
3.30739e-05
7.06839e-07
3.91448e-08
0.000150983
3.72577e-06
0.0104205
0.0260678
0.0195411
0.00647394
0.0537777
0.00241069
0.00795121
0.000159925
7.55312e-05
5.38794e-07
6.54097e-07
4.62267e-08
5.50419e-07
1.75494e-08
3.56356e-07
0.0741742
0.0888839
0.0884093
0.0892893
0.0944381
0.0821936
0.0646938
0.122152
0.0695739
0.000395097
0.00153875
0.000104326
0.00773305
0.0031779
0.00233734
9.39606e-05
4.6979e-05
0.000322153
8.32067e-05
5.58088e-06
3.15564e-08
3.62029e-08
0.0102558
0.0276821
0.0277904
1.73348e-06
0.0515164
0.0282501
0.00132805
0.000225641
0.00650162
0.00079231
7.52188e-06
2.46323e-07
3.82367e-07
5.3331e-07
3.92991e-07
1.50776e-06
2.80044e-08
0.0726988
0.0865382
0.0836292
0.0847247
0.0874303
0.0959122
0.0630593
0.0170675
0.100676
0.092827
0.0133306
0.000413773
0.00930942
0.00884828
0.00330253
0.000273304
1.3006e-05
0.000116755
0.000200956
1.30177e-16
0.00126369
0.0157007
0.0290847
0.0381485
0.000975437
0.0423383
0.0409588
0.00098858
0.00301597
0.00011366
0.0188006
0.00140739
4.85297e-05
1.56895e-08
1.64726e-06
3.45066e-07
1.87554e-07
3.79527e-09
5.33142e-06
1.43996e-10
0.0723983
0.0850017
0.082486
0.0836825
0.0832503
0.0865626
0.0974987
0.0288809
4.93902e-06
0.0305614
0.124624
0.0278621
0.000600034
0.00594641
0.00652158
1.41538e-06
0.000172375
2.60072e-07
0.000350363
0.0118148
0.0157092
0.0362082
0.0356534
0.00306582
0.0378013
0.0469037
0.007102
6.73763e-07
0.00114476
0.000263178
0.0217385
0.00111852
0.000182819
2.78464e-10
3.85013e-06
2.35788e-07
4.41938e-07
1.32333e-11
2.12311e-09
1.22387e-05
9.82814e-07
0.0743645
0.0855498
0.0837963
0.0857855
0.0870784
0.0839567
0.0838579
0.10326
0.00123687
0.00704298
0.0290599
0.107498
0.09382
0.0144706
0.00391904
0.00562198
0.000592826
0.00987461
0.0145967
0.0329464
0.046543
0.0326482
7.69954e-07
0.039201
0.0457638
0.0100557
7.9542e-08
4.84391e-07
0.000267627
2.00007e-06
0.0111651
3.39221e-05
0.000571938
3.97914e-07
1.05553e-05
1.05872e-07
6.73334e-07
1.33738e-09
4.05919e-08
1.4976e-07
4.25767e-05
3.12265e-06
0.0766027
0.0879033
0.0870089
0.0888735
0.0903376
0.0883235
0.0849043
0.0856419
0.105645
0.00619572
0.00214491
0.084602
0.00211387
0.088465
0.0821699
0.0618554
0.0528716
0.054469
0.0413605
0.0302277
0.00464105
0.00648341
0.0431313
0.0352838
0.00934083
1.13406e-05
3.17965e-06
4.92964e-07
9.90428e-05
4.50175e-05
0.000737695
0.000709817
0.00129505
6.55814e-06
1.15982e-05
1.48484e-08
7.9391e-07
3.72099e-09
1.85036e-08
4.20778e-07
4.49828e-06
6.8154e-05
3.47988e-07
0.0807442
0.0906867
0.0894182
0.0912961
0.0924171
0.0898373
0.0866456
0.0840239
0.091911
0.0819828
0.0128917
0.00200263
0.0756267
0.0996898
0.0297343
0.0234819
0.009793
0.00921765
0.00190079
0.00663593
0.0176293
0.0363972
0.0256831
0.00692412
1.55901e-05
5.49476e-06
8.33252e-07
5.11671e-07
9.6029e-07
0.000145998
3.78176e-05
0.0086738
0.00190784
3.43445e-05
9.65152e-06
2.47024e-14
2.16952e-06
1.14952e-08
1.76932e-08
2.56629e-07
6.2751e-06
1.80897e-05
2.13264e-06
0.00180575
0.0840825
0.0950267
0.0934312
0.092394
0.0929841
0.0901532
0.0875141
0.0841678
0.0774033
0.0858958
0.0235771
0.0045606
0.017729
0.037843
0.0825562
0.0785691
0.0600541
0.0478235
0.0382052
0.0383759
0.023155
0.0138911
0.0019763
2.37167e-09
3.72285e-06
6.2286e-11
6.80085e-08
3.56379e-06
1.83603e-07
3.04591e-05
0.000394811
0.0153489
0.00132957
0.000119264
2.39859e-06
2.16327e-08
2.30087e-06
2.90335e-08
1.14146e-08
2.36639e-07
4.49343e-06
2.67686e-05
2.82552e-07
0.000702136
0.0141359
0.084308
0.0962443
0.0956249
0.0940651
0.0930727
0.0899563
0.0878243
0.0860291
0.075986
0.0565107
0.0898487
0.013053
0.000120125
0.006055
0.00367737
0.0185888
0.0260465
0.0259118
0.0202005
0.00834464
0.00179956
5.27028e-05
2.81128e-06
1.94215e-08
3.89833e-11
6.22918e-06
1.68215e-06
5.37546e-11
8.38919e-07
2.45663e-07
4.04909e-05
0.0103024
7.40596e-05
0.000337789
1.28429e-09
2.09124e-07
2.65064e-06
7.09898e-08
6.25483e-09
2.00777e-07
3.81943e-06
2.60671e-05
2.22278e-06
0.00066941
0.0113599
0.0283486
0.0834173
0.0947654
0.0933615
0.091931
0.0915908
0.0892214
0.0879832
0.0873891
0.0748872
0.0524085
0.0473793
0.0937042
0.0603112
0.02151
6.58777e-06
9.24734e-05
6.84368e-10
0.000309367
0.000345579
7.16747e-05
3.23342e-06
5.75178e-09
7.45464e-08
3.9504e-09
1.25528e-05
6.4345e-12
1.69634e-07
1.05923e-08
8.09686e-07
2.3864e-07
4.59801e-06
0.00131005
0.000179816
0.000984547
4.03332e-06
1.31665e-06
1.76853e-06
1.49078e-07
2.43113e-09
1.6737e-07
3.16493e-06
2.71392e-05
4.80255e-06
0.000405518
0.0109771
0.0265955
0.0367145
0.0817072
0.093174
0.0907521
0.0891246
0.0884666
0.0870182
0.087543
0.0878938
0.0734588
0.0509914
0.044411
0.0542871
0.0523706
0.0453104
0.0114523
0.000103317
3.43524e-05
6.37884e-06
2.03793e-06
0.000110271
0.000119421
7.61587e-05
2.81162e-05
5.99793e-06
2.08569e-10
4.68614e-07
7.55816e-07
2.35792e-07
9.52577e-08
3.62684e-06
0.000125947
5.97539e-06
0.00409797
0.00143263
6.56602e-05
3.46324e-06
6.86533e-07
2.45247e-07
5.29965e-10
1.31772e-07
2.65739e-06
2.68848e-05
9.46005e-06
0.000248806
0.00979671
0.0265684
0.0361857
0.0396202
0.0800225
0.0904436
0.0886703
0.0879655
0.0869462
0.0859644
0.0875172
0.0882171
0.0725572
0.0500353
0.0455015
0.0365291
0.0569461
0.00302532
0.00450696
0.000145306
4.88998e-05
1.05155e-10
4.13126e-09
2.2407e-05
1.98731e-05
9.22166e-06
9.35986e-07
3.1203e-10
1.09957e-07
1.54191e-06
3.32574e-06
2.70811e-07
2.05799e-09
1.44364e-06
2.47122e-05
0.000828875
0.0090808
0.000796927
0.000176956
8.91709e-06
9.47501e-08
6.81957e-07
5.52722e-11
9.57028e-08
2.23279e-06
2.64016e-05
1.53383e-05
0.000135508
0.00878251
0.0258215
0.0366917
0.0398698
0.0397064
0.0820413
0.089709
0.0866545
0.0861953
0.0863664
0.0860274
0.0885177
0.0880493
0.0718015
0.0499381
0.0487813
0.0318498
0.0120764
0.0729572
0.0469181
4.64817e-06
5.32494e-05
3.31188e-06
3.32526e-06
7.49392e-06
1.42412e-05
7.34498e-06
1.01611e-06
1.70685e-14
6.11917e-07
3.08967e-06
2.94887e-06
2.40907e-07
1.70333e-12
2.80336e-07
9.18485e-11
0.000772606
0.00798022
3.46897e-05
0.000326507
3.58725e-06
2.49278e-09
1.08283e-06
4.30704e-13
6.6003e-08
1.85156e-06
2.5573e-05
2.25378e-05
6.54425e-05
0.00776365
0.0251469
0.0366533
0.0408097
0.0402772
0.0388797
0.0840845
0.0918751
0.0882057
0.0862955
0.0852817
0.0859316
0.0893403
0.0876221
0.0682472
0.0505621
0.0510984
0.0314693
0.00630908
0.0150444
0.0606785
0.0229465
5.76438e-12
2.76627e-06
7.18927e-06
2.98827e-06
1.58744e-05
4.67335e-06
7.54201e-07
1.91446e-13
2.26548e-07
1.9497e-06
2.89736e-06
2.57827e-07
2.94945e-10
8.17791e-09
4.82895e-07
0.00016703
0.00271854
0.000170097
0.000571082
3.95743e-10
2.55376e-13
1.48625e-06
4.39841e-13
4.50094e-08
1.45943e-06
2.45276e-05
3.06579e-05
2.6405e-05
0.00678847
0.0243864
0.0366641
0.0413043
0.0413721
0.0396132
0.0377077
0.0883615
0.0938517
0.0896143
0.087546
0.086109
0.0867264
0.0903524
0.0869904
0.0657745
0.0504772
0.0524589
0.030323
0.0046841
0.00238637
0.0478948
0.00050857
0.000881914
9.46873e-08
5.3237e-05
2.66635e-09
2.59063e-05
8.79707e-06
2.13355e-06
1.28069e-09
1.29942e-07
1.54772e-06
2.79306e-06
3.79778e-07
3.50841e-10
5.36098e-13
5.94434e-06
2.18884e-05
0.000146587
0.00332835
0.000588932
1.13166e-05
1.51078e-10
1.27231e-06
2.3328e-11
3.2355e-08
1.0717e-06
2.32222e-05
3.97692e-05
8.09881e-06
0.00585977
0.0235838
0.0366017
0.0418646
0.0420776
0.0407426
0.0385611
0.0362393
0.0920812
0.097017
0.09066
0.0878135
0.0866469
0.0884846
0.0933317
0.085762
0.0639993
0.0508516
0.0545861
0.0270156
0.00405669
0.00121668
0.00768689
0.0656966
0.0484577
0.00117148
3.23149e-05
3.59042e-06
2.47234e-05
1.38123e-05
4.72983e-06
1.68177e-08
7.20157e-08
1.37766e-06
3.09793e-06
6.08567e-07
2.67618e-11
2.91323e-10
4.82057e-06
6.99652e-05
5.23146e-15
0.00676276
0.000639652
0.000181026
1.22517e-07
6.76143e-07
2.08174e-10
2.70972e-08
7.45201e-07
2.12962e-05
4.97409e-05
1.53613e-06
0.00498628
0.0227312
0.0364954
0.0423822
0.0428748
0.0415094
0.0396875
0.037206
0.0345266
0.0932084
0.0980989
0.0900882
0.0873828
0.0867705
0.0896272
0.0952827
0.085779
0.0623554
0.0521912
0.0546199
0.0239016
0.0036144
0.00170306
0.00344701
0.0127513
0.0265468
0.0299441
0.00168772
3.69806e-05
1.03663e-05
2.10463e-05
9.91297e-06
7.44109e-08
4.72747e-08
1.28216e-06
3.24996e-06
9.48773e-07
6.06175e-13
2.443e-09
6.02667e-06
0.000135523
1.41052e-06
0.0056686
6.83619e-05
0.000499727
8.98143e-09
2.07394e-07
1.40971e-09
2.42869e-08
4.99012e-07
1.88603e-05
6.07476e-05
9.07504e-08
0.0041785
0.0218345
0.036332
0.0428788
0.0436632
0.042373
0.0404872
0.0383017
0.035593
0.0326439
0.0935082
0.0978004
0.087334
0.0846218
0.0864515
0.0903069
0.0959707
0.0856967
0.0602543
0.0560648
0.0547959
0.0226046
0.00221019
0.00160091
0.00328281
0.000519465
0.0331111
0.0019567
0.00415524
8.2531e-05
1.46322e-07
1.96983e-05
2.02785e-05
2.54288e-07
2.52279e-08
1.22724e-06
3.33779e-06
1.37834e-06
5.72384e-10
6.59414e-09
3.00375e-06
5.39831e-05
6.02131e-06
0.00229056
3.12873e-05
0.000614455
7.19662e-08
8.54428e-08
6.97308e-09
2.46901e-08
3.46382e-07
1.58474e-05
7.14779e-05
3.81334e-15
0.00344158
0.0208966
0.0361194
0.0433474
0.0444686
0.0432373
0.0413784
0.0391156
0.0366343
0.033793
0.0306761
0.094453
0.0971979
0.085705
0.0826704
0.0851951
0.092154
0.0965223
0.0855614
0.0597939
0.0591395
0.054734
0.0205044
0.00189134
0.00172323
0.00303471
0.00010384
0.000275552
0.0413903
0.0138206
0.000166562
2.30136e-07
5.38085e-06
3.50376e-05
7.86177e-07
6.79191e-09
1.15878e-06
3.3527e-06
1.9501e-06
8.71185e-09
7.73014e-09
5.63471e-07
3.24676e-06
2.13894e-05
0.000340468
0.00226589
0.000614946
6.5695e-07
1.57912e-08
1.89022e-08
2.74535e-08
2.77486e-07
1.28722e-05
8.05193e-05
8.22906e-08
0.00278447
0.0199267
0.0358531
0.0437818
0.0452848
0.0441253
0.0422705
0.0400158
0.0374499
0.0347561
0.031899
0.0287251
0.0964035
0.0978394
0.0845122
0.0817077
0.084921
0.0942451
0.0967418
0.085207
0.0596293
0.0620635
0.0527839
0.0179824
0.00147273
0.00197475
0.00262757
0.000101303
1.35472e-05
0.0181518
0.000442463
0.00652421
7.76409e-05
1.42083e-07
4.03317e-05
2.09932e-06
6.10823e-11
1.01931e-06
3.51053e-06
2.61342e-06
5.15139e-08
3.537e-09
2.85043e-08
9.65283e-08
0.000214202
2.22035e-05
0.00651417
0.000622962
6.11653e-05
3.90416e-08
1.75262e-08
3.05227e-08
2.59371e-07
1.01701e-05
8.67002e-05
1.10776e-06
0.00220812
0.0189313
0.0355428
0.0441755
0.0461108
0.0450295
0.0431884
0.0409196
0.0383432
0.035561
0.0327575
0.0299983
0.0268883
0.0977592
0.0991686
0.0846205
0.0812778
0.0852717
0.0954326
0.0964164
0.0830166
0.0592443
0.0634414
0.0510451
0.0183812
0.00126439
0.0025789
0.00218443
7.96017e-05
8.01097e-05
0.000179733
0.0370256
0.0152817
0.00187743
1.10715e-08
2.25849e-05
4.30832e-06
2.09931e-09
7.29088e-07
3.91803e-06
3.44174e-06
2.02362e-07
9.56245e-10
9.62262e-11
1.47829e-08
0.000485715
2.12934e-06
0.00671468
0.000168811
0.000454068
3.68672e-08
3.32649e-09
2.9536e-08
2.8775e-07
8.05901e-06
8.90734e-05
4.75273e-06
0.00171262
0.0179183
0.035191
0.044529
0.0469433
0.0459551
0.0441253
0.0418456
0.039243
0.0364301
0.0335315
0.0307294
0.0281667
0.0252475
0.0986493
0.0997775
0.0848639
0.0826083
0.0865538
0.0969632
0.096027
0.0795369
0.0580002
0.0660593
0.049356
0.0172423
0.00216266
0.00410314
0.00194386
7.33854e-05
0.000104459
1.25849e-06
0.0066162
0.0146573
0.0142176
3.81367e-05
5.55557e-06
4.97819e-06
1.21687e-07
3.44004e-07
4.78616e-06
4.55317e-06
5.63634e-07
1.19376e-10
4.5066e-10
1.71014e-09
0.000432566
5.44177e-07
0.00389006
7.00514e-08
0.00092012
8.24695e-11
5.3585e-12
2.2056e-08
3.33527e-07
6.5572e-06
8.84234e-05
1.22477e-05
0.00129321
0.0169093
0.0348073
0.0448442
0.0477807
0.0469012
0.045083
0.0427927
0.0401656
0.0373092
0.0343666
0.0314647
0.0287655
0.0264939
0.0238698
0.0987125
0.0994829
0.0845706
0.0835582
0.0889242
0.0987009
0.0958612
0.0769062
0.0571473
0.0668121
0.0457267
0.0163338
0.00288892
0.00546238
0.00148173
9.56226e-05
0.00012158
8.77862e-08
5.97346e-05
0.0310128
0.00190965
0.00175421
7.50771e-07
2.73153e-06
7.00531e-07
5.94957e-08
5.80801e-06
6.63045e-06
1.12081e-06
2.32871e-13
1.00757e-07
3.91048e-07
0.000234664
1.1656e-10
0.00123545
0.000419518
0.000881799
2.89622e-07
1.69178e-10
1.11562e-08
3.88351e-07
5.6312e-06
8.57486e-05
2.36954e-05
0.000945422
0.0159185
0.0343851
0.0451243
0.0486128
0.0478657
0.0460636
0.0437622
0.0411061
0.0382168
0.0352108
0.032243
0.0294545
0.0269643
0.0250401
0.0228171
0.09795
0.0985969
0.0833917
0.084618
0.0913131
0.0998454
0.095645
0.0750374
0.0570348
0.0656208
0.0429509
0.0130432
0.00391512
0.00676723
0.000857726
9.64749e-05
6.02129e-05
3.27287e-08
1.35736e-07
0.0024317
0.0213271
0.0129102
3.61262e-05
1.39808e-06
7.95458e-07
9.78411e-11
6.13313e-06
1.11606e-05
1.52263e-06
4.0721e-09
2.04589e-06
5.33309e-07
0.00016156
5.61787e-06
0.000256678
0.0034544
0.00074422
1.19915e-05
1.62958e-10
5.8307e-09
4.34864e-07
5.16966e-06
8.27466e-05
3.81062e-05
0.000667714
0.0149328
0.0339327
0.0453595
0.0494364
0.0488553
0.0470645
0.0447475
0.042067
0.0391399
0.0360805
0.0330387
0.0301581
0.0275815
0.0253937
0.0238639
0.0221308
0.0984322
0.0966642
0.0815754
0.0857057
0.09402
0.101113
0.0956957
0.0726469
0.0570074
0.0651661
0.0410832
0.0103778
0.00628528
0.00765127
0.000502179
9.69376e-05
2.96093e-05
3.88254e-07
1.79839e-16
1.27232e-06
0.031836
0.00434731
0.00153776
1.35542e-06
4.65032e-08
1.61734e-08
4.8265e-06
2.01563e-05
1.78676e-06
2.13097e-08
1.35306e-05
5.61561e-08
7.01568e-05
0.000119206
3.05807e-05
0.00541598
0.000626614
0.000185655
5.64853e-11
8.99149e-09
4.92461e-07
4.91665e-06
8.02883e-05
5.45216e-05
0.000456515
0.0139602
0.0334552
0.0455565
0.0502499
0.0498638
0.0480937
0.0457587
0.0430484
0.0400784
0.036971
0.0338598
0.0308936
0.0282091
0.0259159
0.0240976
0.0230112
0.0218375
0.0998323
0.095953
0.0806329
0.0867435
0.0962087
0.101457
0.0946834
0.0701151
0.0571485
0.0645022
0.0398403
0.00981222
0.0085675
0.00857881
0.000348075
8.31846e-05
1.43313e-05
6.21238e-07
5.20768e-09
7.19498e-08
0.0021754
0.0242512
0.0101815
2.02643e-05
3.91019e-10
1.28357e-07
2.32971e-06
3.31666e-05
2.93637e-06
2.44542e-10
2.9774e-05
2.75632e-12
2.03159e-05
0.000227616
1.17944e-05
0.00405993
9.57139e-05
0.000759311
5.2657e-10
4.1676e-08
5.443e-07
4.74782e-06
7.8572e-05
7.21775e-05
0.000302935
0.0130051
0.0329612
0.0457153
0.0510473
0.0509023
0.0491498
0.0467904
0.04405
0.0410425
0.0378792
0.034698
0.0316518
0.0288606
0.026455
0.0245228
0.0231279
0.0225211
0.0219719
0.101358
0.0963436
0.0813611
0.0894945
0.0983454
0.100963
0.0914438
0.0658468
0.0570562
0.0636237
0.0366737
0.00952655
0.0111062
0.00797249
0.00010364
8.55326e-05
3.88822e-06
3.35135e-06
3.06035e-08
2.27812e-07
4.26397e-06
0.0355242
0.00421092
0.000933431
5.59872e-11
1.66088e-10
4.0135e-07
4.26945e-05
8.23214e-06
1.17277e-07
2.18403e-05
1.01743e-09
5.21729e-06
0.0001522
6.13407e-06
0.00216243
6.63465e-07
0.00110469
2.49978e-08
1.79296e-07
5.34877e-07
4.45185e-06
7.71244e-05
9.20084e-05
0.000195667
0.0120827
0.0324488
0.045837
0.0518281
0.0519708
0.0502378
0.04785
0.0450737
0.0420186
0.0388064
0.0355644
0.0324322
0.0295419
0.0270196
0.0249665
0.0234601
0.0225208
0.022418
0.0225463
0.102909
0.0970351
0.0819802
0.0925657
0.100434
0.100024
0.0882348
0.0611881
0.059049
0.0617754
0.0356542
0.00918852
0.0124581
0.00656161
9.10224e-05
2.87774e-05
5.11334e-07
4.8735e-06
1.64386e-07
5.37105e-07
6.08837e-06
0.00274576
0.0157687
0.00819149
2.46715e-09
2.88349e-06
1.81606e-09
4.34091e-05
1.51207e-05
5.86638e-06
7.08881e-06
1.38325e-10
1.73529e-06
5.76179e-05
6.38237e-07
0.000848006
0.000675469
0.00104146
4.40891e-08
3.46498e-07
4.42186e-07
4.07409e-06
7.57232e-05
0.000114363
0.000122203
0.0112171
0.0319177
0.0459214
0.0525895
0.0530781
0.0513611
0.0489351
0.0461129
0.0430166
0.0397498
0.036444
0.0332349
0.0302513
0.0276164
0.0254374
0.0237899
0.0227383
0.0223051
0.0227382
0.0235943
0.104901
0.0981076
0.0831365
0.0947474
0.101492
0.0988701
0.0842016
0.0588988
0.0612416
0.0609411
0.0333552
0.0118275
0.0166519
0.00567457
0.000110451
1.18621e-05
1.08864e-07
1.16664e-05
1.43109e-07
1.80582e-08
4.53028e-07
6.36125e-07
0.0485597
0.0106705
0.00122719
2.52945e-05
2.11757e-09
3.73542e-05
1.50883e-05
1.35266e-05
8.94742e-07
1.16974e-08
5.93611e-07
2.30305e-05
6.38012e-06
0.000237529
0.00234729
0.000961277
6.96601e-06
2.19304e-07
3.42528e-07
3.771e-06
7.43094e-05
0.000139815
7.32014e-05
0.0104222
0.0313806
0.0459683
0.0533262
0.054224
0.0525236
0.0500426
0.0471741
0.0440292
0.0407164
0.0373487
0.0340602
0.0309868
0.0282414
0.0259377
0.0241573
0.0229492
0.0223974
0.0225112
0.0235005
0.0251372
0.107936
0.100157
0.0843492
0.0965195
0.101462
0.0969206
0.0789918
0.057725
0.0631344
0.0596562
0.0285907
0.014726
0.0171502
0.00506108
0.000204449
1.78549e-05
9.5451e-08
5.61657e-06
9.1059e-08
4.03208e-09
1.4346e-09
2.2002e-06
0.011753
0.00143746
0.00551258
6.23902e-06
1.43552e-08
2.52347e-05
9.18627e-06
6.21624e-06
3.78369e-07
3.37339e-07
1.74204e-07
9.2862e-06
4.00449e-05
5.83109e-05
0.0024446
0.000686679
0.000107802
3.16669e-08
3.64442e-07
3.72109e-06
7.33498e-05
0.00016794
4.11567e-05
0.00970041
0.0308603
0.0459804
0.0540353
0.0554225
0.0537293
0.0511789
0.0482604
0.04508
0.0417319
0.0382968
0.0349283
0.0317578
0.0289035
0.0264697
0.0245533
0.0232104
0.0224894
0.0224711
0.0231606
0.0247198
0.0271815
0.112653
0.103183
0.086071
0.0971433
0.100138
0.0938415
0.0740988
0.0577499
0.0661695
0.058294
0.0251563
0.0174497
0.0182927
0.00354582
0.000378363
9.05867e-06
7.32599e-11
9.05157e-06
4.29211e-09
3.05961e-07
1.81398e-08
1.01752e-07
1.23859e-05
0.0459635
0.0107233
0.000297339
2.35979e-05
9.08856e-06
1.95866e-06
1.4748e-06
1.23736e-06
4.75877e-07
4.11158e-08
3.51793e-06
0.000102203
4.14119e-05
0.00210624
0.000103047
0.000364592
2.22593e-08
5.50945e-07
3.87474e-06
7.29335e-05
0.000196262
2.11287e-05
0.00904475
0.0303867
0.0459972
0.0547112
0.056682
0.0549821
0.0523414
0.0493836
0.046172
0.0427207
0.0391994
0.0357509
0.0325004
0.0295611
0.0270318
0.0249832
0.0234989
0.0226305
0.0224319
0.0229664
0.0242621
0.0264291
0.0297095
0.11659
0.106457
0.0881931
0.0967798
0.0982735
0.0901376
0.0703233
0.0594933
0.0710296
0.0549609
0.0240525
0.0214527
0.0186245
0.00311025
0.000453628
8.59982e-06
7.56946e-08
1.00396e-05
8.4414e-09
1.17645e-06
1.06248e-11
5.98544e-06
1.91027e-05
0.0380614
0.00122648
0.00460232
0.000195737
2.40574e-07
6.99555e-08
1.36342e-08
1.32463e-06
7.18245e-07
9.86198e-09
1.10081e-06
5.98437e-05
6.51883e-05
0.000818935
1.01509e-07
0.000476618
1.6406e-07
8.74472e-07
3.90635e-06
7.36298e-05
0.000222866
9.64557e-06
0.00845173
0.0299725
0.046039
0.0553565
0.0579953
0.0562722
0.0535324
0.0505329
0.0472087
0.0436989
0.0401208
0.0365782
0.0332492
0.0302178
0.0275768
0.0254185
0.0238124
0.0227952
0.0224374
0.0227983
0.023916
0.0258325
0.0286143
0.0326723
0.119975
0.108899
0.0877876
0.0954513
0.0955288
0.0861978
0.0683661
0.0646341
0.0730965
0.0521007
0.022748
0.0244815
0.0184295
0.00261701
0.000404361
1.29984e-05
1.55626e-07
1.15361e-05
5.34389e-07
5.8465e-07
2.01342e-10
4.90632e-07
4.30942e-06
0.000731381
0.0182653
0.0115928
0.000251048
1.47311e-11
9.89169e-08
2.95902e-08
4.24412e-06
1.29428e-06
1.68263e-09
3.97775e-07
1.72188e-05
2.00182e-06
0.000250808
0.000248029
0.000484016
4.02452e-11
8.84968e-07
3.6913e-06
7.60891e-05
0.000247937
3.7981e-06
0.00790049
0.029608
0.0461583
0.0559653
0.0592907
0.0576148
0.0547522
0.0516284
0.0482434
0.0446764
0.0410146
0.0374689
0.0340795
0.0309483
0.0281985
0.0259114
0.0241473
0.0229919
0.0224794
0.0226515
0.0235918
0.025316
0.0278946
0.0312571
0.0360245
0.123392
0.111138
0.0861126
0.0932042
0.0920995
0.0829012
0.0683313
0.0698779
0.0754089
0.0495167
0.0217757
0.0301408
0.0180731
0.00212836
0.000409638
5.75896e-06
2.83325e-07
8.10317e-06
3.19523e-07
3.44286e-07
5.62483e-09
1.53529e-09
2.79753e-09
0.000471926
0.0527885
0.0121361
0.0038695
5.27208e-07
6.09807e-07
8.00248e-08
9.57749e-06
2.48087e-06
2.35151e-10
1.62323e-07
4.49436e-06
1.80059e-09
3.63331e-05
0.000698237
0.000495839
3.00598e-06
4.58154e-07
3.54889e-06
8.15127e-05
0.000271335
1.28482e-06
0.00739041
0.0293088
0.0463566
0.0565443
0.0605332
0.0590244
0.0559136
0.0526931
0.0492719
0.0456202
0.0419991
0.0383867
0.0349074
0.0316935
0.0288382
0.026429
0.0245439
0.0232315
0.0225542
0.0225589
0.0233012
0.02483
0.0271848
0.0304091
0.0343154
0.0396547
0.125644
0.11321
0.0844393
0.0909473
0.088962
0.0809731
0.0711596
0.0769447
0.0759028
0.0452911
0.0238402
0.0341692
0.0185158
0.00256621
0.0001669
8.83708e-06
1.59492e-07
2.76156e-06
1.14562e-06
1.27038e-07
2.50789e-07
3.61868e-08
8.96099e-06
8.60251e-06
0.0278749
4.34482e-05
0.00433959
5.07155e-05
3.84254e-07
1.14392e-08
9.09388e-06
4.14615e-06
8.58043e-11
7.80631e-08
1.02929e-06
1.46477e-06
4.69352e-06
0.00133618
0.000308433
4.42015e-05
2.07765e-07
4.07456e-06
8.91637e-05
0.000293225
3.85437e-07
0.00693678
0.0290685
0.0465768
0.0570921
0.0616704
0.0604915
0.0570677
0.0537566
0.0502398
0.0466508
0.0429901
0.0392984
0.0357543
0.0324561
0.0295092
0.0269892
0.0249692
0.023508
0.0226709
0.0225042
0.0230659
0.0244008
0.0265436
0.0295315
0.0333519
0.0377101
0.043382
0.128346
0.114832
0.082867
0.08913
0.0869026
0.0800479
0.074755
0.0831751
0.0753709
0.0413172
0.0259355
0.0373418
0.0185514
0.0025078
9.09221e-05
1.48854e-06
1.22537e-06
8.31953e-07
6.01655e-07
2.39671e-09
1.47594e-07
1.00089e-07
4.02617e-06
4.97348e-06
1.91134e-05
0.0159717
0.0107942
0.000592681
4.02932e-07
9.84825e-09
9.89843e-06
5.95399e-06
3.30957e-11
4.87509e-08
1.43486e-07
1.24939e-05
1.96907e-06
0.000713086
4.35184e-05
7.65497e-05
7.37406e-07
5.25852e-06
9.66446e-05
0.000310601
1.03558e-07
0.00654334
0.028835
0.0467678
0.0576255
0.0626534
0.0618184
0.0582319
0.0547369
0.0512618
0.0477074
0.0439681
0.0402345
0.0366199
0.0332402
0.0301912
0.0275677
0.0254208