/*--------------------------------*- C++ -*----------------------------------*\
| =========                 |                                                 |
| \\      /  F ield         | OpenFOAM: The Open Source CFD Toolbox           |
|  \\    /   O peration     | Version:  v2012                                 |
|   \\  /    A nd           | Website:  www.openfoam.com                      |
|    \\/     M anipulation  |                                                 |
\*---------------------------------------------------------------------------*/
FoamFile
{
    version     2.0;
    format      ascii;
    class       volScalarField;
    location    "0";
    object      I2_4;
}
// * * * * * * * * * * * * * * * * * * * * * * * * * * * * * * * * * * * * * //

dimensions      [0 0 0 0 0 0 0];


internalField   nonuniform List<scalar> 
27324
(
0.945154
1.02888
1.17602
1.14641
1.3172
1.29258
1.12687
1.31538
1.54497
1.3724
1.07025
1.2483
1.42662
1.74963
1.30376
1.06595
1.17664
1.37621
1.50642
1.66155
1.29798
1.16889
1.1959
1.33169
1.47758
1.40301
1.63135
1.37358
1.37762
1.33086
1.42171
1.49333
1.46806
1.49534
1.64891
1.60412
1.5557
1.5372
1.64114
1.65018
1.60453
1.60063
1.596
1.86295
1.58255
1.54675
1.63543
1.90533
1.87989
1.833
1.70509
1.76718
1.82908
1.76609
1.5552
1.37382
1.55873
1.99975
2.09531
2.05227
1.84327
1.94381
1.94826
1.7623
1.65643
1.74253
1.28134
1.45248
1.89523
2.14835
2.17209
1.9897
2.13972
2.03763
1.89348
1.69609
1.83215
1.87832
1.46294
1.54519
1.83645
2.10253
2.15235
2.16922
2.3331
2.13823
2.01605
1.86139
2.01114
1.88999
1.80822
1.96992
2.05087
2.07861
2.21369
2.13797
2.39993
2.54103
2.27235
2.15508
2.06626
2.19032
1.94284
1.77277
1.67582
2.65753
2.92468
2.80192
2.62301
2.36782
2.7205
2.7437
2.45972
2.32953
2.30412
2.32912
2.0085
1.80778
1.63464
1.63725
2.93178
3.46331
3.61569
3.31489
2.90343
3.2009
2.91662
2.63874
2.53938
2.55329
2.38548
2.07477
1.86982
1.71392
1.60995
1.63948
2.50578
3.03362
3.61911
3.59289
3.53008
3.5762
3.0627
2.76737
2.72682
2.76268
2.37445
2.14874
1.94393
1.8119
1.74709
1.62373
1.63318
2.14902
2.32674
2.90164
3.20629
3.58579
3.52309
3.09235
2.90736
2.88478
2.89985
2.34196
2.21547
2.04561
1.9363
1.89366
1.77923
1.63619
1.66498
2.32781
2.21894
2.43439
2.70935
3.22138
3.06822
2.98266
3.00819
3.08918
2.95593
2.35553
2.28266
2.16322
2.10153
2.05366
1.91913
1.77659
1.67375
1.66054
2.91344
2.84845
2.7666
2.79181
2.95255
2.68109
2.81464
3.04426
3.30451
3.01136
2.44163
2.38924
2.29212
2.26912
2.23541
2.07104
1.90351
1.78253
1.66787
1.66314
3.45027
3.86607
3.84788
3.7044
3.27162
2.72335
2.84686
3.15759
3.48361
3.05007
2.68296
2.55523
2.42468
2.42534
2.42065
2.23419
2.03572
1.89214
1.78721
1.65241
1.62293
3.40131
4.38776
4.8625
4.97788
4.10876
3.3374
3.26669
3.49348
3.70325
3.07903
2.94666
2.7794
2.5963
2.56772
2.56797
2.40495
2.18613
2.00732
1.89367
1.77558
1.60578
1.53225
3.10986
4.05581
4.86699
5.28872
4.79631
4.273
4.0205
4.02915
3.91866
3.20962
3.12898
2.98218
2.80907
2.73803
2.69871
2.56903
2.34687
2.12827
1.99836
1.87281
1.74092
1.56472
1.31862
3.51243
3.68479
4.33081
4.65676
4.66061
4.83595
4.67984
4.46055
3.98074
3.36128
3.36565
3.17838
3.0106
2.91188
2.82352
2.71969
2.49505
2.2571
2.11062
1.97615
1.84098
1.71628
1.49766
1.62323
4.28269
4.23542
4.17796
4.22028
4.31752
4.74719
4.86398
4.47325
3.93089
3.40046
3.60099
3.4715
3.21836
3.08555
2.95117
2.84569
2.63387
2.37662
2.22441
2.09073
1.94862
1.8314
1.60345
1.55314
13.0591
4.52363
5.18232
4.99754
4.52718
4.46296
4.698
4.74019
4.2486
3.79338
3.56705
3.65457
3.75286
3.50235
3.26046
3.08342
2.97588
2.80379
2.49996
2.35266
2.20884
2.07212
1.94952
1.74586
1.49642
1.2815
8.81088
4.52958
5.75212
6.01416
5.67342
5.22633
5.05564
4.79919
4.13134
3.74121
3.80943
3.88778
3.83806
3.80234
3.50832
3.23001
3.08919
2.9896
2.6586
2.48545
2.33023
2.1978
2.07599
1.88064
1.64496
1.78641
0.311972
4.85941
5.64074
6.50716
6.49161
6.54748
6.32431
5.68342
5.09559
4.47132
3.9898
4.07668
4.2414
4.06908
3.99963
3.85722
3.45655
3.19282
3.17831
2.83919
2.62191
2.48795
2.31968
2.2189
2.00925
1.78403
1.71415
2.49021
0.381912
7.64012
8.08632
8.18426
7.11596
6.72118
6.72011
6.31976
5.42814
5.121
4.65978
4.64797
4.52283
4.44379
4.28263
4.19025
3.79876
3.4177
3.35663
3.03619
2.78644
2.65381
2.47474
2.37117
2.18793
1.96059
1.86504
4.4582
2.15316
0.996926
14.9745
12.8179
9.65811
7.69031
7.07561
6.79116
6.45864
5.83238
5.86014
5.57231
5.57135
5.11948
4.76623
4.6228
4.50949
4.12935
3.75641
3.64484
3.25556
2.97963
2.82848
2.66392
2.53568
2.36261
2.14732
1.9355
3.29424
1.43334
1.93059
2.33757
15.364
5.39698
148.21
7.57079
7.08155
7.15218
6.83224
6.03686
6.62507
6.57535
6.31704
5.92335
5.47265
4.91624
4.77118
4.42007
4.09248
3.9297
3.58862
3.16378
3.03146
2.8446
2.70698
2.51689
2.32476
1.94473
2.55556
0.964116
0.955929
2.97151
6.44728
5.52579
3.16684
7.90318
6.96243
6.2328
7.05755
7.69831
6.885
6.92579
7.61697
6.76187
6.47577
6.55638
5.53867
5.03601
4.58831
4.4526
4.12264
3.92953
3.34146
3.25232
3.01664
2.87037
2.70189
2.42172
1.93095
2.44465
0.759082
0.390932
2.055
4.80997
1.14724
4.44902
1.19654
3.62408
8.40831
1.2146
6.69154
8.27427
8.50084
7.93067
8.07905
7.29435
6.86581
7.33841
6.58328
5.49828
4.65136
4.75335
4.3347
4.26852
3.57091
3.48651
3.20399
3.08732
2.83385
2.44742
2.40053
2.08602
0.903737
0.0135385
1.84489
3.1604
1.48699
1.04456
7.85843
0.447767
1.10843
3.93725
6.95324
2.45394
7.509
9.12936
9.80923
9.02098
7.66326
7.42239
7.78454
7.21104
6.28682
4.90874
4.93835
4.55553
4.56944
3.73167
3.65844
3.42847
3.32121
2.8681
2.86761
2.67299
2.18617
19.4026
153.536
2.10241
1.95901
0.910666
3.23214
2.39879
4.79538
0.197996
0.478881
1.1546
5.15022
7.60627
2.24812
6.9414
10.1902
10.2971
8.72163
7.9089
8.26813
7.45314
6.90513
5.5753
5.26568
4.66059
4.89737
3.91078
3.84302
3.66291
3.64224
3.05089
3.37757
2.4568
5.99301
144.151
7.78264
0.980685
1.35201
0.570872
1.74484
4.35626
2.00427
3.0408
0.048511
0.16106
0.576727
1.23946
7.26664
9.74058
2.43118
5.38219
8.93916
9.81303
8.93724
8.92585
7.66813
7.09911
6.49016
5.84109
4.91225
5.1308
4.21074
4.21095
3.79543
4.12861
3.68352
3.34128
3.26491
163.561
13.1225
1.4391
0.309043
0.938253
1.64368
3.73516
2.58869
2.95478
2.22647
3.34158
0.846977
0.0628237
0.126681
0.710579
1.28333
9.48489
12.1289
3.03498
3.83197
8.06553
9.87404
9.90043
8.26645
7.21547
7.06547
6.43514
5.38527
5.4605
4.68683
4.7833
4.10611
4.98318
3.98477
3.33033
62.689
41.9818
3.41883
0.468854
0.204635
0.452723
3.13785
4.22859
2.65198
2.92532
3.1637
2.30843
3.50731
0.073163
1.0205
0.0823579
0.0926703
0.866165
1.26142
10.5251
14.8845
3.99071
3.56044
7.06614
9.44439
9.60014
7.96491
7.28127
6.94208
6.22181
6.05481
5.2727
5.60192
4.83383
4.98027
3.4579
29.296
130.547
7.17649
0.945454
0.241997
0.236433
0.277697
1.25157
4.38634
3.48855
3.22528
2.83664
2.98307
2.27943
3.97353
0.0257465
0.0631844
0.345714
0.0856828
0.0622836
1.09323
1.15721
9.07241
16.9537
6.27857
3.24064
5.41732
7.30996
9.51293
7.7191
7.08089
7.26186
7.0735
5.90963
5.86411
5.34512
4.6361
14.765
185.296
13.0239
1.81409
0.387259
0.220073
0.492524
0.295011
0.575263
5.60086
4.75208
3.50424
2.63939
2.88936
3.05504
2.60439
4.49561
0.00902243
0.0197801
0.0356562
0.136357
0.0642396
0.0491861
1.38739
1.06928
6.45829
16.9512
10.0473
4.67199
6.51624
5.01675
8.07009
6.3468
7.68174
6.66103
6.64302
5.56439
4.58968
83.9753
200.03
19.2188
2.89285
0.622928
0.292505
0.288234
1.4473
0.561877
0.310994
4.43018
5.99843
3.92382
2.4051
2.93701
2.97825
3.52217
3.05725
5.0056
0.00319372
0.00536724
0.013809
0.0302177
0.0976283
0.0421469
0.0479427
1.81628
1.01788
3.70065
13.4459
14.8827
10.194
6.22525
6.47384
16.3395
5.51956
10.1965
13.0707
47.6967
137.558
77.2186
14.9543
3.47736
0.883352
0.385901
0.316597
0.408922
3.64922
1.46879
0.209291
2.86155
6.76373
4.39634
2.24496
2.93775
3.14497
3.43544
4.0584
3.53212
5.46644
0.00311207
0.00316608
0.0057143
0.0235645
0.0647607
0.133818
0.0319562
0.0614908
2.16116
1.13114
1.74864
7.09713
14.6187
15.2369
13.4716
14.8378
9.92446
28.7523
40.7898
40.7615
25.7649
9.38108
2.93194
0.968869
0.494723
0.373145
0.444734
0.48221
1.87517
1.58403
0.185637
1.52318
6.99384
4.94779
2.12932
2.97328
3.28346
3.58874
3.97477
4.59472
3.93922
6.07967
0.427735
0.160324
0.0100352
0.0251461
0.0831094
0.180766
0.129829
0.0221139
0.0990198
2.39752
1.73101
0.729729
2.42611
6.59223
10.7791
11.8566
13.3328
14.4219
12.0657
7.9037
4.74582
2.28222
1.04292
0.592935
0.44617
0.489678
0.635111
0.596953
0.795879
0.00630033
0.23187
0.759547
6.24968
5.37152
2.17303
2.91177
3.43395
3.68472
4.15129
4.54645
5.05267
4.44788
6.22227
0.0169211
0.230409
2.29101
0.2321
0.100382
0.153658
0.166889
0.156149
0.019679
0.189361
2.33316
2.72762
0.270594
0.720818
1.71191
3.10831
3.70185
4.05806
3.64937
2.14564
1.58763
0.886592
0.606218
0.482435
0.554313
0.773907
0.792512
0.64309
0.468024
16.3902
0.442228
0.3976
4.72232
5.47132
2.32243
2.80766
3.6161
3.79707
4.26885
4.7652
5.07101
5.55348
4.96609
6.4755
0.00135108
0.0160098
0.0242904
0.0592294
0.809197
0.204308
0.0746678
0.1396
0.125814
0.0242906
0.406208
1.964
0.973016
0.0462032
0.197483
0.486193
0.818747
0.955125
0.909551
0.750256
0.689706
0.545752
0.531467
0.644502
0.895993
0.900791
0.929941
0.729234
0.330724
0.816201
1.32175
0.245157
2.98399
5.32493
2.73002
2.71306
3.70658
3.91132
4.41376
4.91301
5.3524
5.5956
5.97659
5.88907
6.9713
0.0060934
0.0173398
0.027398
0.0240546
0.089574
0.598998
0.0652757
0.107712
0.112818
0.0649925
0.0369176
0.858484
1.53511
0.748123
15.0206
0.00526086
0.22738
0.408995
0.447648
0.493376
0.543423
0.620225
0.878149
0.85244
1.18616
1.14458
0.992158
0.576103
0.334945
0.332782
3.39959
0.199003
1.63749
5.11361
3.52196
2.65213
3.75211
4.03599
4.56902
5.08742
5.56278
5.89815
6.13677
6.37819
8.24464
6.68914
0.239511
0.388339
0.221194
0.15427
0.24182
0.479365
0.156186
0.105731
0.218223
0.0331683
0.0315857
0.073724
1.52257
0.986621
0.952899
1.77966
1.25837
1.19239
0.696099
0.635369
0.83957
1.06781
1.13387
1.11715
1.39636
1.02393
0.733271
0.577367
0.352959
0.246189
0.0183844
0.230213
0.8874
5.11088
4.89564
2.57177
3.72168
4.17088
4.73867
5.27343
5.788
6.1568
6.49757
6.634
7.72102
10.6053
6.18165
0.0539796
1065.06
8.86216
1.3509
1.40495
1.04496
0.47373
0.186435
0.135449
0.0886656
0.0138311
0.0201539
0.176489
2.02495
0.738018
0.965949
1.52245
2.99927
2.13111
1.87635
1.63854
1.64826
1.52982
1.36986
1.01839
0.831505
0.71107
0.560281
0.400281
0.237294
30.7439
0.403347
0.510271
4.23662
6.20251
2.50247
3.61265
4.31399
4.91572
5.47442
6.00317
6.43333
6.827
6.95091
8.26798
8.75367
10.5604
5.28632
0.00521658
0.00393313
0.643352
11.2261
1.93705
1.47286
0.852454
0.316325
0.423595
0.0984563
0.321737
0.0018304
0.0275231
0.447087
1.84145
1.04015
0.69985
2.16587
2.04535
1.67984
1.55415
1.35938
1.18444
1.01518
0.939722
0.811828
0.678742
0.586928
0.448749
0.27074
0.966772
1.15495
0.333771
2.82621
6.07004
2.4569
3.46175
4.48878
5.09019
5.69339
6.22267
6.70686
7.18211
7.27786
8.59335
9.85059
8.39996
8.5816
4.41607
0.0379987
0.00953718
0.000614949
0.17512
1.83278
2.04197
1.10741
0.38231
0.551847
0.238081
0.231603
0.357286
0.00732681
0.0573889
0.975482
1.35051
0.571807
1.09774
2.11548
1.69538
1.4549
1.30697
1.18073
1.04802
0.908706
0.802496
0.716298
0.621665
0.494044
0.30886
0.329582
4.20174
0.265083
1.72108
5.46378
2.7381
3.36846
4.63639
5.25744
5.92616
6.45452
6.98143
7.54398
7.61626
8.99527
10.3546
9.77518
6.88601
6.46052
3.6234
20.7446
1.67317
0.0731971
0.000633258
0.031821
0.784527
1.24782
0.640074
0.68219
0.570733
0.251514
0.287714
0.854298
0.0149294
0.149875
1.46697
1.01419
6.8362
2.55247
1.90479
1.5741
1.3114
1.18441
1.0751
0.975191
0.862636
0.75363
0.655186
0.529795
0.351605
0.273286
9.84865
0.264524
1.00455
4.75426
3.42885
3.35923
4.74669
5.409
6.16132
6.71325
7.25284
7.90579
7.98128
9.39732
11.0549
10.4607
8.14248
5.27391
4.78713
2.97374
0.0407035
0.0470835
1.45782
0.725299
0.00183151
0.044583
0.271832
0.867859
0.699691
0.535194
0.308205
0.337016
0.308216
33186.6
0.0318116
0.426515
1.66394
0.610825
1.59095
1.95169
1.75356
1.43292
1.27891
1.14933
1.02736
0.909672
0.792552
0.681672
0.558235
0.388185
0.245898
2.16568
0.322784
0.624864
4.08207
4.89172
3.43048
4.7555
5.54908
6.39235
7.00543
7.53055
8.26233
8.37828
9.8173
11.7155
11.4132
8.81898
6.22115
3.97948
3.59864
2.47192
0.210509
0.00150681
0.0220446
1.39414
0.792298
0.0281883
0.00606954
0.405704
0.525536
0.495028
0.297841
0.342003
0.280641
0.293002
0.00817635
0.0774475
1.0586
1.77798
0.122899
1.5443
1.89362
1.56483
1.3758
1.21905
1.07746
0.949698
0.825827
0.706559
0.581376
0.419858
0.26457
0.243547
0.426179
0.451633
3.35794
6.61522
3.44018
4.67316
5.69035
6.61186
7.32888
7.82966
8.59359
8.80854
10.2405
12.3962
12.3467
9.76896
6.72014
4.6512
3.03957
2.80372
2.09149
1.38183
0.0040549
0.00141108
0.297542
1.39205
1.0448
0.550393
0.505274
0.0948099
0.510863
0.407329
0.199374
0.302563
0.325514
0.336421
0.0256629
0.205403
1.90128
2.07049
0.568404
1.97242
1.73306
1.48764
1.28862
1.12082
0.98827
0.862826
0.732575
0.601893
0.44882
0.271372
0.182572
0.507888
0.386336
2.29222
7.16743
3.45319
4.54517
5.85074
6.8206
7.66762
8.16403
8.9037
9.28113
10.6765
13.0663
13.3467
10.7744
7.43708
4.98306
3.50557
2.40059
2.27019
1.81344
0.000284763
0.34538
0.0443645
0.024622
1.71306
2.13664
1.55632
1.54699
0.00211517
0.277488
0.341663
0.317825
0.179524
0.228617
0.360643
3.18881
0.0628018
0.54812
2.12916
0.738972
1.68053
1.88698
1.62605
1.36542
1.16794
1.02607
0.90309
0.761169
0.62209
0.477258
0.298411
0.255585
0.620429
0.383648
1.43592
6.2011
3.56659
4.4757
6.03608
7.02341
8.00007
8.53528
9.20556
9.77816
11.1228
13.7133
14.3726
11.9036
8.19441
5.46031
3.71438
2.72708
1.97296
1.91346
1.60884
0.00338378
0.0104547
0.850852
0.277754
3.24614
1.64563
0.576229
1.25212
0.407623
0.46769
0.26579
0.226996
0.117284
0.164959
0.252899
0.286464
0.026242
0.147557
1.24684
1.80095
0.809652
1.89718
1.76863
1.45223
1.22706
1.06652
0.94645
0.79201
0.640851
0.502928
0.34499
0.366263
0.851663
0.425233
0.908564
5.2216
4.39163
4.49712
6.20887
7.21459
8.30926
8.95029
9.53365
10.2639
11.5656
14.3347
15.435
13.151
9.06807
5.96352
4.02272
2.86462
2.21074
1.68348
1.66857
1.45762
0.113535
0.0255161
0.0472824
0.280471
0.300421
95.7169
0.0383729
0.565598
0.877328
2.71997
0.0689302
0.163902
0.0437331
0.0632546
0.172983
0.231681
1.07252
0.0659196
0.398579
2.21378
5.22167
1.60771
1.87756
1.55091
1.30783
1.11318
0.989795
0.825872
0.658833
0.524982
0.399521
0.44047
1.58388
0.47271
0.652758
4.38225
5.88671
4.67644
6.29656
7.4017
8.58124
9.39039
9.91549
10.7122
12.0266
14.9338
16.5404
14.5431
10.0653
6.53397
4.34003
3.06406
2.30024
1.86333
1.48553
1.49846
1.34607
28.2861
15.3684
0.223242
0.021935
0.156542
0.734038
1.77693e-06
0.210027
0.901449
0.878702
1.38289
0.0852236
0.0512507
1.84825
0.198968
0.175784
0.327956
0.0557159
0.128024
1.17509
4.14477
0.500072
1.88136
1.65177
1.41963
1.17279
1.02941
0.862553
0.675627
0.547514
0.450465
0.481015
1.20637
0.505138
0.558417
3.43283
8.09089
4.84338
6.26742
7.60101
8.82075
9.83223
10.3556
11.1244
12.5105
15.5361
17.713
16.0961
11.2003
7.17613
4.6898
3.2624
2.43632
1.92599
1.62806
1.34989
1.37934
1.26455
0.0167553
0.124665
2.3091
0.0198476
0.116302
0.656527
0.400025
0.159658
0.129507
0.431953
0.532942
0.069939
0.0940294
0.8223
0.751443
0.106876
0.191387
0.241269
0.0777492
0.318866
2.71247
22.657
1.69312
1.71964
1.56018
1.25399
1.06378
0.899416
0.692878
0.573966
0.503738
0.538679
0.813065
0.529534
0.542372
2.41186
8.5805
4.77831
6.17933
7.83223
9.05271
10.2531
10.8524
11.5602
12.9851
16.1646
18.9195
17.7797
12.5145
7.89532
5.06902
3.47751
2.567
2.02158
1.67319
1.46515
1.25591
1.29576
1.20393
44.377
0.0150613
0.188552
0.727318
60.8133
1.01568
0.746689
1.62176
0.0327165
0.191191
0.123522
0.0220852
0.0979906
0.366519
0.45129
0.0951959
0.193957
0.231508
0.036221
0.12994
1.01222
5.19534
0.993023
1.71857
1.69632
1.36674
1.0971
0.929445
0.717161
0.600801
0.577382
0.589638
0.65989
0.632503
0.577101
1.61415
7.52516
5.03994
6.14306
8.10678
9.29847
10.633
11.3738
12.0517
13.4225
16.8158
20.1057
19.5586
14.0026
8.70994
5.48527
3.70533
2.70247
2.11144
1.74352
1.49914
1.35219
1.19074
1.23711
1.16127
4.83948e-05
0.200956
3.29641
1.48934
0.257762
0.00462577
0.291052
1.04119
0.962513
1.8483
0.0698967
1.67091
0.155183
0.383888
0.219655
0.119473
0.38857
0.217744
0.756392
0.105348
0.314405
3.076
2253.75
1.64441
1.76433
1.51628
1.14139
0.946419
0.754441
0.624901
0.666572
0.624465
0.651242
0.881178
0.627452
1.13757
6.36741
6.13607
6.28878
8.37623
9.55646
10.9637
11.9052
12.6182
13.8541
17.4118
21.2801
21.4152
15.6983
9.6279
5.938
3.94677
2.84455
2.20352
1.80799
1.55481
1.37924
1.2729
1.14788
1.19778
1.13265
0.494877
0.000819305
0.00384542
0.000869952
0.222746
0.0202605
0.000252912
0.803181
1.24757
1.285
0.0397253
0.896034
0.253954
0.475754
0.271714
0.267267
0.44094
0.199375
0.165111
0.0783834
0.137913
1.20059
11.7654
1.39592
1.71671
1.68627
1.21042
0.95071
0.804022
0.669236
0.748053
0.666144
0.680413
1.26973
0.697555
0.940554
5.45157
8.09007
6.63531
8.54411
9.81863
11.2665
12.4074
13.2509
14.3264
17.9129
22.412
23.3076
17.5987
10.6499
6.43208
4.19953
2.98861
2.29502
1.87387
1.60292
1.42329
1.29553
1.2184
1.12103
1.17431
1.11719
43.4093
0.246007
0.00033828
0.00193216
0.00359807
0.0107406
0.0441832
0.0285902
0.370746
0.850248
1.5287
0.781516
0.0822378
0.324246
0.313627
0.310151
0.264468
0.24799
0.166062
0.539044
0.129545
0.340511
4.28344
1.36182
1.60369
1.80521
1.31789
0.956674
0.847532
0.76321
0.792816
0.720944
0.72262
1.37943
0.729153
0.881389
4.19566
10.691
6.9058
8.55286
10.0907
11.5778
12.8781
13.9094
14.8982
18.3226
23.414
25.2229
19.6927
11.8001
6.96851
4.46141
3.13375
2.38609
1.93682
1.65153
1.46194
1.33209
1.23851
1.18331
1.10763
1.16473
1.11294
0.104193
3.61785
0.00226442
0.00212308
0.221617
0.000619389
0.0689173
0.740138
19.349
0.618639
0.411603
0.0114977
0.0863261
0.161151
0.226722
0.275405
0.265133
0.242543
0.169841
0.183299
0.188266
0.150928
1.54375
35.1573
1.57505
1.75559
1.47723
0.984861
0.866165
0.90609
0.827732
0.785602
0.769485
1.19572
0.782409
0.886775
2.97642
10.7959
6.71751
8.48541
10.4074
11.9224
13.3237
14.5479
15.5762
18.7198
24.1994
27.0672
22.0296
13.0978
7.53813
4.73254
3.27953
2.47438
1.99771
1.698
1.49961
1.36334
1.27006
1.20042
1.16245
1.10451
1.16768
1.12148
0.302968
1.25482
0.41416
117.881
0.00794891
0.00313359
0.00367577
0.776717
0.823291
0.00319454
0.129313
0.0729209
0.15628
0.312388
0.484274
0.172246
0.211369
0.380662
0.162453
0.181501
6.71746
0.135899
0.461265
7.62191
0.645756
1.51386
1.67465
1.04862
0.915552
1.04084
0.888475
0.854557
0.829769
1.08184
0.945523
0.91552
2.12391
9.6949
7.27407
8.53449
10.7987
12.3119
13.7548
15.1214
16.3279
19.2148
24.6949
28.7665
24.6305
14.568
8.14311
5.00806
3.41956
2.55982
2.05621
1.74208
1.53434
1.39368
1.29583
1.22765
1.17758
1.15407
1.11261
1.18346
1.1407
0.0496772
12.6763
0.126528
0.31588
0.000327655
0.0506079
1.34352
0.00217396
1.17594
0.107099
0.00352674
0.205886
0.160887
0.238682
0.332242
0.0103372
0.178439
0.45542
0.0972195
0.182468
0.293288
0.248789
0.173834
2.6881
4697.34
1.26215
1.8166
1.15083
1.01683
1.08547
0.983732
0.915009
0.899765
1.05473
1.36254
0.981748
1.69702
8.62717
8.75233
8.87995
11.2172
12.7155
14.1855
15.595
17.0666
19.8575
25.019
30.0736
27.5702
16.2667
8.77234
5.26855
3.55245
2.64269
2.11536
1.78475
1.56812
1.42274
1.3211
1.24922
1.20209
1.16765
1.15695
1.12993
1.21183
1.17499
0.0185948
0.105738
0.867083
0.000193273
0.00257935
0.000242907
0.598873
0.0232146
0.135034
0.241259
0.38365
0.10295
0.308194
0.100641
0.263079
0.332117
0.104689
0.329049
0.323057
0.298807
0.150471
0.0141822
0.133704
0.768599
20.7184
1.23319
1.71877
1.3148
1.16643
1.11845
1.095
0.975218
0.98043
1.08389
1.70235
1.06333
1.52479
7.39636
11.1947
9.48943
11.5204
13.0816
14.6093
15.9909
17.7447
20.64
25.5558
30.8886
30.7436
18.2478
9.38987
5.52683
3.70129
2.73959
2.17741
1.82249
1.59677
1.44823
1.34303
1.26917
1.22114
1.18898
1.16855
1.17048
1.15841
1.25541
1.22506
0.63803
0.00088224
0.00245914
0.00882568
3.01997e-05
0.0985536
0.00262479
0.0178023
0.447085
0.0114485
0.651904
0.00127137
0.307614
0.215136
0.12928
0.367174
0.0581934
0.232882
0.286843
2.18487
0.148976
0.347563
0.2337
0.252395
4.83705
0.0641974
1.34423
1.57862
1.35415
1.19152
1.19905
1.06301
1.07401
1.14793
1.92853
1.12032
1.42618
5.71205
13.4889
9.78722
11.6557
13.4057
15.0118
16.3458
18.264
21.427
26.5356
31.658
33.4176
20.4813
10.0222
5.84671
3.88101
2.80881
2.16767
1.798
1.58478
1.44777
1.35062
1.28557
1.23996
1.20498
1.18736
1.18034
1.19524
1.19827
1.31728
1.29533
0.635734
0.00114519
0.000905295
9.06266e-06
0.00587593
0.0205596
0.0143534
9.50933e-05
0.619535
1.53946
0.246449
0.195122
0.162782
0.368898
1.74794
0.227875
0.256959
0.165909
0.178592
15.6292
0.163564
0.0916829
0.620689
0.13784
1.58878
454.052
0.938786
1.97396
1.50376
1.31976
1.31733
1.16443
1.18606
1.23253
1.828
1.17945
1.4423
4.19701
13.4932
9.71986
11.7336
13.7563
15.3926
16.712
18.6309
22.1655
27.9983
33.1366
34.9776
23.1992
10.843
6.26293
4.00532
2.74385
2.10643
1.79879
1.6109
1.47314
1.37252
1.30347
1.25107
1.21823
1.20208
1.19695
1.20343
1.23242
1.25239
1.4029
1.39079
0.0002888
0.0180493
0.0213707
0.000611307
0.0346007
0.00146261
0.000927278
0.0854001
0.00968035
0.431132
0.00194437
0.324169
0.169078
0.260425
0.339805
0.0664823
0.226443
0.0517256
0.123619
0.653637
0.138356
0.136382
5.40409
0.159062
0.493289
12.4589
0.54066
2.18572
1.60296
1.49419
1.39701
1.28136
1.31725
1.34427
1.73307
1.44125
1.49855
3.20006
12.7123
10.6853
12.0293
14.1792
15.7192
17.0797
18.8925
22.806
30.0202
36.1677
36.0737
26.7256
12.2432
6.65252
3.90088
2.61925
2.11712
1.84902
1.65089
1.50459
1.39937
1.32475
1.2671
1.23203
1.21489
1.20947
1.21744
1.23886
1.2849
1.32537
1.5174
1.5178
0.000670381
158.832
9.01881
0.0241488
5.78524
0.000664223
1.53159e-06
0.835736
0.0496509
0.106081
0.0699342
0.0241648
0.225416
0.00420026
0.334406
0.396025
0.205552
0.4878
0.129123
0.299339
0.206445
0.162626
0.248764
0.371309
0.194865
3.68151
9.03032
1.92164
1.75087
1.67697
1.49158
1.4178
1.47081
1.48293
1.73228
1.94112
1.59874
2.69093
12.008
13.0291
12.65
14.5885
15.948
17.4059
19.1305
23.2464
32.3857
40.8686
38.7697
31.281
14.3836
6.65591
3.66484
2.61025
2.18344
1.86811
1.63897
1.49253
1.39696
1.32833
1.2789
1.24739
1.22653
1.2194
1.22732
1.25038
1.28814
1.35506
1.42074
1.6724
1.68766
0.0332797
0.0454913
0.232457
0.818955
0.0182568
4.58437e-08
8.74363e-06
1.54606
0.142595
0.178281
0.0306835
1.0368
0.142332
0.193928
0.0779274
0.406525
0.172636
0.256438
0.00827911
0.244641
1.21511
0.309701
0.101503
0.570597
0.137857
1.22382
15.5752
1.61869
1.95684
1.85035
1.64816
1.5793
1.65218
1.6472
1.80038
2.4631
1.70181
2.37191
10.5847
15.9905
13.279
14.8045
16.0571
17.6675
19.4838
23.5176
34.9079
47.3879
45.4226
38.2857
17.3111
6.40085
3.55603
2.71204
2.19326
1.82385
1.60968
1.48277
1.39471
1.33127
1.28513
1.25341
1.23405
1.22777
1.23482
1.25615
1.29558
1.35313
1.44926
1.54658
1.88173
1.91513
0.00152023
0.216331
0.188899
0.00332289
0.00265227
0.00108587
0.00809037
0.00694601
0.000789952
0.469078
4.44071
0.67179
0.00292603
0.370075
0.51071
0.177826
0.169342
0.158592
0.45567
0.122783
0.436676
0.0536262
0.102578
1.88629
0.19573
0.478945
6.06027
2.0302
2.2407
2.0355
1.8228
1.77334
1.86232
1.84208
1.91737
2.93939
1.74727
2.22793
8.50552
16.9316
13.0065
14.8386
16.1466
17.9765
20.0147
23.7556
36.3641
56.3522
57.4792
50.5297
20.0772
6.07341
3.58825
2.75136
2.12017
1.75932
1.57459
1.45651
1.37763
1.32319
1.28445
1.25613
1.2394
1.23348
1.24007
1.26101
1.29832
1.35774
1.4405
1.5734
1.71296
2.16947
2.21953
0.0801929
0.015831
3.74679
1.36572
1.2177e-05
0.000661746
0.0107877
0.0131628
0.428503
0.000862078
0.85764
0.00831837
0.303147
0.033431
0.324204
0.0039696
0.181854
0.0671172
0.19244
0.0771649
0.171142
0.0207566
0.207509
0.158341
0.670695
0.21538
3.28104
37.4046
2.51547
2.1874
2.04166
2.004
2.10478
2.06776
2.08169
3.13203
1.79819
2.23172
6.60705
16.723
13.4678
14.9567
16.4629
18.4034
20.6909
24.1209
35.0905
64.7322
76.1594
73.8179
23.8311
6.13392
3.67151
2.63872
1.99008
1.68677
1.51661
1.41196
1.3477
1.3061
1.27635
1.25465
1.24064
1.2357
1.24264
1.26321
1.30028
1.35622
1.44006
1.55593
1.73946
1.9356
2.56385
2.62533
0.0511011
325.747
0.319191
15677.6
0.756125
0.000162836
0.0725072
0.000939643
0.0153479
0.00688092
0.215503
0.0498526
0.0958473
0.622636
0.228456
0.650818
0.148256
1.87307
0.11217
5.70765
0.0868858
0.3374
0.229642
0.0760787
4.27254
0.166844
1.19757
11.1227
2.62136
2.25339
2.31362
2.28514
2.38338
2.32434
2.28075
2.97008
1.81816
2.30411
5.32138
16.1822
14.9196
15.5646
17.1512
18.865
21.3645
24.3832
31.5837
54.628
108.958
110.391
32.0906
6.67131
3.63953
2.44557
1.83611
1.58053
1.4351
1.35143
1.30539
1.27603
1.25759
1.24539
1.23694
1.23546
1.24297
1.26262
1.29794
1.3526
1.43245
1.54835
1.70933
1.96151
2.23483
3.11433
3.17017
22.4693
0.430468
1.40254
3.01996
7.95894
0.667124
0.0487148
0.0105278
0.220081
0.000575827
0.090905
0.0677484
0.134307
0.575553
0.553794
0.441508
0.0374747
0.243497
0.0511535
0.288743
0.0872096
0.547365
0.174594
0.0784069
8.63535
0.209253
0.53336
4.18916
2.54459
2.47696
2.63777
2.62876
2.70442
2.61808
2.52566
2.9272
2.46912
2.44015
4.40615
15.6585
16.6775
16.3588
17.5047
19.0309
21.8334
24.1839
29.027
32.2496
106.599
138.871
52.7328
7.54002
3.46563
2.12361
1.6568
1.43121
1.32148
1.27077
1.24462
1.23294
1.2279
1.22676
1.22694
1.23106
1.24026
1.2595
1.29371
1.34587
1.42287
1.53346
1.6913
1.9137
2.26299
2.64297
3.88796
3.89501
0.0157251
72.2747
0.424813
0.189546
1.71826
0.0396372
0.369585
1.44374
0.00644367
0.313546
0.0377905
0.00292958
0.317881
0.00267348
0.245114
0.115664
0.370124
0.141632
0.563382
0.179644
1.82438
0.125307
0.0767288
0.0132166
0.0719265
0.402843
0.300711
3.11991
5.24592
2.88398
3.02175
3.03971
3.0744
2.9499
2.81501
3.01403
3.0858
2.56872
3.85222
14.6078
17.6222
17.2359
18.4152
19.2984
21.6248
22.0457
18.6912
10.2061
22.0469
169.063
86.3566
8.7915
3.25098
1.72984
1.41585
1.25238
1.17938
1.16208
1.16453
1.17382
1.18579
1.19683
1.20831
1.21905
1.23294
1.25387
1.28651
1.3369
1.4109
1.51581
1.66531
1.88127
2.18895
2.67486
3.19502
4.97639
4.8601
0.00270243
1.66727
17.365
2.21826
23.2368
0.576761
0.000473337
0.334928
0.0520911
0.0280345
0.0442993
1.55536
0.0345617
0.707175
0.113509
7.47884
0.146179
0.00347396
0.157436
0.0810633
0.25972
0.113336
1.154
1.69083
0.105787
0.695878
0.266567
1.56875
12.6659
3.15036
3.44164
3.52946
3.5012
3.32814
3.14463
3.17323
3.7144
2.66832
3.32629
12.9571
18.435
17.3897
18.8087
18.8438
21.0958
19.7434
13.4088
2.83746
1.54548
17.1506
261.058
13.7154
2.45322
1.29037
1.03349
1.02882
1.01736
1.02818
1.06097
1.09703
1.12764
1.15471
1.17857
1.19944
1.22023
1.24473
1.27729
1.3258
1.39565
1.49499
1.63701
1.84111
2.13693
2.56156
3.24313
3.94295
6.51839
6.1371
1.06736
0.064075
0.192358
473.444
3.88376
2.03104
1.44498
0.0857864
3.85946e-05
2.21481
0.170232
0.572304
0.662522
0.435611
2.64967
0.447806
0.0711804
0.694568
0.0918286
0.0685637
0.1167
0.0277586
0.319839
0.199452
0.181657
1.22353
0.336882
0.772253
8.05981
3.16241
3.90431
4.12696
3.99036
3.78184
3.50095
3.37669
4.10114
2.66195
3.04783
11.1597
19.0172
16.8076
19.9454
20.3306
20.7666
16.9028
8.86312
2.01674
0.396849
0.319984
2185.48
30.8609
3.35211
0.991638
0.602409
0.718868
0.817709
0.876465
0.93358
0.996439
1.05273
1.09726
1.13674
1.17067
1.20042
1.23024
1.26566
1.31219
1.37842
1.4722
1.60627
1.79706
2.07376
2.48091
3.07421
4.02467
4.95055
8.70649
7.74556
2.19863
9.69463
0.0570574
0.0328457
365997
3.9056
0.157777
0.0171287
1.18314
0.611499
0.873489
1.47818
0.0493728
0.134598
0.337212
0.0386489
0.662358
0.234311
0.111461
0.404213
0.0685626
0.397846
0.186089
0.291081
0.809435
2.04739
0.436026
0.454377
4.45105
3.94931
4.5329
4.84262
4.55184
4.32209
3.89375
3.62539
4.16659
2.45748
2.85038
9.20659
20.1907
16.471
19.4965
20.1426
20.4824
16.5289
7.49286
1.67334
0.260179
0.0286681
0.00845258
121.918
0.380564
0.814347
0.521165
0.335459
0.564986
0.694781
0.790804
0.876663
0.957531
1.02676
1.0824
1.1293
1.1708
1.20859
1.24821
1.29639
1.35946
1.44819
1.57333
1.75255
2.00983
2.38766
2.94937
3.77658
5.09925
6.29578
11.8003
9.74228
0.000583964
1.88062
1.19734
0.131109
0.011068
195.341
2.6195
0.0158424
0.00980725
1.14187
1.5875
0.00078126
1.23277
0.597061
0.116726
0.966135
0.216766
0.0574054
0.234221
0.110017
0.0458653
0.49825
0.266379
0.402126
0.706156
0.999728
0.481759
0.394431
2.64456
7.28252
5.36212
5.6522
5.23628
4.93047
4.37728
3.90307
3.96797
2.19418
2.82508
7.48252
20.1628
16.599
20.2467
20.7035
18.5115
14.9366
7.02367
1.78622
0.328264
0.055657
0.0699584
6215.94
1.7355
0.0298294
0.396554
0.354532
0.234487
0.479121
0.62044
0.738297
0.841326
0.932989
1.0113
1.07742
1.13066
1.17793
1.22506
1.2762
1.33833
1.42206
1.53853
1.70525
1.94499
2.2944
2.81333
3.59535
4.74123
6.56993
8.05187
16.1978
12.2722
4923.32
5.07926e-05
1.67523
3.11436
0.246801
0.0159729
0.0463698
0.200737
1.3922
0.0887738
1.37034
0.383125
1.04934
0.0619526
1.34381
0.369666
0.0215677
1.16668
0.114585
0.0169721
0.207089
0.214375
0.744691
0.610904
0.506382
0.578201
0.541053
0.458269
1.68978
11.3463
6.36396
6.48956
6.09692
5.56864
4.99754
4.12404
3.71171
1.99609
2.95092
6.05763
19.397
16.3347
18.4717
19.9968
17.3103
13.891
7.07702
2.01681
0.397724
0.124036
0.100321
0.509812
0.451315
0.412201
0.0169662
0.226545
0.286897
0.194582
0.430615
0.578459
0.707861
0.819739
0.921275
1.00659
1.07633
1.13734
1.19296
1.2497
1.31385
1.39394
1.50319
1.65588
1.87658
2.19837
2.67783
3.39253
4.47846
6.06473
8.56785
10.3156
22.3969
15.5496
1.61735
9.06767
0.00526525
1.04974
3.90909
0.491721
0.0371756
0.103
0.0837374
7.32006
1.23611
0.0568182
0.263087
1.04308
0.359217
0.0501861
0.57554
0.314766
0.038543
1.58874
0.169359
0.409731
0.904003
0.619303
0.386126
0.438352
0.698229
0.560487
1.08492
9.95147
7.51841
7.29332
7.1558
6.27213
5.72865
4.39433
3.93781
2.18934
3.24365
4.91967
17.5168
16.5325
17.3175
19.873
16.5088
13.082
7.26814
2.17181
0.522689
0.177123
0.149253
0.576259
219.754
0.0770485
0.159797
0.0161154
0.156139
0.256176
0.17814
0.405919
0.557345
0.692692
0.811203
0.918935
1.00949
1.08315
1.15138
1.21592
1.28357
1.36362
1.46699
1.60865
1.80932
2.10307
2.54001
3.19363
4.18392
5.68524
7.86087
11.248
13.2409
31.0424
19.5352
0.0744235
3.06948
0.48934
0.0018331
0.73191
4.39042
0.828376
0.113866
0.0840583
0.0490653
2.29276
0.740618