/*--------------------------------*- C++ -*----------------------------------*\
| =========                 |                                                 |
| \\      /  F ield         | OpenFOAM: The Open Source CFD Toolbox           |
|  \\    /   O peration     | Version:  v2012                                 |
|   \\  /    A nd           | Website:  www.openfoam.com                      |
|    \\/     M anipulation  |                                                 |
\*---------------------------------------------------------------------------*/
FoamFile
{
    version     2.0;
    format      ascii;
    class       volScalarField;
    location    "600";
    object      k;
}
// * * * * * * * * * * * * * * * * * * * * * * * * * * * * * * * * * * * * * //

dimensions      [0 2 -2 0 0 0 0];


internalField   nonuniform List<scalar> 
27324
(
1.04334
0.988849
3.91525
0.93919
3.87483
4.481
0.8894
3.82433
4.34796
2.707
0.842187
3.75904
4.21091
2.56271
1.07739
0.797108
3.69128
4.06144
2.42643
0.99813
0.343854
0.75393
3.6228
3.91366
2.28662
0.927106
0.31385
0.100282
0.712153
3.55344
3.76925
2.15232
0.857675
0.287683
0.0906103
0.0285526
0.671586
3.48037
3.62869
2.02263
0.792537
0.262792
0.0822456
0.0255757
0.00824404
0.632578
3.39951
3.48881
1.89714
0.729727
0.239715
0.0743994
0.023021
0.00734086
0.00249531
0.596209
3.30942
3.34526
1.77362
0.669057
0.217535
0.0671843
0.020653
0.00657538
0.00222842
0.000847117
0.563415
3.21574
3.19629
1.65143
0.610267
0.196243
0.0602866
0.0184926
0.00587577
0.00200566
0.000767136
0.000340114
0.534478
3.12533
3.0443
1.53254
0.554426
0.175935
0.0537136
0.0164421
0.00524589
0.00180374
0.000701103
0.000314618
0.000162182
0.508493
3.04279
2.89245
1.4185
0.50343
0.157173
0.0475163
0.0145081
0.00465626
0.00162349
0.000641178
0.000293753
0.00015302
8.77563e-05
0.483604
2.96312
2.74104
1.31103
0.45723
0.140647
0.0418701
0.0127146
0.00410819
0.00145595
0.000587816
0.0002745
0.000145554
8.38521e-05
5.10526e-05
0.458117
2.87209
2.58471
1.20791
0.415581
0.126071
0.0369759
0.0111126
0.00360889
0.00130125
0.000538265
0.000257242
0.000138431
8.06555e-05
4.90896e-05
3.0825e-05
0.431658
2.75789
2.41767
1.10628
0.375887
0.113077
0.032716
0.00975634
0.0031698
0.00116145
0.000492526
0.000241085
0.000131933
7.74772e-05
4.74646e-05
2.97184e-05
1.9045e-05
0.405271
2.62131
2.241
1.00544
0.337079
0.100605
0.0289725
0.00860273
0.002803
0.00103911
0.000451221
0.000226025
0.00012574
7.45139e-05
4.57956e-05
2.87922e-05
1.83834e-05
1.20196e-05
0.380544
2.47572
2.06359
0.907778
0.299233
0.0884505
0.0254416
0.00760703
0.00249384
0.000936988
0.000414861
0.000212238
0.000119855
7.16386e-05
4.42137e-05
2.78227e-05
1.7827e-05
1.16163e-05
7.80592e-06
0.358068
2.33539
1.89666
0.816376
0.264025
0.0768516
0.0220938
0.00668035
0.00222757
0.000850884
0.000384142
0.000199863
0.000114324
6.88542e-05
4.2666e-05
2.68964e-05
1.72389e-05
1.12788e-05
7.56031e-06
5.28004e-06
0.337133
2.20159
1.74269
0.732135
0.232142
0.0665865
0.0190255
0.00581644
0.00198064
0.000776407
0.000357907
0.000189095
0.000109211
6.61718e-05
4.11535e-05
2.59904e-05
1.66768e-05
1.09205e-05
7.35823e-06
5.13273e-06
3.77328e-06
0.316815
2.06455
1.5942
0.653258
0.20328
0.0576989
0.016435
0.00503959
0.00175206
0.000707444
0.000334838
0.000179627
0.000104577
6.36224e-05
3.96757e-05
2.51068e-05
1.61298e-05
1.05794e-05
7.14263e-06
5.01586e-06
3.68703e-06
2.88036e-06
0.296646
1.91594
1.44326
0.57657
0.176424
0.0499538
0.0142693
0.00439824
0.00154832
0.000643856
0.000313299
0.000171058
0.000100357
6.12282e-05
3.82463e-05
2.42424e-05
1.56009e-05
1.02501e-05
6.93893e-06
4.88982e-06
3.62303e-06
2.83249e-06
2.35455e-06
0.276875
1.75436
1.28841
0.50183
0.151069
0.0428476
0.0124039
0.00386767
0.00138153
0.000587317
0.000293269
0.000162931
9.64313e-05
5.89826e-05
3.68754e-05
2.33996e-05
1.50876e-05
9.93402e-06
6.74358e-06
4.77214e-06
3.55219e-06
2.80131e-06
2.33081e-06
2.04424e-06
0.257995
1.58485
1.13418
0.431215
0.127735
0.0362884
0.0106752
0.00340957
0.00124411
0.000540906
0.000275207
0.00015522
9.26606e-05
5.68583e-05
3.55653e-05
2.2583e-05
1.4587e-05
9.63009e-06
6.55759e-06
4.66003e-06
3.48715e-06
2.76461e-06
2.31949e-06
2.03545e-06
1.86913e-06
0.239849
1.41362
0.985016
0.366903
0.10741
0.0304257
0.0090793
0.00298152
0.00112511
0.000502288
0.00025994
0.00014806
8.90189e-05
5.48136e-05
3.43198e-05
2.17963e-05
1.41001e-05
9.3358e-06
6.38001e-06
4.55419e-06
3.42564e-06
2.73194e-06
2.30336e-06
2.03561e-06
1.86505e-06
1.79644e-06
0.221992
1.23925
0.840478
0.308809
0.0900758
0.0255223
0.00766694
0.00258704
0.00101323
0.000468058
0.000246764
0.000141699
8.55409e-05
5.28289e-05
3.31297e-05
2.10476e-05
1.36309e-05
9.04987e-06
6.20978e-06
4.45403e-06
3.36807e-06
2.7015e-06
2.29006e-06
2.03212e-06
1.86729e-06
1.78329e-06
1.92992e-06
0.203501
1.05877
0.699193
0.253542
0.0750238
0.0214495
0.00651314
0.00224208
0.000910302
0.000435117
0.000234585
0.000135942
8.23055e-05
5.08999e-05
3.19824e-05
2.03398e-05
1.31849e-05
8.77461e-06
6.04574e-06
4.35932e-06
3.31416e-06
2.67356e-06
2.27818e-06
2.03051e-06
1.87132e-06
1.78029e-06
1.84313e-06
4.34866e-06
0.183893
0.867054
0.561737
0.201771
0.0606749
0.0179631
0.00557275
0.00196409
0.000820408
0.000404276
0.0002225
0.000130409
7.92621e-05
4.9044e-05
3.08614e-05
1.96649e-05
1.27665e-05
8.51299e-06
5.88798e-06
4.26963e-06
3.2639e-06
2.64797e-06
2.26791e-06
2.02968e-06
1.87685e-06
1.7831e-06
1.77589e-06
2.24661e-06
0.0002953
0.163482
0.669594
0.432225
0.155443
0.0475741
0.0146492
0.00477902
0.00173928
0.000747665
0.000376917
0.000210866
0.000124812
7.62918e-05
4.72574e-05
2.97595e-05
1.90081e-05
1.2372e-05
8.26707e-06
5.73762e-06
4.18418e-06
3.21716e-06
2.62465e-06
2.25916e-06
2.03e-06
1.88283e-06
1.78842e-06
1.76163e-06
2.09881e-06
0.000155574
0.00515643
0.141956
0.479077
0.314123
0.118193
0.0365691
0.0116849
0.0040282
0.00154881
0.000687652
0.000354138
0.000200244
0.000119306
7.33133e-05
4.55151e-05
2.86844e-05
1.83551e-05
1.19916e-05
8.03603e-06
5.59514e-06
4.10263e-06
3.17341e-06
2.60358e-06
2.25183e-06
2.03121e-06
1.88928e-06
1.7966e-06
1.76249e-06
1.99455e-06
8.23951e-05
0.00438126
0.0168206
0.106443
0.303638
0.211382
0.0879641
0.0287298
0.00928369
0.00335699
0.00136703
0.000634809
0.00033458
0.000190992
0.000114154
7.03827e-05
4.38057e-05
2.7644e-05
1.77119e-05
1.16134e-05
7.81553e-06
5.46069e-06
4.02477e-06
3.1319e-06
2.58453e-06
2.24583e-06
2.03323e-06
1.89636e-06
1.80578e-06
1.77022e-06
1.90989e-06
4.69152e-05
0.0034311
0.0134575
0.0378606
0.0656933
0.145661
0.128831
0.0630066
0.0229374
0.00771966
0.00281272
0.00120087
0.000582942
0.000316541
0.000182671
0.000109479
6.76125e-05
4.21386e-05
2.66491e-05
1.70935e-05
1.12404e-05
7.59941e-06
5.33313e-06
3.9511e-06
3.09205e-06
2.56731e-06
2.24091e-06
2.03605e-06
1.90421e-06
1.81638e-06
1.78259e-06
1.86898e-06
3.16643e-05
0.00258964
0.0103758
0.0303768
0.0886776
0.0190574
0.0773392
0.0731285
0.0457283
0.0183361
0.00665665
0.00246308
0.00106113
0.000533869
0.000298383
0.000174633
0.000105095
6.50456e-05
4.05409e-05
2.56969e-05
1.65131e-05
1.08821e-05
7.38553e-06
5.2115e-06
3.88194e-06
3.0538e-06
2.55156e-06
2.23701e-06
2.03955e-06
1.91281e-06
1.83091e-06
1.79753e-06
1.85014e-06
2.35829e-05
0.00185249
0.00796759
0.0243429
0.074129
0.21027
0.00910574
0.0399881
0.0488171
0.0327242
0.015798
0.0058159
0.0022257
0.000968246
0.000491064
0.000280588
0.000166411
0.000100726
6.25775e-05
3.90237e-05
2.4776e-05
1.59701e-05
1.05479e-05
7.17878e-06
5.09294e-06
3.81774e-06
3.01786e-06
2.53668e-06
2.23415e-06
2.04406e-06
1.92334e-06
1.84815e-06
1.81165e-06
1.81505e-06
2.00921e-05
0.00124104
0.00602411
0.0195857
0.061665
0.179683
0.480271
0.00807695
0.0290799
0.0361522
0.0298609
0.013242
0.00545692
0.00202244
0.000904438
0.000462014
0.00026443
0.0001581
9.62537e-05
6.0094e-05
3.7531e-05
2.38824e-05
1.54439e-05
1.02389e-05
6.98427e-06
4.97692e-06
3.75804e-06
2.98494e-06
2.52255e-06
2.2331e-06
2.04959e-06
1.93794e-06
1.86585e-06
1.81537e-06
1.72733e-06
1.40217e-05
0.000749353
0.00450459
0.0157144
0.0510612
0.152792
0.417599
1.06175
0.00784588
0.0272227
0.0262681
0.0328199
0.0146924
0.00489958
0.00194817
0.000847701
0.000442827
0.000252818
0.000150104
9.17055e-05
5.75856e-05
3.60146e-05
2.2993e-05
1.49212e-05
9.94282e-06
6.80315e-06
4.86435e-06
3.7009e-06
2.95542e-06
2.50971e-06
2.23337e-06
2.05944e-06
1.95437e-06
1.87842e-06
1.76219e-06
1.60164e-06
7.88137e-06
0.00040018
0.00329091
0.012544
0.0420521
0.129213
0.361979
0.936362
2.28918
0.00766033
0.026499
0.0241794
0.0298466
0.0206671
0.006062
0.00182924
0.000824621
0.000426155
0.00024491
0.000143578
8.72557e-05
5.50715e-05
3.4497e-05
2.20968e-05
1.43965e-05
9.64358e-06
6.62966e-06
4.75761e-06
3.64357e-06
2.92915e-06
2.49873e-06
2.23665e-06
2.07184e-06
1.96702e-06
1.85233e-06
1.6541e-06
1.44472e-06
3.92054e-06
0.000185084
0.00229204
0.00994223
0.0344339
0.108679
0.312233
0.824655
2.04464
4.83176
0.00747068
0.0258609
0.0233072
0.0282403
0.0220299
0.00978254
0.00232116
0.000796439
0.000415664
0.000238126
0.000138675
8.33698e-05
5.26077e-05
3.29914e-05
2.1214e-05
1.38707e-05
9.33865e-06
6.45289e-06
4.65616e-06
3.58706e-06
2.90392e-06
2.49313e-06
2.24188e-06
2.08213e-06
1.95195e-06
1.75231e-06
1.50099e-06
1.29244e-06
2.09983e-06
7.34505e-05
0.00149994
0.00778519
0.0280221
0.0909115
0.268069
0.723522
1.82593
4.36749
9.99139
0.00726733
0.0251689
0.0224384
0.0272408
0.0213098
0.0114225
0.00377765
0.000999131
0.000411352
0.000224253
0.000134411
8.05818e-05
5.03145e-05
3.14955e-05
2.03576e-05
1.33544e-05
9.03156e-06
6.27123e-06
4.55566e-06
3.53522e-06
2.87819e-06
2.49019e-06
2.2436e-06
2.0675e-06
1.84993e-06
1.59574e-06
1.33791e-06
1.18972e-06
1.42748e-06
2.61562e-05
0.000897179
0.00597922
0.0226414
0.0756453
0.229012
0.633006
1.62515
3.95076
9.13215
20.2399
0.00705003
0.0243991
0.021592
0.026427
0.0205341
0.0113345
0.00483344
0.00153344
0.00051648
0.00022786
0.000126011
7.699e-05
4.8698e-05
3.00162e-05
1.95337e-05
1.28463e-05
8.72556e-06
6.08951e-06
4.45443e-06
3.48719e-06
2.84855e-06
2.4843e-06
2.208e-06
1.95245e-06
1.68265e-06
1.41285e-06
1.2257e-06
1.1342e-06
1.21538e-06
9.58503e-06
0.000476008
0.00444645
0.0181457
0.0626016
0.194703
0.552023
1.44382
3.56222
8.35949
18.6881
40.1395
0.00683292
0.0235811
0.0207946
0.0257674
0.0199214
0.0109921
0.00482076
0.00198807
0.000771152
0.000284995
0.00013245
7.28918e-05
4.46979e-05
2.8406e-05
1.86214e-05
1.23421e-05
8.40977e-06
5.89998e-06
4.34183e-06
3.43593e-06
2.79852e-06
2.38702e-06
2.06486e-06
1.75469e-06
1.48266e-06
1.28267e-06
1.16489e-06
1.11331e-06
1.14708e-06
4.07877e-06
0.000220124
0.00313387
0.0143904
0.0515253
0.164727
0.479813
1.27997
3.20772
7.62821
17.2934
37.3996
77.8805
0.00661979
0.0228055
0.0200947
0.0252077
0.0194183
0.010647
0.00467614
0.00193943
0.00103534
0.000409027
0.000166742
7.91039e-05
4.34902e-05
2.62915e-05
1.68132e-05
1.11719e-05
7.82587e-06
5.54486e-06
4.06535e-06
3.20216e-06
2.58878e-06
2.16237e-06
1.8217e-06
1.53604e-06
1.34448e-06
1.2115e-06
1.13167e-06
1.11344e-06
1.12915e-06
2.1457e-06
8.91927e-05
0.00205774
0.0112505
0.0421499
0.13876
0.415524
1.13238
2.88394
6.95477
15.9553
34.9411
73.1532
147.739
0.00640875
0.0221057
0.0195062
0.0247325
0.0189557
0.0103162
0.0044802
0.00191085
0.000982851
0.000547339
0.00023419
9.99025e-05
4.87945e-05
2.65675e-05
1.59104e-05
1.01027e-05
6.7948e-06
4.82793e-06
3.5271e-06
2.78613e-06
2.24002e-06
1.86915e-06
1.60256e-06
1.4036e-06
1.26919e-06
1.1696e-06
1.13043e-06
1.11864e-06
1.1287e-06
1.48276e-06
3.29275e-05
0.0012396
0.00861452
0.0342366
0.116409
0.358507
0.999586
2.58936
6.33332
14.7137
32.554
68.913
139.872
272.871
0.00620017
0.0214899
0.0190287
0.0242862
0.0184967
0.010004
0.00428633
0.00186017
0.000970826
0.000531817
0.000314808
0.000137084
6.19067e-05
3.06735e-05
1.68228e-05
9.91511e-06
6.35133e-06
4.36878e-06
3.16909e-06
2.45677e-06
1.99877e-06
1.68725e-06
1.48295e-06
1.33264e-06
1.22916e-06
1.1693e-06
1.13573e-06
1.12534e-06
1.13357e-06
1.25904e-06
1.21872e-05
0.000667165
0.0063878
0.0275671
0.0972981
0.308144
0.880387
2.32171
5.76229
13.5572
30.3267
64.7424
132.794
260.613
485.264
0.0059754
0.0208648
0.0186122
0.02384
0.0179918
0.00971496
0.00411554
0.00181282
0.000954585
0.000517456
0.000321926
0.000180016
8.30596e-05
3.92371e-05
1.98439e-05
1.08801e-05
6.5209e-06
4.28018e-06
3.01909e-06
2.30572e-06
1.88251e-06
1.60258e-06
1.4275e-06
1.31486e-06
1.23325e-06
1.1769e-06
1.14285e-06
1.13247e-06
1.13952e-06
1.18821e-06
4.96049e-06
0.000313531
0.00450916
0.0219357
0.0810537
0.263893
0.773546
2.07919
5.23841
12.4847
28.2383
60.8306
125.706
249.587
468.538
807.016
0.0057237
0.0201335
0.0181425
0.0232778
0.0174245
0.00942086
0.00398345
0.00177924
0.000936327
0.000508412
0.000302231
0.000193753
0.000106341
5.08336e-05
2.47905e-05
1.2959e-05
7.34924e-06
4.54529e-06
3.0875e-06
2.30277e-06
1.86081e-06
1.60078e-06
1.43711e-06
1.32634e-06
1.24479e-06
1.18622e-06
1.1508e-06
1.13893e-06
1.14557e-06
1.16907e-06
2.42321e-06
0.000128664
0.00296089
0.0171837
0.0672755
0.225256
0.678063
1.85967
4.75921
11.4914
26.2882
57.1418
118.999
238.239
453.634
789.298
1217.47
0.00545082
0.0193131
0.017617
0.0225759
0.0167608
0.00910388
0.00387112
0.0017637
0.00092
0.000498829
0.000298279
0.000179929
0.000120625
6.34871e-05
3.10608e-05
1.56739e-05
8.53632e-06
5.07102e-06
3.3278e-06
2.41677e-06
1.91888e-06
1.63495e-06
1.46073e-06
1.34288e-06
1.25778e-06
1.19646e-06
1.15825e-06
1.14492e-06
1.15137e-06
1.16743e-06
1.56452e-06
4.6827e-05
0.00179051
0.0132061
0.0555305
0.19173
0.593031
1.6614
4.32142
10.5744
24.4691
53.6799
112.615
227.338
437.567
774.375
1205.73
1647.07
0.00517668
0.0184303
0.0170686
0.0218437
0.0160704
0.00877345
0.00376947
0.00175565
0.000908056
0.00049065
0.000295023
0.000176818
0.00011358
7.43634e-05
3.8194e-05
1.91215e-05
1.00309e-05
5.71762e-06
3.61885e-06
2.556e-06
1.98943e-06
1.67457e-06
1.48621e-06
1.36141e-06
1.27146e-06
1.20629e-06
1.16542e-06
1.15063e-06
1.15699e-06
1.17148e-06
1.29212e-06
1.62791e-05
0.000970815
0.00983721
0.0454056
0.162868
0.51757
1.48267
3.92222
9.72939
22.7773
50.4355
106.576
216.798
421.817
756.826
1198.42
1648.55
2018.79
0.00492903
0.0175559
0.0165216
0.021124
0.0154134
0.00845147
0.00368065
0.00174953
0.000896942
0.000485534
0.000292652
0.000175171
0.000108901
7.32023e-05
4.51041e-05
2.31035e-05
1.18749e-05
6.51105e-06
3.9614e-06
2.71419e-06
2.06818e-06
1.71773e-06
1.51296e-06
1.37972e-06
1.28482e-06
1.21609e-06
1.17254e-06
1.15631e-06
1.16253e-06
1.17721e-06
1.21675e-06
5.89998e-06
0.000459018
0.0069845
0.0367271
0.138187
0.451008
1.32177
3.55878
8.95261
21.2067
47.4044
100.878
206.681
406.23
739.158
1187.02
1656.76
2037.27
2287.99
0.00471887
0.0167967
0.016035
0.0204465
0.0147874
0.00814156
0.00361179
0.00174219
0.000884455
0.000482009
0.000291714
0.000173976
0.000108029
6.86584e-05
4.74815e-05
2.71461e-05
1.41209e-05
7.49222e-06
4.37654e-06
2.89671e-06
2.15537e-06
1.76379e-06
1.5409e-06
1.39882e-06
1.29865e-06
1.22618e-06
1.17986e-06
1.16205e-06
1.16801e-06
1.18333e-06
1.20117e-06
2.5234e-06
0.000184765
0.00462678
0.0292745
0.117162
0.392561
1.17737
3.22815
8.24008
19.753
44.5777
95.5249
197.001
390.93
721.091
1175.15
1659.95
2065.1
2321.91
2449.37
0.00454397
0.0161556
0.0156077
0.0198221
0.0142207
0.00784737
0.00356142
0.0017349
0.000871418
0.000479393
0.000291464
0.000173524
0.000107533
6.78847e-05
4.44816e-05
2.9973e-05
1.65558e-05
8.69801e-06
4.88535e-06
3.11284e-06
2.25423e-06
1.8144e-06
1.57082e-06
1.41905e-06
1.3133e-06
1.23681e-06
1.18744e-06
1.16788e-06
1.17347e-06
1.18946e-06
1.20298e-06
1.5165e-06
6.233e-05
0.00281534
0.0228505
0.0992093
0.341524
1.04809
2.92805
7.58692
18.4115
41.9498
90.5092
187.791
375.959
702.819
1162.32
1662.63
2087.8
2367.55
2495.11
2517.68
0.00440358
0.0156464
0.0151786
0.0191676
0.0136957
0.00758824
0.00353151
0.00172517
0.000858748
0.000477683
0.000291492
0.000173507
0.000107471
6.76917e-05
4.28526e-05
2.89679e-05
1.85617e-05
1.01244e-05
5.49925e-06
3.37178e-06
2.36708e-06
1.87045e-06
1.6033e-06
1.44069e-06
1.32886e-06
1.24801e-06
1.1953e-06
1.17379e-06
1.1789e-06
1.19552e-06
1.20928e-06
1.27093e-06
1.85485e-05
0.00153337
0.0173561
0.0837823
0.297147
0.932894
2.65614
6.98922
17.1756
39.5151
85.8281
179.063
361.392
684.406
1148.76
1664.14
2110.48
2408.65
2554.19
2571.24
2514.48
0.00428218
0.0152266
0.0147105
0.0184374
0.0131749
0.0073579
0.00352043
0.00171192
0.000846746
0.000477169
0.000291677
0.000173737
0.000107728
6.7757e-05
4.27342e-05
2.72904e-05
1.90663e-05
1.13077e-05
6.22264e-06
3.68065e-06
2.49736e-06
1.93264e-06
1.63852e-06
1.46386e-06
1.34536e-06
1.25978e-06
1.20344e-06
1.17975e-06
1.1843e-06
1.20156e-06
1.21663e-06
1.22829e-06
5.46137e-06
0.00072101
0.0126778
0.0702708
0.258785
0.830689
2.41065
6.44247
16.0398
37.2659
81.4769
170.837
347.287
665.963
1134.51
1664.63
2132.35
2450.58
2609.53
2638.97
2572.41
2461.01
0.00416215
0.0148269
0.0141766
0.017607
0.0126413
0.00715546
0.00352004
0.00169496
0.000835863
0.000477694
0.000292103
0.000174155
0.000108126
6.80377e-05
4.27791e-05
2.69839e-05
1.79406e-05
1.21015e-05
6.97532e-06
4.04348e-06
2.65154e-06
2.00221e-06
1.67681e-06
1.48863e-06
1.36285e-06
1.27217e-06
1.21186e-06
1.18579e-06
1.1897e-06
1.2076e-06
1.22423e-06
1.22884e-06
2.04462e-06
0.000278629
0.00870845
0.0583119
0.225758
0.740562
2.18969
5.94337
14.9966
35.197
77.4468
163.122
333.715
647.58
1119.69
1664.07
2153.54
2492.59
2666.46
2703.71
2644.69
2520.69
2374.93
0.00403696
0.0144573
0.0136277
0.0167074
0.0120878
0.00698639
0.00352601
0.00167363
0.000827243
0.000478938
0.000292828
0.000174735
0.000108629
6.84215e-05
4.29466e-05
2.69924e-05
1.7077e-05
1.19128e-05
7.55864e-06
4.46027e-06
2.8341e-06
2.08153e-06
1.71841e-06
1.5151e-06
1.38137e-06
1.28524e-06
1.22061e-06
1.19192e-06
1.19511e-06
1.21367e-06
1.23192e-06
1.23788e-06
1.33588e-06
8.19635e-05
0.00549173
0.047813
0.197447
0.66145
1.99173
5.48855
14.0398
33.2992
73.7357
155.918
320.753
629.365
1104.41
1662.49
2173.91
2534.81
2724.31
2770.58
2714.57
2594.44
2434.53
2269.53
0.00390169
0.0141365
0.0131105
0.0157982
0.0115357
0.00685283
0.0035291
0.00164759
0.000821052
0.000480768
0.00029383
0.000175535
0.000109206
6.88543e-05
4.3197e-05
2.70732e-05
1.70036e-05
1.11793e-05
7.78806e-06
4.87744e-06
3.04512e-06
2.17344e-06
1.7636e-06
1.54334e-06
1.40101e-06
1.29906e-06
1.22975e-06
1.19815e-06
1.20054e-06
1.2198e-06
1.23964e-06
1.24765e-06
1.24618e-06
1.65304e-05
0.00310041
0.0386059
0.17304
0.592347
1.81506
5.07584
13.1624
31.5641
70.336
149.235
308.459
611.436
1088.71
1659.91
2193.4
2577.15
2783.2
2838.98
2786.91
2666.21
2507.64
2327.86
2154.17
0.00376087
0.0138598
0.0126336
0.0149155
0.0110187
0.00674479
0.00352159
0.00161528
0.000817179
0.00048307
0.000295229
0.000176457
0.000109884
6.93199e-05
4.34774e-05
2.7214e-05
1.70286e-05
1.07329e-05
7.43738e-06
5.11564e-06
3.28242e-06
2.27873e-06
1.81317e-06
1.57341e-06
1.42182e-06
1.31374e-06
1.23932e-06
1.2045e-06
1.20601e-06
1.22604e-06
1.24744e-06
1.25719e-06
1.25112e-06
2.50211e-06
0.00148868
0.0306155
0.151733
0.532207
1.65823
4.70298
12.3598
29.9799
67.2422
143.079
296.89
593.904
1072.58
1656.4
2211.91
2619.54
2843.1
2909.06
2861.17
2740.59
2579.05
2398.98
2210.5
2035.14
0.00361108
0.0135677
0.012193
0.0141096
0.0105583
0.00666704
0.00349851
0.00157641
0.000814617
0.000485812
0.000297024
0.000177492
0.000110691
6.98124e-05
4.37566e-05
2.73775e-05
1.70858e-05
1.07188e-05
6.98659e-06
5.09347e-06
3.47548e-06
2.39604e-06
1.86901e-06
1.60545e-06
1.44393e-06
1.32936e-06
1.24942e-06
1.211e-06
1.21154e-06
1.2324e-06
1.25539e-06
1.26664e-06
1.26149e-06
1.28313e-06
0.000551845
0.0237025
0.132734
0.480056
1.5199
4.36832
11.6274
28.5365
64.4416
137.457
286.061
576.904
1056.16
1652.02
2229.44
2661.93
2903.93
2980.8
2937.5
2817.11
2653.12
2468.59
2278.82
2089.02
1916.49
0.00344467
0.0132115
0.0117592
0.0133861
0.0101818
0.00661586
0.00346535
0.00153516
0.000812046
0.000488658
0.000299138
0.000178678
0.000111601
7.03263e-05
4.4024e-05
2.75348e-05
1.71626e-05
1.07361e-05
6.76272e-06
4.79724e-06
3.54256e-06
2.52067e-06
1.93193e-06
1.63999e-06
1.46741e-06
1.34604e-06
1.26011e-06
1.21768e-06
1.21713e-06
1.2389e-06
1.26349e-06
1.27598e-06
1.27241e-06
1.28262e-06
0.000119106
0.0177803
0.115475
0.435135
1.39865
4.07013
10.9628
27.2229
61.9212
132.369
276.01
560.558
1039.59
1646.84
2246.08
2704.22
2965.68
3054.14
3015.9
2895.91
2729.39
2540.81
2345.76
2154.13
1967.71
1800.78
0.00326583
0.0127525
0.0113086
0.0127395
0.00988625
0.0065739
0.00342116
0.00149853
0.000809609
0.00049107
0.000301451
0.00017997
0.000112592
7.088e-05
4.42759e-05
2.76773e-05
1.72403e-05
1.07669e-05
6.75143e-06
4.504e-06
3.44552e-06
2.61778e-06
2.0001e-06
1.67812e-06
1.49234e-06
1.36384e-06
1.27145e-06
1.22456e-06
1.2228e-06
1.24559e-06
1.27171e-06
1.28526e-06
1.28325e-06
1.28596e-06
2.13826e-06
0.0130592
0.100075
0.396465
1.29318
3.80622
10.3643
26.0316
59.6615
127.817
266.77
544.99
1023.08
1640.99
2261.82
2746.31
3028.24
3129.08
3096.32
2976.99
2808.02
2615.24
2415.24
2217.93
2029.39
1849.22
1689.54
0.00307406
0.0121687
0.0108341
0.0121868
0.00967087
0.00653554
0.00336509
0.00146794
0.000808981
0.000493555
0.000303496
0.000181322
0.000113673
7.14704e-05
4.45379e-05
2.78059e-05
1.7307e-05
1.08035e-05
6.75294e-06
4.34857e-06
3.19694e-06
2.60762e-06
2.07133e-06
1.72023e-06
1.51894e-06
1.38284e-06
1.28349e-06
1.23172e-06
1.22855e-06
1.25247e-06
1.28004e-06
1.29457e-06
1.29368e-06
1.2923e-06
2.0882e-06
0.00961682
0.0864909
0.363007
1.20201
3.57471
9.83028
24.9579
57.6444
123.787
258.395
530.293
1006.83
1634.62
2276.61
2788.09
3091.5
3205.53
3178.77
3060.31
2889.02
2692.01
2486.87
2284.16
2089.84
1907.44
1735.18
1583.68
0.00287457
0.0114951
0.0103512
0.011744
0.00952872
0.00648577
0.00329563
0.00144184
0.00081035
0.000496866
0.000305276
0.000182711
0.000114791
7.2083e-05
4.48337e-05
2.79349e-05
1.73638e-05
1.08383e-05
6.76469e-06
4.33776e-06
2.98515e-06
2.48146e-06
2.12482e-06
1.76461e-06
1.54788e-06
1.40307e-06
1.29631e-06
1.2392e-06
1.2344e-06
1.25948e-06
1.28843e-06
1.3039e-06
1.30378e-06
1.3015e-06
2.06716e-06
0.00751153
0.0747572
0.333525
1.12377
3.37351
9.35992
23.9989
55.8541
120.258
250.923
516.59
991.034
1627.96
2290.42
2829.37
3155.36
3283.38
3263.19
3145.91
2972.34
2771.14
2560.77
2352.46
2152.6
1964.46
1789.95
1626.52
1483.71
0.00267442
0.0107743
0.00988863
0.0114295
0.00945459
0.00641175
0.00320719
0.00141976
0.000813923
0.000501153
0.00030698
0.000183979
0.000115904
7.26905e-05
4.51467e-05
2.8083e-05
1.74224e-05
1.08684e-05
6.78504e-06
4.33739e-06
2.86633e-06
2.26786e-06
2.08821e-06
1.81053e-06
1.57988e-06
1.42462e-06
1.30996e-06
1.24705e-06
1.24043e-06
1.26652e-06
1.29697e-06
1.31322e-06
1.31356e-06
1.31207e-06
2.06234e-06
0.00662407
0.0643188
0.306723
1.05728
3.20113
8.95162
23.155
54.2779
117.201
244.388
504.016
975.875
1621.29
2303.3
2870.04
3219.62
3362.55
3349.45
3233.71
3058.03
2852.61
2636.97
2422.95
2217.33
2023.67
1843.57
1677.91
1523.77
1389.9
0.00247161
0.0100132
0.00945914
0.0112422
0.00944467
0.00630879
0.00310217
0.0014008
0.00082013
0.000506142
0.000308841
0.000185318
0.000116959
7.32788e-05
4.54693e-05
2.82487e-05
1.74932e-05
1.08982e-05
6.80732e-06
4.34366e-06
2.85648e-06
2.08843e-06
1.97085e-06
1.84862e-06
1.61368e-06
1.44789e-06
1.32448e-06
1.25529e-06
1.24671e-06
1.27352e-06
1.30567e-06
1.32252e-06
1.32305e-06
1.3231e-06
2.06598e-06
0.00646284
0.0552145
0.282648
1.00183
3.05608
8.60399
22.4261
52.9118
114.583
238.795
492.745
961.52
1614.89
2315.33
2909.88
3284.15
3442.81
3437.49
3323.61
3146.03
2936.44
2715.45
2495.64
2284.14
2084.76
1899.26
1728.19
1571.87
1427.18
1302.41
0.00227158
0.00923804
0.00907378
0.0111495
0.00946968
0.00618109
0.00298592
0.00138394
0.0008287
0.000511483
0.000310682
0.000186927
0.000117937
7.3817e-05
4.57874e-05
2.8424e-05
1.75816e-05
1.09328e-05
6.82889e-06
4.35583e-06
2.85796e-06
1.99028e-06
1.78098e-06
1.81697e-06
1.6475e-06
1.47368e-06
1.33997e-06
1.26394e-06
1.25317e-06
1.28045e-06
1.31448e-06
1.33179e-06
1.33229e-06
1.3338e-06
2.07729e-06
0.00642592
0.0483907
0.261652
0.956176
2.937
8.31478
21.8134
51.7556
112.383
234.115
482.95
948.205
1609
2326.7
2948.78
3348.64
3523.85
3527.06
3415.69
3236.37
3022.62
2796.25
2570.54
2353.06
2147.82
1956.74
1780.45
1618.89
1472.08
1336.92
1221.35
0.00207994
0.00848183
0.0087464
0.0111352
0.00949326
0.0060234
0.00286793
0.0013705
0.000838764
0.000516433
0.00031261
0.000188758
0.000118891
7.42714e-05
4.60726e-05
2.85955e-05
1.76725e-05
1.0974e-05
6.85031e-06
4.36924e-06
2.86423e-06
1.97215e-06
1.60507e-06
1.72181e-06
1.67913e-06
1.50218e-06
1.35666e-06
1.27305e-06
1.25974e-06
1.28747e-06
1.32327e-06
1.34104e-06
1.34131e-06
1.3442e-06
2.09559e-06
0.00650207
0.0445417
0.243805
0.918758
2.84213
8.08227
21.317
50.8152
110.591
230.311
474.742
936.27
1603.65
2337.65
2986.13
3412.1
3605.11
3618.1
3509.81
3329.15
3111.3
2879.44
2647.67
2424.09
2212.89
2016.07
1834.38
1667.8
1515.94
1378.69
1253.06
1146.83
0.00190439
0.00777159
0.00848224
0.0111688
0.0094742
0.00583384
0.00275915
0.00136345
0.000850273
0.000520373
0.000314546
0.00019073
0.000119862
7.4689e-05
4.63054e-05
2.87514e-05
1.77662e-05
1.10199e-05
6.87254e-06
4.38121e-06
2.8747e-06
1.972e-06
1.50416e-06
1.55651e-06
1.6865e-06
1.53164e-06
1.37523e-06
1.28269e-06
1.26637e-06
1.29463e-06
1.332e-06
1.35024e-06
1.35015e-06
1.35431e-06
2.11876e-06
0.00666783
0.0431709
0.228821
0.887852
2.76998
7.90514
20.9383
50.0971
109.212
227.342
468.159
926.102
1599.05
2347.92
3020.51
3474.32
3686.99
3710.53
3605.92
3424.14
3202.36
2965.01
2727.14
2497.26
2279.95
2077.31
1890.08
1718.3
1561.6
1419.46
1291.76
1175.68
1079.01
0.00174294
0.00712201
0.00827567
0.0112102
0.009383
0.00561147
0.00266422
0.00136611
0.000863514
0.000522767
0.000316479
0.000192741
0.00012081
7.50981e-05
4.6493e-05
2.88778e-05
1.78554e-05
1.10641e-05
6.89757e-06
4.39194e-06
2.88564e-06
1.97384e-06
1.4568e-06
1.37406e-06
1.62e-06
1.5618e-06
1.39673e-06
1.29292e-06
1.27297e-06
1.30181e-06
1.34056e-06
1.35931e-06
1.35886e-06
1.36412e-06
2.14612e-06
0.00690205
0.0423213
0.215889
0.862267
2.71988
7.78336
20.6787
49.6095
108.26
225.187
463.158
918
1595.81
2356.05
3051.84
3536.17
3769.47
3804.36
3703.82
3521.27
3295.59
3052.8
2808.77
2572.6
2349.05
2140.43
1947.57
1770.47
1608.77
1461.96
1329.5
1211.35
1104.91
1018.11
0.00159005
0.00653468
0.00810991
0.0112156
0.00920226
0.00536805
0.00258608
0.00137757
0.000877449
0.000524135
0.000318156
0.000194667
0.000121743
7.55531e-05
4.66691e-05
2.89649e-05
1.79317e-05
1.11088e-05
6.92842e-06
4.40187e-06
2.89491e-06
1.97871e-06
1.45366e-06
1.24718e-06
1.49724e-06
1.58602e-06
1.42097e-06
1.3038e-06
1.27945e-06
1.30898e-06
1.34895e-06
1.36828e-06
1.36743e-06
1.3737e-06
2.17618e-06
0.00719602
0.0420295
0.207178
0.843674
2.69174
7.71744
20.5407
49.3588
107.756
223.842
459.662
912.168
1592.04
2361.7
3082.17
3597.9
3852.77
3899.39
3803.45
3620.21
3390.88
3142.76
2892.61
2650.02
2420.2
2205.51
2006.84
1824.33
1657.52
1505.89
1368.91
1246.09
1137.55
1040.9
964.385
0.00144236
0.00601026
0.00797412
0.011144
0.00892805
0.00512091
0.00252408
0.00139639
0.000890666
0.000525122
0.000319849
0.000196437
0.000122616
7.60329e-05
4.68843e-05
2.90396e-05
1.79934e-05
1.115e-05
6.95955e-06
4.41233e-06
2.90274e-06
1.98508e-06
1.4552e-06
1.18194e-06
1.33039e-06
1.56851e-06
1.44612e-06
1.31594e-06
1.28591e-06
1.316e-06
1.35714e-06
1.37712e-06
1.37589e-06
1.38314e-06
2.20798e-06
0.0075426
0.0424233
0.200236
0.832829
2.68476
7.70765
20.5268
49.3521
107.715
223.321
457.623
906.768
1587.33
2367.85
3111.76
3659.48
3936.81
3995.68
3904.38
3720.86
3488.25
3234.89
2978.51
2729.5
2493.28
2272.48
2067.98
1879.88
1707.87
1551.33
1409.68
1282.45
1169.29
1070.49
983.887
918.163
0.00130227
0.00554379
0.00787149
0.0109874
0.00858157
0.00489191
0.0024831
0.00142037
0.000901541
0.000525854
0.000321905
0.000197939
0.000123393
7.64991e-05
4.71231e-05
2.91335e-05
1.8043e-05
1.11869e-05
6.9911e-06
4.42561e-06
2.91003e-06
1.99091e-06
1.45938e-06
1.1614e-06
1.17463e-06
1.49228e-06
1.47301e-06
1.33064e-06
1.29232e-06
1.32278e-06
1.36506e-06
1.38578e-06
1.38429e-06
1.39255e-06
2.24158e-06
0.00794686
0.0435164
0.195193
0.825375
2.69033
7.74266
20.6224
49.5763
108.107
223.471
455.878
901.088
1583.48
2375.34
3141.24
3720.76
4021.82
4092.98
4006.46
3823.32
3587.5
3328.89
3066.39
2810.88
2568.25
2341.23
2130.88
1937.19
1759.82
1598.29
1451.9
1320.12
1202.61
1099.19
1010.37
934.147
879.77
0.0011733
0.00512682
0.00779372
0.0107528
0.00819977
0.0046843
0.00246593
0.00144724
0.000908188
0.000526527
0.000324252
0.000199345
0.000124016
7.69178e-05
4.73712e-05
2.92483e-05
1.80907e-05
1.12187e-05
7.02172e-06
4.44065e-06
2.91769e-06
1.99593e-06
1.46574e-06
1.16067e-06
1.07318e-06
1.37155e-06
1.48883e-06
1.34815e-06
1.29859e-06
1.32913e-06
1.37264e-06
1.39431e-06
1.39266e-06
1.40202e-06
2.27713e-06
0.00840862
0.0452146
0.192053
0.81675
2.69947
7.78254
20.7278
49.8113
108.493
223.592
454.107
896.097
1580.81
2384.39
3171.21
3781.64
4107.94
4190.96
4110.02
3927.28
3688.27
3424.63
3156.03
2894.07
2644.96
2411.72
2195.41
1996.15
1813.43
1646.77
1495.57
1359.18
1237.21
1129.46
1035.96
957.442
891.992
849.483
0.00105371
0.00476746
0.0077496
0.0104713
0.0078144
0.00450035
0.00246764
0.0014742
0.000909686
0.000526928
0.000326765
0.000200647
0.000124572
7.72488e-05
4.75966e-05
2.93704e-05
1.81538e-05
1.12443e-05
7.04788e-06
4.45614e-06
2.92713e-06
2.0006e-06
1.47179e-06
1.16259e-06
1.01916e-06
1.22599e-06
1.45915e-06
1.36626e-06
1.30485e-06
1.33498e-06
1.37991e-06
1.40266e-06
1.40107e-06
1.41166e-06
2.31484e-06
0.00893021
0.0473929
0.190807
0.805962
2.71404
7.84281
20.8917
50.175
109.114
224.133
453.056
892.039
1579.29
2394.58
3202.56
3841.82
4194.22
4289.89
4214.83
4032.33
3790.37
3521.77
3247.23
2978.85
2723.33
2483.8
2261.54
2056.61
1868.61
1696.8
1540.68
1399.64
1273.15
1160.97
1063.12
979.808
912
857.707
827.434
0.000938401
0.00446337
0.00774687
0.0101656
0.00745142
0.00434853
0.00248058
0.0014961
0.000907935
0.000526901
0.000329182
0.000201871
0.000125138
7.74988e-05
4.77732e-05
2.94915e-05
1.82287e-05
1.12687e-05
7.06765e-06
4.47126e-06
2.93853e-06
2.00486e-06
1.47648e-06
1.16644e-06
1.00087e-06
1.09438e-06
1.38994e-06
1.38519e-06
1.31203e-06
1.34027e-06
1.38685e-06
1.41092e-06
1.40955e-06
1.42159e-06
2.35491e-06
0.00951567
0.0500396
0.192092
0.793601
2.73417