/*--------------------------------*- C++ -*----------------------------------*\
| =========                 |                                                 |
| \\      /  F ield         | OpenFOAM: The Open Source CFD Toolbox           |
|  \\    /   O peration     | Version:  v2012                                 |
|   \\  /    A nd           | Website:  www.openfoam.com                      |
|    \\/     M anipulation  |                                                 |
\*---------------------------------------------------------------------------*/
FoamFile
{
    version     2.0;
    format      ascii;
    class       volScalarField;
    location    "0";
    object      lambda2;
}
// * * * * * * * * * * * * * * * * * * * * * * * * * * * * * * * * * * * * * //

dimensions      [0 0 0 0 0 0 0];


internalField   nonuniform List<scalar> 
27324
(
-0.408457
-0.42566
-0.54245
-0.430407
-0.550515
-0.560853
-0.435142
-0.550326
-0.564628
-0.565209
-0.439252
-0.550879
-0.563596
-0.567097
-0.562798
-0.444702
-0.551366
-0.563479
-0.566265
-0.562867
-0.54782
-0.451564
-0.553161
-0.563865
-0.566283
-0.562813
-0.547871
-0.526072
-0.458764
-0.55626
-0.56556
-0.567385
-0.563936
-0.549781
-0.5295
-0.49954
-0.463771
-0.559688
-0.568109
-0.569794
-0.566054
-0.553158
-0.53355
-0.502105
-0.454465
-0.465814
-0.561745
-0.570492
-0.572575
-0.568721
-0.557002
-0.538291
-0.505415
-0.443744
-0.321774
-0.467071
-0.562194
-0.571973
-0.574725
-0.571146
-0.560692
-0.542908
-0.508421
-0.438642
-0.31016
-0.1145
-0.470993
-0.562352
-0.573004
-0.575966
-0.573177
-0.563873
-0.547363
-0.510163
-0.433624
-0.310928
-0.118989
-0.0157077
-0.480408
-0.564218
-0.574667
-0.577241
-0.575384
-0.567249
-0.551649
-0.510808
-0.430173
-0.313913
-0.12711
-0.00885407
-0.0230148
-0.493654
-0.568995
-0.577816
-0.579687
-0.579045
-0.571816
-0.556253
-0.510782
-0.429751
-0.318274
-0.131735
-0.00346199
-0.0508339
-0.061793
-0.504996
-0.574892
-0.581888
-0.583607
-0.584289
-0.578191
-0.56083
-0.51083
-0.432904
-0.322372
-0.127713
-7.53506e-05
-0.0651004
-0.0861626
-0.0559764
-0.510815
-0.578717
-0.584872
-0.587644
-0.589863
-0.585083
-0.564443
-0.510951
-0.436821
-0.323818
-0.114653
-0.00882548
-0.0809661
-0.0901714
-0.0654897
-0.0346086
-0.511445
-0.579329
-0.585607
-0.590146
-0.593783
-0.58994
-0.565756
-0.510603
-0.440537
-0.313908
-0.0930471
-0.0284123
-0.0948262
-0.0909765
-0.0594957
-0.0386414
-0.00788589
-0.512256
-0.578094
-0.585139
-0.59102
-0.595363
-0.591269
-0.563571
-0.510147
-0.441936
-0.296655
-0.0562275
-0.0472382
-0.104727
-0.0888
-0.0534692
-0.0322513
-0.00800066
-9.89822e-05
-0.519165
-0.579103
-0.58617
-0.592233
-0.595956
-0.590101
-0.55983
-0.509514
-0.4421
-0.270396
-0.0222371
-0.0648052
-0.106641
-0.0839174
-0.0472772
-0.029397
-0.00526355
-0.000222084
-0.00020541
-0.530741
-0.584518
-0.591181
-0.596317
-0.598481
-0.589924
-0.558954
-0.512583
-0.438946
-0.242949
-0.00122188
-0.0718638
-0.105246
-0.0731737
-0.043198
-0.0278473
-0.00441419
-8.03889e-06
-0.00115248
-0.00141805
-0.541867
-0.591591
-0.598553
-0.603622
-0.604424
-0.593706
-0.565717
-0.52178
-0.437864
-0.215187
-0.00372097
-0.0745052
-0.100638
-0.0611203
-0.0382228
-0.028248
-0.00429687
-3.38194e-06
-0.000669702
-0.00362438
-0.000698314
-0.550642
-0.597313
-0.604762
-0.610956
-0.612104
-0.601392
-0.578205
-0.536083
-0.437365
-0.190588
-0.0122972
-0.0724867
-0.0939502
-0.0518691
-0.033058
-0.029734
-0.00479731
-8.601e-06
-0.00097813
-0.00268532
-0.00228688
-1.60846e-06
-0.557999
-0.60166
-0.609037
-0.616236
-0.618075
-0.60927
-0.591544
-0.547444
-0.433231
-0.161365
-0.0145788
-0.0687901
-0.0888286
-0.0402515
-0.0290121
-0.0309925
-0.00519574
-9.12425e-05
-0.00126648
-0.00312317
-0.000884331
-0.000328963
-0.000672112
-0.566948
-0.606536
-0.613093
-0.620498
-0.622262
-0.614564
-0.598538
-0.552398
-0.416521
-0.127678
-0.0152259
-0.0628667
-0.0787994
-0.0333826
-0.0253986
-0.030693
-0.00665745
-0.00015235
-0.00157093
-0.00331397
-0.000769773
-9.51719e-05
-0.000179777
-0.0245657
-0.578021
-0.614134
-0.619599
-0.62639
-0.627339
-0.618924
-0.598858
-0.54484
-0.390816
-0.0849
-0.0122277
-0.0576057
-0.0711475
-0.0263786
-0.0224174
-0.0305915
-0.00760111
-0.000301601
-0.00189189
-0.00345085
-0.000531948
-0.000195961
-1.32032e-06
-2.18941e-06
-0.0471457
-0.590786
-0.624284
-0.629501
-0.635834
-0.635594
-0.625217
-0.596642
-0.529691
-0.355449
-0.0525852
-0.0130466
-0.0522063
-0.0627512
-0.0223856
-0.0218343
-0.0286387
-0.00788168
-0.000622528
-0.00182848
-0.00351509
-0.000335348
-0.000379357
-6.45329e-05
-0.000930711
-0.00198172
-0.163734
-0.605823
-0.636583
-0.641723
-0.647673
-0.646752
-0.633473
-0.596353
-0.51424
-0.327752
-0.0381809
-0.0119665
-0.051613
-0.0579933
-0.0199454
-0.0229579
-0.0277232
-0.00907777
-0.000726413
-0.00203394
-0.00374592
-0.000230971
-0.000547337
-0.000153203
-0.000410247
-0.0191447
-0.0801128
-0.252962
-0.620434
-0.651587
-0.655643
-0.66037
-0.657262
-0.641793
-0.597886
-0.505858
-0.320374
-0.0506057
-0.0045843
-0.0521975
-0.0543914
-0.0177536
-0.0266608
-0.0285972
-0.00965746
-0.00180238
-0.00214637
-0.00343378
-0.000204501
-0.00072133
-0.000144198
-0.000116248
-0.00332553
-0.0049472
-0.246676
-0.15717
-0.631655
-0.668294
-0.671429
-0.673781
-0.666902
-0.646231
-0.601376
-0.502335
-0.334504
-0.0832297
-0.000521611
-0.0416033
-0.050488
-0.0173664
-0.0312832
-0.0261359
-0.0121006
-0.00336642
-0.00239003
-0.00287168
-8.73075e-05
-0.000940914
-0.000521378
-1.04314e-05
-0.000626547
-0.0305572
-0.054618
-0.398746
-0.0313725
-0.640273
-0.686256
-0.688586
-0.688826
-0.677084
-0.649956
-0.602456
-0.508705
-0.348448
-0.127088
-0.0117855
-0.0267811
-0.0375461
-0.0169527
-0.0315751
-0.0239384
-0.00972057
-0.00656627
-0.00256499
-0.00270316
-7.97303e-07
-0.0011597
-0.0009347
-0.000339302
-0.00109227
-0.0493342
-0.0125264
-0.0573273
-0.287928
-0.0468636
-0.664461
-0.708669
-0.708162
-0.704363
-0.689736
-0.655624
-0.607343
-0.518112
-0.35989
-0.14981
-0.0315549
-0.0139895
-0.026696
-0.0163101
-0.0316522
-0.0204817
-0.0068895
-0.00735865
-0.00303473
-0.00236515
-0.000210046
-0.00132566
-0.000990511
-0.000483956
-0.00310056
-0.0383817
-1.17466e-06
-0.172967
-0.115353
-0.0256021
-0.000501736
-0.594824
-0.737025
-0.732607
-0.721588
-0.702718
-0.665922
-0.615547
-0.53882
-0.35989
-0.149529
-0.0463143
-0.00605252
-0.0152265
-0.0181483
-0.0341268
-0.0161309
-0.00454659
-0.009729
-0.004078
-0.00128595
-0.00048267
-0.00137284
-0.00112893
-1.35435e-06
-0.00968512
-0.0377267
-0.00584112
-0.19514
-0.159302
-0.0227617
-0.36257
-0.147541
-0.543345
-0.744009
-0.749319
-0.741626
-0.716355
-0.677251
-0.628717
-0.559768
-0.369295
-0.129468
-0.0501532
-0.00101198
-0.0148918
-0.0196702
-0.0389899
-0.0174667
-0.00126656
-0.0128141
-0.00308623
-0.000721498
-0.000911474
-0.00250686
-0.000171506
-0.00184736
-0.00859985
-0.0396063
-0.0507891
-0.269488
-0.181509
-0.0546649
-0.107085
-0.0114838
-0.0354512
-0.500105
-0.698054
-0.794978
-0.758344
-0.731205
-0.688005
-0.638912
-0.576188
-0.377112
-0.115861
-0.0632369
-0.000995564
-0.0250195
-0.0350833
-0.0448441
-0.0198553
-0.000854415
-0.0139766
-0.00456282
-0.000894343
-0.00187224
-0.00331541
-0.000804479
-0.00119954
-0.0140503
-0.00819448
-0.194596
-0.286598
-0.0931575
-0.0881198
-0.10801
-0.0607157
-0.000701922
-0.00155105
-0.547371
-0.612159
-0.729581
-0.803349
-0.741638
-0.694501
-0.645305
-0.576859
-0.378657
-0.105424
-0.0896312
-0.000229902
-0.0446815
-0.0584837
-0.0536265
-0.0210533
-0.00214919
-0.0140002
-0.00622966
-0.00154583
-0.00257282
-0.00108726
-0.00329033
-0.00701
-0.0228046
-0.073021
-0.2574
-0.211384
-0.234397
-0.0279541
-0.110842
-0.0180271
-9.31136e-05
-0.00582737
-7.65334e-05
-0.557201
-0.615099
-0.630416
-0.727088
-0.76912
-0.717092
-0.645065
-0.568426
-0.342589
-0.0982469
-0.121478
-0.000140743
-0.0680899
-0.0736974
-0.0646762
-0.0198093
-0.00161749
-0.0203652
-0.00743784
-0.00034709
-0.000651901
-0.000467196
-0.00556952
-0.0240137
-0.00848204
-0.269645
-0.273786
-0.00208145
-0.433557
-0.14617
-0.0992527
-0.000455034
-8.65494e-05
-0.00206185
-0.000640108
-0.00371796
-0.556627
-0.612596
-0.619262
-0.633548
-0.693444
-0.720024
-0.707093
-0.54939
-0.292399
-0.0674983
-0.141555
-0.000157675
-0.0994971
-0.0843755
-0.0693189
-0.0193637
-0.00126166
-0.0239629
-0.00857921
-0.00020549
-0.000980367
-0.0117312
-0.00776034
-6.46058e-06
-0.257191
-0.319414
-0.176096
-0.345659
-0.363586
-0.256966
-0.0253937
-0.00497138
-1.56212e-07
-0.00258666
-3.86713e-05
-0.00017535
-0.00290642
-0.54989
-0.608272
-0.60531
-0.616499
-0.612646
-0.630385
-0.700806
-0.62257
-0.186671
-0.0408734
-0.122162
-0.0013939
-0.107362
-0.104668
-0.0715178
-0.0190884
-0.00424322
-0.0254185
-0.011502
-0.00168147
-0.000395701
-0.024575
-0.00386045
-0.204162
-0.322911
-0.279579
-0.160922
-0.463801
-0.0981976
-0.178339
-0.0252923
-0.0173817
-0.00146805
-0.00161753
-0.000430008
-0.0014838
-0.000264948
-0.00119391
-0.544699
-0.596268
-0.594674
-0.597626
-0.614616
-0.573388
-0.508699
-0.699005
-0.527537
-0.0397541
-0.0784539
-0.0204281
-0.175876
-0.112746
-0.096692
-0.0193867
-0.0137082
-0.0358972
-0.0182435
-0.00472478
-0.000355282
-0.000380541
-0.202542
-0.332759
-0.333409
-0.00263323
-0.453945
-0.336155
-0.0728848
-0.0300427
-0.161265
-0.056296
-0.00548521
-0.000992618
-0.00123672
-0.00146056
-0.00125378
-0.00245582
-0.000334691
-0.539254
-0.588348
-0.578374
-0.58215
-0.591372
-0.619394
-0.502232
-0.261285
-0.634591
-0.60935
-0.230917
-0.0406828
-0.192971
-0.188131
-0.114935
-0.0330638
-0.00721277
-0.0216106
-0.0283518
-2.28191e-08
-0.0710968
-0.250605
-0.341085
-0.390633
-0.062464
-0.411526
-0.404766
-0.0628834
-0.109836
-0.0213223
-0.274231
-0.0750305
-0.0139327
-0.000250516
-0.00256691
-0.00117485
-0.000866151
-0.000123211
-0.00461797
-2.39996e-05
-0.538139
-0.583101
-0.574407
-0.578559
-0.577063
-0.58843
-0.624496
-0.339888
-0.00444478
-0.349636
-0.706042
-0.333839
-0.0489912
-0.154226
-0.161513
-0.0023794
-0.0262583
-0.00101994
-0.037436
-0.217392
-0.250673
-0.380569
-0.377642
-0.11074
-0.388851
-0.433145
-0.168547
-0.00164166
-0.0676687
-0.0324455
-0.29488
-0.0668884
-0.0270421
-3.33745e-05
-0.00392435
-0.000971159
-0.00132957
-7.27551e-06
-9.21545e-05
-0.00699678
-0.00198274
-0.545397
-0.584978
-0.578952
-0.585783
-0.590181
-0.579506
-0.579165
-0.642682
-0.0703384
-0.167845
-0.34094
-0.655737
-0.612601
-0.240588
-0.125204
-0.14996
-0.048696
-0.198742
-0.241634
-0.363023
-0.431476
-0.361376
-0.00175494
-0.395985
-0.42785
-0.200556
-0.000564064
-0.00139196
-0.0327186
-0.00282848
-0.21133
-0.0116485
-0.0478304
-0.00126161
-0.00649779
-0.00065076
-0.00164114
-7.31403e-05
-0.000402949
-0.000773976
-0.0130502
-0.0035342
-0.553544
-0.59297
-0.589946
-0.596233
-0.601124
-0.594385
-0.582767
-0.585293
-0.650062
-0.157426
-0.0926263
-0.581728
-0.0919537
-0.594861
-0.573306
-0.497415
-0.459877
-0.466772
-0.406746
-0.347722
-0.136251
-0.161039
-0.415361
-0.37568
-0.193296
-0.00673516
-0.00356632
-0.00140423
-0.019904
-0.013419
-0.0543211
-0.0532848
-0.0719735
-0.00512177
-0.00681124
-0.000243708
-0.00178203
-0.000122
-0.000272056
-0.00129735
-0.00424183
-0.0165111
-0.00117981
-0.568311
-0.602285
-0.598058
-0.604305
-0.608004
-0.599458
-0.588712
-0.579737
-0.606336
-0.572653
-0.227084
-0.0895015
-0.550006
-0.631474
-0.344873
-0.306476
-0.197919
-0.192017
-0.0871962
-0.162922
-0.26555
-0.381561
-0.320519
-0.166423
-0.00789685
-0.00468818
-0.00182565
-0.00143062
-0.00195989
-0.0241659
-0.0122992
-0.186267
-0.0873576
-0.0117208
-0.00621338
-3.1434e-07
-0.00294586
-0.000214431
-0.000266032
-0.00101317
-0.00501003
-0.0085064
-0.00292071
-0.0849883
-0.57994
-0.616528
-0.61133
-0.607928
-0.609866
-0.60051
-0.591656
-0.580234
-0.556429
-0.58616
-0.307097
-0.135064
-0.266301
-0.389066
-0.574652
-0.560604
-0.490119
-0.437372
-0.390923
-0.391796
-0.304335
-0.235721
-0.0889113
-9.73997e-05
-0.00385894
-1.57843e-05
-0.000521569
-0.0037756
-0.000856978
-0.011038
-0.0397397
-0.247781
-0.0729267
-0.0218416
-0.00309748
-0.000294161
-0.00303373
-0.000340784
-0.000213678
-0.00097291
-0.00423954
-0.0103477
-0.00106311
-0.0529957
-0.237789
-0.580717
-0.620465
-0.618466
-0.613401
-0.610156
-0.599854
-0.592703
-0.586614
-0.551311
-0.47544
-0.599495
-0.2285
-0.0219203
-0.155628
-0.121283
-0.272682
-0.322779
-0.321943
-0.284257
-0.182698
-0.0848424
-0.0145193
-0.00335337
-0.000278722
-1.24873e-05
-0.00499167
-0.00259395
-1.46635e-05
-0.00183185
-0.000991288
-0.0127265
-0.203001
-0.0172116
-0.036758
-7.16741e-05
-0.000914602
-0.00325616
-0.000532878
-0.000158175
-0.000896164
-0.00390867
-0.0102112
-0.0029818
-0.0517459
-0.213166
-0.336741
-0.577641
-0.61568
-0.611102
-0.606403
-0.605279
-0.597399
-0.593239
-0.591233
-0.54731
-0.457858
-0.435336
-0.612223
-0.491167
-0.293325
-0.00513333
-0.0192326
-5.23209e-05
-0.0351777
-0.0371795
-0.0169322
-0.00359634
-0.000151681
-0.000546064
-0.000125704
-0.00708598
-5.07326e-06
-0.000823734
-0.000205838
-0.00179965
-0.000977015
-0.0042886
-0.0723891
-0.0268191
-0.062755
-0.00401663
-0.0022949
-0.00265972
-0.000772213
-9.86129e-05
-0.000818218
-0.00355805
-0.0104191
-0.00438294
-0.040275
-0.209543
-0.326162
-0.38322
-0.57169
-0.610488
-0.602502
-0.597075
-0.594867
-0.589977
-0.591753
-0.592938
-0.542066
-0.451626
-0.421479
-0.465992
-0.457692
-0.425725
-0.214031
-0.020329
-0.0117222
-0.00505127
-0.00285512
-0.021002
-0.021856
-0.0174538
-0.0106049
-0.00489813
-2.88838e-05
-0.00136911
-0.00173875
-0.000971168
-0.000617277
-0.00380885
-0.0224452
-0.00488892
-0.128031
-0.0757001
-0.0162062
-0.00372196
-0.00165715
-0.000990449
-4.60419e-05
-0.000726009
-0.0032603
-0.0103701
-0.00615144
-0.0315472
-0.197957
-0.325996
-0.380451
-0.398097
-0.565765
-0.601477
-0.595551
-0.593179
-0.589733
-0.586394
-0.591666
-0.594027
-0.538729
-0.447372
-0.426622
-0.382252
-0.477268
-0.110006
-0.134268
-0.0241086
-0.0139857
-2.0509e-05
-0.00012855
-0.0094672
-0.00891585
-0.00607344
-0.00193493
-3.53288e-05
-0.000663196
-0.00248347
-0.00364732
-0.00104079
-9.07302e-05
-0.00240304
-0.00994227
-0.0575804
-0.190586
-0.0564598
-0.0266049
-0.0059723
-0.00061563
-0.00165161
-1.48691e-05
-0.000618717
-0.00298851
-0.0102765
-0.00783282
-0.0232816
-0.18743
-0.321381
-0.383102
-0.399349
-0.398529
-0.572857
-0.599029
-0.588743
-0.587181
-0.587763
-0.586609
-0.595038
-0.593462
-0.535916
-0.446937
-0.44173
-0.35693
-0.219786
-0.540212
-0.433212
-0.00431192
-0.0145944
-0.00363972
-0.00364706
-0.005475
-0.0075475
-0.00542032
-0.00201605
-2.61293e-07
-0.0015645
-0.00351549
-0.00343445
-0.000981645
-2.61024e-06
-0.00105894
-1.91675e-05
-0.0555916
-0.178664
-0.0117796
-0.036139
-0.00378801
-9.98556e-05
-0.00208118
-1.31256e-06
-0.000513821
-0.00272144
-0.010114
-0.00949479
-0.0161793
-0.176223
-0.317155
-0.382901
-0.404028
-0.401384
-0.394359
-0.579946
-0.606218
-0.593989
-0.587522
-0.584061
-0.586282
-0.597797
-0.59202
-0.522483
-0.44972
-0.452099
-0.354792
-0.158859
-0.245311
-0.49266
-0.302962
-4.80182e-06
-0.00332642
-0.00536256
-0.00345732
-0.00796854
-0.00432359
-0.0017369
-8.7509e-07
-0.000951941
-0.00279263
-0.00340433
-0.00101553
-3.43479e-05
-0.000180864
-0.00138981
-0.025848
-0.104279
-0.0260843
-0.0477946
-3.97866e-05
-1.01069e-06
-0.00243824
-1.32641e-06
-0.000424308
-0.00241614
-0.00990507
-0.0110739
-0.0102772
-0.164784
-0.312323
-0.382957
-0.406469
-0.406803
-0.398061
-0.38837
-0.594513
-0.612705
-0.598713
-0.591763
-0.586887
-0.588987
-0.601174
-0.589883
-0.512931
-0.449343
-0.458078
-0.34827
-0.136881
-0.0977011
-0.437697
-0.045103
-0.0593941
-0.000615426
-0.0145927
-0.000103273
-0.0101796
-0.00593197
-0.00292134
-7.15736e-05
-0.00072095
-0.00248815
-0.00334249
-0.00123252
-3.74615e-05
-1.46437e-06
-0.0048762
-0.009357
-0.0242146
-0.115384
-0.0485359
-0.00672803
-2.45827e-05
-0.00225594
-9.65981e-06
-0.00035975
-0.00207046
-0.00963788
-0.0126126
-0.00569168
-0.153098
-0.30714
-0.382632
-0.409217
-0.410256
-0.403696
-0.39274
-0.380732
-0.606898
-0.622951
-0.602196
-0.592667
-0.588717
-0.594927
-0.611005
-0.585703
-0.505962
-0.451006
-0.467273
-0.328729
-0.127384
-0.0697619
-0.17535
-0.512627
-0.440262
-0.0684539
-0.0113692
-0.00378968
-0.00994453
-0.00743299
-0.00434964
-0.000259366
-0.000536715
-0.00234747
-0.00352018
-0.00156021
-1.03464e-05
-3.41364e-05
-0.00439116
-0.016729
-1.44658e-07
-0.164472
-0.0505827
-0.0269092
-0.00070005
-0.00164456
-2.88565e-05
-0.000329225
-0.0017265
-0.00922956
-0.0141054
-0.00247881
-0.141227
-0.301537
-0.382076
-0.411739
-0.414125
-0.407477
-0.398434
-0.385777
-0.371627
-0.610601
-0.626415
-0.600294
-0.591212
-0.589136
-0.598756
-0.617358
-0.585761
-0.499421
-0.456908
-0.467418
-0.309203
-0.12024
-0.0825363
-0.117423
-0.225843
-0.325864
-0.346087
-0.0821636
-0.0121623
-0.00643936
-0.00917525
-0.00629697
-0.000545567
-0.000434855
-0.00226465
-0.00360553
-0.0019481
-1.55714e-06
-9.88534e-05
-0.00490985
-0.0232829
-0.00237531
-0.15058
-0.0165362
-0.0447092
-0.000189541
-0.000910811
-7.50921e-05
-0.000311685
-0.00141282
-0.0086857
-0.0155882
-0.000602496
-0.129283
-0.29553
-0.381219
-0.414144
-0.417915
-0.411694
-0.402428
-0.391416
-0.377322
-0.361352
-0.611582
-0.625461
-0.591047
-0.581797
-0.588053
-0.601022
-0.619583
-0.58548
-0.490935
-0.47356
-0.468171
-0.300697
-0.0940254
-0.0800228
-0.114592
-0.0455836
-0.363929
-0.0884693
-0.128922
-0.0181693
-0.000765042
-0.00887656
-0.00900632
-0.00100854
-0.000317666
-0.00221561
-0.00365393
-0.00234805
-4.78491e-05
-0.000162409
-0.00346626
-0.0146946
-0.00490767
-0.0957195
-0.011187
-0.0495764
-0.00053653
-0.000584612
-0.00016701
-0.000314262
-0.00117708
-0.00796176
-0.0169089
-1.23505e-07
-0.11733
-0.289113
-0.380102
-0.416401
-0.421752
-0.415871
-0.406834
-0.395553
-0.382802
-0.367657
-0.350292
-0.614664
-0.623532
-0.585508
-0.575049
-0.583764
-0.607138
-0.621361
-0.585018
-0.489056
-0.486372
-0.467906
-0.286387
-0.086979
-0.0830236
-0.110176
-0.0203804
-0.0331995
-0.406892
-0.235122
-0.0258118
-0.000959451
-0.00463933
-0.0118385
-0.00177333
-0.000164826
-0.00215293
-0.00366207
-0.00279292
-0.000186675
-0.000175842
-0.00150129
-0.00360375
-0.00924973
-0.0369036
-0.0952028
-0.0495962
-0.00162105
-0.000251326
-0.00027497
-0.000331382
-0.00105354
-0.00717556
-0.0179465
-0.000573727
-0.105536
-0.282324
-0.378698
-0.418482
-0.425605
-0.420121
-0.411196
-0.400079
-0.387039
-0.37286
-0.357206
-0.338969
-0.620978
-0.625586
-0.58142
-0.571691
-0.582824
-0.613987
-0.622067
-0.583805
-0.488382
-0.498251
-0.459495
-0.268197
-0.0767524
-0.0888763
-0.10252
-0.0201299
-0.00736131
-0.269457
-0.0420696
-0.161545
-0.0176228
-0.000753879
-0.0127015
-0.00289781
-1.5631e-05
-0.00201921
-0.00374728
-0.00323322
-0.000453933
-0.000118945
-0.000337664
-0.00062138
-0.0292713
-0.00942412
-0.161421
-0.0499184
-0.0156416
-0.000395179
-0.000264773
-0.000349415
-0.00101857
-0.00637813
-0.0186226
-0.00210501
-0.0939813
-0.275182
-0.377056
-0.42036
-0.429469
-0.424403
-0.415636
-0.404572
-0.391628
-0.377152
-0.36198
-0.3464
-0.327953
-0.625329
-0.629821
-0.581792
-0.570185
-0.584027
-0.617843
-0.62102
-0.576252
-0.486803
-0.503751
-0.451863
-0.271154
-0.0711166
-0.101566
-0.0934758
-0.017844
-0.0179008
-0.0268129
-0.384841
-0.247238
-0.0866587
-0.000210442
-0.00950471
-0.0041513
-9.16365e-05
-0.00170773
-0.0039588
-0.00371038
-0.000899693
-6.18464e-05
-1.9619e-05
-0.00024317
-0.0440779
-0.00291845
-0.163886
-0.0259854
-0.0426177
-0.000384017
-0.000115351
-0.000343721
-0.00107285
-0.00567768
-0.0188757
-0.00436015
-0.0827677
-0.267718
-0.375185
-0.422038
-0.433328
-0.428743
-0.42012
-0.409124
-0.396197
-0.381734
-0.366232
-0.350596
-0.335659
-0.317789
-0.62817
-0.631752
-0.582628
-0.574833
-0.588401
-0.622778
-0.619764
-0.564046
-0.481665
-0.51404
-0.444324
-0.26262
-0.0930089
-0.128112
-0.0881786
-0.0171331
-0.0204411
-0.00224365
-0.16268
-0.242135
-0.238475
-0.012351
-0.00471405
-0.00446237
-0.000697674
-0.00117304
-0.00437546
-0.00426763
-0.00150151
-2.18518e-05
-4.24575e-05
-8.27078e-05
-0.0415964
-0.00147537
-0.124741
-0.000529345
-0.060667
-1.81625e-05
-4.62969e-06
-0.000297025
-0.00115504
-0.00512141
-0.0188067
-0.00699935
-0.0719224
-0.260072
-0.373135
-0.423529
-0.437176
-0.433133
-0.424655
-0.413728
-0.400827
-0.386312
-0.370765
-0.354766
-0.339208
-0.325539
-0.308997
-0.628371
-0.630818
-0.581621
-0.578129
-0.596403
-0.628334
-0.619229
-0.554639
-0.47811
-0.516961
-0.427676
-0.255607
-0.107497
-0.147816
-0.0769864
-0.0195574
-0.0220526
-0.000592575
-0.0154576
-0.352209
-0.087399
-0.0837666
-0.00173294
-0.00330547
-0.00167395
-0.000487835
-0.00481996
-0.00514993
-0.00211737
-9.65134e-07
-0.000634845
-0.00125068
-0.0306375
-2.15926e-05
-0.0702979
-0.0409643
-0.0593902
-0.00107633
-2.60137e-05
-0.000211246
-0.00124636
-0.00474603
-0.0185201
-0.00973559
-0.0614954
-0.252337
-0.370864
-0.42485
-0.440966
-0.437564
-0.429249
-0.418388
-0.405493
-0.390982
-0.375291
-0.359127
-0.343246
-0.328416
-0.316481
-0.302106
-0.625939
-0.628003
-0.577553
-0.581783
-0.604361
-0.631966
-0.618531
-0.547859
-0.477639
-0.512331
-0.414492
-0.228413
-0.125142
-0.164526
-0.0585739
-0.0196443
-0.0155194
-0.000361822
-0.000736849
-0.0986245
-0.292076
-0.227246
-0.012021
-0.00236481
-0.00178377
-1.97829e-05
-0.00495303
-0.00668149
-0.0024679
-0.000127626
-0.00286069
-0.00146056
-0.0254212
-0.00474041
-0.0320423
-0.117548
-0.0545608
-0.00692574
-2.5531e-05
-0.000152718
-0.00131888
-0.00454738
-0.018193
-0.012346
-0.0516803
-0.2444
-0.368416
-0.425955
-0.444686
-0.442065
-0.433887
-0.423072
-0.410205
-0.395676
-0.379897
-0.363531
-0.347322
-0.332154
-0.318708
-0.308959
-0.297529
-0.627478
-0.621817
-0.571228
-0.585511
-0.613254
-0.635966
-0.618695
-0.539062
-0.477524
-0.510553
-0.40538
-0.203743
-0.158559
-0.174943
-0.0448187
-0.0196914
-0.0108829
-0.0012462
-2.68208e-08
-0.00225595
-0.356853
-0.131868
-0.0784285
-0.00232845
-0.000431292
-0.000254349
-0.00439386
-0.00897914
-0.0026734
-0.000291957
-0.00735679
-0.000473946
-0.0167519
-0.0218363
-0.01106
-0.147187
-0.0500645
-0.027251
-1.50313e-05
-0.000189647
-0.00140351
-0.0044347
-0.0179208
-0.0147677
-0.0427324
-0.236306
-0.365816
-0.42688
-0.44833
-0.446604
-0.438605
-0.427826
-0.414962
-0.400392
-0.384557
-0.368021
-0.351531
-0.335911
-0.321969
-0.310468
-0.303389
-0.29555
-0.631925
-0.619526
-0.567919
-0.589045
-0.620351
-0.637046
-0.615413
-0.529585
-0.478115
-0.507946
-0.399201
-0.198113
-0.185122
-0.185244
-0.0373135
-0.0182411
-0.00757133
-0.00157637
-0.000144328
-0.000536469
-0.0932824
-0.311456
-0.201807
-0.00900317
-3.95484e-05
-0.000716538
-0.00305268
-0.0115181
-0.00342717
-3.12757e-05
-0.0109131
-3.32044e-06
-0.00901463
-0.0301739
-0.0068686
-0.127435
-0.0195667
-0.0551112
-4.58942e-05
-0.000408294
-0.00147553
-0.0043579
-0.0177282
-0.0169915
-0.03481
-0.22808
-0.363104
-0.427623
-0.451873
-0.451231
-0.443395
-0.432622
-0.419762
-0.405179
-0.389252
-0.372548
-0.355819
-0.339768
-0.3253
-0.313195
-0.304157
-0.300141
-0.296458
-0.636737
-0.620785
-0.570478
-0.598313
-0.627201
-0.635494
-0.604794
-0.513213
-0.477729
-0.504475
-0.383008
-0.195208
-0.210772
-0.178578
-0.0203607
-0.0184968
-0.00394371
-0.00366134
-0.000349877
-0.000954593
-0.00412988
-0.376957
-0.129783
-0.0611042
-1.49649e-05
-2.5775e-05
-0.00126704
-0.0130682
-0.00573834
-0.000684914
-0.00934673
-6.37944e-05
-0.00456828
-0.0246739
-0.00495341
-0.0930039
-0.00162907
-0.0664737
-0.000316214
-0.000846868
-0.00146271
-0.00421988
-0.0175641
-0.0191842
-0.0279762
-0.219843
-0.360271
-0.428192
-0.455316
-0.455942
-0.448276
-0.437493
-0.424611
-0.409969
-0.393987
-0.37717
-0.360179
-0.343755
-0.328753
-0.316016
-0.306334
-0.300139
-0.299453
-0.300309
-0.641587
-0.623009
-0.572644
-0.608492
-0.633826
-0.63253
-0.594087
-0.494724
-0.486
-0.497093
-0.377646
-0.191714
-0.223232
-0.162008
-0.0190811
-0.0107289
-0.00143015
-0.0044152
-0.000810891
-0.00146575
-0.00493493
-0.1048
-0.251147
-0.181014
-9.93408e-05
-0.00339617
-8.52304e-05
-0.0131771
-0.00777707
-0.00484412
-0.00532496
-2.35223e-05
-0.00263461
-0.0151813
-0.00159779
-0.0582411
-0.0519796
-0.0645434
-0.000419948
-0.00117728
-0.00132994
-0.00403687
-0.0174038
-0.0213881
-0.0221091
-0.211821
-0.357311
-0.428586
-0.458648
-0.460774
-0.45326
-0.442426
-0.429479
-0.414809
-0.398747
-0.381806
-0.364609
-0.347858
-0.332364
-0.318982
-0.308479
-0.301584
-0.298698
-0.301584
-0.307209
-0.647769
-0.626443
-0.576668
-0.615621
-0.637155
-0.628872
-0.58035
-0.485381
-0.494941
-0.493725
-0.365268
-0.217509
-0.258085
-0.150659
-0.0210191
-0.00688828
-0.000659891
-0.00683122
-0.000756595
-0.000268761
-0.00134615
-0.00159515
-0.440725
-0.206597
-0.0700626
-0.0100587
-9.20342e-05
-0.0122236
-0.00776873
-0.0073557
-0.00189182
-0.000216309
-0.00154092
-0.00959802
-0.00505178
-0.0308239
-0.0968977
-0.0620089
-0.00527864
-0.000936598
-0.00117052
-0.00388381
-0.0172406
-0.0236486
-0.0171116
-0.204178
-0.354292
-0.428804
-0.461849
-0.465721
-0.45836
-0.447404
-0.434392
-0.419663
-0.403566
-0.386516
-0.369108
-0.352061
-0.336103
-0.322104
-0.310853
-0.30298
-0.299316
-0.300074
-0.306597
-0.317095
-0.657073
-0.632951
-0.580859
-0.621352
-0.637061
-0.622641
-0.562109
-0.480521
-0.502531
-0.488492
-0.338176
-0.242701
-0.261918
-0.142283
-0.0285971
-0.00845102
-0.000617903
-0.00473986
-0.00060352
-0.000126997
-7.57521e-05
-0.00296661
-0.216822
-0.0758277
-0.148494
-0.0049956
-0.000239626
-0.0100468
-0.00606177
-0.00498648
-0.00123023
-0.00116162
-0.000834755
-0.00609465
-0.0126562
-0.0152723
-0.0988858
-0.0524091
-0.0207655
-0.000355904
-0.00120738
-0.00385803
-0.0171289
-0.0259184
-0.0128307
-0.196981
-0.351342
-0.428861
-0.46491
-0.47084
-0.463592
-0.452455
-0.439365
-0.424641
-0.408568
-0.391391
-0.373782
-0.356414
-0.34002
-0.32539
-0.31339
-0.304699
-0.29993
-0.299808
-0.304372
-0.314451
-0.329736
-0.671275
-0.642442
-0.586757
-0.623356
-0.632893
-0.612671
-0.544422
-0.480624
-0.514469
-0.482883
-0.317215
-0.264194
-0.270501
-0.119094
-0.0389031
-0.00601953
-1.71184e-05
-0.00601717
-0.000131028
-0.00110627
-0.000269368
-0.00063797
-0.00703871
-0.428782
-0.207107
-0.0344871
-0.00971553
-0.00602945
-0.00279904
-0.00242882
-0.00222473
-0.00137968
-0.000405541
-0.00375123
-0.0202191
-0.0128704
-0.0917876
-0.0203024
-0.0381886
-0.000298391
-0.00148451
-0.00393687
-0.0170802
-0.0280187
-0.00919319
-0.190208
-0.348636
-0.428939
-0.467808
-0.476159
-0.468965
-0.457565
-0.444449
-0.429753
-0.41338
-0.395977
-0.378158
-0.360557
-0.343867
-0.328827
-0.316121
-0.306587
-0.300869
-0.299546
-0.303093
-0.311526
-0.325141
-0.344729
-0.682906
-0.652554
-0.593946
-0.622189
-0.626972
-0.600458
-0.530371
-0.487825
-0.533028
-0.468875
-0.310178
-0.292935
-0.272943
-0.111539
-0.0425971
-0.00586509
-0.000550253
-0.00633708
-0.000183754
-0.00216928
-6.51914e-06
-0.00489303
-0.00874132
-0.390187
-0.0700423
-0.135681
-0.0279812
-0.000980967
-0.000528982
-0.000233531
-0.00230185
-0.00169499
-0.000198615
-0.00209839
-0.0154717
-0.0161479
-0.0572341
-0.000637209
-0.0436632
-0.000810088
-0.00187026
-0.0039529
-0.0171616
-0.0298574
-0.00621146
-0.183867
-0.346251
-0.429134
-0.470559
-0.481644
-0.474435
-0.462741
-0.449591
-0.434551
-0.418086
-0.400603
-0.382508
-0.364687
-0.347665
-0.332125
-0.318864
-0.308625
-0.301961
-0.299583
-0.301982
-0.309296
-0.32145
-0.338315
-0.36151
-0.692749
-0.659997
-0.59258
-0.617904
-0.618155
-0.587189
-0.522938
-0.508465
-0.540727
-0.456511
-0.301649
-0.312931
-0.271511
-0.102313
-0.0402174
-0.00721066
-0.000788988
-0.00679297
-0.00146204
-0.00152925
-2.8379e-05
-0.0014009
-0.00415183
-0.0540881
-0.270298
-0.21534
-0.031689
-7.67621e-06
-0.000629021
-0.000344036
-0.00412025
-0.00227533
-8.20397e-05
-0.00126139
-0.00829912
-0.00282971
-0.0316738
-0.0314979
-0.0440007
-1.26878e-05
-0.00188146
-0.00384255
-0.0174458
-0.031492
-0.00389774
-0.177769
-0.34414
-0.429689
-0.47314
-0.486994
-0.480062
-0.467984
-0.454438
-0.439288
-0.422736
-0.405041
-0.387138
-0.369213
-0.351842
-0.335848
-0.321941
-0.310788
-0.303262
-0.299862
-0.301009
-0.307192
-0.31822
-0.334034
-0.353593
-0.379602
-0.702544
-0.666746
-0.586899
-0.610587
-0.606958
-0.575851
-0.522805
-0.528688
-0.549214
-0.445047
-0.295132
-0.347222
-0.268873
-0.0922683
-0.040479
-0.00479957
-0.00106456
-0.00569321
-0.00113053
-0.00117352
-0.000149998
-7.83657e-05
-0.000105783
-0.0434477
-0.459515
-0.220328
-0.124411
-0.00145218
-0.0015618
-0.000565773
-0.0061895
-0.00315016
-3.06693e-05
-0.000805786
-0.00423998
-8.48668e-05
-0.0120554
-0.0528483
-0.0445349
-0.00346755
-0.00135374
-0.0037677
-0.0180569
-0.0329445
-0.002267
-0.171935
-0.342396
-0.430611
-0.475581
-0.49207
-0.485899
-0.472921
-0.459099
-0.443945
-0.427178
-0.409874
-0.39185
-0.373671
-0.356053
-0.339636
-0.32514
-0.31333
-0.304837
-0.300361
-0.300392
-0.305294
-0.315151
-0.329756
-0.348764
-0.370488
-0.39827
-0.708926
-0.672933
-0.581169
-0.603149
-0.59653
-0.569115
-0.533515
-0.554778
-0.551009
-0.425634
-0.308805
-0.369698
-0.272146
-0.101316
-0.025838
-0.00594544
-0.000798728
-0.00332359
-0.00214068
-0.000712849
-0.00100158
-0.000380457
-0.00598698
-0.00586601
-0.333915
-0.013183
-0.131751
-0.014243
-0.00123976
-0.000213909
-0.00603121
-0.00407242
-1.85261e-05
-0.000558796
-0.00202908
-0.00242055
-0.0043329
-0.0731075
-0.0351245
-0.0132968
-0.000911625
-0.00403711
-0.0188853
-0.0342477
-0.00124167
-0.166575
-0.34099
-0.431633
-0.477879
-0.496671
-0.4919
-0.477777
-0.463709
-0.448285
-0.431976
-0.414681
-0.396477
-0.378176
-0.360312
-0.343565
-0.328568
-0.316033
-0.306646
-0.301137
-0.300028
-0.30375
-0.312415
-0.325844
-0.343695
-0.36525
-0.388382
-0.416567
-0.716507
-0.677736
-0.575732
-0.597093
-0.589585
-0.565855
-0.546827
-0.576802
-0.549075
-0.406533
-0.32209
-0.386481
-0.272407
-0.100156
-0.0190706
-0.00244011
-0.00221393
-0.00182423
-0.00155133
-9.79124e-05
-0.00076836
-0.000632736
-0.00401306
-0.00446026
-0.00874376
-0.252759
-0.20779
-0.0486901
-0.00126954
-0.000198477
-0.00629235
-0.00488016
-1.15058e-05
-0.000441592
-0.000757591
-0.00706934
-0.00280647
-0.0534073
-0.0131937
-0.0174985
-0.00171745
-0.00458629
-0.0196616
-0.0352478
-0.000643608
-0.161782
-0.339618
-0.432517
-0.480106
-0.500613
-0.497266
-0.482626
-0.467919
-0.452821
-0.43684
-0.419372
-0.401171
-0.382726
-0.364638
-0.347512
-0.33207
-0.318878
-0.308761
-0.302237
-0.299955
-0.302438
-0.309822
-0.322152
-0.338938
-0.359521
-0.382863
-0.406412