/*--------------------------------*- C++ -*----------------------------------*\
| =========                 |                                                 |
| \\      /  F ield         | OpenFOAM: The Open Source CFD Toolbox           |
|  \\    /   O peration     | Version:  v2012                                 |
|   \\  /    A nd           | Website:  www.openfoam.com                      |
|    \\/     M anipulation  |                                                 |
\*---------------------------------------------------------------------------*/
FoamFile
{
    version     2.0;
    format      ascii;
    class       volScalarField;
    location    "0";
    object      lambda1;
}
// * * * * * * * * * * * * * * * * * * * * * * * * * * * * * * * * * * * * * //

dimensions      [0 0 0 0 0 0 0];


internalField   nonuniform List<scalar> 
27324
(
0.411677
0.4286
0.543079
0.433081
0.551084
0.561377
0.437947
0.55081
0.565112
0.565903
0.442344
0.551348
0.563989
0.567754
0.564137
0.447982
0.551879
0.563829
0.566789
0.564187
0.551327
0.454876
0.553731
0.564239
0.566727
0.56389
0.551399
0.536271
0.461715
0.556879
0.565997
0.567851
0.564848
0.552777
0.539577
0.527439
0.466122
0.560316
0.568631
0.570363
0.567001
0.555776
0.542334
0.529866
0.52344
0.46765
0.562295
0.571094
0.57329
0.569888
0.559699
0.546281
0.530634
0.517896
0.510711
0.468541
0.562643
0.572541
0.575618
0.57262
0.56388
0.551112
0.532367
0.511283
0.509712
0.529571
0.472473
0.562669
0.573476
0.576855
0.575022
0.567733
0.556619
0.535244
0.507408
0.504356
0.533223
0.564867
0.482029
0.564463
0.574972
0.577992
0.577256
0.571856
0.56223
0.538948
0.508886
0.504761
0.528765
0.568495
0.590335
0.495298
0.569258
0.578007
0.580169
0.580633
0.576418
0.568285
0.542398
0.514922
0.51057
0.528613
0.564598
0.596272
0.607003
0.506651
0.575175
0.582093
0.583912
0.585368
0.582145
0.572838
0.546308
0.522414
0.518924
0.531526
0.564198
0.593787
0.615492
0.61777
0.512407
0.579028
0.58514
0.587989
0.590627
0.588031
0.575422
0.547428
0.531006
0.525205
0.535024
0.564304
0.593382
0.613403
0.627426
0.62546
0.512918
0.579659
0.585929
0.590629
0.594702
0.592408
0.575267
0.546088
0.535237
0.53083
0.537868
0.564979
0.590832
0.612823
0.625421
0.63496
0.631038
0.513646
0.578416
0.585495
0.591596
0.596604
0.594246
0.573136
0.543835
0.535083
0.53084
0.542526
0.568346
0.588507
0.606945
0.625952
0.633203
0.639055
0.634881
0.520586
0.57938
0.586498
0.592841
0.597344
0.593975
0.571305
0.544346
0.533283
0.525807
0.547195
0.57301
0.591213
0.602112
0.618051
0.633012
0.636157
0.640615
0.637508
0.532149
0.58478
0.591445
0.596822
0.599839
0.594019
0.57284
0.550376
0.534136
0.520718
0.549749
0.581445
0.594806
0.602595
0.610527
0.626228
0.634728
0.635425
0.640105
0.639706
0.543259
0.591861
0.598794
0.604045
0.605538
0.597472
0.578775
0.561587
0.539015
0.519694
0.552047
0.586392
0.605112
0.606865
0.608811
0.617946
0.62939
0.633571
0.632999
0.638912
0.641096
0.551789
0.597622
0.605049
0.611386
0.613142
0.604593
0.589196
0.571524
0.544978
0.520584
0.55074
0.587043
0.610962
0.617719
0.614329
0.613379
0.624064
0.629644
0.630466
0.630297
0.639068
0.637958
0.558906
0.601965
0.6094
0.616803
0.619304
0.612537
0.600696
0.577502
0.541151
0.522472
0.548594
0.578923
0.609171
0.625375
0.624407
0.617234
0.617248
0.626564
0.628364
0.626929
0.629646
0.639955
0.621145
0.567914
0.606736
0.613481
0.621217
0.623874
0.618647
0.608524
0.579542
0.527224
0.516178
0.549028
0.572335
0.59468
0.621381
0.631486
0.624619
0.61557
0.621605
0.626271
0.625098
0.625661
0.63126
0.636423
0.560351
0.579241
0.614279
0.619821
0.627145
0.629258
0.623961
0.611559
0.578461
0.51223
0.50815
0.553506
0.573602
0.584546
0.604441
0.627999
0.628612
0.617617
0.613964
0.622898
0.62358
0.622357
0.627427
0.63179
0.616048
0.390878
0.592029
0.624512
0.629613
0.636264
0.637476
0.630767
0.612419
0.574943
0.513253
0.505559
0.556136
0.58712
0.58574
0.590489
0.613729
0.62949
0.619754
0.608896
0.614734
0.620994
0.62032
0.623353
0.631172
0.62095
0.53987
0.596893
0.606554
0.636946
0.641963
0.64789
0.647943
0.638747
0.613663
0.570985
0.522372
0.521057
0.557805
0.595986
0.607144
0.594065
0.600383
0.622313
0.625148
0.609216
0.605207
0.616704
0.619346
0.620885
0.628992
0.627355
0.5758
0.488567
0.822238
0.620852
0.651868
0.656162
0.660872
0.658093
0.645704
0.615216
0.568182
0.53018
0.537025
0.561693
0.598647
0.623197
0.620266
0.601775
0.615468
0.629568
0.617189
0.604065
0.610846
0.619976
0.620144
0.627469
0.632151
0.604147
0.441544
0.764024
0.845916
0.632151
0.668432
0.671896
0.674899
0.668485
0.649905
0.616567
0.567418
0.5381
0.546461
0.569258
0.590493
0.626708
0.639808
0.625715
0.611313
0.630611
0.631753
0.61246
0.608536
0.621148
0.623307
0.626059
0.633139
0.615195
0.508263
0.632065
0.858201
0.779121
0.640659
0.686546
0.688815
0.689887
0.680222
0.655906
0.618698
0.57047
0.545596
0.555742
0.577197
0.587883
0.610145
0.643195
0.645444
0.622835
0.625894
0.640703
0.62766
0.611226
0.619755
0.626304
0.625546
0.631981
0.622804
0.558708
0.511963
0.826137
0.85146
0.773307
0.667776
0.709204
0.708723
0.704885
0.692686
0.66578
0.629341
0.581187
0.554119
0.564213
0.588155
0.596771
0.596576
0.621932
0.649777
0.637141
0.622065
0.638394
0.639581
0.617113
0.614693
0.625962
0.624671
0.625283
0.63163
0.597302
0.483834
0.795218
0.867152
0.850792
0.835046
0.686914
0.740049
0.733777
0.722879
0.704311
0.675337
0.646215
0.605775
0.563284
0.577344
0.599859
0.611919
0.607292
0.603996
0.63392
0.643829
0.620301
0.619538
0.642356
0.624351
0.60715
0.621264
0.621256
0.620013
0.636206
0.62081
0.5146
0.749896
0.883891
0.876559
0.846016
0.764427
0.804699
0.769535
0.756032
0.744325
0.719572
0.682532
0.656281
0.635207
0.581288
0.582891
0.615272
0.629575
0.627856
0.610165
0.613002
0.642909
0.629791
0.606811
0.625987
0.631171
0.604145
0.611603
0.617152
0.627551
0.635796
0.639421
0.500651
0.712696
0.895986
0.894728
0.830861
0.679765
0.309394
0.779342
0.8118
0.820918
0.772492
0.738091
0.696993
0.655236
0.644206
0.605514
0.591581
0.614701
0.643805
0.649906
0.63726
0.612717
0.628787
0.642029
0.611519
0.606663
0.633478
0.611643
0.600042
0.626633
0.630917
0.639277
0.647111
0.335526
0.760684
0.905326
0.905103
0.818994
0.582849
0.158328
0.0484763
0.570345
0.750231
0.840152
0.845656
0.776615
0.713873
0.668606
0.623314
0.60759
0.606948
0.614058
0.637978
0.661638
0.661676
0.639744
0.622292
0.647286
0.635356
0.596374
0.624698
0.627087
0.599562
0.633123
0.631934
0.646571
0.567401
0.488704
0.84062
0.912281
0.911329
0.808165
0.475094
0.150167
0.106038
0.187195
0.556448
0.609659
0.759682
0.861604
0.864652
0.796949
0.696487
0.624459
0.549876
0.616407
0.626169
0.627961
0.653751
0.670386
0.664122
0.636751
0.635674
0.654461
0.618255
0.611791
0.641852
0.623762
0.628161
0.642574
0.611784
0.411706
0.763806
0.887482
0.914127
0.910757
0.805247
0.419631
0.175706
0.120594
0.201056
0.322404
0.556295
0.610206
0.600979
0.765119
0.886581
0.89707
0.844337
0.685132
0.48165
0.558847
0.65104
0.631166
0.634693
0.661174
0.671872
0.655004
0.631156
0.656655
0.654123
0.609043
0.652953
0.643024
0.623147
0.643771
0.412556
0.689185
0.863381
0.908764
0.906672
0.900313
0.821425
0.452922
0.194677
0.135819
0.205011
0.342813
0.414701
0.550339
0.6076
0.600296
0.582918
0.785897
0.913246
0.928558
0.885085
0.674471
0.394005
0.593213
0.667174
0.631644
0.640114
0.668352
0.667117
0.641291
0.647964
0.673391
0.638605
0.637157
0.654212
0.620955
0.465165
0.618315
0.84672
0.904743
0.913093
0.880406
0.876763
0.84644
0.546374
0.22319
0.147292
0.221868
0.348367
0.432562
0.469555
0.546238
0.596064
0.59336
0.589857
0.560001
0.829564
0.933486
0.948443
0.923108
0.785769
0.545647
0.54516
0.673155
0.627489
0.65878
0.673714
0.658516
0.639915
0.666629
0.658316
0.59236
0.663019
0.413569
0.602259
0.837252
0.903637
0.917573
0.899252
0.812886
0.829498
0.864175
0.644532
0.275127
0.158298
0.241223
0.360632
0.435238
0.480919
0.500626
0.541351
0.588497
0.577925
0.580239
0.57902
0.539769
0.882021
0.942978
0.958845
0.950575
0.888236
0.689249
0.468921
0.614538
0.571492
0.665105
0.662584
0.626353
0.594651
0.654262
0.557507
0.447059
0.636234
0.845203
0.905913
0.922695
0.91211
0.852423
0.640137
0.737891
0.871713
0.728476
0.35069
0.172398
0.264479
0.370843
0.442863
0.479125
0.508471
0.514702
0.540466
0.583493
0.574445
0.57789
0.574306
0.566025
0.581598
0.917931
0.942874
0.962869
0.966088
0.940915
0.856354
0.697512
0.507411
0.396403
0.597102
0.582716
0.49607
0.504364
0.527458
0.758156
0.870304
0.915864
0.928448
0.921808
0.878069
0.729181
0.303247
0.558496
0.867026
0.789111
0.447265
0.193232
0.288245
0.381556
0.448379
0.483045
0.504069
0.52182
0.513655
0.546888
0.585589
0.579239
0.585643
0.589343
0.575079
0.529595
0.742146
0.935659
0.932052
0.959557
0.972245
0.965745
0.941073
0.895424
0.830476
0.757536
0.735474
0.754394
0.807679
0.867189
0.910065
0.929302
0.93603
0.928712
0.894131
0.778908
0.540874
0.363612
0.239465
0.846927
0.829094
0.549543
0.225029
0.307352
0.392288
0.453289
0.486175
0.505586
0.516171
0.521338
0.499507
0.5545
0.593502
0.590534
0.596371
0.600939
0.593233
0.574603
0.471248
0.852216
0.944482
0.898518
0.941746
0.968819
0.972946
0.967398
0.956623
0.944441
0.933189
0.933183
0.93635
0.940726
0.943942
0.942628
0.933029
0.899558
0.800089
0.568054
0.552005
0.483624
0.0414
0.803878
0.852475
0.643493
0.274218
0.32608
0.403317
0.457302
0.489707
0.506516
0.516363
0.515252
0.507619
0.463496
0.568754
0.602764
0.598697
0.604712
0.608183
0.599453
0.587126
0.5637
0.400382
0.915237
0.944989
0.802122
0.873252
0.944928
0.964991
0.96897
0.967216
0.964014
0.960404
0.957286
0.952799
0.946281
0.930381
0.891962
0.792395
0.569023
0.528867
0.578319
0.541169
0.21824
0.722362
0.862217
0.719774
0.343761
0.34246
0.413954
0.462351
0.49322
0.508036
0.515695
0.515143
0.501634
0.473382
0.425909
0.580194
0.616967
0.611983
0.608517
0.61027
0.600973
0.592314
0.578145
0.523051
0.563316
0.945113
0.937062
0.603696
0.499096
0.823184
0.917188
0.943482
0.950137
0.949984
0.944073
0.931411
0.907812
0.854732
0.735197
0.538519
0.513954
0.552488
0.584454
0.569668
0.336569
0.572114
0.85943
0.776202
0.433851
0.356688
0.423598
0.467265
0.496682
0.509699
0.515508
0.513883
0.501755
0.469025
0.434135
0.422736
0.581087
0.62084
0.619208
0.614111
0.610802
0.600423
0.593888
0.589017
0.548264
0.376703
0.790629
0.959111
0.913472
0.721007
0.58355
0.570896
0.696518
0.795067
0.829982
0.828046
0.792531
0.714543
0.586748
0.513972
0.518972
0.546655
0.562263
0.579437
0.580319
0.427674
0.307942
0.841872
0.815191
0.530823
0.368624
0.433186
0.473741
0.499821
0.511377
0.515522
0.512845
0.500576
0.470764
0.430351
0.424923
0.436738
0.578205
0.61601
0.611826
0.607427
0.606277
0.598388
0.594306
0.594087
0.554189
0.452819
0.15761
0.898191
0.963044
0.857423
0.717077
0.630862
0.645091
0.650487
0.59986
0.551306
0.531925
0.527108
0.535415
0.537685
0.548618
0.552918
0.560083
0.570459
0.581794
0.497734
0.000284493
0.803898
0.839567
0.618602
0.381801
0.441546
0.481421
0.502712
0.512895
0.515824
0.511847
0.499383
0.471182
0.431902
0.419998
0.439293
0.446693
0.572039
0.610701
0.603101
0.598075
0.596344
0.591666
0.59356
0.594981
0.549382
0.470765
0.404251
0.345499
0.944492
0.958753
0.766868
0.351464
0.48946
0.633707
0.639912
0.602687
0.569841
0.557259
0.553408
0.551866
0.551327
0.551436
0.5548
0.564939
0.578965
0.543913
0.204447
0.733758
0.850368
0.694171
0.408341
0.451903
0.490084
0.505165
0.514139
0.516362
0.511118
0.497954
0.471456
0.43233
0.418607
0.435831
0.452248
0.444928
0.565776
0.601462
0.595861
0.593938
0.591153
0.588625
0.594489
0.596954
0.543483
0.467001
0.456534
0.326098
0.746369
0.962514
0.942598
0.684195
0.16815
0.519065
0.623409
0.609018
0.569849
0.55545
0.552309
0.549223
0.546141
0.548646
0.552919
0.560594
0.575325
0.567316
0.359348
0.607357
0.84906
0.753358
0.45803
0.465533
0.498633
0.507962
0.515117
0.517025
0.510719
0.49645
0.4713
0.432609
0.416552
0.434971
0.450758
0.45305
0.435606
0.572658
0.598765
0.588594
0.587517
0.588796
0.588749
0.598455
0.597845
0.541823
0.459359
0.473842
0.401273
0.0215121
0.893905
0.966502
0.893697
0.395284
0.300436
0.581945
0.624728
0.581949
0.553293
0.549247
0.549039
0.547772
0.548201
0.551824
0.558845
0.572138
0.579189
0.45611
0.38149
0.834458
0.794436
0.527154
0.478688
0.505193
0.510619
0.516006
0.517672
0.510666
0.494995
0.470763
0.432464
0.414475
0.433544
0.451833
0.453186
0.445068
0.4249
0.579904
0.605882
0.593413
0.587221
0.584415
0.587824
0.601161
0.597209
0.531139
0.462232
0.472489
0.417318
0.218389
0.406038
0.947297
0.959462
0.759115
0.132394
0.46603
0.624332
0.605919
0.563272
0.550145
0.549995
0.549342
0.549587
0.552722
0.558059
0.56952
0.583268
0.520071
0.110259
0.802011
0.820838
0.605811
0.485741
0.508472
0.513965
0.517008
0.518157
0.510859
0.493759
0.469821
0.431918
0.41222
0.432069
0.452349
0.456092
0.445766
0.435271
0.414362
0.594682
0.612518
0.598075
0.590974
0.586373
0.589415
0.603444
0.595006
0.523282
0.464228
0.475308
0.393124
0.274611
0.0993159
0.771407
0.964584
0.933949
0.547327
0.236997
0.567072
0.62483
0.580972
0.5548
0.551984
0.55219
0.551263
0.553322
0.557948
0.567676
0.585132
0.559416
0.298675
0.744014
0.834671
0.673384
0.490844
0.510752
0.518558
0.518433
0.518372
0.511122
0.492887
0.46848
0.430933
0.409884
0.430481
0.452854
0.458481
0.449483
0.436048
0.425639
0.403468
0.607059
0.623018
0.601817
0.591819
0.587588
0.594129
0.61137
0.58922
0.516001
0.467071
0.48365
0.365318
0.234992
0.22223
0.126207
0.915917
0.965355
0.86434
0.125815
0.394924
0.619784
0.604077
0.563822
0.553294
0.554365
0.553315
0.554038
0.558145
0.566874
0.58526
0.581699
0.45958
0.649907
0.836226
0.730056
0.503367
0.513132
0.524612
0.520272
0.518269
0.511232
0.492452
0.466857
0.429513
0.407527
0.428829
0.45322
0.460926
0.452762
0.440018
0.426371
0.415785
0.391912
0.610714
0.626632
0.600403
0.590671
0.587935
0.597132
0.61613
0.586333
0.506348
0.471488
0.483699
0.339688
0.19198
0.244007
0.212226
0.582388
0.956562
0.950394
0.688226
0.124227
0.55854
0.624456
0.580043
0.555609
0.55569
0.555552
0.554996
0.558684
0.567172
0.585663
0.597415
0.548256
0.518255
0.825125
0.773088
0.537436
0.522956
0.531118
0.522265
0.51795
0.511038
0.492377
0.465106
0.427657
0.405233
0.427114
0.453434
0.46324
0.456199
0.443547
0.430514
0.4164
0.405346
0.379663
0.6117
0.62567
0.591514
0.581917
0.587311
0.599358
0.617229
0.58334
0.49247
0.4831
0.483169
0.325482
0.142343
0.186208
0.283616
0.0696948
0.869973
0.96456
0.896163
0.218553
0.387316
0.623242
0.602204
0.561543
0.556341
0.557981
0.556417
0.559494
0.568537
0.587215
0.608542
0.603728
0.439844
0.799698
0.802962
0.592605
0.532493
0.536679
0.524168
0.517632
0.510498
0.492485
0.463478
0.425454
0.403043
0.425302
0.453465
0.465421
0.459606
0.447241
0.434183
0.42066
0.405777
0.394213
0.366899
0.614775
0.623692
0.586005
0.575695
0.583919
0.606152
0.618908
0.580795
0.48475
0.488965
0.479374
0.31219
0.116499
0.138433
0.262521
0.17249
0.390591
0.945944
0.95404
0.700981
0.115674
0.566916
0.622504
0.573817
0.557138
0.560223
0.558493
0.560632
0.57075
0.590563
0.619452
0.638929
0.492369
0.756166
0.820483
0.65275
0.539927
0.537885
0.526055
0.517673
0.509694
0.492447
0.462181
0.423111
0.400906
0.423303
0.453238
0.467408
0.463002
0.450918
0.438004
0.424437
0.410114
0.394393
0.38253
0.354013
0.62093
0.625624
0.581806
0.572417
0.583714
0.614139
0.620674
0.579242
0.480044
0.494263
0.465558
0.298287
0.114145
0.117692
0.188633
0.254358
0.046026
0.818588
0.962051
0.907517
0.221025
0.394518
0.62484
0.593201
0.560218
0.56183
0.561245
0.562192
0.573717
0.5957
0.629267
0.660697
0.567293
0.691342
0.826262
0.707964
0.543274
0.537038
0.528499
0.518328
0.508822
0.492008
0.461209
0.420771
0.398559
0.420962
0.452732
0.469174
0.466368
0.454602
0.441814
0.42837
0.413978
0.398772
0.382361
0.370524
0.341497
0.625255
0.629665
0.581818
0.570753
0.585037
0.61897
0.621328
0.573509
0.477783
0.495295
0.449703
0.295547
0.144463
0.131757
0.136158
0.205993
0.2086
0.208068
0.937202
0.953575
0.739599
0.0928876
0.581064
0.614855
0.568693
0.562683
0.564529
0.564306
0.57752
0.602202
0.639602
0.676183
0.623447
0.616441
0.820381
0.750491
0.55338
0.53763
0.532215
0.519562
0.508011
0.490957
0.460284
0.418472
0.395694
0.41816
0.451956
0.470744
0.469719
0.458317
0.445652
0.432285
0.417995
0.40267
0.386698
0.369904
0.358469
0.329854
0.628161
0.631604
0.582243
0.574804
0.589088
0.62403
0.621534
0.564598
0.475844
0.504821
0.435131
0.270339
0.167125
0.182704
0.118842
0.121486
0.260753
0.108321
0.790078
0.959024
0.904867
0.266146
0.439139
0.625382
0.584894
0.563596
0.567786
0.567337
0.582173
0.610013
0.6509
0.687919
0.662463
0.567202
0.802422
0.78325
0.583219
0.541314
0.536529
0.520886
0.507321
0.489296
0.459013
0.416269
0.392324
0.415004
0.451009
0.47219
0.473089
0.462099
0.449537
0.436248
0.422007
0.406731
0.39061
0.374178
0.357376
0.346812
0.319593
0.628415
0.630794
0.581259
0.577609
0.596324
0.6291
0.621265
0.558409
0.479148
0.511106
0.417284
0.250842
0.147517
0.213311
0.121881
0.0703599
0.175443
0.249202
0.174656
0.933802
0.949869
0.706486
0.16007
0.60092
0.606922
0.56692
0.570201
0.571813
0.58742
0.619643
0.662511
0.697397
0.689362
0.576898
0.771979
0.805358
0.628726
0.552941
0.539385
0.521776
0.506733
0.487229
0.457029
0.414103
0.388659
0.411736
0.449941
0.473577
0.476487
0.465982
0.453517
0.44028
0.426068
0.410824
0.394669
0.377999
0.361555
0.345279
0.335961
0.311239
0.625992
0.628081
0.577511
0.581292
0.603736
0.631836
0.619811
0.552585
0.484231
0.512853
0.408672
0.226114
0.139115
0.221196
0.13234
0.0499724
0.059362
0.242871
0.087561
0.801295
0.956554
0.891627
0.139554
0.499827
0.625378
0.576094
0.57123
0.578013
0.59325
0.631128
0.673532
0.705691
0.706868
0.612772
0.726765
0.816819
0.678481
0.559295
0.538552
0.522249
0.506363
0.485071
0.454068
0.411692
0.384821
0.408422
0.448789
0.47487
0.479925
0.470023
0.45761
0.444382
0.430196
0.414962
0.398761
0.382
0.365184
0.349217
0.33406
0.326389
0.305227
0.627479
0.62191
0.571448
0.585433
0.612661
0.635124
0.618449
0.542229
0.485835
0.516762
0.404788
0.212519
0.173331
0.212376
0.132233
0.0685038
0.0029854
0.130105
0.222969
0.279051
0.936247
0.942737
0.641837
0.264718
0.62196
0.593232
0.571703
0.585209
0.600753
0.643834
0.684068
0.71334
0.718954
0.650984
0.673957
0.817681
0.722971
0.5631
0.535109
0.523053
0.506255
0.483011
0.450167
0.408611
0.380938
0.405168
0.447615
0.47606
0.483399
0.474209
0.461873
0.448624
0.434421
0.419153
0.402927
0.386049
0.369071
0.352625
0.337595
0.324126
0.318571
0.30188
0.631886
0.619513
0.568148
0.589334
0.620175
0.636273
0.613825
0.52911
0.484343
0.516665
0.406334
0.203774
0.203314
0.213618
0.10504
0.0971686
0.00641292
0.0286033
0.233392
0.0558307
0.838756
0.953612
0.860492
0.0307951
0.566489
0.614864
0.574575
0.591738
0.611543
0.656162
0.694343
0.720312
0.727672
0.681753
0.632172
0.807984
0.758543
0.573441
0.534488
0.52515
0.506201
0.480916
0.445604
0.404511
0.377026
0.401966
0.446576
0.477125
0.486859
0.478575
0.466302
0.452999
0.43876
0.423468
0.407164
0.390162
0.373002
0.356249
0.340676
0.327192
0.315984
0.312973
0.301526
0.636731
0.620699
0.570477
0.598588
0.627508
0.635244
0.603239
0.509185
0.477401
0.5112
0.397114
0.199727
0.211805
0.191205
0.0586144
0.105705
0.0267479
0.00542391
0.150429
0.201076
0.431945
0.941295
0.929184
0.501093
0.408552
0.62904
0.584054
0.596253
0.625981
0.667647
0.704453
0.726356
0.73525
0.705427
0.620535
0.78761
0.785948
0.601723
0.539591
0.527757
0.505549
0.478547
0.440839
0.39927
0.373027
0.398678
0.445747
0.478087
0.490241
0.483096
0.470912
0.457543
0.443232
0.427854
0.411493
0.394402
0.377035
0.359973
0.343986
0.329862
0.318549
0.310083
0.309955
0.304254
0.641643
0.622983
0.57243
0.608503
0.634174
0.63292
0.593486
0.490589
0.480333
0.498349
0.391194
0.206296
0.207074
0.151199
0.0279124
0.0638059
0.078871
0.012022
0.0557203
0.251493
0.0425009
0.880722
0.948496
0.799875
0.128135
0.61508
0.601796
0.600798
0.642299
0.679037
0.713529
0.732157
0.742015
0.722344
0.63396
0.757987
0.80364
0.642758
0.551272
0.527995
0.503548
0.475766
0.436352
0.393222
0.368732
0.395131
0.445018
0.478991
0.493434
0.48775
0.475691
0.462221
0.447795
0.432351
0.415911
0.398715
0.381174
0.36384
0.347434
0.332772
0.320637
0.311948
0.306793
0.30989
0.310196
0.647817
0.626532
0.576574
0.615381
0.637169
0.629478
0.581188
0.483659
0.489359
0.488591
0.371034
0.249797
0.256582
0.110839
0.0448516
0.0199489
0.105859
0.0539204
0.0201835
0.191534
0.208471
0.636037
0.944965
0.904115
0.290976
0.541392
0.623772
0.608448
0.656744
0.691257
0.721778
0.738194
0.747927
0.734797
0.658875
0.719929
0.811482
0.685693
0.55553
0.522992
0.500401
0.472899
0.432482
0.386954
0.363911
0.391171
0.443999
0.479852
0.496341
0.492424
0.480576
0.466941
0.452434
0.436932
0.420474
0.403188
0.385448
0.367854
0.351047
0.335822
0.323029
0.313361
0.307841
0.306447
0.312942
0.319295
0.657084
0.633018
0.581041
0.621213
0.636796
0.62277
0.563756
0.482792
0.499824
0.480765
0.333467
0.262161
0.290385
0.120929
0.0587286
0.00235672
0.0583195
0.100783
0.0218786
0.0846664
0.292152
0.0349847
0.913201
0.938029
0.684612
0.36661
0.637954
0.622146
0.669539
0.704245
0.728635
0.74448
0.753296
0.743716
0.68129
0.678457
0.810581
0.724651
0.559224
0.516831
0.497545
0.470501
0.429271
0.380844
0.358268
0.386663
0.442135
0.480496
0.498981
0.497006
0.485441
0.471666
0.457153
0.441785
0.425384
0.407946
0.389987
0.372087
0.35487
0.339064
0.32558
0.315162
0.308528
0.306594
0.309216
0.319132
0.331316
0.671253
0.642421
0.586876
0.623485
0.6327
0.612221
0.54503
0.484609
0.516574
0.478184
0.306255
0.267537
0.305428
0.147534
0.0234974
0.0572334
0.00726616
0.0991742
0.0504334
0.0259454
0.227897
0.166344
0.799936
0.94451
0.855823
0.0385369
0.626456
0.642899
0.681101
0.716459
0.735618
0.750848
0.757885
0.75013
0.700246
0.645607
0.799728
0.756817
0.570854
0.515702
0.49655
0.46863
0.426346
0.374763
0.351452
0.381305
0.439109
0.480639
0.501528
0.501475
0.49023
0.476374
0.462103
0.446856
0.430062
0.412311
0.394164
0.376068
0.358601
0.342472
0.328346
0.317128
0.309593
0.306442
0.308318
0.31508
0.328476
0.345837
0.682881
0.652484
0.593879
0.622317
0.627083
0.600062
0.529475
0.489468
0.537217
0.471422
0.302506
0.287339
0.291013
0.177104
0.0518356
0.0824939
0.0388922
0.0286823
0.104035
0.0129022
0.106589
0.273239
0.430568
0.931471
0.916422
0.467386
0.570547
0.665987
0.692669
0.727193
0.743007
0.756561
0.762024
0.755164
0.71543
0.63127
0.781185
0.781358
0.598377
0.521555
0.495976
0.46642
0.422926
0.367842
0.342865
0.374609
0.434908
0.479799
0.503977
0.505929
0.494901
0.481187
0.467144
0.451388
0.434435
0.416672
0.398318
0.380065
0.362331
0.345763
0.331121
0.319259
0.310807
0.306631
0.30733
0.313182
0.323968
0.340615
0.362275
0.69274
0.65997
0.592443
0.617853
0.61834
0.58738
0.52194
0.507286
0.543047
0.4636
0.303438
0.302316
0.2704
0.149841
0.101399
0.0437685
0.128539
0.0131261
0.112856
0.0309191
0.0227619
0.276243
0.0724506
0.884014
0.936566
0.760621
0.459743
0.682867
0.70584
0.736777
0.750827
0.761853
0.765738
0.759178
0.727115
0.640099
0.754101
0.797636
0.636554
0.528948
0.492708
0.462787
0.418118
0.358608
0.331354
0.36584
0.429514
0.477879
0.505655
0.510197
0.499474
0.486136
0.471579
0.455625
0.438777
0.420991
0.402929
0.38464
0.366571
0.349542
0.334287
0.321533
0.312243
0.307059
0.306518
0.311203
0.321014
0.335755
0.355134
0.380123
0.702476
0.66675
0.586863
0.610452
0.606919
0.576238
0.523141
0.526596
0.54767
0.450484
0.307486
0.339064
0.255526
0.108831
0.123115
0.0172454
0.119009
0.076214
0.0632445
0.0855136
0.00963938
0.181944
0.276739
0.739873
0.936981
0.874246
0.204613
0.686981
0.720232
0.745033
0.758985
0.76686
0.768941
0.76234
0.735882
0.654285
0.72058
0.806014
0.674971
0.530418
0.485568
0.457717
0.411012
0.345239
0.315241
0.354394
0.422997
0.475082
0.505873
0.514078
0.504199
0.490461
0.475434
0.459845
0.442972
0.425729
0.407677
0.389158
0.370874
0.353448
0.337631
0.324224
0.31399
0.307726
0.30606
0.309456
0.318058
0.331698
0.349901
0.371493
0.39862
0.709067
0.672775
0.581193
0.603145
0.59637
0.56914
0.534372
0.554661
0.547566
0.423352
0.320815
0.376076
0.252624
0.0978627
0.0583798
0.0823756
0.0296381
0.126671
0.00330606
0.132359
0.013052
0.0623018
0.348192
0.320838
0.919893
0.914996
0.530935
0.674589
0.734233
0.753627
0.766849
0.77111
0.7716
0.76483
0.742211
0.66994
0.681582
0.804323
0.711626
0.534173
0.481201
0.45189
0.400142
0.325462
0.29279
0.340046
0.415611
0.471495
0.504679
0.517
0.509284
0.494085
0.479239
0.46369
0.447523
0.43047
0.412245
0.393657
0.375201
0.357503
0.341209
0.327115
0.316001
0.308696
0.305873
0.308064
0.315453
0.327882
0.345001
0.365977
0.389024
0.416803
0.716713
0.677866
0.575302
0.597149
0.589647
0.56558
0.546832
0.57772
0.548331
0.399015
0.320686
0.39942
0.272478
0.0858251
0.0128028
0.0837595
0.018931
0.104214
0.0506754
0.108458
0.066591
0.0111266
0.306713
0.138366
0.870165
0.930122
0.778356
0.650065
0.746024
0.762587
0.773858
0.775085
0.773715
0.766784
0.746558
0.683187
0.645969
0.795832
0.743858
0.550242
0.484394
0.44443
0.38272
0.297169
0.263517
0.322698
0.407935
0.467138
0.502931
0.518324
0.51347
0.497184
0.482456
0.467554
0.452134
0.434946
0.416817
0.398212
0.379611
0.361595
0.344902
0.330169
0.318326
0.310016
0.306002
0.306924
0.312997
0.324296
0.34032
0.360372
0.383313
0.406817
0.433959
0.730025
0.685905
0.576421
0.595908
0.587794
0.569399
0.565303
0.589843
0.53628
0.392187
0.347131
0.397045
0.289687
0.0765468
0.0706152
0.0146235
0.115103
0.0244021
0.139929
0.0288274
0.149366
0.00862341
0.172856
0.330814
0.746038
0.928404
0.869404
0.54563
0.753689
0.771912
0.780126
0.778654
0.775389
0.768247
0.749291
0.693851
0.619678
0.779146
0.768606
0.581572
0.488953
0.430183
0.355089
0.259794
0.229056
0.303197
0.400483
0.462782
0.501055
0.518829
0.516368
0.500834
0.48486
0.471174
0.456159
0.439283
0.421349
0.402747
0.383998
0.365768
0.348691
0.33344
0.320835
0.311606
0.306505
0.306112
0.31091
0.320839
0.335799
0.354959
0.377234
0.401185
0.424143
0.449482
0.741398
0.697726
0.584225
0.598328
0.59063
0.578431
0.584552
0.597768
0.519481
0.387703
0.380879
0.399646
0.282018
0.111243
0.0636443
0.0314636
0.097546
0.0407385
0.142319
0.0324742
0.185749
0.0241852
0.0122775
0.386638
0.408517
0.910952
0.905849
0.593826
0.759605
0.781323
0.785649
0.781743
0.776669
0.7691
0.751126
0.701723
0.604467
0.754602
0.785211
0.617524
0.484214
0.404174
0.316922
0.217764
0.194767
0.284368
0.39336
0.459818
0.498743
0.519884
0.517647
0.504813
0.488021
0.474425
0.459623
0.443351
0.425738
0.407173
0.388407
0.369959
0.352519
0.336853
0.323549
0.313446
0.307268
0.305683
0.309127
0.317798
0.331487
0.349656
0.371269
0.394825
0.418781
0.440246
0.462823
0.748118
0.708307
0.589143
0.600737
0.593067
0.584662
0.598559
0.600158
0.490966
0.389805
0.435249
0.397367
0.234547
0.118046
0.0109544
0.108683
0.00580821
0.118519
0.0533526
0.130949
0.118104
0.104802
0.0499492
0.361416
0.182608
0.865478
0.919202
0.771843
0.761979
0.789256
0.790332
0.784319
0.77762
0.769251
0.751962
0.707401
0.611019
0.722765
0.794245
0.655172
0.476878
0.37417
0.277171
0.181342
0.168263
0.26997
0.387688
0.457977
0.496955
0.520441
0.519089
0.506671
0.491957
0.477364
0.462752
0.44699
0.429784
0.411505
0.392718
0.374141
0.356449
0.34032
0.326412
0.31555
0.308376
0.305534
0.307717
0.315027
0.327419
0.34453
0.365364
0.388573
0.412385
0.435324
0.454519
0.473762
0.757487
0.714837
0.592029
0.597581
0.591046
0.590148
0.60314
0.590669
0.467116
0.396251
0.466128
0.404386
0.197727
0.0504621
0.0687519
0.0463284
0.0748866
0.0854309
0.0290646
0.15253
0.00381372
0.186737
0.0824129
0.251976
0.482533
0.764618
0.917962
0.852518
0.734618
0.794159
0.793679
0.786377
0.778301
0.768572
0.751773
0.711146
0.618825
0.685045
0.796891
0.69115
0.479196
0.35383
0.24871
0.15739
0.148283
0.252266
0.37668
0.455332
0.496776
0.519142
0.522007
0.506632
0.494642
0.480621
0.46572
0.450285
0.433453
0.415513
0.396937
0.378302
0.360331
0.343826
0.329459
0.317845
0.309751
0.305856
0.306641
0.312538
0.323674
0.339614
0.359573
0.382271
0.406153
0.429284
0.450245
0.466605
0.482331
0.788286
0.721701
0.591962
0.59016
0.583255
0.591578
0.604299
0.5703
0.449555
0.424703
0.476002
0.396567
0.168848
0.0484671
0.0637688
0.0405421
0.173559
0.00146048
0.150384
0.0710363
0.122467
0.188129
0.00856788
0.172102
0.584758
0.579108
0.900793
0.892259
0.7155
0.794899
0.796845
0.787949
0.778685
0.766915
0.750566
0.71344
0.626308
0.635642
0.791129
0.72126
0.499506
0.347867
0.223532
0.136012
0.133552
0.237623
0.369023
0.449094
0.495433
0.518894
0.520818
0.51255
0.492534
0.484064
0.46855
0.453305
0.436777
0.419154
0.400853
0.382336
0.364278
0.347409
0.332516
0.32026
0.311346
0.306367
0.305936
0.310526
0.320225
0.334925
0.353875
0.375965
0.399704
0.423251
0.444772
0.463042
0.476345
0.488681
0.965953
0.736619
0.588918
0.583518
0.57055
0.587949
0.600232
0.547014
0.431162
0.469783
0.487364
0.352331
0.175583
0.0354806
0.018019
0.131889
0.0561634
0.124173
0.19477
0.0279636
0.241095
0.105922
0.204345
0.254607
0.618971
0.523939
0.861272
0.908425
0.765423
0.795421
0.799267
0.789022
0.778582
0.764249
0.748405
0.714582
0.631301
0.582902
0.779941
0.746097
0.531516
0.349644
0.214769
0.128021
0.124697
0.224123
0.361955
0.446219
0.494904
0.52131
0.520428
0.511485
0.49918
0.481492
0.472282
0.455826
0.439747
0.422491
0.404409
0.386071
0.368039
0.350953
0.335641
0.322809
0.313062
0.30712
0.305594
0.308776
0.317185
0.330557
0.348422
0.369754
0.393205
0.416969
0.439239
0.458288
0.473532
0.483878
0.493171
0.85593
0.812503
0.505605
0.577457
0.5678
0.578979
0.586469
0.534371
0.426757
0.504399
0.499663
0.296537
0.136596
0.0424841
0.0996276
0.074228
0.0645187
0.194662
0.0444543
0.186071
0.254384
0.00364286
0.378423
0.366702
0.622717
0.651842
0.792416
0.909814
0.835534
0.789636
0.799103
0.789283
0.777871
0.760958
0.745497
0.714594
0.632292
0.528057
0.760642
0.765073
0.573645
0.377589
0.2286
0.132319
0.128243
0.220965
0.356345
0.442672
0.492454
0.522025
0.52691
0.511194
0.498536
0.486456
0.47109
0.458819
0.442256
0.425313
0.40767
0.389497
0.371502
0.354392
0.338748
0.325391
0.314993
0.308171
0.305499
0.307492
0.31442
0.326479
0.343126
0.363645
0.386667
0.41056
0.433346
0.453444
0.46963
0.481763
0.489416
0.49624
0.502856
0.72531
0.866484
0.538169
0.551444
0.587185
0.566489
0.54224
0.472577
0.514968
0.504074
0.276082
0.0676743
0.142448
0.0264749
0.0432073
0.183153
0.0731016
0.164873
0.254768
0.0569175