/*--------------------------------*- C++ -*----------------------------------*\
| =========                 |                                                 |
| \\      /  F ield         | OpenFOAM: The Open Source CFD Toolbox           |
|  \\    /   O peration     | Version:  v2012                                 |
|   \\  /    A nd           | Website:  www.openfoam.com                      |
|    \\/     M anipulation  |                                                 |
\*---------------------------------------------------------------------------*/
FoamFile
{
    version     2.0;
    format      ascii;
    class       volScalarField;
    location    "0";
    object      Mg;
}
// * * * * * * * * * * * * * * * * * * * * * * * * * * * * * * * * * * * * * //

dimensions      [0 0 0 0 0 0 0];


internalField   nonuniform List<scalar> 
27324
(
0.000920287
0.000944166
0.00281643
0.000932516
0.00286904
0.00324336
0.000919478
0.00284095
0.00322449
0.00259085
0.000904996
0.00281404
0.00315385
0.00252794
0.00164172
0.000894233
0.0027858
0.00308765
0.00244647
0.00157425
0.000891903
0.000887277
0.00276948
0.00302738
0.00236852
0.00151262
0.000848464
0.000455703
0.000880225
0.002765
0.00298134
0.00230132
0.00145608
0.000814907
0.000435702
0.000231396
0.000865707
0.00276163
0.00294456
0.00224504
0.00140679
0.000784988
0.000418837
0.000218898
0.000117143
0.000842579
0.00274072
0.00290478
0.00219133
0.00136012
0.000757964
0.000402619
0.000208507
0.000105989
5.58026e-05
0.000818348
0.00269996
0.00285169
0.00213097
0.00131159
0.000730547
0.000387751
0.000197764
9.82436e-05
5.03002e-05
3.19068e-05
0.000803538
0.00265433
0.00278961
0.00206028
0.00126017
0.000701359
0.000373127
0.000187922
9.05897e-05
4.74577e-05
2.91399e-05
2.25706e-05
0.000805518
0.00262577
0.00273011
0.00198795
0.00120786
0.00067212
0.000358115
0.000178397
8.50699e-05
4.45195e-05
2.81119e-05
2.07117e-05
1.70249e-05
0.000819239
0.00262743
0.00268309
0.0019229
0.00116226
0.000644341
0.000343267
0.000168772
8.11444e-05
4.28241e-05
2.65424e-05
2.02225e-05
1.59244e-05
1.32949e-05
0.000827804
0.00264036
0.00264334
0.00186891
0.00112397
0.000620897
0.000326941
0.000159576
7.79805e-05
4.16338e-05
2.55166e-05
1.9292e-05
1.58228e-05
1.26407e-05
1.05406e-05
0.000819204
0.00262754
0.00258783
0.00181574
0.00108929
0.000599092
0.000309382
0.000149415
7.52366e-05
4.02084e-05
2.45326e-05
1.86295e-05
1.52902e-05
1.26524e-05
1.0096e-05
8.42466e-06
0.000794062
0.00257292
0.00250279
0.00174941
0.00104843
0.000574717
0.00028984
0.00013879
7.14983e-05
3.85572e-05
2.34957e-05
1.7992e-05
1.47788e-05
1.22702e-05
1.01329e-05
8.07809e-06
6.76383e-06
0.000768616
0.0024895
0.0023992
0.00166906
0.000996843
0.000543849
0.00026918
0.000128457
6.68344e-05
3.60726e-05
2.26313e-05
1.75383e-05
1.42366e-05
1.17479e-05
9.889e-06
8.12446e-06
6.45246e-06
5.46201e-06
0.000759804
0.0024199
0.00230396
0.00158877
0.000939234
0.000507695
0.000249173
0.000119856
6.1987e-05
3.29577e-05
2.18317e-05
1.71705e-05
1.39516e-05
1.12613e-05
9.40059e-06
7.90732e-06
6.46193e-06
5.16701e-06
4.45085e-06
0.000764215
0.00238824
0.00224216
0.00152458
0.000887977
0.000472022
0.000232434
0.000113999
5.79181e-05
3.00477e-05
2.10072e-05
1.70972e-05
1.36917e-05
1.09966e-05
8.94251e-06
7.55148e-06
6.25762e-06
5.12774e-06
4.16094e-06
3.69587e-06
0.000767936
0.00237126
0.0022009
0.00147838
0.000848006
0.000443788
0.000220246
0.000110601
5.51594e-05
2.79477e-05
2.03691e-05
1.68775e-05
1.38231e-05
1.08722e-05
8.69246e-06
7.16473e-06
6.01053e-06
4.96049e-06
4.10583e-06
3.41333e-06
3.14482e-06
0.000764564
0.00233721
0.0021475
0.00143085
0.000813739
0.000422729
0.000212371
0.000107258
5.29092e-05
2.64099e-05
1.95621e-05
1.64618e-05
1.37548e-05
1.10458e-05
8.66728e-06
6.89869e-06
5.76747e-06
4.79294e-06
3.96611e-06
3.35716e-06
2.89799e-06
2.71767e-06
0.000755981
0.00228038
0.00207005
0.00136757
0.000773242
0.000403481
0.000205777
0.000102516
4.90696e-05
2.51298e-05
1.86626e-05
1.55329e-05
1.33403e-05
1.10931e-05
8.79233e-06
6.85111e-06
5.50156e-06
4.63982e-06
3.86421e-06
3.23816e-06
2.84896e-06
2.55864e-06
2.29626e-06
0.000750911
0.00221346
0.00197975
0.00129328
0.000725478
0.000380664
0.000196223
9.62723e-05
4.35118e-05
2.31189e-05
1.79228e-05
1.46969e-05
1.23143e-05
1.06539e-05
8.81318e-06
6.88251e-06
5.35399e-06
4.45712e-06
3.75755e-06
3.16487e-06
2.74903e-06
2.52782e-06
2.29306e-06
1.6954e-06
0.000751184
0.00215591
0.00189625
0.00122234
0.000678714
0.00035601
0.000182792
8.84748e-05
3.79143e-05
2.103e-05
1.74915e-05
1.427e-05
1.15605e-05
9.73441e-06
8.47295e-06
6.81335e-06
5.27533e-06
4.23805e-06
3.63815e-06
3.09164e-06
2.67928e-06
2.44919e-06
2.30804e-06
1.97845e-06
1.01504e-06
0.000755047
0.00210755
0.00182776
0.001164
0.00064038
0.000333526
0.000168079
8.01657e-05
3.44687e-05
1.96066e-05
1.70161e-05
1.45404e-05
1.1283e-05
9.02178e-06
7.81982e-06
6.66934e-06
5.19503e-06
4.07217e-06
3.45861e-06
3.01048e-06
2.62131e-06
2.38785e-06
2.27235e-06
2.06683e-06
1.49619e-06
2.31043e-06
0.000763492
0.0020606
0.00176398
0.00111342
0.000608897
0.000314123
0.0001546
7.25497e-05
3.27954e-05
1.9816e-05
1.65706e-05
1.45954e-05
1.19213e-05
8.93851e-06
7.26568e-06
6.32596e-06
5.18863e-06
3.9921e-06
3.27479e-06
2.91372e-06
2.5772e-06
2.34013e-06
2.23809e-06
2.09999e-06
1.66315e-06
1.62383e-06
6.16243e-06
0.000768984
0.00201138
0.00169456
0.00105808
0.000576194
0.000294789
0.000142764
6.64171e-05
3.1757e-05
2.02092e-05
1.62883e-05
1.4389e-05
1.23579e-05
9.66844e-06
7.1613e-06
6.02519e-06
5.16306e-06
4.03165e-06
3.20319e-06
2.80508e-06
2.54941e-06
2.30974e-06
2.20678e-06
2.13282e-06
1.83619e-06
1.17504e-06
4.56576e-06
1.07148e-05
0.000761265
0.00194009
0.00161289
0.000995325
0.000537843
0.000272584
0.000131839
6.14512e-05
3.12341e-05
2.02481e-05
1.62081e-05
1.35859e-05
1.22414e-05
1.01833e-05
7.7001e-06
5.81226e-06
5.07413e-06
4.18162e-06
3.24642e-06
2.74032e-06
2.52721e-06
2.31482e-06
2.17747e-06
2.12916e-06
1.91663e-06
1.34309e-06
2.63731e-06
8.72682e-06
5.42707e-05
0.000740925
0.00183412
0.00151431
0.000927184
0.000497647
0.000250259
0.000121533
5.76892e-05
3.05834e-05
2.04006e-05
1.62068e-05
1.30466e-05
1.11754e-05
1.00735e-05
8.1169e-06
5.97138e-06
4.88349e-06
4.24355e-06
3.379e-06
2.72883e-06
2.48131e-06
2.31761e-06
2.15676e-06
2.10995e-06
1.97193e-06
1.54083e-06
1.77752e-06
6.72987e-06
6.00924e-05
0.000193485
0.000766721
0.00170947
0.00140462
0.000860699
0.000458888
0.000231206
0.000114772
5.55314e-05
2.96547e-05
2.03203e-05
1.64388e-05
1.312e-05
1.03132e-05
8.99827e-06
8.04449e-06
6.16175e-06
4.7271e-06
4.1274e-06
3.47215e-06
2.74863e-06
2.40455e-06
2.2909e-06
2.13391e-06
2.04609e-06
2.03597e-06
1.76345e-06
1.42e-06
5.41453e-06
4.7819e-05
0.000284771
0.000563134
0.000625687
0.00157125
0.0012915
0.000803541
0.00042698
0.00021441
0.000111218
5.67774e-05
2.86803e-05
2.03282e-05
1.6652e-05
1.35676e-05
1.04861e-05
8.18647e-06
7.33412e-06
6.15984e-06
4.58229e-06
3.76613e-06
3.4465e-06
2.78009e-06
2.31014e-06
2.22697e-06
2.09343e-06
1.99582e-06
2.06259e-06
1.91073e-06
1.36369e-06
4.01593e-06
4.07309e-05
0.000313059
0.000548392
0.0005638
0.00083634
0.00122502
0.00112286
0.000752028
0.000407711
0.0002017
0.000106892
5.99621e-05
2.9201e-05
1.97639e-05
1.70703e-05
1.41485e-05
1.11086e-05
8.1973e-06
6.58326e-06
5.98573e-06
4.63855e-06
3.53093e-06
3.16784e-06
2.81068e-06
2.25832e-06
2.12708e-06
2.04802e-06
2.04669e-06
2.05037e-06
1.99843e-06
1.21801e-06
3.0861e-06
3.71333e-05
0.000324628
0.00042766
0.000325087
0.000149622
0.000417995
0.00104771
0.00118963
0.000736082
0.00039739
0.00019912
0.00010063
5.96754e-05
3.11166e-05
1.96686e-05
1.64199e-05
1.45407e-05
1.18353e-05
8.92958e-06
6.44558e-06
5.5082e-06
4.75137e-06
3.52037e-06
2.89568e-06
2.79412e-06
2.29557e-06
2.02381e-06
2.11063e-06
2.0622e-06
2.05544e-06
2.03359e-06
6.78739e-07
3.86524e-06
3.56208e-05
0.00031036
0.000336
0.000199818
6.92612e-05
6.76396e-05
0.000153399
0.000563862
0.00101579
0.000933346
0.000442448
0.000201241
0.000101643
5.37865e-05
3.08165e-05
2.03969e-05
1.5901e-05
1.37404e-05
1.20656e-05
9.62647e-06
7.04152e-06
5.27138e-06
4.73173e-06
3.77355e-06
2.74684e-06
2.65468e-06
2.40648e-06
2.01213e-06
2.13911e-06
2.0615e-06
2.06065e-06
1.50176e-06
1.62566e-06
6.43656e-06
3.7173e-05
0.000277478
0.000266866
0.000120696
7.08508e-05
0.00010818
0.000228048
0.00014649
0.000331608
0.000564613
0.000926682
0.0006509
0.000286083
0.000110329
5.37974e-05
2.45746e-05
2.09531e-05
1.64731e-05
1.28104e-05
1.13325e-05
9.67295e-06
7.59688e-06
5.49188e-06
4.4079e-06
3.98114e-06
2.93527e-06
2.49707e-06
2.51311e-06
2.19397e-06
2.08476e-06
2.09162e-06
1.78181e-06
1.12146e-06
4.4318e-06
9.42207e-06
3.38779e-05
0.000220723
0.000229134
9.24264e-05
7.88544e-05
0.000109993
0.000233337
0.000570045
0.000144421
0.000329129
0.000305863
0.00055231
0.000791273
0.000508043
0.00022502
6.79381e-05
2.18537e-05
1.68055e-05
1.8341e-05
1.26279e-05
1.02391e-05
8.99187e-06
7.60181e-06
5.76514e-06
4.27367e-06
3.93833e-06
3.30996e-06
2.46988e-06
2.58589e-06
2.34516e-06
2.0135e-06
2.07727e-06
9.40967e-07
3.29507e-06
7.94938e-06
1.17313e-05
2.46543e-05
0.000149644
0.000229384
0.000101593
7.95002e-05
0.000110888
0.000234308
0.000576157
0.00113202
0.000139358
0.000321638
0.000300984
0.000306944
0.000475932
0.000668468
0.000455488
0.000194492
4.44904e-05
1.25483e-05
1.51589e-05
1.46642e-05
9.85141e-06
8.06767e-06
7.23775e-06
5.88086e-06
4.37787e-06
3.75946e-06
3.51533e-06
2.731e-06
2.40699e-06
2.38302e-06
1.95823e-06
1.11653e-06
2.55143e-06
7.21342e-06
1.14419e-05
1.21433e-05
1.38799e-05
8.49653e-05
0.00023897
0.000128104
8.10628e-05
0.000108437
0.00024345
0.000563241
0.00112691
0.00194186
0.000135321
0.000303853
0.000288089
0.000315721
0.000241202
0.000418396
0.000544814
0.000428518
0.000205884
5.33598e-05
1.63058e-05
9.78835e-06
1.16697e-05
7.57227e-06
6.81038e-06
5.85989e-06
4.59394e-06
3.59524e-06
3.35863e-06
2.87359e-06
2.01474e-06
2.44599e-06
9.24557e-07
2.47762e-06
6.87506e-06
1.14334e-05
1.30457e-05
1.01262e-05
6.30412e-06
3.90598e-05
0.000229296
0.00016104
8.66454e-05
0.00010522
0.000248214
0.000561034
0.00109539
0.00188535
0.00304737
0.000131048
0.00029118
0.000266629
0.000299413
0.000266343
0.000151812
0.000397411
0.000419025
0.000393857
0.00024033
8.06763e-05
2.06685e-05
6.98305e-06
7.26781e-06
4.71632e-06
5.55189e-06
4.56156e-06
3.30015e-06
2.46193e-06
2.77803e-06
1.7529e-06
1.27014e-06
2.83972e-06
7.3794e-06
1.18847e-05
1.40754e-05
1.1893e-05
6.58981e-06
2.35372e-06
1.44532e-05
0.000193417
0.000200486
0.000100328
0.000103261
0.000255046
0.000554328
0.00106782
0.00182387
0.00291146
0.004473
0.000128636
0.00028133
0.000257989
0.000291751
0.000256942
0.000187381
9.27424e-05
0.000384918
0.000299486
0.000329999
0.000268815
0.000117163
3.76025e-05
1.31955e-05
5.1824e-06
2.44319e-06
3.67623e-06
2.7744e-06
1.7253e-06
1.84857e-06
2.22169e-06
4.84398e-06
9.22961e-06
1.35358e-05
1.54903e-05
1.35249e-05
8.2135e-06
3.34061e-06
7.7581e-07
4.37053e-06
0.000137908
0.000234999
0.000122777
0.000103856
0.000258534
0.000547019
0.0010352
0.00176442
0.00281869
0.00424284
0.00617275
0.000129655
0.000278655
0.000257481
0.000296027
0.000266755
0.000190462
0.000108409
0.000115929
0.00036092
0.000183699
0.00023387
0.000254302
0.000157812
7.19874e-05
3.30009e-05
1.5943e-05
8.65893e-06
7.05234e-06
5.95975e-06
7.39415e-06
1.00199e-05
1.37419e-05
1.6766e-05
1.7606e-05
1.51026e-05
9.57796e-06
4.23531e-06
1.68442e-06
7.92443e-07
9.65497e-07
8.11714e-05
0.000253362
0.000153856
0.000108269
0.000254385
0.000543293
0.00100166
0.00170456
0.00271843
0.00412396
0.00583032
0.00810688
0.000131173
0.000282131
0.000263685
0.000304381
0.000274638
0.000199916
0.000125119
5.61263e-05
0.000172356
0.000312851
9.00074e-05
0.000125998
0.000177243
0.000157396
0.000102895
6.2854e-05
4.04542e-05
2.8465e-05
2.41498e-05
2.26753e-05
2.22307e-05
2.18052e-05
2.02261e-05
1.63345e-05
1.02567e-05
4.73723e-06
1.86229e-06
1.51548e-06
1.10723e-06
1.62336e-07
3.9136e-05
0.000245484
0.000191963
0.000118554
0.00024781
0.00053554
0.000967098
0.00164652
0.00262306
0.00397585
0.00569564
0.00763256
0.00986386
0.000135843
0.000287455
0.000267722
0.00031092
0.000278677
0.00020123
0.000127945
7.74625e-05
2.77253e-05
0.000239416
0.000242824
3.3217e-05
4.40777e-05
7.89571e-05
9.68204e-05
8.69178e-05
6.682e-05
5.07101e-05
4.00378e-05
3.2689e-05
2.7199e-05
2.21291e-05
1.60288e-05
9.64905e-06
4.63554e-06
1.87904e-06
1.40394e-06
1.53978e-06
1.34816e-06
4.97029e-07
1.55888e-05
0.000209269
0.000231992
0.000135669
0.00023891
0.000521278
0.000939587
0.00159009
0.00253148
0.00383855
0.00549716
0.00748725
0.00934246
0.0122838
0.000139238
0.000298932
0.000277823
0.000312404
0.000277404
0.000199264
0.000127519
8.02366e-05
4.80752e-05
2.89815e-05
0.000289794
0.000163923
1.44415e-05
6.48547e-06
1.90332e-05
3.30627e-05
3.87779e-05
3.63161e-05
3.09612e-05
2.42592e-05
1.80734e-05
1.23181e-05
7.23095e-06
3.62147e-06
1.71878e-06
1.32716e-06
1.4053e-06
1.56099e-06
1.51807e-06
7.40614e-07
5.20313e-06
0.000153025
0.000265327
0.000161881
0.000228919
0.000503631
0.000911803
0.00153578
0.00244239
0.00370705
0.00531697
0.007234
0.0092355
0.0117172
0.0176535
0.000137086
0.000298945
0.000282412
0.000316127
0.000274045
0.000195925
0.000125706
8.24619e-05
5.17675e-05
2.14013e-05
6.75615e-05
0.00029553
9.31444e-05
1.69222e-05
6.1415e-06
4.72675e-06
6.96597e-06
8.69546e-06
8.7756e-06
7.54462e-06
5.59288e-06
3.63167e-06
2.17131e-06
1.51654e-06
1.34893e-06
1.39103e-06
1.43102e-06
1.54594e-06
1.59917e-06
9.89707e-07
1.33204e-06
9.34393e-05
0.00028189
0.00019565
0.000219033
0.000482165
0.000888002
0.00148327
0.00235505
0.00358095
0.00514438
0.00700627
0.00898388
0.0115088
0.0169931
0.02517
0.000132722
0.000288309
0.000271182
0.000304717
0.000265257
0.000191471
0.000123868
8.33158e-05
5.24558e-05
2.70455e-05
6.7315e-06
0.000120471
0.000248343
4.21762e-05
1.27142e-05
5.69265e-06
4.36082e-06
3.68647e-06
2.70136e-06
2.11171e-06
1.79909e-06
1.58084e-06
1.46518e-06
1.41283e-06
1.41185e-06
1.39486e-06
1.43813e-06
1.51913e-06
1.62273e-06
1.24608e-06
1.23721e-08
4.72714e-05
0.00027193
0.00023217
0.000213479
0.000456432
0.000868092
0.00143304
0.00226958
0.00345962
0.00498208
0.00678443
0.0087562
0.0112034
0.0165184
0.0248123
0.0323955
0.000126713
0.000276776
0.000258646
0.000289879
0.000250793
0.00018369
0.000121777
8.3229e-05
5.12603e-05
2.86063e-05
1.75993e-05
8.26901e-06
0.000181435
0.00016749
1.59307e-05
2.62101e-06
2.60405e-06
3.61469e-06
3.03968e-06
2.30017e-06
1.85522e-06
1.65619e-06
1.54779e-06
1.46806e-06
1.42819e-06
1.4184e-06
1.43501e-06
1.50355e-06
1.61239e-06
1.4524e-06
4.86342e-07
1.98647e-05
0.000232528
0.000271039
0.00021822
0.000432513
0.000847258
0.00138395
0.00218659
0.00334211
0.00482983
0.00657434
0.00852491
0.0109163
0.0160256
0.0243502
0.0326238
0.0372741
0.000120807
0.00026128
0.000247862
0.000280831
0.000240943
0.00017834
0.000120608
8.3625e-05
4.9923e-05
2.82187e-05
2.09683e-05
1.04587e-05
3.32013e-05
0.000212041
9.01915e-05
7.60275e-06
1.15256e-06
2.73045e-06
3.10883e-06
2.47346e-06
1.88985e-06
1.66013e-06
1.56614e-06
1.50009e-06
1.44496e-06
1.42811e-06
1.43855e-06
1.48611e-06
1.59231e-06
1.5724e-06
7.97182e-07
7.01824e-06
0.000172912
0.000305351
0.000235697
0.00041427
0.000820766
0.00134
0.00210729
0.00322862
0.0046864
0.00637703
0.00829798
0.0106258
0.0155391
0.0239406
0.0324428
0.0380789
0.0396139
0.000120846
0.000252515
0.000237469
0.000269761
0.000233977
0.000175118
0.000120939
8.37682e-05
4.93394e-05
2.74528e-05
2.23472e-05
1.33331e-05
9.26895e-07
7.20338e-05
0.000182387
3.7051e-05
2.08459e-06
1.44958e-06
2.80849e-06
2.75808e-06
2.08017e-06
1.72015e-06
1.59468e-06
1.52248e-06
1.46761e-06
1.43655e-06
1.43697e-06
1.47734e-06
1.57345e-06
1.63659e-06
1.07932e-06
1.99478e-06
0.000109432
0.000320894
0.000265682
0.000398361
0.000786707
0.00129633
0.00203359
0.0031196
0.00454942
0.00619473
0.00807518
0.0103364
0.0150578
0.0234989
0.0323879
0.0382901
0.0407857
0.040263
0.000121364
0.00025364
0.000238127
0.000265101
0.000225526
0.000171323
0.000121007
8.34018e-05
4.72118e-05
2.76268e-05
2.23232e-05
1.41597e-05
5.21207e-06
7.10892e-06
0.000120095
0.000114456
1.307e-05
6.70145e-07
1.87407e-06
2.79886e-06
2.30631e-06
1.80565e-06
1.61756e-06
1.5386e-06
1.47986e-06
1.44375e-06
1.44131e-06
1.47298e-06
1.55801e-06
1.65782e-06
1.33075e-06
4.59533e-07
5.78639e-05
0.000309041
0.000307096
0.000377405
0.000742595
0.00125542
0.00196627
0.00301552
0.00441703
0.00602719
0.00785868
0.0100482
0.0145852
0.0230465
0.0322734
0.0386998
0.0412628
0.0416552
0.0398076
0.000125665
0.000255021
0.000239022
0.00026464
0.000222715
0.000169145
0.000121166
8.25587e-05
4.5603e-05
2.77337e-05
2.2536e-05
1.31662e-05
6.51677e-06
2.26653e-06
2.32071e-05
0.000141514
5.28538e-05
4.50251e-06
7.73521e-07
2.3397e-06
2.52873e-06
1.94111e-06
1.65028e-06
1.55209e-06
1.49757e-06
1.45476e-06
1.44552e-06
1.47292e-06
1.54726e-06
1.66543e-06
1.51645e-06
6.64682e-07
2.54568e-05
0.000267714
0.000344654
0.000365156
0.000696243
0.0012178
0.00190631
0.00291739
0.0042879
0.00587286
0.00765038
0.00976235
0.0141265
0.0225858
0.0321417
0.0390471
0.042001
0.0422754
0.0413465
0.038547
0.000129486
0.000261147
0.000239011
0.000261061
0.000219537
0.000169222
0.000124233
8.06018e-05
4.41407e-05
2.79567e-05
2.31818e-05
1.19911e-05
5.71091e-06
4.14674e-06
1.58319e-06
5.79082e-05
0.000110784
1.81448e-05
6.3559e-07
1.40751e-06
2.55271e-06
2.1377e-06
1.71446e-06
1.56516e-06
1.51387e-06
1.46922e-06
1.45185e-06
1.47508e-06
1.54172e-06
1.66131e-06
1.63314e-06
1.03236e-06
9.65996e-06
0.000202858
0.000377635
0.000362619
0.000651637
0.00118335
0.00185181
0.0028255
0.00416203
0.00572936
0.00745269
0.00948138
0.0136851
0.0221233
0.0319839
0.0393898
0.0426925
0.0431937
0.0420379
0.0401927
0.0367432
0.000129417
0.000261227
0.000234089
0.000254991
0.0002156
0.000168504
0.000126258
7.94563e-05
4.23715e-05
2.83575e-05
2.32001e-05
1.09654e-05
4.83017e-06
4.5754e-06
3.29938e-06
7.95795e-06
9.29746e-05
5.79863e-05
4.78349e-06
5.531e-07
2.09399e-06
2.32893e-06
1.829e-06
1.58741e-06
1.52876e-06
1.4863e-06
1.45977e-06
1.47874e-06
1.54123e-06
1.65695e-06
1.71687e-06
1.38011e-06
3.43744e-06
0.000131504
0.000395261
0.000380219
0.000626075
0.00114787
0.00179964
0.00274046
0.00404141
0.00559283
0.00726639
0.00920959
0.0132655
0.0216619
0.0318009
0.0397064
0.0434063
0.0440716
0.0430578
0.0409042
0.0384596
0.0346211
0.000128038
0.000256827
0.000222431
0.000241409
0.000210719
0.000167557
0.000126771
7.82093e-05
4.01255e-05
2.94892e-05
2.31539e-05
1.04489e-05
3.76034e-06
3.68319e-06
4.27363e-06
1.05434e-06
2.85667e-05
8.92854e-05
2.07416e-05
6.24877e-07
1.17048e-06
2.33498e-06
1.99791e-06
1.63283e-06
1.54147e-06
1.50506e-06
1.46997e-06
1.48316e-06
1.54534e-06
1.65754e-06
1.77433e-06
1.67852e-06
1.58414e-06
7.1556e-05
0.000387389
0.000420475
0.000604461
0.00110704
0.00174759
0.0026627
0.00392888
0.00546142
0.00709169
0.00895315
0.0128691
0.0212013
0.0315922
0.039997
0.0441182
0.0449842
0.0440374
0.0419646
0.0391568
0.0363747
0.032361
0.000127545
0.0002517
0.00021374
0.000229951
0.000203525
0.000169818
0.000127684
7.70006e-05
3.88792e-05
3.01174e-05
2.28274e-05
9.92717e-06
3.21297e-06
2.90793e-06
3.91824e-06
2.04866e-06
3.34516e-06
5.89846e-05
5.25111e-05
5.15099e-06
3.30758e-07
1.92209e-06
2.17866e-06
1.72115e-06
1.55574e-06
1.52274e-06
1.48322e-06
1.48853e-06
1.55263e-06
1.66689e-06
1.83296e-06
1.92536e-06
1.33981e-06
3.16978e-05
0.000345689
0.000471381
0.000588889
0.00104992
0.00169557
0.00259264
0.00382758
0.00533445
0.00692756
0.00871809
0.0124947
0.0207379
0.0313525
0.040254
0.0448309
0.0459077
0.0450566
0.042988
0.0402141
0.0370321
0.0341264
0.0301091
0.000128352
0.000250762
0.000206493
0.00022101
0.00019867
0.00017329
0.000128639
7.59667e-05
3.81189e-05
3.07427e-05
2.18033e-05
9.31944e-06
2.97989e-06
2.52809e-06
2.87839e-06
2.70736e-06
5.49313e-07
1.55182e-05
6.69162e-05
1.97341e-05
8.11471e-07
1.0976e-06
2.22832e-06
1.86383e-06
1.58279e-06
1.53663e-06
1.49974e-06
1.49544e-06
1.56266e-06
1.68562e-06
1.8867e-06
2.09975e-06
1.53419e-06
1.10017e-05
0.000273447
0.000523774
0.000570619
0.000989159
0.00164625
0.00253033
0.00373906
0.00521368
0.00677189
0.00850209
0.0121373
0.0202639
0.0310817
0.0404738
0.0455412
0.0468454
0.046094
0.0440542
0.0412394
0.0380569
0.0347234
0.0318525
0.0279717
0.000128125
0.000252213
0.000202727
0.000213518
0.000195119
0.000175068
0.000128866
7.36783e-05
3.77299e-05
3.09362e-05
2.07479e-05
9.21587e-06
3.31222e-06
2.6522e-06
2.15941e-06
2.1472e-06
1.61804e-06
1.38594e-06
4.01055e-05
4.25003e-05
4.75987e-06
3.17276e-07
1.92389e-06
2.03624e-06
1.64012e-06
1.546e-06
1.51913e-06
1.50457e-06
1.57587e-06
1.71174e-06
1.94792e-06
2.23442e-06
1.81047e-06
3.29101e-06
0.000185607
0.000559271
0.000573685
0.000937459
0.00160307
0.00247395
0.00366137
0.00510124
0.00662087
0.00829608
0.0117943
0.0197734
0.0307809
0.0406606
0.0462506
0.0478014
0.0471558
0.0451409
0.0423081
0.0390524
0.0356913
0.0323748
0.0296485
0.0260184
0.00012694
0.000251452
0.000199493
0.000210701
0.000193822
0.000177408
0.000128548
7.04982e-05
3.74298e-05
3.20455e-05
1.98409e-05
8.5082e-06
3.87606e-06
3.43791e-06
1.89153e-06
1.34651e-06
2.00322e-06
7.36255e-07
1.03936e-05
5.03596e-05
1.60873e-05
6.78716e-07
1.20279e-06
2.13321e-06
1.74646e-06
1.55557e-06
1.5387e-06
1.5179e-06
1.5924e-06
1.74594e-06
2.02144e-06
2.34313e-06
2.09546e-06
1.94561e-06
0.000103513
0.000577798
0.00060678
0.000900445
0.00156254
0.00241916
0.00359145
0.00500084
0.0064727
0.00809488
0.011464
0.0192781
0.0304616
0.0408227
0.0469645
0.0487814
0.0482446
0.0462586
0.0434007
0.040091
0.0366398
0.0332769
0.0300942
0.027592
0.0242918
0.000124084
0.000247333
0.000195244
0.00020731
0.000195447
0.000180167
0.000127795
6.80532e-05
3.78103e-05
3.28246e-05
1.87101e-05
7.99076e-06
3.76438e-06
4.07907e-06
1.93207e-06
9.02023e-07
1.36724e-06
1.54251e-06
9.56261e-07
3.05106e-05
3.27207e-05
3.72662e-06
4.28613e-07
1.96004e-06
1.90162e-06
1.57929e-06
1.55422e-06
1.53839e-06
1.61091e-06
1.793e-06
2.10346e-06
2.43574e-06
2.34157e-06
1.85304e-06
4.17431e-05
0.000567702
0.000668205
0.000900069
0.00151525
0.00236266
0.00352566
0.00491464
0.00632979
0.00789388
0.0111443
0.0188022
0.0301282
0.0409686
0.0476843
0.0497911
0.0493692
0.0474101
0.0445247
0.041159
0.037627
0.0341587
0.0309264
0.0279659
0.025727
0.0228192
0.00011969
0.000240464
0.000188855
0.000204948
0.000197952
0.000181482
0.000126263
6.5857e-05
3.84268e-05
3.31113e-05
1.81761e-05
7.16097e-06
3.76277e-06
4.3706e-06
2.11817e-06
7.90602e-07
6.13926e-07
1.55473e-06
5.48239e-07
8.86205e-06
3.87461e-05
1.20841e-05
3.65691e-07
1.38871e-06
2.0473e-06
1.63839e-06
1.56254e-06
1.56783e-06
1.63129e-06
1.85555e-06
2.18702e-06
2.52098e-06
2.52895e-06
1.93507e-06
4.60743e-06
0.00052563
0.000748906
0.000893585
0.00145294
0.00230545
0.00346343
0.00484274
0.00619713
0.00769061
0.0108283
0.0183554
0.0297887
0.0410925
0.048412
0.0508407
0.0505333
0.0485968
0.0456836
0.0422573
0.038642
0.0350805
0.0317301
0.0287167
0.0260383
0.0240851
0.0216098
0.000116788
0.000229384
0.000180842
0.000203426
0.00020244
0.000183266
0.000124576
6.28593e-05
3.8627e-05
3.3664e-05
1.80469e-05
6.59882e-06
4.4196e-06
4.31256e-06
2.17319e-06
1.07263e-06
1.16685e-07
9.29485e-07
1.16172e-06
1.13233e-06
2.58447e-05
2.42305e-05
2.5057e-06
6.27114e-07
2.02987e-06
1.75119e-06
1.56798e-06
1.60239e-06
1.66067e-06
1.93184e-06
2.27388e-06
2.60367e-06
2.6702e-06
2.10765e-06
3.70635e-06
0.000459345
0.000832754
0.000887446
0.00138505
0.00225372
0.00340511
0.00478177
0.00607995
0.00748759
0.0105103
0.0179407
0.0294547
0.0411932
0.0491456
0.0519284
0.0517472
0.0498307
0.0468827
0.0433878
0.0396904
0.0360299
0.0325786
0.0294429
0.026699
0.0243359
0.0226845
0.0206598
0.000114871
0.000220953
0.000174617
0.000202479
0.000206701
0.000183422
0.000121183
5.95256e-05
3.84597e-05
3.37563e-05
1.82624e-05
6.44847e-06
4.90663e-06
4.29887e-06
1.89984e-06
1.38417e-06
2.16447e-07
3.77351e-07
1.21842e-06
3.32695e-07
9.17173e-06
3.05334e-05
8.21909e-06
1.41698e-07
1.66426e-06
1.90612e-06
1.5869e-06
1.63222e-06
1.71091e-06
2.01108e-06
2.36556e-06
2.68218e-06
2.77837e-06
2.31485e-06
3.10766e-06
0.00038946
0.000904808
0.000905838
0.00133832
0.00221406
0.00334991
0.00472372
0.00598172
0.00729303
0.0101902
0.0175465
0.0291488
0.0412698
0.0498753
0.0530608
0.0530126
0.051112
0.048126
0.044562
0.0407717
0.0370092
0.0334524
0.0302057
0.0273437
0.0249104
0.0228806
0.0215348
0.019967
0.000112897
0.000214896
0.000172081
0.000206575
0.000211725
0.000181672
0.000114964
5.51603e-05
3.76452e-05
3.32594e-05
1.77532e-05
6.50701e-06
5.19056e-06
3.7857e-06
1.26968e-06
1.4711e-06
4.58082e-07
1.55149e-07
8.4741e-07
8.63372e-07
1.56256e-06
2.36439e-05
1.72225e-05
1.43675e-06
9.78297e-07
2.02082e-06
1.64425e-06
1.64842e-06
1.78823e-06
2.09006e-06
2.46324e-06
2.75198e-06
2.87658e-06
2.52633e-06
2.83854e-06
0.00033206
0.000961774
0.000971143
0.00132584
0.00218113
0.00329278
0.00466244
0.00590309
0.0071175
0.00987938
0.0171505
0.0288816
0.0413304
0.0505888
0.0542344
0.0543322
0.0524491
0.0494171
0.0457727
0.0418904
0.0380265
0.0343576
0.0309968
0.0280225
0.0254738
0.0233763
0.0216809
0.0206344
0.0195148
0.000110611
0.000208992
0.000169478
0.00021256
0.000217122
0.000178644
0.000109099
5.14292e-05
3.81555e-05
3.19883e-05
1.74118e-05
6.70537e-06
5.35999e-06
3.00449e-06
7.35621e-07
1.01925e-06
8.03832e-07
2.00603e-07
4.18526e-07
1.03955e-06
2.22606e-07
1.07939e-05
2.4058e-05
5.04666e-06
3.15678e-07
1.92684e-06
1.75535e-06
1.66275e-06
1.88468e-06
2.17557e-06
2.55732e-06
2.82107e-06
2.96667e-06
2.71388e-06
2.7715e-06
0.000286751
0.000985657
0.00108441
0.0013598
0.00213653
0.00322805
0.00459653
0.00584229
0.00697328
0.009594
0.0167368
0.0286369
0.0413913
0.0512665
0.0554447
0.0557062
0.0538362
0.0507516
0.0470269
0.0430464
0.0390761
0.0352954
0.0318209
0.0287304
0.026069
0.0238528
0.0220913
0.0207365
0.0199836
0.0192958
0.000108633
0.000203472
0.000168488
0.000217232
0.000220011
0.000174565
0.000102361
4.99389e-05
3.95419e-05
3.11122e-05
1.63204e-05
7.99986e-06
6.64516e-06
2.50582e-06
8.22836e-07
4.87137e-07
9.41384e-07
4.7017e-07
2.17805e-07
7.97535e-07
6.8988e-07
2.73202e-06
2.21709e-05
1.15193e-05
6.5114e-07
1.48781e-06
1.90368e-06
1.69575e-06
1.9742e-06
2.27722e-06
2.64912e-06
2.89538e-06
3.047e-06
2.86531e-06
2.85915e-06
0.000244007
0.000973179
0.00122678
0.00137322
0.00206462
0.00315939
0.004533
0.00579743
0.00686629
0.00934824
0.0163082
0.0283675
0.0414623
0.0518941
0.0566703
0.0571234
0.0552568
0.0521266
0.0483227
0.0442494
0.0401702
0.0362704
0.0326791
0.0294701
0.0266901
0.0243634
0.0224833
0.0210624
0.0200449
0.0195716
0.0192963
0.000107864
0.0001999
0.000168118
0.000222
0.000220063
0.000168041
9.42495e-05
4.95396e-05
4.12365e-05
3.04383e-05
1.4373e-05
8.53805e-06
7.5108e-06
2.7361e-06
9.75839e-07
1.03591e-07
6.07312e-07
7.27827e-07
2.17043e-07
4.15245e-07
9.64495e-07
1.63103e-07
1.33033e-05
1.82322e-05
2.7181e-06
8.27941e-07
2.00155e-06
1.77047e-06
2.05835e-06
2.39656e-06
2.72853e-06
2.97582e-06
3.12104e-06
2.98127e-06
2.98987e-06
0.00020664
0.000938832
0.00138488
0.0013922
0.00199773
0.00310161
0.00448178
0.00576477
0.00679103
0.00914389
0.0158836
0.0280183
0.0415171
0.0524824
0.0578844
0.0585528
0.056702
0.0535428
0.0496904
0.0455323
0.0413286
0.0373001
0.033581
0.0302476
0.0273424
0.0248985
0.0229128
0.0213756
0.0202894
0.0195958
0.0193835
0.0194984
0.000109351
0.000198537
0.000169143
0.000224309
0.000216493
0.000158959
8.65257e-05
4.96952e-05
4.39736e-05
3.03211e-05
1.3016e-05
8.81239e-06
8.00231e-06
3.14674e-06
6.09219e-07
7.89077e-07
1.72213e-07
7.2755e-07
3.63026e-07
1.93519e-07
7.58247e-07
4.83353e-07
5.08173e-06
2.01427e-05
7.0447e-06
1.19943e-07
1.89886e-06
1.90252e-06
2.14071e-06
2.51938e-06
2.81425e-06
3.06089e-06
3.18382e-06
3.06794e-06
3.1419e-06
0.000180406
0.000877685
0.00154299
0.00144798
0.00197678
0.00306928
0.00444505
0.005738
0.00672849
0.00896703
0.015476
0.0275728
0.0415062
0.0530633
0.0590677
0.0599813
0.0581686
0.0550293
0.051128
0.0468108
0.0424613
0.0383102
0.0344759
0.0310324
0.028025
0.0254634
0.0233648
0.0217224
0.0205237
0.0197557
0.019371
0.0194126
0.0198794
0.000109805
0.000197879
0.000171461
0.000223775
0.000210882
0.000149015
8.05178e-05
5.05563e-05
4.76016e-05
2.972e-05
1.28785e-05
9.47336e-06
7.68246e-06
3.67945e-06
1.19711e-06
9.897e-07
5.20963e-07
3.28619e-07
6.05121e-07
1.36107e-07
4.16444e-07
7.75103e-07
1.11914e-06
1.56695e-05
1.26799e-05
1.19455e-06
1.52761e-06
2.0669e-06
2.23393e-06
2.63626e-06
2.90808e-06
3.13898e-06
3.24034e-06
3.13599e-06
3.30443e-06
0.00016567
0.000795086
0.00169044
0.00158004
0.00201526
0.00304944
0.00441171
0.00570641
0.0066491
0.00878663
0.015079
0.0270588
0.0413594
0.0536151
0.0602448
0.0614024
0.0596807
0.0565676
0.0525029
0.048072
0.0436214
0.0393398
0.0353919
0.031835
0.0287104
0.0260403
0.0238394
0.0220876
0.0207862
0.0199188
0.019455
0.0193565
0.0196346
0.0204128
0.000109351
0.000195375
0.000168905
0.000220154
0.000201974
0.000139087
7.72719e-05
5.39305e-05
4.89789e-05
2.89886e-05
1.3008e-05
1.00177e-05
7.10021e-06
3.26014e-06
1.84943e-06
6.41207e-07
1.11945e-06
1.89802e-07
6.51364e-07
2.40533e-07
1.72955e-07
7.81266e-07
2.24039e-07
8.61678e-06
1.67633e-05
3.77093e-06
1.02842e-06
2.18582e-06
2.35506e-06
2.74854e-06
3.01028e-06
3.21365e-06
3.28989e-06
3.18803e-06
3.46186e-06
0.000164622
0.000705449
0.00181404
0.00179174
0.00208266
0.00301552
0.00436857
0.00565758
0.00652149
0.00855086
0.0146631
0.0265029
0.0410458
0.0539989
0.0614065
0.0628216
0.0612524
0.0580171
0.0538577
0.0493561
0.0447936
0.0404467
0.0363939
0.0327072
0.0294569
0.0266655
0.024335
0.0224769
0.0210716
0.0200959
0.0195411
0.0193634
0.0195427
0.0200294
0.021083
0.000108632
0.000192579
0.000164089
0.000213424
0.000190507
0.000130395
7.66113e-05
5.80269e-05
5.01674e-05
2.77591e-05
1.32255e-05
1.16297e-05
6.60775e-06
2.54593e-06
2.07403e-06
4.86811e-07
1.05613e-06
5.99046e-07
4.34953e-07
4.57391e-07
1.10014e-07
5.2001e-07
6.49302e-07
3.29701e-06
1.64493e-05
7.94082e-06
3.76862e-07
2.17465e-06
2.50256e-06
2.85069e-06
3.12288e-06
3.28629e-06
3.33036e-06
3.22607e-06
3.59185e-06
0.000166938
0.000614956
0.00188127
0.00204627
0.00212344
0.00296104
0.00431734
0.0055773
0.00631713
0.00819816
0.0141987
0.0258988
0.0406089
0.0541094
0.0625076
0.064303
0.0627213
0.0593799
0.0552368
0.0506316