/*--------------------------------*- C++ -*----------------------------------*\
| =========                 |                                                 |
| \\      /  F ield         | OpenFOAM: The Open Source CFD Toolbox           |
|  \\    /   O peration     | Version:  v2012                                 |
|   \\  /    A nd           | Website:  www.openfoam.com                      |
|    \\/     M anipulation  |                                                 |
\*---------------------------------------------------------------------------*/
FoamFile
{
    version     2.0;
    format      ascii;
    class       volScalarField;
    location    "0";
    object      nk;
}
// * * * * * * * * * * * * * * * * * * * * * * * * * * * * * * * * * * * * * //

dimensions      [0 0 0 0 0 0 0];


internalField   nonuniform List<scalar> 
27324
(
7.76316e-06
7.43472e-06
2.87413e-05
7.10284e-06
2.87108e-05
3.21992e-05
6.77215e-06
2.84883e-05
3.15056e-05
1.89696e-05
6.45827e-06
2.81781e-05
3.06615e-05
1.80953e-05
7.37294e-06
6.16081e-06
2.78528e-05
2.97425e-05
1.72099e-05
6.88152e-06
2.31149e-06
5.87585e-06
2.75351e-05
2.88319e-05
1.63042e-05
6.42048e-06
2.12577e-06
6.6598e-07
5.59728e-06
2.72146e-05
2.79488e-05
1.54307e-05
5.97072e-06
1.95723e-06
6.06356e-07
1.88056e-07
5.32158e-06
2.68604e-05
2.70874e-05
1.45859e-05
5.54638e-06
1.79707e-06
5.52849e-07
1.69715e-07
5.39823e-08
5.05217e-06
2.64339e-05
2.62177e-05
1.37631e-05
5.1351e-06
1.64775e-06
5.02664e-07
1.53432e-07
4.84385e-08
1.62755e-08
4.80026e-06
2.59253e-05
2.53044e-05
1.29448e-05
4.73481e-06
1.50352e-06
4.56227e-07
1.38343e-07
4.35843e-08
1.46503e-08
5.51757e-09
4.57581e-06
2.53847e-05
2.43365e-05
1.21259e-05
4.34371e-06
1.36412e-06
4.11581e-07
1.245e-07
3.91492e-08
1.32478e-08
5.03623e-09
2.21378e-09
4.38215e-06
2.48703e-05
2.33363e-05
1.13214e-05
3.96957e-06
1.23012e-06
3.68739e-07
1.11293e-07
3.51342e-08
1.19778e-08
4.62395e-09
2.06396e-09
1.05562e-09
4.20954e-06
2.44175e-05
2.2328e-05
1.05437e-05
3.62596e-06
1.10541e-06
3.28041e-07
9.87568e-08
3.13562e-08
1.08379e-08
4.2509e-09
1.93616e-09
1.00403e-09
5.7151e-10
4.04048e-06
2.39734e-05
2.13105e-05
9.80547e-06
3.31291e-06
9.94825e-07
2.90711e-07
8.70488e-08
2.78224e-08
9.77251e-09
3.91729e-09
1.8191e-09
9.59724e-10
5.50631e-10
3.3269e-10
3.8608e-06
2.34185e-05
2.02353e-05
9.09119e-06
3.02898e-06
8.96653e-07
2.58169e-07
7.65271e-08
2.4582e-08
8.78274e-09
3.6064e-09
1.714e-09
9.17935e-10
5.32327e-10
3.22593e-10
2.00983e-10
3.67084e-06
2.26606e-05
1.90579e-05
8.37942e-06
2.75614e-06
8.08649e-07
2.29705e-07
6.75773e-08
2.17179e-08
7.88348e-09
3.31844e-09
1.61534e-09
8.79769e-10
5.14333e-10
3.13511e-10
1.95411e-10
1.24213e-10
3.48251e-06
2.17229e-05
1.77908e-05
7.66629e-06
2.48695e-06
7.23676e-07
2.04598e-07
5.99346e-08
1.93171e-08
7.09402e-09
3.05805e-09
1.52316e-09
8.43256e-10
4.97493e-10
3.04255e-10
1.9029e-10
1.20918e-10
7.83738e-11
3.30875e-06
2.07206e-05
1.65132e-05
6.97004e-06
2.22225e-06
6.40339e-07
1.80796e-07
5.33168e-08
1.72876e-08
6.43463e-09
2.82902e-09
1.43882e-09
8.08438e-10
4.81015e-10
2.9542e-10
1.8496e-10
1.17859e-10
7.63883e-11
5.0879e-11
3.15103e-06
1.97556e-05
1.53119e-05
6.31543e-06
1.97414e-06
5.60276e-07
1.58078e-07
4.71234e-08
1.5535e-08
5.87863e-09
2.63637e-09
1.36337e-09
7.75738e-10
4.64941e-10
2.86678e-10
1.79824e-10
1.14637e-10
7.4547e-11
4.97018e-11
3.44004e-11
3.00223e-06
1.88182e-05
1.41967e-05
5.70791e-06
1.74809e-06
4.88916e-07
1.37099e-07
4.13072e-08
1.38998e-08
5.39781e-09
2.47233e-09
1.29829e-09
7.45636e-10
4.49424e-10
2.78043e-10
1.74748e-10
1.11532e-10
7.25971e-11
4.86195e-11
3.37321e-11
2.45697e-11
2.85464e-06
1.78268e-05
1.31009e-05
5.13264e-06
1.5419e-06
4.2671e-07
1.1926e-07
3.60362e-08
1.23756e-08
4.95048e-09
2.32818e-09
1.2414e-09
7.18667e-10
4.3473e-10
2.6957e-10
1.69745e-10
1.08489e-10
7.07297e-11
4.74665e-11
3.31317e-11
2.42201e-11
1.87318e-11
2.70707e-06
1.67134e-05
1.19656e-05
4.56556e-06
1.34833e-06
3.72102e-07
1.04256e-07
3.16594e-08
1.10092e-08
4.53602e-09
2.19274e-09
1.19e-09
6.94275e-10
4.21062e-10
2.61402e-10
1.64822e-10
1.05527e-10
6.89222e-11
4.63744e-11
3.24848e-11
2.39215e-11
1.85831e-11
1.52852e-11
2.56256e-06
1.54777e-05
1.078e-05
4.00704e-06
1.16379e-06
3.21593e-07
9.12626e-08
2.80248e-08
9.88925e-09
4.16686e-09
2.06633e-09
1.14082e-09
6.71547e-10
4.0832e-10
2.53625e-10
1.60028e-10
1.02633e-10
6.71846e-11
4.53307e-11
3.18829e-11
2.35894e-11
1.84734e-11
1.52625e-11
1.32536e-11
2.42593e-06
1.41578e-05
9.58649e-06
3.47389e-06
9.92548e-07
2.74566e-07
7.91418e-08
2.48807e-08
8.96752e-09
3.86552e-09
1.95259e-09
1.09397e-09
6.49439e-10
3.96209e-10
2.46232e-10
1.55405e-10
9.98066e-11
6.55096e-11
4.43409e-11
3.13157e-11
2.32892e-11
1.83374e-11
1.52675e-11
1.32997e-11
1.21502e-11
2.29502e-06
1.28041e-05
8.41769e-06
2.98436e-06
8.42039e-07
2.32193e-07
6.78621e-08
2.193e-08
8.17171e-09
3.61645e-09
1.85783e-09
1.05067e-09
6.27923e-10
3.8439e-10
2.39181e-10
1.50964e-10
9.70602e-11
6.3878e-11
4.33976e-11
3.07865e-11
2.30114e-11
1.82241e-11
1.52509e-11
1.33696e-11
1.21753e-11
1.17797e-11
2.16259e-06
1.13957e-05
7.26958e-06
2.53727e-06
7.12669e-07
1.96464e-07
5.78041e-08
1.91931e-08
7.42128e-09
3.39693e-09
1.77706e-09
1.013e-09
6.07477e-10
3.72805e-10
2.32373e-10
1.46748e-10
9.44194e-11
6.22889e-11
4.24887e-11
3.02908e-11
2.27581e-11
1.81254e-11
1.52515e-11
1.34254e-11
1.22449e-11
1.17029e-11
1.30595e-11
2.01111e-06
9.88479e-06
6.12802e-06
2.10628e-06
5.99286e-07
1.66597e-07
4.95354e-08
1.67847e-08
6.7269e-09
3.18446e-09
1.70277e-09
9.79398e-10
5.88864e-10
3.61587e-10
2.25759e-10
1.42754e-10
9.19312e-11
6.07658e-11
4.16091e-11
2.98264e-11
2.2529e-11
1.80433e-11
1.52626e-11
1.34946e-11
1.23402e-11
1.17076e-11
1.22729e-11
3.14719e-11
1.8368e-06
8.1902e-06
4.98958e-06
1.69691e-06
4.89888e-07
1.40862e-07
4.27726e-08
1.48366e-08
6.11788e-09
2.98434e-09
1.62817e-09
9.47029e-10
5.71585e-10
3.50998e-10
2.19302e-10
1.38941e-10
8.962e-11
5.9341e-11
4.07704e-11
2.93897e-11
2.23255e-11
1.79782e-11
1.5286e-11
1.35721e-11
1.24475e-11
1.17621e-11
1.17946e-11
1.57307e-11
2.3187e-09
1.64522e-06
6.38082e-06
3.88e-06
1.32398e-06
3.88804e-07
1.16135e-07
3.70498e-08
1.32605e-08
5.62596e-09
2.80662e-09
1.55584e-09
9.13561e-10
5.54567e-10
3.40912e-10
2.13045e-10
1.35218e-10
8.74532e-11
5.80355e-11
3.99884e-11
2.89807e-11
2.21467e-11
1.7932e-11
1.5321e-11
1.36595e-11
1.25609e-11
1.18492e-11
1.17276e-11
1.44885e-11
1.18859e-09
4.10681e-08
1.42649e-06
4.59494e-06
2.84361e-06
1.01707e-06
3.02627e-07
9.378e-08
3.15831e-08
1.1927e-08
5.22228e-09
2.66028e-09
1.48995e-09
8.80284e-10
5.37052e-10
3.30965e-10
2.06993e-10
1.3152e-10
8.53523e-11
5.68301e-11
3.92728e-11
2.85996e-11
2.19876e-11
1.7904e-11
1.53685e-11
1.3754e-11
1.2681e-11
1.19674e-11
1.17658e-11
1.35989e-11
6.15413e-10
3.38749e-08
1.24104e-07
9.84799e-07
2.89769e-06
1.92522e-06
7.63203e-07
2.402e-07
7.54478e-08
2.66497e-08
1.06427e-08
4.86916e-09
2.53678e-09
1.43369e-09
8.49197e-10
5.19606e-10
3.20987e-10
2.01112e-10
1.27895e-10
8.32398e-11
5.56727e-11
3.86199e-11
2.8248e-11
2.18413e-11
1.78915e-11
1.54269e-11
1.38535e-11
1.28117e-11
1.2098e-11
1.18666e-11
1.2912e-11
3.40398e-10
2.57586e-08
9.54431e-08
2.59925e-07
5.00524e-07
1.30067e-06
1.17215e-06
5.50104e-07
1.93337e-07
6.33734e-08
2.26074e-08
9.46076e-09
4.51861e-09
2.42474e-09
1.38431e-09
8.2148e-10
5.0321e-10
3.11125e-10
1.95422e-10
1.24425e-10
8.11531e-11
5.45051e-11
3.80077e-11
2.79304e-11
2.17031e-11
1.78919e-11
1.54927e-11
1.39614e-11
1.29522e-11
1.22539e-11
1.20133e-11
1.25729e-11
2.22348e-10
1.86945e-08
7.21117e-08
2.05314e-07
5.99942e-07
1.24346e-07
5.75677e-07
6.23206e-07
3.99279e-07
1.55426e-07
5.50646e-08
1.99962e-08
8.45995e-09
4.18525e-09
2.31024e-09
1.33725e-09
7.96102e-10
4.8835e-10
3.01758e-10
1.89929e-10
1.21184e-10
7.91849e-11
5.3332e-11
3.7413e-11
2.76488e-11
2.1577e-11
1.78988e-11
1.55681e-11
1.40813e-11
1.31005e-11
1.24636e-11
1.21617e-11
1.23822e-11
1.5939e-10
1.28102e-08
5.42483e-08
1.63698e-07
5.00364e-07
1.42541e-06
5.68169e-08
2.57621e-07
3.53515e-07
2.65672e-07
1.33645e-07
4.83609e-08
1.82025e-08
7.79621e-09
3.89445e-09
2.19702e-09
1.28782e-09
7.70886e-10
4.74445e-10
2.93082e-10
1.84666e-10
1.18154e-10
7.74106e-11
5.2224e-11
3.68215e-11
2.74029e-11
2.14755e-11
1.79074e-11
1.56617e-11
1.42109e-11
1.32822e-11
1.26884e-11
1.22724e-11
1.20531e-11
1.30487e-10
8.19516e-09
4.03019e-08
1.31206e-07
4.15785e-07
1.21773e-06
3.26476e-06
5.01694e-08
1.79291e-07
2.29795e-07
2.10018e-07
1.03773e-07
4.52256e-08
1.66198e-08
7.33346e-09
3.70212e-09
2.09444e-09
1.23671e-09
7.44228e-10
4.60463e-10
2.84712e-10
1.79656e-10
1.15224e-10
7.58155e-11
5.12417e-11
3.62437e-11
2.71823e-11
2.14084e-11
1.79256e-11
1.57773e-11
1.43585e-11
1.35153e-11
1.28727e-11
1.22834e-11
1.12767e-11
8.74104e-11
4.73168e-09
2.9667e-08
1.05002e-07
3.43893e-07
1.03511e-06
2.84156e-06
7.26323e-06
4.87164e-08
1.6704e-07
1.60122e-07
2.0521e-07
1.00849e-07
3.74825e-08
1.58474e-08
6.90072e-09
3.57408e-09
2.02416e-09
1.18712e-09
7.16233e-10
4.45911e-10
2.76172e-10
1.74715e-10
1.12336e-10
7.42794e-11
5.03766e-11
3.57251e-11
2.6969e-11
2.13818e-11
1.79714e-11
1.59056e-11
1.4574e-11
1.3724e-11
1.29836e-11
1.17851e-11
1.01565e-11
4.73855e-11
2.43691e-09
2.13677e-08
8.35535e-08
2.82908e-07
8.74748e-07
2.46446e-06
6.41863e-06
1.58016e-05
4.76824e-08
1.62537e-07
1.46727e-07
1.79459e-07
1.27171e-07
4.08734e-08
1.37106e-08
6.60132e-09
3.44945e-09
1.97434e-09
1.14757e-09
6.88514e-10
4.30701e-10
2.67387e-10
1.69706e-10
1.09451e-10
7.26935e-11
4.95525e-11
3.52884e-11
2.67563e-11
2.13925e-11
1.80424e-11
1.6083e-11
1.47874e-11
1.38333e-11
1.26989e-11
1.08077e-11
8.85376e-12
2.301e-11
1.09763e-09
1.46432e-08
6.60317e-08
2.31354e-07
7.35171e-07
2.12507e-06
5.65945e-06
1.41617e-05
3.36952e-05
4.66124e-08
1.59052e-07
1.41419e-07
1.69113e-07
1.30424e-07
5.95408e-08
1.54502e-08
5.83433e-09
3.27832e-09
1.92028e-09
1.11516e-09
6.64641e-10
4.15466e-10
2.58195e-10
1.64724e-10
1.0657e-10
7.10612e-11
4.86798e-11
3.49022e-11
2.65877e-11
2.13917e-11
1.81985e-11
1.62552e-11
1.48942e-11
1.36621e-11
1.17923e-11
9.45778e-12
7.69981e-12
1.21878e-11
4.28626e-10
9.3988e-09
5.14398e-08
1.87942e-07
6.14432e-07
1.82434e-06
4.9716e-06
1.26716e-05
3.06016e-05
7.03843e-05
4.54246e-08
1.55189e-07
1.36609e-07
1.63203e-07
1.25646e-07
6.66779e-08
2.28763e-08
6.58795e-09
2.93631e-09
1.73357e-09
1.07353e-09
6.45409e-10
4.01076e-10
2.48661e-10
1.59669e-10
1.03766e-10
6.94211e-11
4.77627e-11
3.44984e-11
2.64729e-11
2.13786e-11
1.83536e-11
1.6295e-11
1.47431e-11
1.27163e-11
1.03286e-11
8.1491e-12
6.98554e-12
8.25532e-12
1.51445e-10
5.49959e-09
3.92163e-08
1.515e-07
5.1077e-07
1.55801e-06
4.35457e-06
1.13031e-05
2.77559e-05
6.47102e-05
0.000143921
4.41244e-08
1.50739e-07
1.31842e-07
1.5897e-07
1.2122e-07
6.58542e-08
2.79144e-08
9.30456e-09
3.38005e-09
1.58258e-09
9.441e-10
6.0487e-10
3.87981e-10
2.38613e-10
1.54186e-10
1.00769e-10
6.77271e-11
4.68016e-11
3.39984e-11
2.63773e-11
2.12693e-11
1.83449e-11
1.59432e-11
1.36444e-11
1.10992e-11
8.7876e-12
7.32099e-12
6.6307e-12
7.02394e-12
5.53422e-11
2.85472e-09
2.8845e-08
1.21045e-07
4.22274e-07
1.32412e-06
3.80152e-06
1.00632e-05
2.51009e-05
5.94334e-05
0.000133808
0.000287646
4.28067e-08
1.4588e-07
1.27245e-07
1.55442e-07
1.18018e-07
6.39619e-08
2.76626e-08
1.1426e-08
4.71049e-09
1.85537e-09
8.95974e-10
5.22341e-10
3.40533e-10
2.22331e-10
1.46767e-10
9.6922e-11
6.56491e-11
4.56221e-11
3.32813e-11
2.60647e-11
2.08395e-11
1.74264e-11
1.45342e-11
1.16841e-11
9.34817e-12
7.77787e-12
6.91398e-12
6.5133e-12
6.63555e-12
2.35377e-11
1.29638e-09
2.00231e-08
9.55897e-08
3.47164e-07
1.11991e-06
3.30774e-06
8.93981e-06
2.26679e-05
5.44357e-05
0.000124315
0.000270127
0.0005613
4.14871e-08
1.41173e-07
1.23101e-07
1.52305e-07
1.15269e-07
6.21015e-08
2.68662e-08
1.10463e-08
5.9372e-09
2.52835e-09
1.08287e-09
5.24008e-10
2.97416e-10
1.89051e-10
1.26192e-10
8.50432e-11
5.9843e-11
4.25129e-11
3.05882e-11
2.38756e-11
1.87561e-11
1.50595e-11
1.20927e-11
9.74156e-12
8.24296e-12
7.28124e-12
6.70848e-12
6.52505e-12
6.54638e-12
1.23849e-11
5.18907e-10
1.2897e-08
7.42989e-08
2.83598e-07
9.43283e-07
2.86532e-06
7.92476e-06
2.04385e-05
4.98078e-05
0.000115202
0.000253531
0.000531738
0.0010697
4.01607e-08
1.36844e-07
1.19532e-07
1.49493e-07
1.12621e-07
6.02559e-08
2.57893e-08
1.08812e-08
5.55964e-09
3.14979e-09
1.47027e-09
6.48794e-10
3.19496e-10
1.75888e-10
1.07755e-10
7.01726e-11
4.80043e-11
3.43601e-11
2.48412e-11
1.93412e-11
1.51016e-11
1.22142e-11
1.0149e-11
8.67098e-12
7.70544e-12
7.01744e-12
6.71984e-12
6.57744e-12
6.56433e-12
8.56207e-12
1.90343e-10
7.60311e-09
5.64376e-08
2.29922e-07
7.91529e-07
2.47335e-06
7.00844e-06
1.84033e-05
4.55195e-05
0.000106688
0.000237419
0.000503464
0.00102165
0.0019884
3.88204e-08
1.32931e-07
1.16554e-07
1.46782e-07
1.09903e-07
5.84676e-08
2.47096e-08
1.06123e-08
5.48732e-09
2.99674e-09
1.83216e-09
8.75177e-10
4.02686e-10
2.00243e-10
1.10039e-10
6.50001e-11
4.17852e-11
2.87761e-11
2.08093e-11
1.59741e-11
1.28053e-11
1.06348e-11
9.20957e-12
8.17141e-12
7.46899e-12
7.0367e-12
6.76856e-12
6.64174e-12
6.61343e-12
7.27485e-12
7.02664e-11
4.00606e-09
4.14021e-08
1.84646e-07
6.61778e-07
2.12614e-06
6.18312e-06
1.65479e-05
4.15633e-05
9.87167e-05
0.000222266
0.000475677
0.000975123
0.0019147
0.00360208
3.73805e-08
1.28883e-07
1.13842e-07
1.439e-07
1.06873e-07
5.67814e-08
2.37438e-08
1.03545e-08
5.40368e-09
2.91061e-09
1.81321e-09
1.06724e-09
5.38778e-10
2.55876e-10
1.29803e-10
7.11145e-11
4.23323e-11
2.75947e-11
1.93421e-11
1.46688e-11
1.18756e-11
1.00158e-11
8.83743e-12
8.08259e-12
7.50648e-12
7.10186e-12
6.83665e-12
6.70735e-12
6.66958e-12
6.87514e-12
2.85786e-11
1.84925e-09
2.88222e-08
1.46374e-07
5.51562e-07
1.82106e-06
5.44098e-06
1.4861e-05
3.79195e-05
9.12864e-05
0.000207976
0.000449407
0.000928568
0.00184327
0.00350095
0.00619798
3.57913e-08
1.24256e-07
1.10836e-07
1.40295e-07
1.03382e-07
5.50533e-08
2.29865e-08
1.01689e-08
5.30534e-09
2.86412e-09
1.69577e-09
1.0939e-09
6.46634e-10
3.33628e-10
1.62623e-10
8.49789e-11
4.80338e-11
2.94567e-11
1.9848e-11
1.46864e-11
1.17728e-11
1.00421e-11
8.93614e-12
8.17239e-12
7.60577e-12
7.18614e-12
6.90763e-12
6.76745e-12
6.72624e-12
6.77741e-12
1.39582e-11
7.49385e-10
1.86058e-08
1.14071e-07
4.57929e-07
1.55471e-06
4.77613e-06
1.33284e-05
3.45738e-05
8.43715e-05
0.000194549
0.000424491
0.00088417
0.00176973
0.00340418
0.0060947
0.00979843
3.40854e-08
1.19169e-07
1.07587e-07
1.35965e-07
9.93829e-08
5.31668e-08
2.23392e-08
1.00811e-08
5.21522e-09
2.81349e-09
1.67514e-09
1.00727e-09
6.87612e-10
3.96406e-10
2.04687e-10
1.03197e-10
5.60932e-11
3.30922e-11
2.15207e-11
1.54816e-11
1.21859e-11
1.02957e-11
9.11931e-12
8.3115e-12
7.71567e-12
7.27304e-12
6.97475e-12
6.8239e-12
6.7812e-12
6.78518e-12
9.01211e-12
2.7077e-10
1.10378e-08
8.70727e-08
3.77802e-07
1.32389e-06
4.18134e-06
1.19389e-05
3.15052e-05
7.79593e-05
0.00018195
0.000400961
0.000841676
0.00169857
0.00329946
0.00600089
0.00975698
0.0139627
3.239e-08
1.13764e-07
1.04253e-07
1.3154e-07
9.52768e-08
5.12267e-08
2.17455e-08
1.00348e-08
5.14789e-09
2.76973e-09
1.65802e-09
9.89603e-10
6.35725e-10
4.33103e-10
2.43437e-10
1.25999e-10
6.60372e-11
3.74932e-11
2.35476e-11
1.64699e-11
1.26997e-11
1.0595e-11
9.31792e-12
8.45776e-12
7.82713e-12
7.35728e-12
7.03966e-12
6.87869e-12
6.83528e-12
6.82814e-12
7.44969e-12
9.38201e-11
5.87181e-09
6.42624e-08
3.08348e-07
1.12558e-06
3.65311e-06
1.0681e-05
2.86958e-05
7.20267e-05
0.000170169
0.000378776
0.000801244
0.0016294
0.00319623
0.00588807
0.00973288
0.0140672
0.0180377
3.08628e-08
1.08469e-07
1.01006e-07
1.27261e-07
9.13913e-08
4.93454e-08
2.12297e-08
9.99308e-09
5.08416e-09
2.74171e-09
1.64544e-09
9.8091e-10
6.08528e-10
4.11238e-10
2.71604e-10
1.49183e-10
7.81441e-11
4.28018e-11
2.59062e-11
1.75831e-11
1.32618e-11
1.09132e-11
9.52293e-12
8.60329e-12
7.93635e-12
7.44102e-12
7.10483e-12
6.93375e-12
6.88915e-12
6.88251e-12
7.02607e-12
3.3963e-11
2.73066e-09
4.50857e-08
2.48764e-07
9.56338e-07
3.18636e-06
9.54382e-06
2.61272e-05
6.65513e-05
0.000159177
0.000357924
0.00076288
0.00156264
0.00309361
0.00577362
0.00967763
0.0141997
0.0183518
0.0215146
2.95524e-08
1.03826e-07
9.8117e-08
1.23296e-07
8.77539e-08
4.75481e-08
2.08322e-08
9.94612e-09
5.01155e-09
2.72208e-09
1.64036e-09
9.74591e-10
6.0387e-10
3.83621e-10
2.69548e-10
1.697e-10
9.21501e-11
4.92837e-11
2.87376e-11
1.88776e-11
1.38893e-11
1.12527e-11
9.73648e-12
8.75488e-12
8.05019e-12
7.52792e-12
7.1721e-12
6.98989e-12
6.94308e-12
6.93995e-12
6.9521e-12
1.45203e-11
1.08578e-09
2.94389e-08
1.97493e-07
8.12181e-07
2.77613e-06
8.51892e-06
2.37799e-05
6.15096e-05
0.000148958
0.000338367
0.000726645
0.0014984
0.00299241
0.00565567
0.00961787
0.0142934
0.0187071
0.0220531
0.0241695
2.845e-08
9.98525e-08
9.55191e-08
1.19586e-07
8.44691e-08
4.5874e-08
2.05476e-08
9.90159e-09
4.93713e-09
2.70688e-09
1.63849e-09
9.72204e-10
6.01239e-10
3.79197e-10
2.4864e-10
1.74509e-10
1.06682e-10
5.72052e-11
3.21644e-11
2.04035e-11
1.46078e-11
1.16286e-11
9.96582e-12
8.91586e-12
8.17086e-12
7.61942e-12
7.24199e-12
7.04727e-12
6.99731e-12
6.9981e-12
6.98202e-12
8.72598e-12
3.63627e-10
1.76239e-08
1.53272e-07
6.89203e-07
2.41761e-06
7.59792e-06
2.164e-05
5.68692e-05
0.000139492
0.000320087
0.000692515
0.00143697
0.0028929
0.00553559
0.00954994
0.0143828
0.0190243
0.022645
0.0249174
0.0259682
2.75593e-08
9.66122e-08
9.28586e-08
1.15641e-07
8.13886e-08
4.43922e-08
2.03895e-08
9.84529e-09
4.86587e-09
2.69675e-09
1.63793e-09
9.72114e-10
6.01098e-10
3.7819e-10
2.39137e-10
1.62587e-10
1.12695e-10
6.63243e-11
3.62428e-11
2.21872e-11
1.54293e-11
1.20481e-11
1.02153e-11
9.08824e-12
8.29915e-12
7.71577e-12
7.31443e-12
7.10586e-12
7.05188e-12
7.05644e-12
7.04044e-12
7.32644e-12
1.07859e-10
9.44017e-09
1.15576e-07
5.81671e-07
2.1059e-06
6.7749e-06
1.96922e-05
5.26044e-05
0.00013074
0.000303075
0.0006605
0.00137846
0.00279564
0.00541385
0.00947566
0.0144627
0.0193441
0.023208
0.0257263
0.0268931
0.0269893
2.67975e-08
9.39158e-08
8.98857e-08
1.11187e-07
7.83028e-08
4.30595e-08
2.03342e-08
9.76984e-09
4.80093e-09
2.69373e-09
1.63865e-09
9.73019e-10
6.02609e-10
3.78677e-10
2.38436e-10
1.52162e-10
1.0896e-10
7.14605e-11
4.09806e-11
2.42477e-11
1.6365e-11
1.25188e-11
1.04875e-11
9.2726e-12
8.43513e-12
7.81698e-12
7.3895e-12
7.16549e-12
7.10696e-12
7.11534e-12
7.10725e-12
7.09746e-12
3.17262e-11
4.37261e-09
8.36134e-08
4.87575e-07
1.83652e-06
6.04325e-06
1.79263e-05
4.86847e-05
0.000122671
0.0002873
0.000630606
0.00132306
0.00270106
0.0052912
0.00939527
0.0145342
0.0196601
0.0237867
0.0265198
0.0278809
0.0280525
0.0273665
2.60521e-08
9.14203e-08
8.65547e-08
1.06102e-07
7.51227e-08
4.18772e-08
2.03345e-08
9.67341e-09
4.74333e-09
2.69709e-09
1.64095e-09
9.75164e-10
6.04818e-10
3.80342e-10
2.38702e-10
1.50365e-10
1.00301e-10
7.2005e-11
4.51867e-11
2.66333e-11
1.74396e-11
1.30497e-11
1.07868e-11
9.46986e-12
8.579e-12
7.92349e-12
7.46726e-12
7.2264e-12
7.16282e-12
7.17504e-12
7.1773e-12
7.12492e-12
1.1876e-11
1.67039e-09
5.67391e-08
4.03375e-07
1.60598e-06
5.39734e-06
1.63301e-05
4.50888e-05
0.000115233
0.000272755
0.000602807
0.00127086
0.00260973
0.00516832
0.00930964
0.0145968
0.0199733
0.0243754
0.0273439
0.0288681
0.0291748
0.0285291
0.0272457
2.52905e-08
8.91523e-08
8.31982e-08
1.00658e-07
7.1827e-08
4.08776e-08
2.03662e-08
9.55145e-09
4.69709e-09
2.70498e-09
1.64541e-09
9.78353e-10
6.07631e-10
3.82505e-10
2.39725e-10
1.50407e-10
9.51694e-11
6.74646e-11
4.73345e-11
2.92551e-11
1.86721e-11
1.36475e-11
1.1117e-11
9.68163e-12
8.73106e-12
8.03578e-12
7.5482e-12
7.28874e-12
7.21966e-12
7.23593e-12
7.24946e-12
7.20583e-12
7.76614e-12
4.87872e-10
3.5278e-08
3.29497e-07
1.40811e-06
4.82991e-06
1.48944e-05
4.17952e-05
0.000108385
0.000259391
0.000577148
0.00122192
0.00252229
0.00504596
0.00921962
0.0146506
0.0202822
0.0249751
0.0281941
0.0299001
0.0303102
0.0297431
0.0284734
0.026761
2.446e-08
8.72326e-08
8.00647e-08
9.52014e-08
6.85497e-08
4.00876e-08
2.03657e-08
9.39967e-09
4.66305e-09
2.71564e-09
1.65202e-09
9.8302e-10
6.10986e-10
3.84918e-10
2.41179e-10
1.50926e-10
9.47362e-11
6.2412e-11
4.57971e-11
3.16536e-11
2.00729e-11
1.43093e-11
1.14795e-11
9.90992e-12
8.89211e-12
8.15447e-12
7.63286e-12
7.35265e-12
7.27768e-12
7.29846e-12
7.32348e-12
7.29391e-12
7.25684e-12
9.80732e-11
1.96208e-08
2.64612e-07
1.23686e-06
4.3338e-06
1.36086e-05
3.87932e-05
0.000102077
0.000247158
0.000553623
0.00117637
0.00243926
0.00492497
0.00912534
0.0146953
0.0205857
0.025585
0.0290719
0.0309739
0.031503
0.0309821
0.029742
0.0280252
0.0260237
2.35791e-08
8.55534e-08
7.71931e-08
8.99305e-08
6.55095e-08
3.94548e-08
2.03001e-08
9.2107e-09
4.64107e-09
2.72866e-09
1.66035e-09
9.88756e-10
6.15131e-10
3.8756e-10
2.42779e-10
1.51799e-10
9.49011e-11
5.98211e-11
4.19424e-11
3.18163e-11
2.15898e-11
1.50243e-11
1.18727e-11
1.01574e-11
9.06317e-12
8.28029e-12
7.72175e-12
7.41833e-12
7.33708e-12
7.36316e-12
7.39992e-12
7.38402e-12
7.312e-12
1.48327e-11
9.28985e-09
2.08386e-07
1.08669e-06
3.90189e-06
1.24645e-05
3.60702e-05
9.62802e-05
0.000235978
0.000532246
0.00113436
0.00236103
0.00480613
0.0090266
0.0147313
0.0208824
0.0262042
0.0299777
0.0320923
0.0327517
0.0322882
0.031045
0.0293181
0.0273018
0.0251212
2.26369e-08
8.3738e-08
7.45101e-08
8.51339e-08
6.28147e-08
3.90076e-08
2.01536e-08
8.98687e-09
4.62432e-09
2.74317e-09
1.67061e-09
9.94935e-10
6.20018e-10
3.90397e-10
2.44379e-10
1.52776e-10
9.52783e-11
5.9755e-11
3.89626e-11
2.98863e-11
2.24852e-11
1.57987e-11
1.22936e-11
1.04264e-11
9.24661e-12
8.41389e-12
7.81564e-12
7.48608e-12
7.39817e-12
7.43032e-12
7.47964e-12
7.47663e-12
7.40602e-12
7.60565e-12
3.40559e-09
1.59878e-07
9.486e-07
3.52815e-06
1.14544e-05
3.36188e-05
9.09663e-05
0.000225775
0.000512957
0.00109603
0.00228763
0.00469052
0.00892439
0.0147585
0.0211717
0.0268321
0.0309112
0.0332566
0.0340598
0.0336619
0.0324226
0.030653
0.0285955
0.0263947
0.0241186
2.15895e-08
8.15195e-08
7.18416e-08
8.07968e-08
6.05911e-08
3.87134e-08
1.99557e-08
8.75168e-09
4.60754e-09
2.7581e-09
1.68189e-09
1.00183e-09
6.25404e-10
3.93363e-10
2.45924e-10
1.53701e-10
9.57605e-11
5.9881e-11
3.76686e-11
2.70711e-11
2.20735e-11
1.65732e-11
1.27335e-11
1.0717e-11
9.44499e-12
8.55626e-12
7.915e-12
7.5563e-12
7.46103e-12
7.50026e-12
7.56297e-12
7.57149e-12
7.50979e-12
7.61415e-12
7.29919e-10
1.18548e-07
8.2337e-07
3.20769e-06
1.05692e-05
3.14293e-05
8.6124e-05
0.000216469
0.000495685
0.00106149
0.00221946
0.00457914
0.00881991
0.0147775
0.0214538
0.0274673
0.0318729
0.0344676
0.03543
0.0351075
0.0338765
0.0320675
0.0299372
0.0276724
0.0253744
0.0230645
2.04708e-08
7.86796e-08
6.90819e-08
7.68948e-08
5.88295e-08
3.84646e-08
1.96963e-08
8.54473e-09
4.59275e-09
2.77105e-09
1.6937e-09
1.00917e-09
6.31099e-10
3.96526e-10
2.47383e-10
1.54539e-10
9.62217e-11
6.01018e-11
3.76054e-11
2.51409e-11
2.02813e-11
1.70153e-11
1.3187e-11
1.10241e-11
9.66098e-12
8.70851e-12
8.02012e-12
7.62938e-12
7.52584e-12
7.57372e-12
7.65002e-12
7.66904e-12
7.61756e-12
7.65055e-12
1.30622e-11
8.59284e-08
7.11093e-07
2.93208e-06
9.79978e-06
2.94879e-05
8.17502e-05
0.000208007
0.000480291
0.00103086
0.00215686
0.00447296
0.00871498
0.0147892
0.0217283
0.0281085
0.032862
0.035727
0.0368646
0.0366288
0.0354121
0.0335646
0.0313616
0.0290023
0.0266233
0.0242917
0.0219935
1.92738e-08
7.5108e-08
6.61921e-08
7.35697e-08
5.75177e-08
3.82163e-08
1.9365e-08
8.37237e-09
4.58918e-09
2.78481e-09
1.70433e-09
1.01667e-09
6.37171e-10
3.99861e-10
2.48893e-10
1.55293e-10
9.66021e-11
6.03347e-11
3.76213e-11
2.42417e-11
1.80725e-11
1.6374e-11
1.36375e-11
1.1333e-11
9.89571e-12
8.87263e-12
8.13111e-12
7.70616e-12
7.59278e-12
7.65104e-12
7.74095e-12
7.77002e-12
7.72707e-12
7.71966e-12
1.27426e-11
6.24282e-08
6.11811e-07
2.69188e-06
9.13471e-06
2.77836e-05
7.78424e-05
0.000200364
0.000466627
0.0010041
0.00210045
0.00437266
0.00861126
0.014795
0.0219941
0.0287545
0.0338781
0.0370355
0.0383663
0.038229
0.037034
0.0351501
0.0328727
0.030416
0.0279277
0.0255038
0.0231847
0.0209311
1.8024e-08
7.09759e-08
6.32984e-08
7.09319e-08
5.66453e-08
3.78779e-08
1.895e-08
8.22356e-09
4.59813e-09
2.80401e-09
1.71377e-09
1.02438e-09
6.43175e-10
4.03177e-10
2.50581e-10
1.56045e-10
9.69117e-11
6.05386e-11
3.77209e-11
2.41803e-11
1.6654e-11
1.47813e-11
1.38625e-11
1.16327e-11
1.01463e-11
9.05102e-12
8.24856e-12
7.78706e-12
7.66233e-12
7.73201e-12
7.83562e-12
7.87446e-12
7.83851e-12
7.81477e-12
1.26297e-11
4.82061e-08
5.25793e-07
2.47796e-06
8.56485e-06
2.63043e-05
7.44041e-05
0.000193533
0.000454572
0.000981089
0.00205075
0.00427935
0.00851038
0.0147971
0.0222507
0.0294029
0.0349205
0.0383938
0.039938
0.0399133
0.0387466
0.0368299
0.0344767
0.0319188
0.029316
0.0267726
0.0243535
0.0220801
0.0198957
1.67666e-08
6.65265e-08
6.05167e-08
6.90823e-08
5.61854e-08
3.74061e-08
1.84255e-08
8.0964e-09
4.61901e-09
2.8288e-09
1.72329e-09
1.03145e-09
6.49059e-10
4.06464e-10
2.52335e-10
1.56905e-10
9.72366e-11
6.07065e-11
3.78529e-11
2.41821e-11
1.59584e-11
1.29212e-11
1.32707e-11
1.19355e-11
1.04015e-11
9.24621e-12
8.37347e-12
7.87221e-12
7.73577e-12
7.81606e-12
7.93525e-12
7.98241e-12
7.95176e-12
7.928e-12
1.26186e-11
4.21767e-08
4.48569e-07
2.27486e-06
8.08378e-06
2.50428e-05
7.14301e-05
0.000187534
0.000444026
0.000961602
0.00200823
0.00419432
0.00841373
0.0147984
0.0224984
0.0300524
0.0359878
0.0398031
0.0415814
0.0416851
0.0405564
0.0386094
0.0361801
0.0335173
0.0307941
0.0281245
0.0255801
0.023202
0.0209982
0.0189012
1.54948e-08
6.18164e-08
5.79065e-08
6.79653e-08
5.61127e-08
3.67754e-08
1.78146e-08
7.98723e-09
4.65438e-09
2.85716e-09
1.73441e-09
1.03948e-09
6.54691e-10
4.09633e-10
2.54111e-10
1.57857e-10
9.76386e-11
6.08708e-11
3.79877e-11
2.42317e-11
1.59014e-11
1.16794e-11
1.19558e-11
1.21221e-11
1.06415e-11
9.4593e-12
8.50772e-12
7.96133e-12
7.81434e-12
7.90299e-12
8.03998e-12
8.09392e-12
8.0674e-12
8.04973e-12
1.26697e-11
4.09701e-08
3.8095e-07
2.0934e-06
7.68833e-06
2.39899e-05
6.89143e-05
0.000182385
0.000434983
0.000945358
0.00197307
0.00411943
0.00832259
0.0148015
0.0227379
0.0307003
0.0370793
0.0412627
0.0432996
0.0435484
0.0424684
0.040496
0.0379897
0.0352184
0.032369
0.0295663
0.0268884
0.0243818
0.0220706
0.0199536
0.0179585
1.42427e-08
5.70299e-08
5.55531e-08
6.73995e-08
5.62287e-08
3.60068e-08
1.71465e-08
7.89107e-09
4.70259e-09
2.88597e-09
1.74556e-09
1.04884e-09
6.60059e-10
4.12547e-10
2.55865e-10
1.58844e-10
9.81753e-11
6.10669e-11
3.81131e-11
2.43136e-11
1.59144e-11
1.10884e-11
1.02894e-11
1.17081e-11
1.0867e-11
9.68552e-12
8.65437e-12
8.05476e-12
7.89776e-12
7.99325e-12
8.14941e-12
8.20946e-12
8.18588e-12
8.17557e-12
1.27917e-11
4.0649e-08
3.29875e-07
1.93347e-06
7.36366e-06
2.31346e-05
6.68418e-05
0.000178113
0.000427469
0.000932187
0.00194506
0.00405654
0.00823916
0.0148083
0.0229713
0.0313452
0.0381923
0.0427711
0.0450931
0.0455092
0.0444897
0.0424965
0.0399135
0.0370295
0.0340481
0.0311047
0.0282855
0.0256413
0.0232002
0.0209751
0.0189583
0.0170769
1.30412e-08
5.23662e-08
5.35574e-08
6.72822e-08
5.63202e-08
3.50616e-08
1.64733e-08
7.81794e-09
4.75914e-09
2.91224e-09
1.75692e-09
1.05948e-09
6.65354e-10
4.15068e-10
2.57381e-10
1.59805e-10
9.87138e-11
6.13077e-11
3.82375e-11
2.43959e-11
1.59608e-11
1.09845e-11
9.018e-12
1.06992e-11
1.10501e-11
9.90913e-12
8.81736e-12
8.15339e-12
7.98555e-12
8.08906e-12
8.26255e-12
8.32976e-12
8.30768e-12
8.3054e-12
1.29743e-11
4.12139e-08
3.00133e-07
1.79607e-06
7.09419e-06
2.24615e-05
6.52044e-05
0.000174737
0.000421578
0.000922032
0.00192388
0.00400686
0.00816701
0.0148182
0.0232005
0.0319802
0.0393157
0.0443232
0.0469638
0.0475711
0.0466286
0.0446214
0.0419608
0.0389595
0.0358395
0.0327477
0.029778
0.0269878
0.0244074
0.0220527
0.0199279
0.0180218
0.016265
1.19376e-08
4.79701e-08
5.19429e-08
6.74608e-08
5.61495e-08
3.39405e-08
1.58545e-08
7.78467e-09
4.82452e-09
2.93315e-09
1.76813e-09
1.07064e-09
6.70878e-10
4.17455e-10
2.5862e-10
1.60638e-10
9.92548e-11
6.15814e-11
3.83674e-11
2.44656e-11
1.6032e-11
1.09842e-11
8.37844e-12
9.22002e-12
1.09907e-11
1.01142e-11
9.00056e-12
8.2593e-12
8.07726e-12
8.1912e-12
8.37932e-12
8.45524e-12
8.43341e-12
8.43884e-12
1.3205e-11
4.23409e-08
2.88139e-07
1.67781e-06
6.86517e-06
2.19628e-05
6.40001e-05
0.000172287
0.000417406
0.000914977
0.00190911
0.00397072
0.00811023
0.0148327
0.0234213
0.03259
0.0404467
0.0459228
0.0489138
0.0497395
0.0488917
0.04688
0.0441423
0.0410198
0.0377529
0.0345034
0.0313743
0.0284282
0.0256996
0.0232053
0.0209519
0.0189389
0.0171528
0.0155317
1.09249e-08
4.39246e-08
5.06602e-08
6.76826e-08
5.55768e-08
3.264e-08
1.5318e-08
7.80494e-09
4.90011e-09
2.94607e-09
1.77907e-09
1.08173e-09
6.76236e-10
4.19801e-10
2.59651e-10
1.61279e-10
9.97591e-11
6.18397e-11
3.85174e-11
2.45271e-11
1.60997e-11
1.10012e-11
8.10284e-12
7.83194e-12
1.02981e-11
1.0315e-11
9.20178e-12
8.37544e-12
8.17224e-12
8.2989e-12
8.49961e-12
8.58568e-12
8.56357e-12
8.57554e-12
1.34787e-11
4.39567e-08
2.80445e-07
1.57095e-06
6.66435e-06
2.1639e-05
6.32384e-05
0.00017079
0.00041506
0.000911208
0.00190053
0.00394751
0.00807178
0.0148582
0.0236187
0.0331723
0.0415934
0.0475705
0.0509465
0.05202
0.0512855
0.0492722
0.0464597
0.043214
0.0397957
0.0363805
0.0330825
0.0299705
0.0270835
0.0244406
0.0220486
0.0199084
0.0180171
0.0163602
0.0148866
9.97002e-09
4.02816e-08
4.96135e-08
6.76546e-08
5.4493e-08
3.12315e-08
1.48779e-08
7.87444e-09
4.97926e-09
2.95378e-09
1.7892e-09
1.09208e-09
6.81364e-10
4.22398e-10
2.6063e-10
1.61718e-10
1.00159e-10
6.20914e-11
3.87047e-11
2.45835e-11
1.61532e-11
1.10371e-11
8.08445e-12
6.97983e-12
9.14986e-12
1.04229e-11
9.40247e-12
8.5044e-12
8.27038e-12
8.41175e-12
8.62471e-12
8.72167e-12
8.69836e-12
8.71631e-12
1.37813e-11
4.5983e-08
2.77131e-07
1.49366e-06
6.51816e-06
2.14912e-05
6.29268e-05
0.000170277
0.000414617
0.000910952
0.00189803
0.00393613
0.00805296
0.0148784
0.0237875
0.0337438
0.0427582
0.0492703
0.0530644
0.0544142
0.0538018
0.051806
0.0489275
0.0455568
0.0419793
0.0383897
0.034912
0.0316226
0.0285668
0.0257647
0.023225
0.0209482
0.0189314
0.0171712
0.0156531
0.0143401
9.0472e-09
3.70494e-08
4.87702e-08
6.71678e-08
5.28621e-08
2.98159e-08
1.45376e-08
7.98431e-09
5.05223e-09
2.96026e-09
1.79951e-09
1.10172e-09
6.86131e-10
4.25081e-10
2.61899e-10
1.62116e-10
1.00464e-10
6.23054e-11
3.88917e-11
2.46447e-11