/*--------------------------------*- C++ -*----------------------------------*\
| =========                 |                                                 |
| \\      /  F ield         | OpenFOAM: The Open Source CFD Toolbox           |
|  \\    /   O peration     | Version:  v2012                                 |
|   \\  /    A nd           | Website:  www.openfoam.com                      |
|    \\/     M anipulation  |                                                 |
\*---------------------------------------------------------------------------*/
FoamFile
{
    version     2.0;
    format      ascii;
    class       volScalarField;
    location    "0";
    object      nu;
}
// * * * * * * * * * * * * * * * * * * * * * * * * * * * * * * * * * * * * * //

dimensions      [0 2 -1 0 0 0 0];


internalField   nonuniform List<scalar> 
27324
(
1.09141e-05
1.07707e-05
1.06966e-05
1.06925e-05
1.05479e-05
1.03359e-05
1.0602e-05
1.04643e-05
1.01789e-05
9.8894e-06
1.05114e-05
1.03677e-05
1.00894e-05
9.72878e-06
9.45633e-06
1.04159e-05
1.02723e-05
9.98821e-06
9.63854e-06
9.30279e-06
9.11988e-06
1.03175e-05
1.01725e-05
9.88896e-06
9.53781e-06
9.21824e-06
8.97641e-06
8.88351e-06
1.02164e-05
1.00696e-05
9.78425e-06
9.43857e-06
9.12354e-06
8.89633e-06
8.74837e-06
8.72464e-06
1.01186e-05
9.96497e-06
9.67569e-06
9.33364e-06
9.02881e-06
8.806e-06
8.67321e-06
8.59377e-06
8.61627e-06
1.0028e-05
9.86364e-06
9.5653e-06
9.22571e-06
8.92885e-06
8.71723e-06
8.58858e-06
8.51994e-06
8.49014e-06
8.53996e-06
9.93946e-06
9.76792e-06
9.45805e-06
9.1166e-06
8.82553e-06
8.62473e-06
8.50456e-06
8.43691e-06
8.41947e-06
8.41922e-06
8.50935e-06
9.853e-06
9.67535e-06
9.35784e-06
9.01103e-06
8.72196e-06
8.52997e-06
8.41583e-06
8.35529e-06
8.339e-06
8.35093e-06
8.389e-06
8.50026e-06
9.76154e-06
9.58423e-06
9.2613e-06
8.91232e-06
8.62271e-06
8.4349e-06
8.32468e-06
8.27054e-06
8.26032e-06
8.2739e-06
8.32029e-06
8.38059e-06
8.50417e-06
9.663e-06
9.4864e-06
9.16604e-06
8.81649e-06
8.52964e-06
8.34209e-06
8.23295e-06
8.18434e-06
8.17905e-06
8.19813e-06
8.24243e-06
8.31242e-06
8.38496e-06
8.51534e-06
9.5651e-06
9.38021e-06
9.06304e-06
8.72144e-06
8.44028e-06
8.25284e-06
8.14263e-06
8.09803e-06
8.09664e-06
8.11922e-06
8.16682e-06
8.23524e-06
8.31686e-06
8.39647e-06
8.52527e-06
9.47096e-06
9.27726e-06
8.95596e-06
8.61928e-06
8.35018e-06
8.16459e-06
8.05631e-06
8.01302e-06
8.01394e-06
8.03901e-06
8.08999e-06
8.16113e-06
8.23926e-06
8.32723e-06
8.40553e-06
8.53701e-06
9.37788e-06
9.17698e-06
8.84881e-06
8.51647e-06
8.255e-06
8.07652e-06
7.97277e-06
7.93157e-06
7.93212e-06
7.95927e-06
8.01334e-06
8.08679e-06
8.16483e-06
8.24914e-06
8.33583e-06
8.41803e-06
8.55288e-06
9.28299e-06
9.07903e-06
8.74524e-06
8.41258e-06
8.15697e-06
7.98514e-06
7.89025e-06
7.85249e-06
7.8525e-06
7.87888e-06
7.93732e-06
8.01259e-06
8.09135e-06
8.17421e-06
8.25698e-06
8.34852e-06
8.43195e-06
8.56259e-06
9.18288e-06
8.97859e-06
8.64702e-06
8.31561e-06
8.05851e-06
7.89267e-06
7.80569e-06
7.77411e-06
7.77499e-06
7.79968e-06
7.86181e-06
7.93774e-06
8.01855e-06
8.10089e-06
8.18122e-06
8.26947e-06
8.36151e-06
8.43914e-06
8.56985e-06
9.07642e-06
8.87294e-06
8.54484e-06
8.21948e-06
7.96663e-06
7.80414e-06
7.72173e-06
7.69413e-06
7.69725e-06
7.72223e-06
7.78655e-06
7.86197e-06
7.94503e-06
8.02873e-06
8.10758e-06
8.19377e-06
8.28172e-06
8.36813e-06
8.44464e-06
8.58113e-06
8.97109e-06
8.75835e-06
8.43504e-06
8.11968e-06
7.87406e-06
7.72001e-06
7.63847e-06
7.61342e-06
7.61769e-06
7.64615e-06
7.71128e-06
7.78471e-06
7.87042e-06
7.9559e-06
8.03589e-06
8.11984e-06
8.20564e-06
8.28845e-06
8.37367e-06
8.45435e-06
8.60033e-06
8.8664e-06
8.64477e-06
8.31764e-06
8.00878e-06
7.77912e-06
7.63699e-06
7.5594e-06
7.53202e-06
7.53673e-06
7.57064e-06
7.63604e-06
7.7079e-06
7.79349e-06
7.88136e-06
7.96398e-06
8.04807e-06
8.13069e-06
8.21201e-06
8.29437e-06
8.38345e-06
8.47224e-06
8.62004e-06
8.76454e-06
8.53315e-06
8.20182e-06
7.89493e-06
7.67582e-06
7.54927e-06
7.47922e-06
7.45243e-06
7.45451e-06
7.49509e-06
7.56233e-06
7.63281e-06
7.71652e-06
7.80407e-06
7.88967e-06
7.97667e-06
8.05718e-06
8.13603e-06
8.21808e-06
8.30442e-06
8.40109e-06
8.49009e-06
8.64099e-06
8.65753e-06
8.42509e-06
8.09094e-06
7.78336e-06
7.57275e-06
7.45519e-06
7.39483e-06
7.37157e-06
7.37479e-06
7.4194e-06
7.48909e-06
7.56077e-06
7.64158e-06
7.72579e-06
7.81236e-06
7.90314e-06
7.98487e-06
8.06091e-06
8.14162e-06
8.22845e-06
8.32166e-06
8.41707e-06
8.51253e-06
8.65361e-06
8.5331e-06
8.3126e-06
7.98269e-06
7.68043e-06
7.47243e-06
7.36002e-06
7.30497e-06
7.28841e-06
7.29646e-06
7.34451e-06
7.41514e-06
7.48939e-06
7.57062e-06
7.64991e-06
7.73384e-06
7.82718e-06
7.91198e-06
7.98694e-06
8.06577e-06
8.15196e-06
8.24547e-06
8.33562e-06
8.43829e-06
8.53564e-06
8.60963e-06
8.40324e-06
8.18322e-06
7.87158e-06
7.57838e-06
7.37878e-06
7.26552e-06
7.2125e-06
7.20122e-06
7.21732e-06
7.27018e-06
7.33946e-06
7.41649e-06
7.50096e-06
7.57857e-06
7.65762e-06
7.75028e-06
7.83787e-06
7.9144e-06
7.99087e-06
8.07577e-06
8.16907e-06
8.25754e-06
8.35503e-06
8.46141e-06
8.54962e-06
8.49433e-06
8.28052e-06
8.04652e-06
7.74304e-06
7.47301e-06
7.28365e-06
7.17426e-06
7.12066e-06
7.11365e-06
7.13576e-06
7.19423e-06
7.26327e-06
7.33942e-06
7.42875e-06
7.50925e-06
7.58552e-06
7.67374e-06
7.76257e-06
7.84224e-06
7.9184e-06
8.00043e-06
8.09291e-06
8.17964e-06
8.27454e-06
8.3779e-06
8.48115e-06
8.47953e-06
8.13567e-06
8.1854e-06
7.91449e-06
7.60839e-06
7.35201e-06
7.182e-06
7.07951e-06
7.02948e-06
7.02511e-06
7.05299e-06
7.1157e-06
7.18588e-06
7.26104e-06
7.35069e-06
7.43684e-06
7.51537e-06
7.59954e-06
7.68514e-06
7.76881e-06
7.84789e-06
7.92628e-06
8.0165e-06
8.10205e-06
8.19403e-06
8.2957e-06
8.40143e-06
8.44329e-06
8.30884e-06
7.50669e-06
8.10544e-06
7.81057e-06
7.47915e-06
7.22349e-06
7.06625e-06
6.97921e-06
6.93691e-06
6.93902e-06
6.97217e-06
7.03604e-06
7.10804e-06
7.18275e-06
7.2699e-06
7.35714e-06
7.44295e-06
7.52637e-06
7.6065e-06
7.69216e-06
7.77613e-06
7.85339e-06
7.93935e-06
8.02386e-06
8.11379e-06
8.21203e-06
8.31992e-06
8.40467e-06
8.32112e-06
7.83966e-06
6.61064e-06
8.04561e-06
7.7258e-06
7.37904e-06
7.10021e-06
6.94281e-06
6.8684e-06
6.84219e-06
6.85286e-06
6.89253e-06
6.95656e-06
7.02926e-06
7.10643e-06
7.18996e-06
7.27336e-06
7.36379e-06
7.45306e-06
7.52838e-06
7.61121e-06
7.70081e-06
7.78017e-06
7.86118e-06
7.94378e-06
8.03317e-06
8.12841e-06
8.23888e-06
8.34421e-06
8.30954e-06
7.99926e-06
6.83494e-06
6.35182e-06
8.04769e-06
7.66234e-06
7.29664e-06
7.00069e-06
6.82156e-06
6.75223e-06
6.74336e-06
6.76309e-06
6.80932e-06
6.87482e-06
6.94949e-06
7.02915e-06
7.11372e-06
7.19125e-06
7.28057e-06
7.3761e-06
7.4516e-06
7.52865e-06
7.62058e-06
7.70532e-06
7.78321e-06
7.8624e-06
7.95208e-06
8.04589e-06
8.15654e-06
8.27148e-06
8.26905e-06
8.12401e-06
7.04982e-06
6.61277e-06
7.19236e-06
8.65971e-06
7.6328e-06
7.22998e-06
6.92176e-06
6.7322e-06
6.6452e-06
6.64178e-06
6.66967e-06
6.71979e-06
6.79009e-06
6.86679e-06
6.94849e-06
7.0377e-06
7.11508e-06
7.19853e-06
7.29503e-06
7.376e-06
7.44852e-06
7.53735e-06
7.62812e-06
7.70675e-06
7.78107e-06
7.87128e-06
7.96595e-06
8.0721e-06
8.19232e-06
8.22215e-06
8.191e-06
7.34113e-06
6.90086e-06
7.55664e-06
7.79589e-06
1.06725e-05
8.30687e-06
7.23624e-06
6.87135e-06
6.66807e-06
6.56602e-06
6.54455e-06
6.57237e-06
6.62581e-06
6.70072e-06
6.78025e-06
6.86376e-06
6.95695e-06
7.04035e-06
7.12187e-06
7.21286e-06
7.29959e-06
7.37482e-06
7.45512e-06
7.54811e-06
7.6323e-06
7.70108e-06
7.7923e-06
7.88612e-06
7.98657e-06
8.10144e-06
8.15756e-06
8.22405e-06
7.71005e-06
7.30541e-06
7.75324e-06
7.93713e-06
7.91719e-06
1.36734e-05
1.02952e-05
7.87063e-06
6.91428e-06
6.63061e-06
6.5111e-06
6.46906e-06
6.47605e-06
6.52813e-06
6.61054e-06
6.68902e-06
6.77296e-06
6.87157e-06
6.9613e-06
7.04895e-06
7.13188e-06
7.2195e-06
7.30333e-06
7.37861e-06
7.46645e-06
7.55749e-06
7.62428e-06
7.71343e-06
7.80282e-06
7.89819e-06
7.99382e-06
8.10908e-06
8.26124e-06
8.17441e-06
7.79613e-06
7.95131e-06
7.98788e-06
7.9444e-06
7.8414e-06
1.49247e-05
1.33212e-05
9.85938e-06
7.45577e-06
6.6802e-06
6.47551e-06
6.41344e-06
6.39645e-06
6.4331e-06
6.51814e-06
6.59938e-06
6.67802e-06
6.77973e-06
6.87628e-06
6.97317e-06
7.05379e-06
7.136e-06
7.22738e-06
7.30708e-06
7.38496e-06
7.4784e-06
7.55065e-06
7.62955e-06
7.71703e-06
7.80083e-06
7.89492e-06
8.09287e-06
8.36716e-06
8.71748e-06
8.35961e-06
8.13213e-06
8.03071e-06
7.95599e-06
7.85322e-06
7.78169e-06
1.50653e-05
1.45765e-05
1.28964e-05
9.41778e-06
7.1925e-06
6.54244e-06
6.37664e-06
6.33942e-06
6.35334e-06
6.42666e-06
6.50994e-06
6.58701e-06
6.6859e-06
6.78444e-06
6.88965e-06
6.97551e-06
7.05092e-06
7.14226e-06
7.23576e-06
7.30639e-06
7.39363e-06
7.47444e-06
7.54286e-06
7.62771e-06
7.69418e-06
7.83791e-06
8.12815e-06
8.59622e-06
9.32284e-06
8.98566e-06
8.30496e-06
8.06413e-06
7.97083e-06
7.86354e-06
7.77086e-06
7.72803e-06
1.50309e-05
1.47252e-05
1.41831e-05
1.2362e-05
9.04757e-06
7.07663e-06
6.44195e-06
6.30641e-06
6.30023e-06
6.34577e-06
6.42152e-06
6.49919e-06
6.59768e-06
6.69156e-06
6.80032e-06
6.89168e-06
6.96929e-06
7.05281e-06
7.15412e-06
7.2311e-06
7.30275e-06
7.38781e-06
7.45679e-06
7.51771e-06
7.61914e-06
7.83106e-06
8.27384e-06
9.01939e-06
9.87624e-06
9.5602e-06
8.49216e-06
8.09783e-06
7.98637e-06
7.87743e-06
7.76921e-06
7.69763e-06
7.6469e-06
1.49673e-05
1.46814e-05
1.43376e-05
1.37044e-05
1.17732e-05
8.78386e-06
7.08015e-06
6.41378e-06
6.28016e-06
6.2975e-06
6.33882e-06
6.4128e-06
6.51639e-06
6.60357e-06
6.70839e-06
6.80401e-06
6.88812e-06
6.96535e-06
7.06009e-06
7.15346e-06
7.20726e-06
7.29543e-06
7.36032e-06
7.42843e-06
7.6018e-06
7.92017e-06
8.58231e-06
9.53788e-06
1.02657e-05
1.00169e-05
8.73556e-06
8.14352e-06
8.00443e-06
7.89285e-06
7.76534e-06
7.68105e-06
7.60363e-06
7.53802e-06
1.49278e-05
1.46201e-05
1.42913e-05
1.38581e-05
1.3146e-05
1.12099e-05
8.62526e-06
7.15505e-06
6.47345e-06
6.29754e-06
6.29294e-06
6.33132e-06
6.43663e-06
6.52472e-06
6.61876e-06
6.71273e-06
6.80304e-06
6.88188e-06
6.96204e-06
7.06129e-06
7.12207e-06
7.18304e-06
7.28079e-06
7.40175e-06
7.6533e-06
8.15189e-06
9.09277e-06
9.98136e-06
1.0468e-05
1.03203e-05
9.04851e-06
8.21756e-06
8.02658e-06
7.90911e-06
7.76993e-06
7.66309e-06
7.57911e-06
7.48425e-06
7.41839e-06
1.49063e-05
1.45786e-05
1.42457e-05
1.38205e-05
1.33068e-05
1.25533e-05
1.0701e-05
8.542e-06
7.31412e-06
6.61598e-06
6.32678e-06
6.29711e-06
6.36023e-06
6.45187e-06
6.53948e-06
6.62104e-06
6.71509e-06
6.79837e-06
6.87165e-06
6.96355e-06
7.04431e-06
7.09127e-06
7.2631e-06
7.41132e-06
7.86258e-06
8.66564e-06
9.58568e-06
1.02222e-05
1.05383e-05
1.048e-05
9.41837e-06
8.32732e-06
8.05421e-06
7.92612e-06
7.77447e-06
7.64705e-06
7.55142e-06
7.45445e-06
7.35522e-06
7.30159e-06
1.48937e-05
1.45503e-05
1.42053e-05
1.37856e-05
1.3288e-05
1.27308e-05
1.20414e-05
1.02673e-05
8.50414e-06
7.56478e-06
6.85251e-06
6.4338e-06
6.34996e-06
6.40055e-06
6.49185e-06
6.54797e-06
6.63208e-06
6.72164e-06
6.80514e-06
6.87526e-06
6.99605e-06
7.07264e-06
7.31651e-06
7.66115e-06
8.37454e-06
9.21299e-06
9.87422e-06
1.02866e-05
1.0549e-05
1.05414e-05
9.80007e-06
8.49328e-06
8.09043e-06
7.94373e-06
7.7808e-06
7.63317e-06
7.52487e-06
7.42114e-06
7.32025e-06
7.23069e-06
7.19048e-06
1.48851e-05
1.45277e-05
1.41742e-05
1.37431e-05
1.32399e-05
1.27418e-05
1.22467e-05
1.16199e-05
9.85158e-06
8.48252e-06
7.86702e-06
7.21242e-06
6.72635e-06
6.4984e-06
6.48252e-06
6.54413e-06
6.5926e-06
6.67515e-06
6.77115e-06
6.85101e-06
6.98167e-06
7.16606e-06
7.5859e-06
8.21365e-06
8.96166e-06
9.56598e-06
9.95957e-06
1.03005e-05
1.05303e-05
1.05542e-05
1.01297e-05
8.72948e-06
8.14109e-06
7.96272e-06
7.78666e-06
7.62283e-06
7.49864e-06
7.3893e-06
7.28145e-06
7.19119e-06
7.11466e-06
7.08388e-06
1.48847e-05
1.45126e-05
1.41575e-05
1.37159e-05
1.31957e-05
1.26798e-05
1.22682e-05
1.1891e-05
1.12255e-05
9.45256e-06
8.46838e-06
8.11984e-06
7.70355e-06
7.23022e-06
6.93063e-06
6.77709e-06
6.74655e-06
6.71855e-06
6.92841e-06
6.98896e-06
7.29552e-06
7.68134e-06
8.25618e-06
8.83193e-06
9.33157e-06
9.68106e-06
9.95973e-06
1.02304e-05
1.04776e-05
1.05495e-05
1.03632e-05
9.04093e-06
8.21404e-06
7.98447e-06
7.79145e-06
7.61199e-06
7.47349e-06
7.35752e-06
7.24462e-06
7.14734e-06
7.07216e-06
7.0037e-06
6.99145e-06
1.48909e-05
1.45091e-05
1.41494e-05
1.37017e-05
1.31658e-05
1.26386e-05
1.21973e-05
1.18904e-05
1.16202e-05
1.08363e-05
9.06538e-06
8.42482e-06
8.24694e-06
8.09737e-06
7.88524e-06
7.63021e-06
7.47389e-06
7.44834e-06
7.56269e-06
7.71264e-06
8.03514e-06
8.4088e-06
8.82798e-06
9.16871e-06
9.43673e-06
9.68288e-06
9.91585e-06
1.01691e-05
1.04093e-05
1.05425e-05
1.04934e-05
9.40812e-06
8.31994e-06
8.01116e-06
7.795e-06
7.60646e-06
7.44973e-06
7.32606e-06
7.20813e-06
7.10578e-06
7.02482e-06
6.95884e-06
6.90549e-06
6.96507e-06
1.48878e-05
1.45062e-05
1.41496e-05
1.37031e-05
1.31534e-05
1.26093e-05
1.21589e-05
1.18364e-05
1.16456e-05
1.13959e-05
1.04047e-05
8.73103e-06
8.34094e-06
8.26162e-06
8.26062e-06
8.24818e-06
8.2364e-06
8.26147e-06
8.32334e-06
8.44209e-06
8.62784e-06
8.84072e-06
9.05586e-06
9.2313e-06
9.45744e-06
9.63942e-06
9.8597e-06
1.00878e-05
1.03397e-05
1.05299e-05
1.05499e-05
9.78528e-06
8.47166e-06
8.04576e-06
7.79705e-06
7.60183e-06
7.42788e-06
7.29493e-06
7.17215e-06
7.06494e-06
6.97983e-06
6.90878e-06
6.85779e-06
6.86279e-06
7.08793e-06
1.489e-05
1.44958e-05
1.41406e-05
1.36938e-05
1.31546e-05
1.26007e-05
1.21333e-05
1.18027e-05
1.16026e-05
1.14446e-05
1.12033e-05
9.90157e-06
8.48291e-06
8.26649e-06
8.24954e-06
8.29685e-06
8.36267e-06
8.47832e-06
8.57971e-06
8.66643e-06
8.77922e-06
8.91375e-06
9.06235e-06
9.21165e-06
9.38585e-06
9.58168e-06
9.7857e-06
1.00155e-05
1.02692e-05
1.04989e-05
1.0567e-05
1.01155e-05
8.68148e-06
8.09237e-06
7.79634e-06
7.59902e-06
7.40839e-06
7.26433e-06
7.13654e-06
7.02495e-06
6.93551e-06
6.8612e-06
6.80442e-06
6.80641e-06
6.95788e-06
7.42617e-06
1.48944e-05
1.44964e-05
1.41352e-05
1.36813e-05
1.31368e-05
1.2593e-05
1.21202e-05
1.17805e-05
1.1569e-05
1.14216e-05
1.13075e-05
1.09496e-05
9.38311e-06
8.28709e-06
8.20047e-06
8.21454e-06
8.2888e-06
8.4187e-06
8.56066e-06
8.67249e-06
8.76579e-06
8.88049e-06
9.01188e-06
9.16415e-06
9.32797e-06
9.50969e-06
9.71816e-06
9.9483e-06
1.02005e-05
1.04561e-05
1.05711e-05
1.03573e-05
8.95532e-06
8.15426e-06
7.79671e-06
7.59628e-06
7.39155e-06
7.23448e-06
7.10133e-06
6.98567e-06
6.89225e-06
6.81425e-06
6.75381e-06
6.7439e-06
6.88663e-06
7.26605e-06
7.92068e-06
1.48991e-05
1.4497e-05
1.41351e-05
1.36735e-05
1.31293e-05
1.25782e-05
1.21119e-05
1.17776e-05
1.1543e-05
1.14012e-05
1.12955e-05
1.11754e-05
1.06299e-05
8.89177e-06
8.18221e-06
8.16865e-06
8.21682e-06
8.30836e-06
8.45695e-06
8.58352e-06
8.69815e-06
8.81558e-06
8.94293e-06
9.08916e-06
9.25561e-06
9.44405e-06
9.65394e-06
9.88484e-06
1.01343e-05
1.03992e-05
1.05689e-05
1.05032e-05
9.27625e-06
8.23394e-06
7.81181e-06
7.5916e-06
7.37538e-06
7.20593e-06
7.06647e-06
6.94689e-06
6.85002e-06
6.7684e-06
6.70392e-06
6.68515e-06
6.80804e-06
7.17676e-06
7.74356e-06
8.47466e-06
1.49077e-05
1.44973e-05
1.41337e-05
1.36697e-05
1.3125e-05
1.25757e-05
1.21035e-05
1.17833e-05
1.15317e-05
1.13888e-05
1.12688e-05
1.11842e-05
1.10815e-05
1.01514e-05
8.5386e-06
8.16616e-06
8.18972e-06
8.23629e-06
8.37006e-06
8.50963e-06
8.62816e-06
8.74802e-06
8.877e-06
9.02545e-06
9.19248e-06
9.38099e-06
9.59193e-06
9.82278e-06
1.00695e-05
1.03361e-05
1.05507e-05
1.05733e-05
9.60915e-06
8.35642e-06
7.83999e-06
7.58273e-06
7.36156e-06
7.17889e-06
7.03234e-06
6.9085e-06
6.80857e-06
6.72365e-06
6.65519e-06
6.62767e-06
6.73432e-06
7.07795e-06
7.6435e-06
8.29163e-06
9.02499e-06
1.49205e-05
1.45089e-05
1.41394e-05
1.36663e-05
1.31146e-05
1.25716e-05
1.21016e-05
1.17799e-05
1.15268e-05
1.13853e-05
1.12459e-05
1.11713e-05
1.1123e-05
1.09421e-05
9.54077e-06
8.36401e-06
8.21244e-06
8.1964e-06
8.29022e-06
8.43271e-06
8.56194e-06
8.68599e-06
8.81452e-06
8.96278e-06
9.13075e-06
9.31925e-06
9.52976e-06
9.76076e-06
1.00056e-05
1.02694e-05
1.0512e-05
1.05992e-05
9.90941e-06
8.52585e-06
7.8762e-06
7.56816e-06
7.34822e-06
7.15377e-06
6.99903e-06
6.87044e-06
6.76787e-06
6.67996e-06
6.60767e-06
6.57193e-06
6.6626e-06
6.98456e-06
7.53195e-06
8.18762e-06
8.8421e-06
9.54299e-06
1.49242e-05
1.45159e-05
1.41529e-05
1.36769e-05
1.31164e-05
1.25603e-05
1.20989e-05
1.1779e-05
1.15256e-05
1.13908e-05
1.1235e-05
1.11568e-05
1.11151e-05
1.10833e-05
1.06399e-05
8.90181e-06
8.23814e-06
8.18446e-06
8.22513e-06
8.35081e-06
8.49166e-06
8.62494e-06
8.75356e-06
8.90038e-06
9.06788e-06
9.25656e-06
9.46705e-06
9.6984e-06
9.94214e-06
1.02019e-05
1.04591e-05
1.06078e-05
1.01385e-05
8.74608e-06
7.9272e-06
7.55447e-06
7.33521e-06
7.13082e-06
6.96686e-06
6.83275e-06
6.72762e-06
6.63734e-06
6.56124e-06
6.51794e-06
6.5935e-06
6.89307e-06
7.4255e-06
8.07128e-06
8.73814e-06
9.36351e-06
1.00131e-05
1.49237e-05
1.45174e-05
1.41615e-05
1.36875e-05
1.31279e-05
1.25653e-05
1.21002e-05
1.17738e-05
1.15304e-05
1.14005e-05
1.12297e-05
1.11535e-05
1.11021e-05
1.10899e-05
1.10197e-05
1.00821e-05
8.4227e-06
8.17981e-06
8.18377e-06
8.27259e-06
8.41298e-06
8.55971e-06
8.69135e-06
8.837e-06
9.00399e-06
9.19288e-06
9.40341e-06
9.63548e-06
9.87909e-06
1.01347e-05
1.0396e-05
1.06087e-05
1.02795e-05
9.00752e-06
7.99605e-06
7.5474e-06
7.32182e-06
7.10967e-06
6.93605e-06
6.79558e-06
6.68773e-06
6.59566e-06
6.51613e-06
6.4657e-06
6.52687e-06
6.80448e-06
7.3203e-06
7.95976e-06
8.6217e-06
9.26111e-06
9.83857e-06
1.04276e-05
1.49199e-05
1.45095e-05
1.41639e-05
1.36963e-05
1.31377e-05
1.25683e-05
1.21099e-05
1.17639e-05
1.15337e-05
1.14017e-05
1.12319e-05
1.11548e-05
1.10908e-05
1.10876e-05
1.10596e-05
1.08747e-05
9.34889e-06
8.20291e-06
8.16911e-06
8.21887e-06
8.33101e-06
8.48911e-06
8.62724e-06
8.77266e-06
8.93889e-06
9.12838e-06
9.33929e-06
9.57212e-06
9.81616e-06
1.00674e-05
1.03273e-05
1.05634e-05
1.03445e-05
9.28442e-06
8.08674e-06
7.53522e-06
7.3066e-06
7.08971e-06
6.90666e-06
6.75924e-06
6.64806e-06
6.55471e-06
6.47228e-06
6.4151e-06
6.4628e-06
6.71864e-06
7.2174e-06
7.84902e-06
8.50994e-06
9.14682e-06
9.73876e-06
1.02584e-05
1.07862e-05
1.492e-05
1.44862e-05
1.41533e-05
1.36974e-05
1.31478e-05
1.25697e-05
1.21153e-05
1.17503e-05
1.1545e-05
1.13966e-05
1.1237e-05
1.1151e-05
1.10864e-05
1.1074e-05
1.10637e-05
1.10436e-05
1.04535e-05
8.72206e-06
8.18962e-06
8.19829e-06
8.25678e-06
8.41138e-06
8.56025e-06
8.70773e-06
8.87321e-06
9.06314e-06
9.27459e-06
9.50822e-06
9.75284e-06
1.00002e-05
1.0254e-05
1.05042e-05
1.03655e-05
9.54e-06
8.21059e-06
7.55793e-06
7.2871e-06
7.07017e-06
6.87874e-06
6.72404e-06
6.60875e-06
6.51428e-06
6.42973e-06
6.36622e-06
6.40116e-06
6.63567e-06
7.11667e-06
7.74008e-06
8.39885e-06
9.03711e-06
9.6276e-06
1.01614e-05
1.06218e-05
1.1093e-05
1.49259e-05
1.4473e-05
1.41316e-05
1.36844e-05
1.31514e-05
1.25753e-05
1.21205e-05
1.17439e-05
1.15553e-05
1.13837e-05
1.12374e-05
1.11491e-05
1.10856e-05
1.10659e-05
1.10526e-05
1.10561e-05
1.09674e-05
9.70129e-06
8.36623e-06
8.20004e-06
8.206e-06
8.32752e-06
8.48803e-06
8.64196e-06
8.80714e-06
8.99709e-06
9.20928e-06
9.44381e-06
9.68894e-06
9.93257e-06
1.01777e-05
1.0421e-05
1.03703e-05
9.74148e-06
8.3812e-06
7.59022e-06
7.26506e-06
7.05023e-06
6.85238e-06
6.69025e-06
6.56987e-06
6.47408e-06
6.38831e-06
6.31916e-06
6.34182e-06
6.55566e-06
7.01838e-06
7.63286e-06
8.28951e-06
8.92824e-06
9.52115e-06
1.00535e-05
1.05271e-05
1.09325e-05
1.13543e-05
1.49436e-05
1.44689e-05
1.41193e-05
1.36661e-05
1.31513e-05
1.25758e-05
1.213e-05
1.17449e-05
1.15615e-05
1.1368e-05
1.12316e-05
1.11392e-05
1.1086e-05
1.10626e-05
1.10425e-05
1.10556e-05
1.10519e-05
1.06619e-05
8.88789e-06
8.2265e-06
8.18464e-06
8.24849e-06
8.40902e-06
8.57422e-06
8.74088e-06
8.93017e-06
9.14327e-06
9.37864e-06
9.62402e-06
9.86411e-06
1.00986e-05
1.03264e-05
1.03452e-05
9.86987e-06
8.58795e-06
7.63583e-06
7.23989e-06
7.02957e-06
6.82748e-06
6.65801e-06
6.53185e-06
6.43404e-06
6.34782e-06
6.27389e-06
6.28466e-06
6.47882e-06
6.92274e-06
7.5277e-06
8.18178e-06
8.82119e-06
9.41569e-06
9.95055e-06
1.04223e-05
1.08395e-05
1.11967e-05
1.15775e-05
1.49681e-05
1.44736e-05
1.41093e-05
1.3649e-05
1.31394e-05
1.25765e-05
1.21246e-05
1.17569e-05
1.15661e-05
1.13556e-05
1.12303e-05
1.11227e-05
1.1085e-05
1.10605e-05
1.10343e-05
1.10392e-05
1.10593e-05
1.10084e-05
9.91001e-06
8.37594e-06
8.17944e-06
8.19431e-06
8.32535e-06
8.50279e-06
8.67444e-06
8.86244e-06
9.07614e-06
9.31272e-06
9.55798e-06
9.79401e-06
1.0017e-05
1.02281e-05
1.03105e-05
9.92968e-06
8.81411e-06
7.6975e-06
7.22116e-06
7.00816e-06
6.80377e-06
6.62725e-06
6.49497e-06
6.39411e-06
6.30794e-06
6.23038e-06
6.22952e-06
6.40513e-06
6.82994e-06
7.42473e-06
8.076e-06
8.71593e-06
9.31231e-06
9.84878e-06
1.03225e-05
1.07373e-05
1.11051e-05
1.14217e-05
1.17692e-05
1.49809e-05
1.44893e-05
1.41153e-05
1.36325e-05
1.31249e-05
1.25719e-05
1.21117e-05
1.17723e-05
1.15781e-05
1.13511e-05
1.12275e-05
1.11076e-05
1.10823e-05
1.10553e-05
1.10291e-05
1.1023e-05
1.10482e-05
1.10515e-05
1.07506e-05
9.00049e-06
8.20502e-06
8.17525e-06
8.24596e-06
8.42531e-06
8.60683e-06
8.79402e-06
9.00777e-06
9.24587e-06
9.49057e-06
9.72195e-06
9.93252e-06
1.01244e-05
1.02293e-05
9.94362e-06
9.02802e-06
7.77743e-06
7.21573e-06
6.98539e-06
6.78068e-06
6.59774e-06
6.45949e-06
6.35465e-06
6.26843e-06
6.18833e-06
6.17663e-06
6.33473e-06
6.74027e-06
7.32428e-06
7.97224e-06
8.61272e-06
9.21087e-06
9.74927e-06
1.0224e-05
1.06399e-05
1.10045e-05
1.13307e-05
1.16145e-05
1.19357e-05
1.49856e-05
1.44985e-05
1.41324e-05
1.36449e-05
1.31248e-05
1.257e-05
1.2105e-05
1.1782e-05
1.15797e-05
1.13494e-05
1.12272e-05
1.1095e-05
1.10726e-05
1.10456e-05
1.10234e-05
1.10111e-05
1.10306e-05
1.10552e-05
1.10215e-05
9.98079e-06
8.42814e-06
8.17423e-06
8.18817e-06
8.34104e-06
8.53603e-06
8.72517e-06
8.93804e-06
9.17799e-06
9.42154e-06
9.64746e-06
9.84446e-06
1.00166e-05
1.0131e-05
9.94319e-06
9.20036e-06
7.89156e-06
7.21168e-06
6.95984e-06
6.75735e-06
6.56929e-06
6.4256e-06
6.31597e-06
6.22913e-06
6.14755e-06
6.1263e-06
6.26756e-06
6.65382e-06
7.22658e-06
7.87075e-06
8.5117e-06
9.1117e-06
9.65184e-06
1.01279e-05
1.05441e-05
1.0909e-05
1.12313e-05
1.15235e-05
1.17812e-05
1.20821e-05
1.49825e-05
1.45029e-05
1.41425e-05
1.36671e-05
1.31341e-05
1.25713e-05
1.21005e-05
1.17841e-05
1.15736e-05
1.13661e-05
1.12262e-05
1.10906e-05
1.10667e-05
1.10332e-05
1.1017e-05
1.10034e-05
1.10131e-05
1.10373e-05
1.10521e-05
1.0763e-05
8.96727e-06
8.21881e-06
8.16431e-06
8.25612e-06
8.45942e-06
8.65581e-06
8.86687e-06
9.10874e-06
9.35077e-06
9.57002e-06
9.75243e-06
9.90578e-06
1.00175e-05
9.91101e-06
9.30938e-06
8.04226e-06
7.24492e-06
6.93043e-06
6.73333e-06
6.54173e-06
6.39325e-06
6.27845e-06
6.19017e-06
6.10761e-06
6.07848e-06
6.20358e-06
6.57078e-06
7.1317e-06
7.77172e-06
8.41303e-06
9.01481e-06
9.55694e-06
1.00342e-05
1.04508e-05
1.08151e-05
1.11371e-05
1.14249e-05
1.169e-05
1.19272e-05
1.2213e-05
1.49781e-05
1.44953e-05
1.41522e-05
1.36851e-05
1.31499e-05
1.25816e-05
1.21002e-05
1.17818e-05
1.15663e-05
1.13816e-05
1.12246e-05
1.10966e-05
1.10651e-05
1.10231e-05
1.10104e-05
1.09979e-05
1.10033e-05
1.10216e-05
1.10512e-05
1.10245e-05
9.90606e-06
8.38068e-06
8.162e-06
8.18693e-06
8.375e-06
8.58517e-06
8.79504e-06
9.03745e-06
9.27819e-06
9.4889e-06
9.65687e-06
9.79161e-06
9.89694e-06
9.86493e-06
9.3563e-06
8.21831e-06
7.27583e-06
6.90029e-06
6.70854e-06
6.51505e-06
6.36232e-06
6.24245e-06
6.15175e-06
6.06832e-06
6.03294e-06
6.1428e-06
6.49113e-06
7.03992e-06
7.67529e-06
8.31686e-06
8.92054e-06
9.46451e-06
9.94304e-06
1.03601e-05
1.07239e-05
1.10445e-05
1.13312e-05
1.15915e-05
1.18353e-05
1.2057e-05
1.23318e-05
1.49851e-05
1.44943e-05
1.41495e-05
1.37016e-05
1.31611e-05
1.2597e-05
1.21046e-05
1.17703e-05
1.15523e-05
1.13895e-05
1.12255e-05
1.11127e-05
1.10702e-05
1.10167e-05
1.1004e-05
1.09945e-05
1.09997e-05
1.10099e-05
1.10385e-05
1.1061e-05
1.06915e-05
8.88292e-06
8.18934e-06
8.15161e-06
8.28443e-06
8.51116e-06
8.72303e-06
8.96372e-06
9.20376e-06
9.40317e-06
9.55778e-06
9.67363e-06
9.77093e-06
9.78113e-06
9.36275e-06
8.40054e-06
7.32287e-06
6.87764e-06
6.68345e-06
6.48905e-06
6.33249e-06
6.20817e-06
6.11435e-06
6.02944e-06
5.98927e-06
6.08531e-06
6.41495e-06
6.95124e-06
7.58162e-06
8.22344e-06
8.82903e-06
9.3749e-06
9.8546e-06
1.02719e-05
1.06354e-05
1.09547e-05
1.12393e-05
1.14979e-05
1.17365e-05
1.19642e-05
1.21744e-05
1.24421e-05
1.49995e-05
1.44951e-05
1.4162e-05
1.3712e-05
1.317e-05
1.26014e-05
1.21041e-05
1.17614e-05
1.15467e-05
1.13934e-05
1.12202e-05
1.11287e-05
1.10749e-05
1.10103e-05
1.09995e-05
1.09921e-05
1.09981e-05
1.10065e-05
1.10237e-05
1.1063e-05
1.09992e-05
9.73733e-06
8.31698e-06
8.14595e-06
8.199e-06
8.43108e-06
8.65101e-06
8.88726e-06
9.12652e-06
9.31381e-06
9.45491e-06
9.55216e-06
9.64122e-06
9.67846e-06
9.34927e-06
8.55586e-06
7.38223e-06
6.86897e-06
6.65776e-06
6.46325e-06
6.30352e-06
6.17549e-06
6.07844e-06
5.9912e-06
5.94705e-06
6.03104e-06
6.34229e-06
6.86578e-06
7.49081e-06
8.13285e-06
8.74041e-06
9.28815e-06
9.76901e-06
1.01866e-05
1.05495e-05
1.08674e-05
1.11502e-05
1.14062e-05
1.16426e-05
1.18646e-05
1.20802e-05
1.22826e-05
1.25462e-05
1.50091e-05
1.45066e-05
1.41755e-05
1.37228e-05
1.3164e-05
1.25981e-05
1.20972e-05
1.17579e-05
1.15474e-05
1.13883e-05
1.12065e-05
1.11382e-05
1.10795e-05
1.10167e-05
1.09984e-05
1.09882e-05
1.09978e-05
1.10075e-05
1.10113e-05
1.10543e-05
1.10526e-05
1.05663e-05
8.69623e-06
8.15045e-06
8.13981e-06
8.34294e-06
8.57794e-06
8.8088e-06
9.04486e-06
9.22174e-06
9.34659e-06
9.42815e-06
9.50886e-06
9.55674e-06
9.31716e-06
8.66172e-06
7.47926e-06
6.86828e-06
6.62994e-06
6.43704e-06
6.27526e-06
6.14443e-06
6.04424e-06
5.95384e-06
5.90582e-06
5.9796e-06
6.27341e-06
6.78356e-06
7.40302e-06
8.0453e-06
8.65496e-06
9.20445e-06
9.6865e-06
1.01043e-05
1.04665e-05
1.07831e-05
1.10639e-05
1.13173e-05
1.15507e-05
1.17701e-05
1.19798e-05
1.21868e-05
1.23841e-05
1.26467e-05
1.50174e-05
1.45112e-05
1.41933e-05
1.3729e-05
1.31536e-05
1.2578e-05
1.20888e-05
1.17633e-05
1.15583e-05
1.13814e-05
1.11968e-05
1.11506e-05
1.10809e-05
1.10227e-05
1.09997e-05
1.09841e-05
1.09909e-05
1.10088e-05
1.10062e-05
1.10382e-05
1.1056e-05
1.09741e-05
9.41881e-06
8.23382e-06
8.11848e-06
8.25001e-06
8.50173e-06
8.72948e-06
8.95701e-06
9.12723e-06
9.23268e-06
9.30207e-06
9.37327e-06
9.42762e-06
9.27572e-06
8.71204e-06
7.60258e-06
6.88399e-06
6.59877e-06
6.41009e-06
6.2477e-06
6.11482e-06
6.01196e-06
5.91783e-06
5.86542e-06
5.93052e-06
6.20844e-06
6.70478e-06
7.31827e-06
7.96101e-06
8.57286e-06
9.12422e-06
9.60719e-06
1.00251e-05
1.03866e-05
1.07017e-05
1.09804e-05
1.12314e-05
1.14616e-05
1.16775e-05
1.18841e-05
1.20848e-05
1.22864e-05
1.24814e-05
1.27456e-05
1.50183e-05
1.451e-05
1.42013e-05
1.37396e-05
1.31441e-05
1.25491e-05
1.20763e-05
1.17658e-05
1.1575e-05
1.1366e-05
1.1193e-05
1.11443e-05
1.10776e-05
1.10285e-05
1.1001e-05
1.09826e-05
1.09852e-05
1.10039e-05
1.10044e-05
1.1022e-05
1.10529e-05
1.10699e-05
1.02725e-05
8.48959e-06
8.11498e-06
8.16647e-06
8.41906e-06
8.64894e-06
8.8649e-06
9.02987e-06
9.11414e-06
9.17342e-06
9.23479e-06
9.29145e-06
9.19831e-06
8.71445e-06
7.74366e-06
6.903e-06
6.56994e-06
6.38315e-06
6.22113e-06
6.08646e-06
5.98139e-06
5.88352e-06
5.82598e-06
5.88315e-06
6.14724e-06
6.62986e-06
7.23669e-06
7.88012e-06
8.49451e-06
9.04768e-06
9.53156e-06
9.94935e-06
1.03098e-05
1.06233e-05
1.08999e-05
1.11482e-05
1.13755e-05
1.15879e-05
1.17906e-05
1.19879e-05
1.21828e-05
1.23815e-05
1.25763e-05
1.28449e-05
1.50199e-05
1.45008e-05
1.4196e-05
1.37351e-05
1.31347e-05
1.25284e-05
1.20635e-05
1.17734e-05
1.1583e-05
1.13564e-05
1.11933e-05
1.1137e-05
1.10648e-05
1.10302e-05
1.10079e-05
1.09832e-05
1.09768e-05
1.09974e-05
1.10031e-05
1.10131e-05
1.10308e-05
1.10768e-05
1.08312e-05
9.04665e-06
8.14332e-06
8.11411e-06
8.32799e-06
8.56583e-06
8.7692e-06
8.92511e-06
8.99169e-06
9.0418e-06
9.09348e-06
9.15008e-06
9.10334e-06
8.69964e-06
7.8818e-06
6.93222e-06
6.54915e-06
6.35725e-06
6.19544e-06
6.05924e-06
5.95231e-06
5.85105e-06
5.78789e-06
5.83722e-06
6.0894e-06
6.55932e-06
7.15868e-06
7.80284e-06
8.42041e-06
8.97533e-06
9.45984e-06
9.87711e-06
1.02363e-05
1.05481e-05
1.08225e-05
1.10681e-05
1.12922e-05
1.15013e-05
1.17001e-05
1.18931e-05
1.2084e-05
1.22756e-05
1.24739e-05
1.2671e-05
1.29465e-05
1.50156e-05
1.44874e-05
1.41771e-05
1.3722e-05
1.31191e-05
1.25241e-05
1.20653e-05
1.17884e-05
1.15838e-05
1.13486e-05
1.12035e-05
1.11327e-05
1.10555e-05
1.10292e-05
1.10123e-05
1.09858e-05
1.09737e-05
1.09878e-05
1.10007e-05
1.10095e-05
1.10106e-05
1.10717e-05
1.10335e-05
9.85192e-06
8.28099e-06
8.0969e-06
8.23121e-06
8.47729e-06
8.67101e-06
8.81393e-06
8.86701e-06
8.90667e-06
8.94929e-06
9.00534e-06
8.99001e-06
8.66036e-06
7.99137e-06
6.97852e-06
6.54064e-06
6.33182e-06
6.1702e-06
6.03278e-06
5.92446e-06
5.82032e-06
5.75162e-06
5.79285e-06
6.03449e-06
6.49363e-06
7.08506e-06
7.72941e-06
8.35101e-06
8.90783e-06
9.39217e-06
9.80835e-06
1.01661e-05
1.04761e-05
1.07483e-05
1.09911e-05
1.1212e-05
1.14177e-05
1.16126e-05
1.18015e-05
1.19878e-05
1.21749e-05
1.23656e-05
1.25655e-05
1.2767e-05
1.30525e-05
1.50095e-05
1.4459e-05
1.416e-05
1.37029e-05
1.31081e-05
1.25299e-05
1.20848e-05
1.18032e-05
1.15742e-05
1.13387e-05
1.12154e-05
1.1132e-05
1.10522e-05
1.10264e-05
1.10119e-05
1.09923e-05
1.09732e-05
1.09812e-05
1.09944e-05
1.10078e-05
1.09999e-05
1.10614e-05
1.10706e-05
1.05739e-05
8.6428e-06
8.09355e-06
8.1423e-06
8.38058e-06
8.57123e-06
8.69606e-06
8.7387e-06
8.76817e-06
8.80284e-06
8.85847e-06
8.86377e-06
8.61364e-06
8.06068e-06
7.05732e-06
6.53832e-06
6.30568e-06
6.14493e-06
6.00694e-06
5.89761e-06
5.79126e-06
5.71766e-06
5.7506e-06
5.98227e-06
6.43262e-06
7.01683e-06
7.66015e-06
8.28701e-06
8.84508e-06
9.32862e-06
9.74379e-06
1.0101e-05
1.041e-05
1.06792e-05
1.09185e-05
1.11359e-05
1.13375e-05
1.1528e-05
1.17128e-05
1.18946e-05
1.20767e-05
1.22625e-05
1.24543e-05
1.26582e-05
1.28662e-05
1.31645e-05
1.50124e-05
1.44353e-05
1.41423e-05
1.36847e-05
1.31081e-05
1.25399e-05
1.21085e-05
1.18219e-05
1.15628e-05
1.13251e-05
1.12292e-05
1.11345e-05
1.10548e-05
1.10224e-05
1.10113e-05
1.09992e-05
1.09842e-05
1.09795e-05
1.09852e-05
1.10073e-05
1.09968e-05
1.10384e-05
1.10734e-05
1.09635e-05
9.26992e-06
8.14786e-06
8.08181e-06
8.27617e-06
8.46825e-06
8.57241e-06
8.60683e-06
8.62651e-06
8.65431e-06
8.7098e-06
8.73145e-06