/*--------------------------------*- C++ -*----------------------------------*\
| =========                 |                                                 |
| \\      /  F ield         | OpenFOAM: The Open Source CFD Toolbox           |
|  \\    /   O peration     | Version:  v2012                                 |
|   \\  /    A nd           | Website:  www.openfoam.com                      |
|    \\/     M anipulation  |                                                 |
\*---------------------------------------------------------------------------*/
FoamFile
{
    version     2.0;
    format      ascii;
    class       volScalarField;
    location    "600";
    object      nut;
}
// * * * * * * * * * * * * * * * * * * * * * * * * * * * * * * * * * * * * * //

dimensions      [0 2 -1 0 0 0 0];


internalField   nonuniform List<scalar> 
27324
(
1.45473e-05
1.35839e-05
3.64414e-05
1.26958e-05
3.51575e-05
3.82236e-05
1.18452e-05
3.38448e-05
3.63783e-05
2.56024e-05
1.10514e-05
3.24914e-05
3.45593e-05
2.40198e-05
1.36268e-05
1.0308e-05
3.11615e-05
3.27401e-05
2.25285e-05
1.26542e-05
6.5965e-06
9.61014e-06
2.9863e-05
3.09885e-05
2.10677e-05
1.17666e-05
6.08314e-06
3.03886e-06
8.95111e-06
2.8594e-05
2.9309e-05
1.96818e-05
1.09141e-05
5.62278e-06
2.7839e-06
1.334e-06
8.32746e-06
2.73393e-05
2.77012e-05
1.83605e-05
1.01138e-05
5.18576e-06
2.55645e-06
1.21248e-06
5.57545e-07
7.74016e-06
2.60817e-05
2.61472e-05
1.70999e-05
9.34664e-06
4.77649e-06
2.34201e-06
1.10509e-06
5.03368e-07
2.26256e-07
7.19644e-06
2.48173e-05
2.46275e-05
1.58872e-05
8.61071e-06
4.38137e-06
2.14188e-06
1.00506e-06
4.56113e-07
2.04151e-07
9.48069e-08
6.70208e-06
2.35744e-05
2.31342e-05
1.47199e-05
7.90308e-06
4.00003e-06
1.94883e-06
9.12523e-07
4.12699e-07
1.8517e-07
8.63931e-08
4.39194e-08
6.25696e-06
2.2384e-05
2.16778e-05
1.36091e-05
7.23286e-06
3.6338e-06
1.76318e-06
8.23817e-07
3.73013e-07
1.6794e-07
7.92564e-08
4.07584e-08
2.30634e-08
5.85238e-06
2.12626e-05
2.02717e-05
1.25595e-05
6.61659e-06
3.29151e-06
1.58645e-06
7.39167e-07
3.35416e-07
1.52376e-07
7.28149e-08
3.80899e-08
2.1784e-08
1.33098e-08
5.47306e-06
2.01867e-05
1.89152e-05
1.15772e-05
6.05207e-06
2.98473e-06
1.42344e-06
6.59567e-07
3.00011e-07
1.37804e-07
6.70368e-08
3.56581e-08
2.06972e-08
1.27116e-08
8.07217e-09
5.10622e-06
1.90972e-05
1.75856e-05
1.06444e-05
5.53676e-06
2.71008e-06
1.27988e-06
5.8724e-07
2.673e-07
1.24251e-07
6.16609e-08
3.34659e-08
1.9681e-08
1.21951e-08
7.74876e-09
4.99193e-09
4.74845e-06
1.79508e-05
1.6258e-05
9.74278e-06
5.04586e-06
2.4628e-06
1.15305e-06
5.24732e-07
2.38095e-07
1.11911e-07
5.66878e-08
3.14151e-08
1.87484e-08
1.1696e-08
7.46409e-09
4.79983e-09
3.11434e-09
4.40607e-06
1.67529e-05
1.49352e-05
8.86814e-06
4.57029e-06
2.22586e-06
1.0399e-06
4.70472e-07
2.13283e-07
1.01024e-07
5.2183e-08
2.95036e-08
1.78617e-08
1.12279e-08
7.18217e-09
4.62818e-09
2.99556e-09
1.96413e-09
4.08822e-06
1.55564e-05
1.365e-05
8.03387e-06
4.11123e-06
1.99536e-06
9.31783e-07
4.22704e-07
1.9205e-07
9.18411e-08
4.81997e-08
2.77514e-08
1.70196e-08
1.07749e-08
6.91339e-09
4.45592e-09
2.88863e-09
1.89032e-09
1.2656e-09
3.79757e-06
1.44139e-05
1.24467e-05
7.25605e-06
3.68482e-06
1.77404e-06
8.27477e-07
3.77525e-07
1.73522e-07
8.40239e-08
4.48089e-08
2.61736e-08
1.6228e-08
1.0337e-08
6.65124e-09
4.29047e-09
2.78075e-09
1.82388e-09
1.22008e-09
8.4571e-10
3.52878e-06
1.33309e-05
1.13365e-05
6.539e-06
3.29633e-06
1.57443e-06
7.29544e-07
3.3467e-07
1.56189e-07
7.72078e-08
4.18915e-08
2.47921e-08
1.54939e-08
9.91527e-09
6.39562e-09
4.12923e-09
2.67711e-09
1.7568e-09
1.17937e-09
8.17988e-10
5.96549e-10
3.2754e-06
1.22749e-05
1.02934e-05
5.87357e-06
2.94149e-06
1.39711e-06
6.44289e-07
2.95369e-07
1.40001e-07
7.08713e-08
3.93136e-08
2.35701e-08
1.48254e-08
9.51386e-09
6.14649e-09
3.97236e-09
2.57667e-09
1.6926e-09
1.13831e-09
7.93566e-10
5.79881e-10
4.49741e-10
3.03439e-06
1.12199e-05
9.28788e-06
5.24191e-06
2.60923e-06
1.23833e-06
5.70833e-07
2.62185e-07
1.25419e-07
6.50047e-08
3.69062e-08
2.24606e-08
1.42132e-08
9.1359e-09
5.90571e-09
3.81938e-09
2.47975e-09
1.63083e-09
1.09923e-09
7.68918e-10
5.6557e-10
4.39906e-10
3.63818e-10
2.80684e-06
1.01652e-05
8.31183e-06
4.64036e-06
2.29348e-06
1.08946e-06
5.0606e-07
2.34199e-07
1.13313e-07
5.97551e-08
3.46663e-08
2.14089e-08
1.3642e-08
8.7802e-09
5.6747e-09
3.67062e-09
2.38589e-09
1.57164e-09
1.06184e-09
7.45625e-10
5.51054e-10
4.31788e-10
3.58182e-10
3.13333e-10
2.59531e-06
9.1289e-06
7.3775e-06
4.07714e-06
1.99841e-06
9.49221e-07
4.45225e-07
2.09733e-07
1.03201e-07
5.53959e-08
3.26391e-08
2.04119e-08
1.30933e-08
8.44291e-09
5.45375e-09
3.52668e-09
2.2947e-09
1.51479e-09
1.02621e-09
7.2343e-10
5.37441e-10
4.23443e-10
3.53779e-10
3.10246e-10
2.8419e-10
2.39805e-06
8.1308e-06
6.49505e-06
3.56043e-06
1.7346e-06
8.20833e-07
3.88358e-07
1.86734e-07
9.43562e-08
5.17268e-08
3.0909e-08
1.94835e-08
1.25639e-08
8.11809e-09
5.24335e-09
3.38807e-09
2.20622e-09
1.45988e-09
9.92183e-10
7.02373e-10
5.24507e-10
4.15692e-10
3.49117e-10
3.08009e-10
2.82274e-10
2.69389e-10
2.21152e-06
7.16366e-06
5.65524e-06
3.08625e-06
1.50243e-06
7.10395e-07
3.37173e-07
1.6536e-07
8.59959e-08
4.84559e-08
2.94025e-08
1.86526e-08
1.20574e-08
7.8032e-09
5.04212e-09
3.25608e-09
2.12101e-09
1.40669e-09
9.59575e-10
6.82361e-10
5.12269e-10
4.08358e-10
3.44845e-10
3.05551e-10
2.80927e-10
2.67212e-10
2.75003e-10
2.02916e-06
6.21334e-06
4.8467e-06
2.62836e-06
1.29488e-06
6.16069e-07
2.9442e-07
1.46406e-07
7.82528e-08
4.53117e-08
2.80078e-08
1.78951e-08
1.1584e-08
7.49739e-09
4.84835e-09
3.13105e-09
2.03997e-09
1.35554e-09
9.28192e-10
6.63346e-10
5.00682e-10
4.01448e-10
3.40826e-10
3.03334e-10
2.79777e-10
2.65872e-10
2.67102e-10
5.60139e-10
1.84756e-06
5.25357e-06
4.06564e-06
2.19073e-06
1.09202e-06
5.3329e-07
2.58729e-07
1.30832e-07
7.14211e-08
4.23644e-08
2.66302e-08
1.71674e-08
1.11367e-08
7.203e-09
4.65955e-09
3.01186e-09
1.96373e-09
1.30686e-09
8.98047e-10
6.45243e-10
4.89733e-10
3.94934e-10
3.37067e-10
3.01259e-10
2.78796e-10
2.65031e-10
2.60731e-10
2.96399e-10
3.47317e-08
1.66842e-06
4.28904e-06
3.32444e-06
1.78777e-06
9.00697e-07
4.52575e-07
2.27886e-07
1.17963e-07
6.58097e-08
3.97336e-08
2.53044e-08
1.64345e-08
1.07001e-08
6.91905e-09
4.47468e-09
2.89616e-09
1.8917e-09
1.26095e-09
8.69253e-10
6.27934e-10
4.79389e-10
3.88796e-10
3.33546e-10
2.99347e-10
2.77889e-10
2.64418e-10
2.58746e-10
2.84376e-10
1.86753e-08
5.72461e-07
1.48774e-06
3.347e-06
2.62853e-06
1.45347e-06
7.33281e-07
3.77862e-07
1.9805e-07
1.06841e-07
6.11127e-08
3.75165e-08
2.40863e-08
1.57137e-08
1.02631e-08
6.642e-09
4.29443e-09
2.78182e-09
1.82238e-09
1.21764e-09
8.41855e-10
6.11342e-10
4.69559e-10
3.83017e-10
3.30242e-10
2.9757e-10
2.77056e-10
2.64062e-10
2.58014e-10
2.75557e-10
1.02086e-08
4.94184e-07
1.94423e-06
1.2063e-06
2.42552e-06
1.98377e-06
1.17168e-06
6.09664e-07
3.14882e-07
1.70689e-07
9.60893e-08
5.69398e-08
3.55931e-08
2.3012e-08
1.50345e-08
9.83301e-09
6.37001e-09
4.11994e-09
2.66959e-09
1.75401e-09
1.17626e-09
8.15855e-10
5.95409e-10
4.60136e-10
3.77555e-10
3.27136e-10
2.9591e-10
2.76306e-10
2.63804e-10
2.57847e-10
2.68202e-10
5.99861e-09
4.01205e-07
1.5908e-06
4.91254e-06
8.5821e-07
1.43946e-06
1.40496e-06
9.24225e-07
5.15377e-07
2.72418e-07
1.47914e-07
8.61473e-08
5.28426e-08
3.38127e-08
2.20356e-08
1.44117e-08
9.42384e-09
6.10483e-09
3.95271e-09
2.56161e-09
1.68686e-09
1.13587e-09
7.91098e-10
5.80185e-10
4.51036e-10
3.72376e-10
3.24199e-10
2.9436e-10
2.7565e-10
2.63676e-10
2.58065e-10
2.64318e-10
4.19069e-09
3.15105e-07
1.26193e-06
3.97691e-06
1.19862e-05
3.54196e-07
9.13242e-07
9.42078e-07
7.41574e-07
4.37591e-07
2.42892e-07
1.32926e-07
7.76958e-08
4.89619e-08
3.20271e-08
2.10909e-08
1.38239e-08
9.04138e-09
5.85013e-09
3.79245e-09
2.45986e-09
1.6224e-09
1.09624e-09
7.67411e-10
5.65721e-10
4.42248e-10
3.67439e-10
3.2142e-10
2.92913e-10
2.7508e-10
2.63881e-10
2.58487e-10
2.62209e-10
3.2429e-09
2.35976e-07
9.92024e-07
3.20278e-06
9.983e-06
2.87696e-05
2.07196e-07
5.72187e-07
6.97296e-07
5.88646e-07
3.95167e-07
2.19399e-07
1.22593e-07
7.1976e-08
4.55607e-08
3.02796e-08
2.01271e-08
1.32392e-08
8.67307e-09
5.60752e-09
3.6377e-09
2.36417e-09
1.56199e-09
1.05799e-09
7.44453e-10
5.52098e-10
4.33851e-10
3.62683e-10
3.18802e-10
2.9159e-10
2.74685e-10
2.64313e-10
2.58829e-10
2.58812e-10
2.88363e-09
1.66291e-07
7.66767e-07
2.57618e-06
8.27183e-06
2.44759e-05
6.6142e-05
1.88523e-07
4.59612e-07
5.52421e-07
5.28167e-07
3.50023e-07
2.10021e-07
1.13794e-07
6.79751e-08
4.31942e-08
2.86826e-08
1.91553e-08
1.26422e-08
8.30416e-09
5.36974e-09
3.48777e-09
2.27171e-09
1.50574e-09
1.0218e-09
7.22123e-10
5.39225e-10
4.25937e-10
3.58086e-10
3.16409e-10
2.90381e-10
2.74638e-10
2.64776e-10
2.58332e-10
2.51096e-10
2.11031e-09
1.06102e-07
5.84217e-07
2.06256e-06
6.81918e-06
2.07239e-05
5.72578e-05
0.000146513
1.82766e-07
4.35344e-07
4.48406e-07
5.21396e-07
3.51954e-07
1.95156e-07
1.1079e-07
6.44713e-08
4.15713e-08
2.74976e-08
1.82194e-08
1.20369e-08
7.93299e-09
5.13034e-09
3.33944e-09
2.18051e-09
1.45176e-09
9.87828e-10
7.00483e-10
5.26867e-10
4.18532e-10
3.53704e-10
3.14179e-10
2.89551e-10
2.74748e-10
2.6481e-10
2.53259e-10
2.39992e-10
1.24551e-09
5.98969e-08
4.34865e-07
1.64155e-06
5.59118e-06
1.74526e-05
4.94033e-05
0.000128622
0.000315767
1.77773e-07
4.22463e-07
4.21079e-07
4.88518e-07
3.88681e-07
2.11093e-07
1.06208e-07
6.32153e-08
4.01816e-08
2.66517e-08
1.74469e-08
1.14445e-08
7.56235e-09
4.89218e-09
3.19117e-09
2.08961e-09
1.39785e-09
9.55261e-10
6.79812e-10
5.14637e-10
4.11607e-10
3.4957e-10
3.12225e-10
2.88957e-10
2.74531e-10
2.61784e-10
2.43559e-10
2.25703e-10
6.4583e-10
2.9111e-08
3.10687e-07
1.2975e-06
4.55806e-06
1.46198e-05
4.24309e-05
0.000112703
0.000280708
0.00066531
1.72801e-07
4.1061e-07
4.06758e-07
4.6798e-07
3.88205e-07
2.50084e-07
1.19181e-07
6.20535e-08
3.95264e-08
2.59395e-08
1.68517e-08
1.09276e-08
7.20012e-09
4.65775e-09
3.04602e-09
1.99923e-09
1.34366e-09
9.22636e-10
6.60051e-10
5.02591e-10
4.04866e-10
3.45946e-10
3.10474e-10
2.88169e-10
2.72135e-10
2.52761e-10
2.29629e-10
2.10747e-10
3.55801e-10
1.20198e-08
2.09641e-07
1.01487e-06
3.69352e-06
1.2181e-05
3.62796e-05
9.84131e-05
0.000249307
0.000598653
0.00136815
1.67709e-07
3.98457e-07
3.92783e-07
4.52095e-07
3.75844e-07
2.55202e-07
1.45957e-07
7.0946e-08
3.97968e-08
2.50547e-08
1.63784e-08
1.05403e-08
6.86897e-09
4.4277e-09
2.90659e-09
1.91117e-09
1.28975e-09
8.89616e-10
6.40651e-10
4.91101e-10
3.98061e-10
3.42639e-10
3.08402e-10
2.85427e-10
2.62833e-10
2.38671e-10
2.14216e-10
2.00163e-10
2.46141e-10
4.40304e-09
1.30015e-07
7.81275e-07
2.97247e-06
1.00954e-05
3.08721e-05
8.56944e-05
0.000220776
0.000538502
0.00124592
0.00272459
1.62497e-07
3.85781e-07
3.79156e-07
4.38232e-07
3.62985e-07
2.49911e-07
1.5673e-07
8.73816e-08
4.67738e-08
2.60584e-08
1.5865e-08
1.017e-08
6.62889e-09
4.20498e-09
2.77277e-09
1.8262e-09
1.23679e-09
8.567e-10
6.21226e-10
4.80119e-10
3.90969e-10
3.39066e-10
3.03418e-10
2.748e-10
2.47816e-10
2.21669e-10
2.03267e-10
1.94353e-10
2.10115e-10
1.63253e-09
7.17818e-08
5.86069e-07
2.37395e-06
8.3215e-06
2.61471e-05
7.43856e-05
0.000195141
0.000483088
0.00113478
0.00251126
0.00518462
1.57367e-07
3.72843e-07
3.66085e-07
4.26011e-07
3.51606e-07
2.4291e-07
1.53763e-07
9.64832e-08
5.88508e-08
3.13237e-08
1.72399e-08
1.00437e-08
6.26326e-09
4.00952e-09
2.63473e-09
1.74357e-09
1.18381e-09
8.23372e-10
6.00922e-10
4.69074e-10
3.82206e-10
3.28412e-10
2.90054e-10
2.56955e-10
2.29375e-10
2.0921e-10
1.9722e-10
1.92e-10
1.97932e-10
6.96394e-10
3.45023e-08
4.2101e-07
1.87786e-06
6.82206e-06
2.20391e-05
6.4365e-05
0.000172119
0.000432757
0.00103091
0.00231587
0.00483763
0.00926114
1.52359e-07
3.60446e-07
3.54059e-07
4.1491e-07
3.41504e-07
2.35609e-07
1.49861e-07
9.37423e-08
6.7736e-08
3.98338e-08
2.12409e-08
1.13746e-08
6.44433e-09
3.87581e-09
2.45116e-09
1.61185e-09
1.11369e-09
7.77604e-10
5.67653e-10
4.43819e-10
3.6125e-10
3.07426e-10
2.67859e-10
2.36811e-10
2.16428e-10
2.02295e-10
1.93784e-10
1.91731e-10
1.94179e-10
3.65933e-10
1.44447e-08
2.8453e-07
1.46694e-06
5.55904e-06
1.84953e-05
5.55021e-05
0.000151508
0.000387052
0.000935504
0.00213051
0.00451718
0.00875201
0.0152402
1.47435e-07
3.48894e-07
3.4327e-07
4.04813e-07
3.32094e-07
2.28599e-07
1.44777e-07
9.23109e-08
6.49276e-08
4.71917e-08
2.74148e-08
1.42174e-08
7.53463e-09
4.17663e-09
2.46758e-09
1.53692e-09
1.01223e-09
7.05281e-10
5.12926e-10
4.0338e-10
3.28454e-10
2.8061e-10
2.48035e-10
2.24795e-10
2.09282e-10
1.98103e-10
1.9343e-10
1.9197e-10
1.93289e-10
2.52298e-10
5.46028e-09
1.7743e-07
1.12592e-06
4.49876e-06
1.54565e-05
4.76925e-05
0.00013308
0.000345699
0.000847849
0.00195831
0.00420818
0.0082773
0.0145856
0.0229885
1.42627e-07
3.38256e-07
3.33741e-07
3.95231e-07
3.23032e-07
2.22038e-07
1.39707e-07
9.01559e-08
6.41504e-08
4.61476e-08
3.36424e-08
1.84477e-08
9.4813e-09
4.96663e-09
2.74816e-09
1.60729e-09
1.00984e-09
6.80872e-10
4.88956e-10
3.77502e-10
3.09132e-10
2.65302e-10
2.37533e-10
2.18269e-10
2.05402e-10
1.97884e-10
1.93706e-10
1.92357e-10
1.93294e-10
2.13673e-10
2.04132e-09
9.91866e-08
8.41482e-07
3.61072e-06
1.28677e-05
4.08362e-05
0.000116646
0.000308341
0.000767639
0.00179817
0.00391767
0.00781018
0.0139709
0.0222334
0.0324501
1.37681e-07
3.27719e-07
3.25006e-07
3.85892e-07
3.13721e-07
2.15979e-07
1.35141e-07
8.81103e-08
6.31976e-08
4.52497e-08
3.42921e-08
2.30318e-08
1.22667e-08
6.26922e-09
3.28208e-09
1.81565e-09
1.0806e-09
6.98403e-10
4.87394e-10
3.69533e-10
3.0122e-10
2.58717e-10
2.32853e-10
2.16692e-10
2.05689e-10
1.98417e-10
1.94153e-10
1.92782e-10
1.9353e-10
2.01044e-10
8.32836e-10
4.83775e-08
6.03776e-07
2.86647e-06
1.0675e-05
3.48454e-05
0.000102015
0.000274688
0.000694375
0.00164985
0.00364413
0.00736485
0.0133515
0.0215293
0.0316198
0.0439507
1.32395e-07
3.16401e-07
3.15954e-07
3.75702e-07
3.03967e-07
2.09952e-07
1.31415e-07
8.65303e-08
6.21703e-08
4.459e-08
3.29786e-08
2.48098e-08
1.53863e-08
7.96226e-09
4.0636e-09
2.15984e-09
1.2263e-09
7.54219e-10
5.08055e-10
3.75913e-10
3.0228e-10
2.59881e-10
2.34242e-10
2.17861e-10
2.0668e-10
1.99114e-10
1.94677e-10
1.93141e-10
1.93816e-10
1.97124e-10
4.06485e-10
2.04997e-08
4.07113e-07
2.24386e-06
8.82253e-06
2.96401e-05
8.90257e-05
0.00024441
0.000627661
0.00151273
0.00338765
0.00693951
0.0127519
0.0208031
0.0308568
0.0430831
0.0572112
1.26833e-07
3.04396e-07
3.06548e-07
3.6437e-07
2.9335e-07
2.0367e-07
1.28115e-07
8.55372e-08
6.12362e-08
4.38914e-08
3.26005e-08
2.38166e-08
1.76555e-08
9.91049e-09
5.04154e-09
2.60085e-09
1.42182e-09
8.4091e-10
5.47303e-10
3.94156e-10
3.1109e-10
2.64507e-10
2.36979e-10
2.19521e-10
2.07814e-10
1.99899e-10
1.95152e-10
1.93452e-10
1.9409e-10
1.96121e-10
2.61912e-10
7.6432e-09
2.54008e-07
1.72754e-06
7.25344e-06
2.51412e-05
7.75347e-05
0.000217232
0.000566998
0.00138641
0.00314765
0.00653529
0.0121699
0.0200929
0.0300516
0.0423006
0.0564592
0.0696719
1.21275e-07
2.91901e-07
2.97091e-07
3.52874e-07
2.82553e-07
1.97219e-07
1.25037e-07
8.47887e-08
6.04863e-08
4.32708e-08
3.22593e-08
2.35103e-08
1.73051e-08
1.18901e-08
6.21122e-09
3.15589e-09
1.66719e-09
9.47347e-10
5.94452e-10
4.15941e-10
3.21527e-10
2.69828e-10
2.39961e-10
2.21389e-10
2.09018e-10
2.00646e-10
1.95599e-10
1.93735e-10
1.94348e-10
1.96053e-10
2.15733e-10
2.68737e-09
1.42529e-07
1.29486e-06
5.91217e-06
2.12797e-05
6.74011e-05
0.000192891
0.000511953
0.00127027
0.00292386
0.00615206
0.0116081
0.0193945
0.0292604
0.0414491
0.0557978
0.0693094
0.0784393
1.16101e-07
2.79515e-07
2.87809e-07
3.41608e-07
2.72162e-07
1.90921e-07
1.22226e-07
8.41117e-08
5.97714e-08
4.2819e-08
3.19851e-08
2.33075e-08
1.6869e-08
1.22853e-08
7.55634e-09
3.8251e-09
1.97187e-09
1.07869e-09
6.50617e-10
4.41048e-10
3.33313e-10
2.75704e-10
2.43151e-10
2.23272e-10
2.10206e-10
2.01392e-10
1.96041e-10
1.94013e-10
1.94596e-10
1.96263e-10
2.02471e-10
9.77214e-10
6.97271e-08
9.31637e-07
4.77156e-06
1.7985e-05
5.85131e-05
0.000171123
0.000462103
0.00116376
0.00271568
0.00579018
0.0110674
0.0187117
0.0284767
0.0406051
0.0550424
0.0690514
0.0784723
0.0833325
1.11478e-07
2.68222e-07
2.79262e-07
3.30843e-07
2.62139e-07
1.84798e-07
1.19851e-07
8.34164e-08
5.90018e-08
4.24535e-08
3.18181e-08
2.31491e-08
1.67504e-08
1.18878e-08
8.40116e-09
4.60898e-09
2.34768e-09
1.24161e-09
7.18987e-10
4.70379e-10
3.46611e-10
2.82128e-10
2.46557e-10
2.25268e-10
2.1145e-10
2.0217e-10
1.96501e-10
1.94294e-10
1.94837e-10
1.96543e-10
1.99114e-10
4.17744e-10
2.89305e-08
6.31078e-07
3.80023e-06
1.51864e-05
5.0748e-05
0.000151718
0.000417
0.00106633
0.00252267
0.00544939
0.0105494
0.0180459
0.0277051
0.0397601
0.0542797
0.0686815
0.0786476
0.0836419
0.0852759
1.07359e-07
2.58093e-07
2.71437e-07
3.20666e-07
2.52792e-07
1.7886e-07
1.17865e-07
8.2743e-08
5.8208e-08
4.2137e-08
3.17054e-08
2.30644e-08
1.66701e-08
1.17891e-08
8.24829e-09
5.36296e-09
2.78844e-09
1.44208e-09
8.0277e-10
5.05289e-10
3.61864e-10
2.893e-10
2.50271e-10
2.27412e-10
2.12787e-10
2.03003e-10
1.96986e-10
1.94581e-10
1.95072e-10
1.96829e-10
1.98604e-10
2.5057e-10
9.99754e-09
3.94831e-07
2.9713e-06
1.28065e-05
4.39969e-05
0.000134459
0.000376298
0.000977288
0.00234432
0.0051297
0.0100547
0.0173995
0.0269467
0.0389203
0.0534994
0.068284
0.078726
0.0841206
0.085781
0.0849404
1.03775e-07
2.49281e-07
2.63719e-07
3.10291e-07
2.43987e-07
1.73366e-07
1.16277e-07
8.2013e-08
5.74295e-08
4.18707e-08
3.16188e-08
2.30246e-08
1.66418e-08
1.17488e-08
8.06546e-09
5.54336e-09
3.258e-09
1.68295e-09
9.04321e-10
5.47268e-10
3.79498e-10
2.97361e-10
2.54361e-10
2.29738e-10
2.14222e-10
2.03892e-10
1.97497e-10
1.94873e-10
1.953e-10
1.97107e-10
1.98821e-10
2.0932e-10
3.01167e-09
2.21697e-07
2.26874e-06
1.07738e-05
3.81474e-05
0.000119176
0.000339632
0.000896084
0.00217984
0.00483103
0.00958458
0.0167743
0.0262044
0.0380876
0.0527084
0.0678469
0.0787882
0.0845151
0.0864699
0.0855921
0.0827705
1.00566e-07
2.4145e-07
2.55723e-07
2.99289e-07
2.35371e-07
1.68279e-07
1.15051e-07
8.11822e-08
5.66758e-08
4.16724e-08
3.15502e-08
2.30122e-08
1.66524e-08
1.1743e-08
8.04027e-09
5.39745e-09
3.59824e-09
1.933e-09
1.02555e-09
5.97769e-10
4.00112e-10
3.06455e-10
2.58869e-10
2.32262e-10
2.15764e-10
2.04841e-10
1.98033e-10
1.95169e-10
1.95524e-10
1.97379e-10
1.99196e-10
2.01433e-10
8.90391e-10
1.07491e-07
1.67485e-06
9.01099e-06
3.31035e-05
0.000105692
0.000306726
0.000822088
0.00202857
0.00455295
0.00913973
0.0161723
0.0254802
0.0372659
0.051909
0.0673734
0.0788229
0.0849021
0.0870852
0.0864329
0.0835334
0.0791125
9.74749e-08
2.3401e-07
2.47168e-07
2.87417e-07
2.2673e-07
1.63619e-07
1.14052e-07
8.02405e-08
5.59581e-08
4.15341e-08
3.15054e-08
2.30208e-08
1.66825e-08
1.17673e-08
8.03649e-09
5.35608e-09
3.58699e-09
2.19065e-09
1.16264e-09
6.57911e-10
4.24662e-10
3.16796e-10
2.63852e-10
2.34999e-10
2.17418e-10
2.05852e-10
1.98598e-10
1.95471e-10
1.95743e-10
1.97646e-10
1.99602e-10
2.00583e-10
3.33319e-10
4.27139e-08
1.17137e-06
7.46886e-06
2.87698e-05
9.38602e-05
0.000277277
0.000754828
0.0018896
0.00429522
0.00872059
0.0155956
0.0247772
0.0364578
0.051106
0.0668628
0.0788323
0.0852715
0.0876977
0.0872094
0.0844839
0.0799559
0.0742834
9.44045e-08
2.27045e-07
2.38515e-07
2.74904e-07
2.17936e-07
1.5944e-07
1.1321e-07
7.91763e-08
5.53227e-08
4.14375e-08
3.14883e-08
2.30474e-08
1.67266e-08
1.18077e-08
8.05165e-09
5.35077e-09
3.49354e-09
2.32303e-09
1.30457e-09
7.2852e-10
4.53929e-10
3.28737e-10
2.69367e-10
2.3797e-10
2.19191e-10
2.06933e-10
1.99194e-10
1.95778e-10
1.95961e-10
1.97912e-10
2.00012e-10
2.01051e-10
2.17323e-10
1.28559e-08
7.57594e-07
6.12948e-06
2.5062e-05
8.35177e-05
0.000251041
0.000693807
0.00176219
0.00405709
0.00832809
0.0150453
0.0240989
0.035667
0.0503037
0.0663162
0.0788148
0.0856249
0.0882987
0.0879861
0.0853781
0.0809806
0.0751783
0.0685961
9.12586e-08
2.20715e-07
2.30229e-07
2.62268e-07
2.09183e-07
1.55756e-07
1.12341e-07
7.79849e-08
5.47833e-08
4.13781e-08
3.1496e-08
2.30965e-08
1.67802e-08
1.18559e-08
8.08036e-09
5.35611e-09
3.48036e-09
2.28624e-09
1.4312e-09
8.06416e-10
4.88207e-10
3.42704e-10
2.75492e-10
2.41191e-10
2.21095e-10
2.08092e-10
1.99826e-10
1.96094e-10
1.96177e-10
1.98179e-10
2.00419e-10
2.01645e-10
2.02104e-10
2.62659e-09
4.39726e-07
4.96795e-06
2.18799e-05
7.45133e-05
0.000227748
0.000638681
0.00164547
0.00383788
0.00796248
0.0145235
0.0234481
0.0348973
0.0495065
0.0657343
0.0787695
0.085961
0.0888892
0.0887552
0.086275
0.0819563
0.0762448
0.0695148
0.0623579
8.81332e-08
2.14967e-07
2.22427e-07
2.49875e-07
2.00863e-07
1.5246e-07
1.11294e-07
7.66223e-08
5.4343e-08
4.13527e-08
3.15362e-08
2.31596e-08
1.68449e-08
1.19084e-08
8.11434e-09
5.37125e-09
3.47914e-09
2.23321e-09
1.47385e-09
8.78459e-10
5.2765e-10
3.58977e-10
2.82362e-10
2.44687e-10
2.2314e-10
2.09337e-10
2.00502e-10
1.96421e-10
1.96395e-10
1.98451e-10
2.00827e-10
2.02215e-10
2.02071e-10
3.99597e-10
2.17176e-07
3.97157e-06
1.91224e-05
6.66969e-05
0.000207165
0.000589083
0.00153886
0.00363646
0.00762419
0.0140318
0.0228278
0.0341518
0.0487179
0.0651259
0.0786951
0.0862785
0.0894679
0.0895174
0.0871672
0.0829367
0.0772689
0.0705929
0.0632745
0.0558566
8.49671e-08
2.09297e-07
2.15082e-07
2.38257e-07
1.93179e-07
1.49653e-07
1.09991e-07
7.50725e-08
5.39661e-08
4.13623e-08
3.16095e-08
2.32364e-08
1.69238e-08
1.19638e-08
8.14832e-09
5.39049e-09
3.48278e-09
2.2282e-09
1.44337e-09
9.35043e-10
5.67026e-10
3.77592e-10
2.90235e-10
2.48491e-10
2.2534e-10
2.1068e-10
2.01228e-10
1.9676e-10
1.96614e-10
1.9873e-10
2.01243e-10
2.02768e-10
2.02717e-10
2.05094e-10
8.26303e-08
3.11713e-06
1.66919e-05
5.99295e-05
0.000189079
0.000544727
0.00144176
0.0034519
0.00731277
0.0135725
0.0222394
0.0334349
0.0479419
0.0645051
0.0785906
0.0865763
0.0900334
0.0902713
0.0880552
0.0839152
0.0782997
0.0716347
0.064337
0.0567487
0.0493455
8.16138e-08
2.03261e-07
2.07899e-07
2.27508e-07
1.86401e-07
1.47252e-07
1.08538e-07
7.34544e-08
5.3603e-08
4.13926e-08
3.17116e-08
2.33305e-08
1.70144e-08
1.20215e-08
8.1803e-09
5.40899e-09
3.48992e-09
2.22679e-09
1.41509e-09
9.47141e-10
6.00433e-10
3.98287e-10
2.99283e-10
2.52678e-10
2.27709e-10
2.12131e-10
2.02009e-10
1.97114e-10
1.96837e-10
1.99017e-10
2.01666e-10
2.03306e-10
2.03403e-10
2.04735e-10
1.82247e-08
2.38731e-06
1.45204e-05
5.41021e-05
0.00017327
0.000505322
0.00135379
0.00328312
0.00702772
0.0131468
0.0216852
0.0327505
0.0471841
0.0638765
0.0784549
0.0868532
0.0905845
0.0910152
0.0889375
0.0848917
0.0793311
0.072685
0.0653689
0.0577724
0.0501952
0.043033
7.81325e-08
1.96491e-07
2.00636e-07
2.17583e-07
1.80522e-07
1.44995e-07
1.06895e-07
7.19745e-08
5.3266e-08
4.14169e-08
3.1835e-08
2.34384e-08
1.71148e-08
1.20844e-08
8.20968e-09
5.42514e-09
3.49755e-09
2.22749e-09
1.41107e-09
9.25738e-10
6.22547e-10
4.18452e-10
3.09427e-10
2.57381e-10
2.30262e-10
2.13697e-10
2.02854e-10
1.97488e-10
1.97063e-10
1.99315e-10
2.02095e-10
2.03832e-10
2.04074e-10
2.04733e-10
3.31835e-10
1.79769e-06
1.26127e-05
4.90955e-05
0.000159542
0.000470522
0.00127466
0.00312938
0.00676779
0.0127563
0.0211679
0.0321025
0.0464497
0.0632454
0.0782869
0.0871075
0.0911194
0.0917478
0.089812
0.0858647
0.0803627
0.0737384
0.0664109
0.0587708
0.0511621
0.0438271
0.0370768
7.44644e-08
1.88759e-07
1.93205e-07
2.08684e-07
1.75556e-07
1.42809e-07
1.05022e-07
7.06752e-08
5.30241e-08
4.14615e-08
3.19505e-08
2.35558e-08
1.72263e-08
1.21528e-08
8.24056e-09
5.43884e-09
3.50369e-09
2.22949e-09
1.40843e-09
9.06083e-10
6.21621e-10
4.31583e-10
3.20523e-10
2.62683e-10
2.33027e-10
2.15385e-10
2.03768e-10
1.97886e-10
1.97294e-10
1.99626e-10
2.02526e-10
2.04352e-10
2.04701e-10
2.04996e-10
3.26238e-10
1.35884e-06
1.09578e-05
4.47868e-05
0.00014768
0.000440029
0.00120406
0.00299022
0.00653184
0.0124012
0.020691
0.0314941
0.0457453
0.062617
0.078086
0.0873377
0.0916361
0.092467
0.0906775
0.086832
0.0813931
0.0747943
0.0674582
0.0597806
0.0521082
0.0447242
0.0378067
0.0315853
7.06664e-08
1.80301e-07
1.85728e-07
2.01008e-07
1.71437e-07
1.40543e-07
1.02906e-07
6.95132e-08
5.28816e-08
4.15631e-08
3.20579e-08
2.36795e-08
1.73433e-08
1.22249e-08
8.2768e-09
5.45264e-09
3.50834e-09
2.2316e-09
1.40751e-09
9.02849e-10
6.06398e-10
4.36144e-10
3.30968e-10
2.68484e-10
2.36077e-10
2.17202e-10
2.04755e-10
1.98313e-10
1.97532e-10
1.99944e-10
2.02957e-10
2.04869e-10
2.0529e-10
2.05508e-10
3.23721e-10
1.08786e-06
9.5603e-06
4.10313e-05
0.000137492
0.000413522
0.00114178
0.00286529
0.00631885
0.0120813
0.0202574
0.0309296
0.0450761
0.0619981
0.0778515
0.0875418
0.0921326
0.0931706
0.0915317
0.0877922
0.0824198
0.0758511
0.06851
0.0607974
0.0530667
0.0456047
0.0386261
0.0322465
0.0266228
6.68641e-08
1.7143e-07
1.78494e-07
1.94751e-07
1.68103e-07
1.38049e-07
1.00483e-07
6.84857e-08
5.284e-08
4.17263e-08
3.21685e-08
2.37949e-08
1.74607e-08
1.22979e-08
8.31597e-09
5.46954e-09
3.51339e-09
2.23325e-09
1.4082e-09
9.00844e-10
5.92287e-10
4.2901e-10
3.3473e-10
2.74731e-10
2.39492e-10
2.19158e-10
2.05822e-10
1.98774e-10
1.97783e-10
2.00259e-10
2.03394e-10
2.05377e-10
2.05844e-10
2.06135e-10
3.2294e-10
9.79262e-07
8.34889e-06
3.76793e-05
0.00012881
0.000390758
0.0010875
0.00275457
0.00612802
0.0117954
0.01987
0.0304138
0.0444476
0.0613961
0.0775841
0.087718
0.0926063
0.0938563
0.0923719
0.0887427
0.0834415
0.0769066
0.069565
0.0618206
0.0540335
0.046498
0.0394325
0.0329846
0.0272143
0.0222167
6.29962e-08
1.62167e-07
1.71648e-07
1.8992e-07
1.65536e-07
1.35265e-07
9.78056e-08
6.75849e-08
5.29152e-08
4.19336e-08
3.22958e-08
2.39166e-08
1.75715e-08
1.2369e-08
8.35704e-09
5.48925e-09
3.52033e-09
2.23498e-09
1.40947e-09
8.9994e-10
5.89969e-10
4.16123e-10
3.3218e-10
2.80694e-10
2.43188e-10
2.21289e-10
2.06973e-10
1.99271e-10
1.98054e-10
2.00566e-10
2.03839e-10
2.05878e-10
2.06365e-10
2.06793e-10
3.23112e-10
9.71121e-07
7.32184e-06
3.47348e-05
0.000121527
0.000371501
0.00104096
0.00265793
0.00595925
0.0115422
0.01953
0.029953
0.0438647
0.0608192
0.0772851
0.0878643
0.0930548
0.0945209
0.0931958
0.0896809
0.0844553
0.0779594
0.0706209
0.062849
0.0550081
0.0474004
0.0402518
0.033713
0.027871
0.0227396
0.0183658
5.91313e-08
1.52687e-07
1.65312e-07
1.86176e-07
1.6342e-07
1.32261e-07
9.49606e-08
6.67904e-08
5.31014e-08
4.21665e-08
3.24272e-08
2.40598e-08
1.76728e-08
1.24331e-08
8.39747e-09
5.51076e-09
3.52995e-09
2.23743e-09
1.41078e-09
9.00111e-10
5.88971e-10
4.05449e-10
3.21833e-10
2.8121e-10
2.47033e-10
2.2367e-10
2.08218e-10
1.99806e-10
1.98337e-10
2.00861e-10
2.04287e-10
2.06369e-10
2.06857e-10
2.07414e-10
3.24084e-10
9.75439e-07
6.5684e-06
3.22337e-05
0.000115516
0.000355538
0.00100179
0.00257535
0.00581268
0.0113211
0.019237
0.0295537
0.0433341
0.0602746
0.0769574
0.0879793
0.0934745
0.0951618
0.094004
0.0906115
0.0854643
0.0790073
0.0716761
0.0638803
0.0559896
0.0483116
0.0410807
0.034454
0.0285208
0.0233173
0.018823
0.0150481
5.53371e-08
1.43264e-07
1.59654e-07
1.83319e-07
1.61388e-07
1.28973e-07
9.2125e-08
6.61351e-08
5.33694e-08
4.23902e-08
3.25672e-08
2.42202e-08
1.777e-08
1.24848e-08
8.43319e-09
5.53186e-09
3.53975e-09
2.24088e-09
1.41209e-09
9.00631e-10
5.88668e-10
4.02595e-10
3.08564e-10
2.76643e-10
2.50845e-10
2.26323e-10
2.09576e-10
2.00385e-10
1.98629e-10
2.01159e-10
2.04726e-10
2.06852e-10
2.07323e-10
2.08001e-10
3.25767e-10
9.9207e-07
6.18117e-06
3.01934e-05
0.000110604
0.000342618
0.000969712
0.00250671
0.00568893
0.011132
0.0189901
0.0292199
0.0428652
0.0597675
0.0766053
0.0880565
0.0938557
0.095774
0.0947939
0.0915311
0.0864706
0.0800587
0.0727332
0.0649133
0.0569761
0.0492309
0.0419188
0.0352046
0.0291826
0.0238906
0.0193259
0.0154436
0.0122276
5.17559e-08
1.3416e-07
1.54754e-07
1.8104e-07
1.59071e-07
1.25372e-07
8.94961e-08
6.57033e-08
5.3713e-08
4.25771e-08
3.27103e-08
2.43911e-08
1.78681e-08
1.253e-08
8.46093e-09
5.55069e-09
3.55017e-09
2.24507e-09
1.41349e-09
9.01029e-10
5.89064e-10
4.01746e-10
2.98731e-10
2.65397e-10
2.52846e-10
2.2911e-10
2.11108e-10
2.01013e-10
1.98924e-10
2.01463e-10
2.05152e-10
2.07324e-10
2.07767e-10
2.08555e-10
3.27964e-10
1.01898e-06
6.10972e-06
2.85986e-05
0.000106609
0.000332528
0.000944459
0.00245198
0.00558858
0.010976
0.018788
0.0289531
0.0424679
0.0593046
0.0762361
0.0880777
0.0941947
0.0963569
0.095561
0.0924351
0.0874669
0.0811064
0.0737935
0.0659524
0.0579667
0.0501567
0.0427656
0.0359645
0.029854
0.0244753
0.0198265
0.0158768
0.0125659
0.00986009
4.83783e-08
1.25556e-07
1.50564e-07
1.78959e-07
1.56206e-07
1.21474e-07
8.71611e-08
6.55771e-08
5.41356e-08
4.27021e-08
3.28548e-08
2.45641e-08
1.79636e-08
1.25726e-08
8.48038e-09
5.56517e-09
3.56008e-09
2.24894e-09
1.41527e-09
9.0128e-10
5.89635e-10
4.01154e-10
2.92989e-10
2.5061e-10
2.48824e-10
2.32014e-10
2.129e-10
2.01695e-10
1.99214e-10
2.01765e-10
2.05558e-10
2.07779e-10
2.08193e-10
2.09076e-10
3.30597e-10
1.05427e-06
6.09542e-06
2.73649e-05
0.000103396
0.000325156
0.000925936
0.00241115
0.0055123
0.0108546
0.0186306
0.0287517
0.0421495
0.0589013
0.0754814
0.0870331
0.0944984
0.0969102
0.0963046
0.0933199
0.0884499
0.082145
0.0748499
0.0669926
0.0589632
0.0510885
0.04362
0.0367334
0.0305345
0.0250692
0.0203379
0.0163096
0.0129352
0.0101459
0.00789691
4.513e-08
1.17517e-07
1.46924e-07
1.76675e-07
1.52639e-07
1.17409e-07
8.52015e-08
6.57208e-08
5.45903e-08
4.2785e-08
3.2985e-08
2.4729e-08
1.80576e-08
1.26204e-08
8.49691e-09
5.57303e-09
3.56834e-09
2.25314e-09
1.41798e-09
9.01409e-10
5.9004e-10
4.01059e-10
2.92082e-10
2.38834e-10
2.39853e-10
2.34491e-10
2.14937e-10
2.02439e-10
1.99492e-10
2.02059e-10
2.05941e-10
2.08218e-10
2.086e-10
2.09569e-10
3.3353e-10
1.09728e-06
6.14123e-06
2.6742e-05
0.00010117
0.000320481
0.000914113
0.00238432
0.00546052
0.0107696
0.0185184
0.028613
0.041914
0.0585078
0.0746163
0.0857044
0.0947703
0.0974359
0.0970217
0.0941834
0.0894148
0.0831716
0.0759
0.0680316
0.0599617
0.0520257
0.044482
0.0375104
0.0312238
0.0256719
0.0208579
0.0167525
0.0133055
0.0104571
0.00813497
0.00628846
4.19506e-08
1.10108e-07
1.43731e-07
1.73819e-07
1.48337e-07
1.13368e-07
8.36194e-08
6.60914e-08
5.50209e-08
4.28513e-08
3.31146e-08
2.48788e-08
1.81446e-08
1.26707e-08
8.51813e-09
5.578e-09
3.57461e-09
2.25706e-09
1.42067e-09
9.01629e-10
5.90279e-10
4.01249e-10
2.91704e-10
2.31826e-10
2.26065e-10
2.33616e-10
2.17066e-10
2.03296e-10
1.99767e-10
2.02336e-10
2.06302e-10
2.0864e-10
2.08992e-10
2.10044e-10
3.36679e-10
1.14705e-06
6.25733e-06
2.63611e-05
0.000100045
0.000318463