/*--------------------------------*- C++ -*----------------------------------*\
| =========                 |                                                 |
| \\      /  F ield         | OpenFOAM: The Open Source CFD Toolbox           |
|  \\    /   O peration     | Version:  v2012                                 |
|   \\  /    A nd           | Website:  www.openfoam.com                      |
|    \\/     M anipulation  |                                                 |
\*---------------------------------------------------------------------------*/
FoamFile
{
    version     2.0;
    format      ascii;
    class       volScalarField;
    location    "600";
    object      omega;
}
// * * * * * * * * * * * * * * * * * * * * * * * * * * * * * * * * * * * * * //

dimensions      [0 0 -1 0 0 0 0];


internalField   nonuniform List<scalar> 
27324
(
71720.5
72795.7
107439
73976.4
110213
117231
75085
112996
119521
105732
76206.2
115693
121846
106692
79064.2
77329.4
118456
124051
107705
78877.4
52126.8
78451.4
121314
126294
108537
78791.4
51593.5
32999.9
79560.2
124272
128604
109355
78584.4
51163.9
32548
21403.7
80647.2
127303
130994
110162
78362.1
50675.6
32171.8
21093.8
14786.3
81726.8
130341
133430
110944
78073.7
50186.5
31767.3
20831.8
14583.5
11028.7
82847.7
133351
135834
111638
77700.5
49650.1
31366.9
20549
14416.1
10915.6
8935.19
84065.7
136408
138163
112190
77218.8
49060.3
30934.8
20265.3
14237.4
10831.4
8879.6
7744.04
85421.3
139623
140434
112611
76653.7
48416.2
30464
19958.5
14063.6
10740.4
8846.02
7719.09
7032.01
86886.6
143105
142684
112942
76085.9
47751.2
29951.3
19627.7
13882
10654.5
8805.59
7712.08
7024.44
6593.34
88360.8
146786
144912
113242
75549.4
47122.1
29414.7
19277.2
13693.5
10565.3
8768.56
7698.1
7032.54
6596.52
6324.51
89717.4
150393
146978
113479
75058.6
46519.2
28890
18923.4
13501.2
10472.7
8729.42
7686.7
7033.74
6613.79
6335.16
6174.96
90905
153636
148707
113549
74494.2
45914
28373.5
18593
13313.2
10378.3
8688.38
7674.18
7037
6624.22
6359.05
6191.56
6115.24
91980.1
156469
150049
113377
73754.5
45198.2
27860.9
18285.3
13142.2
10285.8
8646.89
7660.95
7039.68
6636.49
6376.29
6221.06
6136.87
6119.56
93083.1
159145
151179
112994
72784.3
44328
27304.2
17996.1
12985.4
10202.3
8607.12
7647.84
7042.17
6648.62
6395.37
6243.98
6171.43
6145.13
6167.76
94288.7
162023
152383
112510
71652
43320.2
26700.2
17695.1
12837.4
10126.7
8572.89
7636.07
7044.88
6660.98
6414.75
6268.87
6199.38
6183.98
6196.55
6243.31
95538.2
165149
153724
111964
70424.2
42292.5
26078.6
17379.6
12681.1
10056.1
8543.67
7627.21
7048.63
6673.72
6434.63
6294.26
6229.39
6216.15
6239.1
6274.83
6325.19
96725.8
168193
154877
111220
69108
41298.6
25508.7
17062
12514.6
9982.09
8517.1
7620.97
7053.92
6687.33
6455.01
6320.39
6259.93
6250.38
6274.78
6320.66
6358.26
6404.48
97761.3
170763
155392
109992
67615.3
40339.8
24997.4
16775.4
12345.2
9904.77
8489.06
7615.93
7060.85
6701.94
6476.15
6347.23
6291.34
6285.17
6312.55
6359.35
6405.97
6438.85
6471.8
98643
172584
155009
108145
65868.9
39329.3
24510.8
16514.5
12192.2
9828.73
8459.77
7610.42
7068.74
6717.68
6498.22
6374.84
6323.65
6320.82
6350.86
6400.18
6446.17
6487.71
6507.34
6524.18
99408.4
173608
153735
105764
63918.6
38229.7
23977.1
16256.7
12055.2
9764.37
8431.83
7604.38
7076.96
6734.45
6521.25
6403.47
6356.82
6357.37
6390.12
6441.57
6488.43
6528.88
6556.34
6560.78
6577.04
100019
173860
151656
103050
61921.9
37066.9
23378.7
15966.7
11924.1
9710.4
8409.84
7599.22
7085.3
6752.03
6545.39
6433.25
6391.05
6394.92
6430.27
6484
6531.17
6572.02
6597.67
6608.93
6607.21
6668.57
100380
172991
148619
100059
59953.2
35926.9
22738.9
15644.9
11782.3
9659.47
8392.62
7596.76
7094.46
6770.16
6570.6
6464.1
6426.59
6433.44
6471.39
6527.38
6574.8
6615.52
6640.84
6650.68
6646.89
6673.69
7017.83
100288
170403
144262
96464.2
57938.9
34816.6
22121.9
15314.2
11632.8
9602.75
8375.68
7596.61
7105.09
6789.02
6596.55
6496.17
6463.26
6473.13
6513.46
6571.72
6619.29
6659.79
6684.28
6693.96
6688.61
6696.06
6900.47
7763.53
99532.8
165041
138167
92102.2
55562
33683.6
21538.9
15012.2
11486.9
9542.83
8355.17
7596.32
7117.21
6808.84
6623.25
6529.17
6501.14
6514.08
6556.43
6617.08
6664.65
6704.85
6728.37
6737.33
6731.99
6727.89
6811.2
7579.66
8502.3
97986.3
156118
130014
86947.9
52819.3
32368.6
20971.1
14744.3
11361
9486.11
8333.17
7594.52
7130
6830.04
6650.66
6563.22
6540.12
6556.23
6600.63
6663.4
6710.96
6750.71
6773.16
6781.42
6775.47
6763.6
6808.33
7380.41
8330.46
9007.49
95417.4
143136
119505
81317.8
49870.5
30923.7
20339.3
14496.4
11252.2
9439.51
8313.64
7592.51
7143.36
6852.62
6679.44
6598.21
6580.15
6599.68
6646.2
6710.85
6758.27
6797.55
6818.73
6825.99
6819.14
6803.71
6830.99
7238.25
8071.13
8865.64
8651.52
88239.5
125184
106556
75075.4
47123.9
29483.1
19667.2
14226.6
11148.8
9400.13
8299.68
7592.79
7157.8
6876.86
6709.79
6634.69
6621.07
6644.38
6693.2
6759.67
6806.46
6845.46
6865.13
6871.12
6863.25
6845.16
6865.36
7121.08
7821.02
8551.99
8459.6
7706.91
76546.9
101191
91697.4
68172.3
44505.9
28337.5
19016
13939.7
11031.7
9361.6
8289.8
7596.55
7174.62
6902.51
6741.99
6672.95
6663.49
6690.37
6741.42
6810.07
6855.44
6894.4
6912.14
6916.87
6908.08
6888.69
6907.53
7070.94
7555.87
8218.33
8222.21
7638.3
7398.31
53804.6
84686.5
77624.7
61663.8
41902.4
27405.8
18529.7
13657.5
10903.8
9316.58
8280.02
7602.43
7194.21
6929.92
6775.79
6713.02
6707.41
6737.13
6791.02
6861.93
6905.17
6944.18
6959.77
6963.01
6953.67
6938.41
6954.04
7055.97
7272.15
7850.32
8031.64
7600.56
7425.52
7308.73
43947.4
69886.5
70009.2
55592.3
39977.9
26508.3
18155.3
13452.4
10778.2
9266.57
8268.01
7608.21
7215.15
6959.18
6810.9
6755.04
6752.87
6785.33
6841.18
6914.96
6955.98
6994.22
7007.95
7010.03
7001.99
6992.28
6999.42
7013.03
6967.64
7463.05
7856.51
7602.59
7454.82
7341.24
7261.21
42843.4
63270.7
65443.2
56536.9
37831.8
25982.7
17772.9
13305.4
10696.2
9219.17
8253.57
7613.7
7236.62
6989.35
6847.49
6798.35
6799.91
6835.29
6892.07
6969.33
7007.94
7044.54
7057.64
7058.27
7056.35
7046.92
7027.26
6879.17
6644.37
7062.56
7710.47
7618.89
7487.88
7372.73
7293.3
7246.82
42928.5
62531.5
58581
62946.1
41745.3
25106
17584.4
13148.5
10652.2
9194.19
8238.71
7618.68
7259.01
7019.93
6885.29
6843.01
6848.8
6886.98
6944.28
7024.35
7061.39
7095.51
7108.58
7112.54
7113.31
7093.46
6958.07
6673.72
6327.8
6681.14
7567.67
7641.53
7521.16
7403.63
7327.01
7279.98
7249.58
43090.5
62725.1
57422.5
61096.2
53172.3
28717.2
17223.2
13044.7
10605.7
9189.28
8229.41
7624.28
7282.32
7051.45
6924.36
6889.57
6898.87
6940.16
6998.43
7079.89
7116.38
7148.02
7163.6
7170.07
7165.04
7075.81
6791.39
6400.97
6070.54
6357.87
7377.32
7662.58
7554.5
7433.65
7358.64
7317.09
7283.86
7262.42
43233
62981.6
57299.9
60345.1
56748
39117
19475.8
12834.7
10516.1
9180.06
8229.12
7629.32
7306.5
7083.12
6964.48
6938.04
6950.18
6993.97
7054.25
7137.13
7172.54
7206.71
7220.83
7225.38
7172.72
6932.68
6536.61
6132.67
5901.69
6110.77
7154.82
7671.15
7586.82
7463.4
7388.98
7351.89
7324.01
7295.54
7302.84
43333
63165.9
57126.6
60254.5
56698.7
44758.5
25881.9
14083
10336.3
8950.56
8206.56
7645.13
7324.9
7113.29
7003.94
6987.54
7002.59
7049.37
7110.99
7198.56
7230.52
7267.67
7274.91
7243.54
7038.44
6685.94
6245.61
5943.75
5799.43
5940.48
6900.58
7653.15
7617.02
7493.06
7418.11
7386.78
7361.08
7336.59
7329.63
7428.61
43385.6
63245.9
56947.6
60303.7
56570.2
45354.3
30839.3
17548.7
11042.1
8744.2
7942.69
7570.28
7346.33
7138.25
7044.84
7034.47
7055.01
7108.1
7170.39
7263.17
7285.88
7326.88
7277.08
7104.98
6789.93
6373.68
6030.01
5835.75
5784.36
5871.26
6631.33
7586.91
7643.65
7522.87
7446.46
7421.1
7398.85
7373.86
7366.58
7441.71
7742.04
43420.2
63246.9
56802.8
60485.3
56658.2
45251.6
31351.8
20605.4
13103.5
9098.39
7682.8
7257.48
7136.51
7084.64
7067.67
7078.62
7104
7165.63
7225.27
7324.91
7322.01
7268.37
7118.88
6828.8
6463.92
6131.04
5906.52
5798.52
5795.32
5856.99
6379.99
7443.71
7663.23
7552.75
7474.33
7454.56
7436.53
7412.3
7399.46
7467.35
7730.97
8409.39
43448.7
63270.2
56755.4
60754.7
56861
45189.3
31203.3
20689
15284.9
10268.4
7850.05
6954.45
6748.6
6783.47
6859.28
6931.11
7027
7130.69
7161.67
7215.01
7166.17
7033.79
6800.95
6486.36
6212.15
5988.79
5839.84
5807.29
5815
5863.63
6174.77
7232.04
7669.39
7582.24
7502.44
7486.64
7474.06
7451.05
7434.24
7488.96
7735.16
8358.45
9693.98
43468.2
63359.4
56824.5
61096.1
57079.3
45128
30945.6
20700.1
15137.7
11598.2
8542.46
7026.78
6476.03
6360.98
6447.78
6573.31
6712.68
6845.39
6876.43
6906.96
6819.89
6661.03
6461.05
6243.9
6064.5
5904.01
5844.09
5827.17
5839.45
5877.03
6030.38
6986.44
7651.08
7610.23
7531.42
7517.04
7511.18
7490.21
7469.87
7513.44
7735.88
8325.54
9589.77
11869.9
43471.3
63531.5
57016.5
61448.2
57259.8
45055.3
30680.9
20632.9
15133.6
11524.3
9357.49
7430.95
6529.35
6175.92
6121.45
6168.85
6289.44
6416.45
6481.33
6507.96
6465.77
6359.75
6243.13
6105.5
5984.15
5909.04
5863.17
5850.29
5864.47
5892.34
5970.27
6726.36
7591.13
7634.79
7561.41
7545.87
7547.48
7529.68
7506.51
7539.47
7741
8289.49
9505.01
11721.7
14954.2
43400.3
63666.7
57267.2
61778.9
57349.7
44981
30453.8
20574.4
15104.8
11435.6
9387.76
7816.01
6771.12
6258.69
6046.14
5992.36
6034.52
6128.52
6194.34
6239.55
6249.61
6194.35
6130.46
6067.87
5995.71
5931.44
5886.32
5874.35
5888.1
5910.22
5956.15
6480.93
7468.27
7652.52
7592.83
7573.25
7582.69
7569.27
7544.07
7567.19
7749
8259.59
9415.17
11592.9
14817.9
18361.9
43232.1
63632.9
57421.2
61958
57323.8
44871.5
30311.9
20562
15060.7
11401.9
9164.46
7809.55
6911.42
6384.31
6100.61
5999.98
5993.01
6026.48
6077.09
6125.82
6155.91
6159.67
6135.14
6088
6022.8
5957.48
5911.32
5896.88
5910.63
5930.66
5961.38
6276.38
7272.89
7658.11
7625.42
7599.7
7616.49
7608.82
7582.46
7596.46
7760
8234.27
9331.83
11452.1
14701.2
18320.3
21280.3
42976.3
63447.3
57468.8
61958.9
57135.9
44699.2
30215.9
20619.2
15023.8
11365.1
9149.53
7554.76
6832.14
6406.06
6160.97
6026.44
6003.79
6030.4
6080.36
6131.52
6168.25
6181.1
6163.96
6117.32
6052.46
5985.35
5935.13
5918.33
5932.17
5952.6
5973.43
6126.62
7049.04
7644.47
7655.74
7626.13
7648.58
7648.03
7621.59
7627.19
7773.77
8213.86
9253.55
11314.4
14560.5
18306.5
21355.8
23640.3
42685.5
63138.9
57452.4
61902.4
56875.7
44485.7
30146.8
20706.2
15012.6
11339
9145.38
7520.85
6563.4
6254.25
6149.2
6058.99
6016.68
6035.4
6087.71
6145.11
6187.43
6206.07
6193.55
6149.39
6083
6012.06
5958.22
5939.18
5953.2
5975.33
5989.43
6057.63
6811.37
7597.13
7680.03
7653.68
7678.95
7686.57
7661.27
7659.34
7790.14
8198.15
9181.2
11178.3
14416
18259.1
21478
23785.4
25737
42454.5
62808.4
57404.7
61837.1
56633.3
44266.8
30113.6
20800
15006.2
11339.2
9149.62
7515.67
6455.68
5958.51
5969.04
6039.97
6022.16
6036.07
6088.68
6153.95
6204.92
6230.35
6222.32
6179.55
6112.19
6038.41
5981.11
5959.96
5974.05
5998.11
6009.52
6037.55
6583.07
7497.02
7697.09
7683.45
7707.82
7724.08
7701.28
7692.82
7808.98
8187.03
9114.93
11045.5
14265.3
18203.6
21565.6
23993.2
25961.6
27456.1
42330.1
62622.3
57419.3
61801.2
56410.5
44056.7
30135.6
20885.5
14990.3
11353.8
9168.17
7515.45
6449.32
5775.55
5651.78
5889.83
6014.84
6034.26
6087.09
6158.25
6218.42
6251.74
6249.65
6209.58
6141.61
6065.08
6004.34
5980.9
5994.82
6020.71
6032.6
6040.53
6386.52
7331.55
7703.35
7714.92
7735.51
7760.23
7741.36
7727.51
7830.19
8180.31
9055.04
10916.7
14110.4
18136.1
21649.8
24168.7
26257.6
27760.1
28722.9
42324.9
62595.8
57500.4
61815.5
56254.6
43874.4
30216
20967.3
14970.7
11377
9192.88
7523.48
6450.67
5758.26
5392.83
5588.9
5937.28
6031.58
6085.62
6160.51
6229.5
6271.67
6276.49
6239.97
6171.93
6092.58
6028.06
6002.03
6015.59
6043.1
6057.18
6052.21
6234.53
7130.5
7690.42
7746.8
7762.47
7794.84
7781.22
7763.24
7853.66
8177.82
9001.64
10792.9
13952
18057.9
21725.8
24348.7
26519.8
28144.7
29087
29640.6
42434
62766
57556
61773.1
56132.7
43770.1
30371.6
21035.3
14953.1
11408.5
9218.95
7535.74
6457.91
5761.58
5313.1
5225.69
5697.25
6015.88
6081.08
6161.12
6237.39
6290.18
6303.22
6271.02
6203.18
6120.91
6052.28
6023.33
6036.33
6065.35
6082.29
6071.72
6158.85
6916.5
7650.13
7776.5
7789.45
7827.87
7820.62
7799.74
7879.32
8179.42
8954.81
10674.9
13791.3
17969.3
21794.6
24527.8
26786.8
28499.6
29538.5
30040.6
30379
42580.6
63063
57525.2
61604
55974.8
43724.3
30598.8
21087.4
14940.2
11450.5
9244.86
7549.79
6469.19
5770
5315.02
5056.16
5298.79
5849.79
6067.64
6157.31
6241.66
6306.45
6329.53
6302.64
6235.34
6150.05
6076.94
6044.76
6057.08
6087.59
6107.71
6097.76
6133.68
6707.62
7569.49
7798.34
7817.43
7859.51
7859.31
7836.71
7906.97
8185
8914.58
10563.5
13629.7
17870.6
21855.7
24707.5
27052.5
28863.6
29965.2
30532
30795
31107.8
42699.8
63359.9
57356
61259.4
55754.8
43732.3
30863.3
21123.5
14937.3
11501.3
9271.53
7565.11
6481.39
5781.91
5323.11
5038
5001.57
5524.13
5999.57
6145.93
6243.87
6320.18
6355.11
6334.62
6268.34
6180.02
6102.09
6066.34
6077.85
6109.91
6133.37
6126.36
6134.1
6523.14
7434.42
7807.33
7847.03
7890.05
7897.12
7873.81
7936.39
8194.45
8880.91
10459.5
13468.6
17762.4
21909.2
24887.8
27317.9
29231.3
30405.2
31002.5
31304.1
31526
31971.3
42762.4
63676.2
57135.8
60775.4
55464.7
43818.3
31145.7
21138.1
14953
11558.1
9299.59
7581.57
6494.37
5794.67
5333.89
5044.58
4888.15
5128.11
5793.97
6122.37
6243.48
6331.89
6379.41
6366.8
6302.13
6210.88
6127.77
6088.1
6098.71
6132.37
6159.25
6157.05
6146.99
6375.55
7248.92
7800.51
7878.35
7919.88
7933.88
7910.78
7967.25
8207.64
8853.86
10363.3
13309.8
17645.6
21954.9
25069.1
27582.6
29603.6
30853.3
31488.9
31794.6
32037.7
32383.4
33085.5
42754.3
64048.8
56945.5
60236.9
55146.7
43997.3
31414.1
21127
14987.2
11618.9
9329.15
7600.05
6508.06
5807.62
5345.93
5054.63
4885.6
4889.84
5441.63
6048.29
6237.36
6342.02
6401.63
6398.82
6336.67
6242.73
6154.08
6110.05
6119.67
6155.05
6185.24
6187.33
6166.02
6293.48
7050.79
7771
7908.62
7949.54
7969.6
7947.38
7999.19
8224.35
8833.42
10275.5
13155
17521
21991.2
25251.8
27845.8
29980.4
31310.9
31986.7
32302.6
32532
32889.3
33487.3
34545.3
42672.5
64473.7
56798.9
59691.8
54856.7
44239.7
31642.1
21081
15037.4
11681.7
9361.59
7619.18
6523.25
5821.08
5358.1
5066.61
4894.5
4806.06
5046.21
5823.43
6220.83
6347.85
6421.43
6430.29
6371.89
6275.69
6181.11
6132.25
6140.75
6178.04
6211.52
6217.1
6191.45
6261.57
6854.73
7708.66
7934.84
7979.48
8004.38
7983.56
8031.79
8244.24
8819.58
10196.7
13005.6
17390.1
22016.2
25433.8
28107.3
30361.4
31777.8
32497.2
32823.9
33044.4
33377.6
33983.3
34935
36435
42499.8
64825.1
56690.2
59219.9
54655.7
44549.9
31807.2
20998.5
15095
11745.3
9396.65
7638.53
6540.53
5835.28
5370.02
5078.86
4905.79
4810.53
4840.46
5447.31
6129.32
6345.58
6439.65
6460.79
6407.78
6309.86
6209
6154.72
6162.02
6201.37
6238.17
6246.71
6222.93
6256.29
6678.48
7603.96
7952
8010.36
8038.43
8019.28
8064.77
8266.88
8812.2
10127.6
12862.8
17254.5
22029.9
25610.7
28367.7
30746.6
32253.9
33020.4
33359.7
33571
33884.1
34460.8
35420.1
36811.8
38838.1
42207
64998
56562.2
58838.1
54623.3
44928.8
31927.4
20899.5
15149.3
11805.5
9433.08
7658.56
6559.21
5850.05
5381.71
5090.55
4917.76
4821.34
4779
5064.97
5900.02
6328.78
6455.17
6490.44
6444.22
6345.34
6237.85
6177.52
6183.46
6225.12
6265.23
6276.15
6255.62
6264.79
6535.39
7447.84
7952.59
8042.86
8072.08
8054.53
8097.88
8291.78
8810.99
10068.5
12728
17116
22032.7
25781.6
28629
31135.6
32739.4
33556.4
33910.3
34113
34405.1
34956.5
35885
37286.4
39201.1
41846.3
41798.7
64901.4
56363.9
58550.1
54764.9
45338.8
32004.9
20820.3
15199.3
11856.8
9469.16
7678.42
6578.64
5865.43
5393.14
5101.68
4929.25
4833.66
4784.63
4865.31
5534.55
6255.86
6463.9
6519.98
6481.06
6382.15
6267.78
6200.71
6205.12
6249.33
6292.66
6305.51
6288.16
6281.18
6443.74
7264.44
7934.45
8075.38
8105.6
8089.36
8131.02
8318.45
8815.51
10019.9
12602.6
16976.5
22025.5
25946.3
28891.4
31527.8
33233.8
34105.2
34475.5
34670.7
34941.8
35466.5
36368.1
37738.7
39666
42193.6
45568.7
41282.2
64466.6
56076
58398.3
55087.2
45764.1
32041.8
20770.2
15256.9
11903.9
9498.95
7697.54
6598.8
5881
5404.72
5112.46
4939.64
4845.73
4794.67
4799.31
5142.91
6041.98
6462.35
6548.69
6518.29
6420.31
6298.82
6224.41
6226.98
6274.06
6320.36
6334.98
6319.88
6304.03
6400.84
7077.22
7893.11
8105.23
8139.27
8123.8
8164.26
8346.51
8825.15
9981.83
12488.3
16837.9
22009.5
26105
29155.1
31923.1
33736.7
34666.7
35055.8
35244.1
35494.6
35992.2
36865.3
38209.1
40105.8
42648.9
45896.2
50139.9
40678
63755.3
55733.2
58425.7
55581.4
46147.9
32025.6
20742
15323.9
11954.5
9522.66
7716
6618.72
5896.39
5416.79
5123.19
4949.28
4856.73
4806.14
4804.52
4922.75
5689.55
6420.01
6572.47
6556.67
6459.73
6331.05
6248.72
6249.12
6299.15
6348.31
6364.55
6350.92
6333.09
6385.62
6904.87
7819.55
8128.54
8173.32
8157.99
8197.67
8375.74
8839.28
9954.1
12386.7
16702.1
21985.8
26258.3
29420.4
32320.3
34248
35240.5
35650.9
35833.6
36063.4
36534
37378
38693.5
40564
43075.8
46340.5
50440.2
55730.8
39997.9
62849.4
55400.3
58687.8
56242.7
46445.4
31917.7
20730.7
15403.5
12010.5
9542.87
7731.85
6637.97
5910.82
5428.92
5134.44
4958.85
4866.66
4818.24
4814.8
4839.43
5286.25
6238.5
6590.19
6596.81
6500.43
6364.52
6273.71
6271.67
6324.4
6376.63
6394.17
6381.35
6365.13
6386.13
6764.35
7703.88
8140.36
8208.05
8192.09
8231.39
8406.04
8857.34
9936.16
12299.4
16572
21955.6
26407.1
29687.7
32718.9
34766.8
35826.5
36260.5
36439.2
36648.9
37091.8
37906.6
39193.2
41036.1
43521.7
46752.4
50869.6
55991.5
62560.9
39234.2
61746.3
55107.7
59194.5
57055
46640.3
31717.7
20726.5
15499
12070.1
9562.87
7748.48
6656.17
5924.39
5440.83
5146.18
4969.21
4876.21
4829.7
4826.61
4841.75
5018.79
5933.09
6585.88
6635.52
6542.96
6399.27
6299.4
6294.82
6349.64
6405.4
6423.8
6411.22
6398.2
6394
6655.03
7541.07
8137.3
8243.62
8226.31
8265.46
8437.46
8878.94
9927.31
12227.1
16450.6
21920.1
26552.2
29958.3
33117.9
35292.6
36423.8
36884.6
37060.4
37250.8
37666.3
38451.1
39708.6
41523.7
43981.9
47184.6
51261.8
56398
62762.1
70914.7
38415.8
60503.3
54889
59887
57947.1
46734.2
31443.7
20720.6
15606
12130.1
9580.91
7769.26
6673.39
5937.14
5452.53
5157.92
4980.69
4886.3
4840.51
4839.21
4852.47
4908.83
5533.85
6461.25
6669.17
6588.64
6435.42
6325.81
6318.36
6374.83
6434.49
6453.43
6440.62
6430.61
6409.74
6587.72
7367.2
8117.36
8277.46
8260.71
8299.9
8470.06
8903.92
9926.9
12170
16341.5
21881.2
26694.5
30233.6
33516.7
35824.1
37030.1
37520.4
37695.9
37868.1
38257.5
39012.4
40239.9
42026.8
44457.7
47631.5
51676.1
56761.9
63132.5
71025.8
81162.7
37586.6
59204.1
54783.5
60742.1
58822.7
46702.9
31130.9
20722.7
15716.2
12182.8
9598.93
7793.43
6690.55
5948.94
5463.25
5169.24
4992.58
4897.18
4851.19
4851.31
4865.61
4898.61
5201.74
6223.96
6693.88
6637.34
6473.35
6353.03
6342.16
6400.3
6463.63
6483.07
6469.66
6462.46
6432.78
6554.05
7206.02
8074.77
8306.7
8295.34
8334.71
8503.98
8932.29
9934.52
12127.9
16247.2
21842.2
26831.6
30515.5
33911.5
36354.7
37641.9
38168.1
38345.6
38500.4
38862.7
39589.1
40787.8
42545.7
44949.2
48094.8
52106.3
57150.5
63453.5
71338.8
81137.8
93790
36795.6
57927.8
54811.3
61692.6
59559.4
46532.1
30829.8
20751.6
15829.9
12221.9
9616.12
7819.68
6708.17
5960.83
5472.85
5179.78
5004.32
4908.49
4862.11
4862.45
4880.12
4908.57
5035.18
5864.82
6670.06
6685.18
6514.38
6381.14
6366.1
6426.13
6492.74
6512.69
6498.37
6493.76
6460.35
6543.66
7065.93
8001.12
8328.11
8330.08
8370.02
8539.33
8964.19
9950.05
12100.3
16169.6
21807.1
26963.3
30798.1
34293.7
36884.5
38263.9
38828.9
39010.3
39147.8
39483.4
40179.9
41350.1
43080.9
45456.5
48574.3
52554
57556.8
63803.1
71594.2
81361.2
93561.5
109432
36027.4
56723.8
54964.5
62641.5
60068.2
46194.7
30566.7
20832.2
15950.9
12242.2
9632.64
7846.47
6725.26
5973.17
5482.43
5189.02
5015.45
4919.72
4873.68
4873
4893.94
4920.42
4972.21
5482.88
6510.61
6731.51
6560.5
6410.25
6389.95
6452.14
6521.58
6542.11
6526.92
6524.52
6491.63
6546.74
6943.14
7889.27
8339.49
8364.83
8405.94
8576.27
8999.78
9973.64
12086.9
16108.9
21779.6
27093
31069.3
34665.6
37420.4
38896.6
39503.4
39689.5
39810.9
40119.2
40785.7
41926.6
43630.6
45980
49069.9
53019.1
57982.5
64173.1
71883.6
81516.4
93647.8
108902
128925
35232.6
55606.1
55197.9
63481.6
60287.7
45721
30352.5
20960.9
16073.4
12250.4
9645.46
7872.04
6741.95
5986.58
5492.47
5197.33
5025.22
4930.38
4886.1
4883.32
4906.29
4933.7
4976.89
5221.96
6242.33
6763.65
6611.09
6440.46
6413.53
6478.19
6550.16
6571.38
6555.27
6554.87
6524.69
6558.06
6843.82
7747.31
8339.19
8399.07
8442.54
8614.89
9039.21
10005.5
12087.5
16064.8
21762.8
27210.7
31324.9
35036.7
37964.4
39541.6
40190.9
40383.4
40487.8
40769.7
41406.6
42518.5
44195.2
46519.3
49582
53500.9
58427.4
64565.5
72197.4
81713.5
93652.1
108783
127954
153358
34382.3
54585.2
55479.3
64113
60187.5
45170.8
30185.4
21128.2
16187.8
12254.5
9658.86
7895.77
6757.68
6000.67
5504.06
5206.09
5033.66
4940.03
4898.76
4893.73
4917.57
4947.25
4988.61
5098.41
5885.02
6714.03
6662.11
6473.04
6437.02
6504.02
6578.43
6600.46
6583.48
6585.03
6558.11
6575.65
6779.77
7595.88
8324.52
8430.36
8479.75
8655.28
9082.59
10045.9
12102.3
16037.3
21742.9
27314.8
31580.4
35406.1
38517.3
40198.7
40892.3
41089.8
41178.7
41435.9
42043.4
43125.5
44775.1
47073.8
50111.3
53999.9
58890.8
64979.8
72538.1
81940.9
93709.3
108563
127534
151752
184145
33474.4
53652.4
55824.9
64516.8
59817.5
44626
30099.3
21318.5
16282.8
12257.3
9677.96
7916.34
6772.35
6014.61
5516.78
5216.31
5042.36
4948.77
4910.92
4904.72
4928.45
4959.55
5003.15
5068.18
5544.99
6549.33
6715.05
6510.7
6460.38
6529.44
6606.24
6629.24
6611.66
6615.21
6591.87
6600.39
6748.86
7451.43
8293.81
8456.33
8517.15
8697.26
9129.68
10093.9
12128.6
16012.3
21713.8
27420.7
31841.8
35775.3
39077.4
40869.8
41606.4
41808.5
41885.3
42117
42694.1
43747
45369.2
47643.5
50656.8
54517.9
59371.9
65415.2
72904.7
82201.3
93805.1
108412
126987
150900
181642
223093
32546.9
52774.6
56220.9
64709.6
59278.4
44112.2
30118.8
21521.6
16343.2
12261.6
9702.63
7936.72
6785.59
6027.77
5529.66
5227.94
5052.25
4957.06
4922.41
4916.44
4939.43
4970.82
5019.5
5076.15
5319.35
6292.02
6744.02
6553.9
6483.36
6554
6633.43
6657.85
6639.9
6645.63
6626.05
6630.29
6742.01
7317.43
8238.21
8475.62
8553.82
8739.27
9176.68
10141.6
12154.7
15986.5
21688.8
27531.7
32112.3
36149
39638.5
41555.6
42331.9
42542.9
42606
42810.9
43358.7
44382
45977.6
48227.3
51217.9
55053.9
59874.1
65870.4
73296.5
82493.5
93942.8
108311
126529
149883
180187
219352
272466
31612.8
52004.3
56713.3
64769.9
58663.9
43651.7
30230.5
21726.9
16364.6
12265.4
9731.93
7956.96
6799.14
6039.91
5542.01
5240.08
5064.04
4965.75
4932.66
4928.08
4951.53
4981.74
5034.7
5089.09
5203.42
5975.21
6681.08
6597.72
6506.25
6577.6
6660.1
6686.21
6668.33
6676.52
6660.71
6664.44
6748.84
7195.45
8153.11
8489.38
8589.82
8782.08
9225.36
10192.7
12188.5
15972.6
21671.7
27647
32390.8
36535.2
40200
42251.5
43071.5
43292
43338.6
43517.5
44035.6
45030.1
46599
48825.2
51793.5
55606.5
60397.2
66348
73712
82816.7
94120.6
108264
126137
148983
178506
217075
267062
335033
30592.4
51356.2
57338.7
64757
58070.3
43301.5
30402.1
21906.8
16366.7
12268.1
9763.01
7977.88
6814.22
6051.64
5553.06
5251.87
5077.32
4975.69
4941.36
4938.87
4964.91
4992.58
5047.85
5104.62
5170.93
5678.21
6535.49
6642.56
6531.05
6600.05
6686.19
6714.46
6697.04
6708.11
6695.97
6702.38
6766.18
7097.63
8040.99
8497.08
8624.03
8825.32
9275.42
10246.5
12229.1
15970.2
21661.2
27763.9
32675.4
36936.9
40768
42951.9
43828.7
44054.3
44082.7
44235.5
44724.1
45689.8
47232.9
49435.9
52383.2
56174.4
60939.1
66850.9
74150.6
83169.6
94337.6
108268
125817
148171
176981
214482
263704
327468
414092
29481.3
50632.5
58026.8
64673.9
57510.2
43098.5
30599.8
22027.7
16353.2
12282.7
9793.97
7997.57
6829.9
6064.96
5563.2
5262.32
5090.67
4986.83
4949.88
4948.44
4978.57
5003.81
5059.14
5121.45
5177.31
5468.96
6317.38
6657.23
6559.95
6621.16
6711.66
6742.75
6726.2
6740.59
6732.07
6742.76
6789.96
7032.48
7908.9
8495.73
8655.42
8868.31
9326.22
10302.3
12275.6
15978.3
21657.4
27877.5
32966.3
37347.4
41354.8
43654.8
44598.3
44828.6
44838
44963.4
45422.8
46360.5
47878
50058.9
52986
56757.3
61497.9
67375.8
74619.7
83548.7
94592.3
108324
125564
147452
175569
212088
259887
322742
403820
513476
28460.9
49826.8
58607.3
64386.5
56938.9
43044.3
30801.1
22068.5
16334.8
12311.6
9827.71
8014.16
6845.46
6079.42
5574.66
5271.51
5103.09
4998.93
4959.54
4956.56
4991.51
5015.88
5068.78
5137.01
5190.18
5350.49
6062.06
6579.49
6589.99
6640.37
6736.57
6771.3
6755.97
6774.21
6769.35
6784.45
6819.09
6997.65
7770.63
8477.92
8683.64
8910
9377.14
10360.1
12327.3
15995.7
21660.5
27985.6
33257.9
37768
41954.3
44378
45367.6
45613.1
45603.6
45700.3
46130.2
47040.6
48533.6
50692.9
53601.2
57353.8
62072.9
67920.4
75116.2
83962.4
94881.5
108428
125378
146823
174281
209840
256319
317339
397440
499944
637596
27508.4
49182.5
59065.3
63847.6
56372.1
43022.6
30963.7
22049.5
16320.3
12353.8
9863.88
8029.11
6859.75
6094.19
5588.42
5281
5113.29
5010.89
4970.83
4964.48
5003.01
5028.79
5077.8
5150.23
5209.96
5304.96
5819.25
6450.84
6619.83
6658.03
6761.4
6800.38
6786.59
6809.16
6808.1
6827.77
6854.94
6987.61
7638.63
8441.2
8707.54
8950.53
9428.53
10420.3
12384.6
16022.9
21672.7
28089.5
33540.2
38204.8
42551.1
45139.5
46143.3
46397.4
46377.5
46445
46845.2
47728.6
49198.4
51337.4
54227.6
57963.3
62662.8
68483.5
75636.6
84411.1
95207.6
108580
125256
146283
173112
207753
252932
312231
390059
491665
620275
791563
26431.7
48509.9
59427.6
63128.1
55906.1
43027.5
30995.2
22005.4
16333.1
12403.1
9901.12
8045.57
6872.92
6107.84
5602.97
5292.42
5121.71
5021.6
4983.93
4973.73
5011.52
5041.52
5087.91
5161.66
5234.59
5304.63
5638.46
6274.29
6626.17
6677.51
6786.19
6830.31
6818.36
6845.69
6848.58
6872.9
6895.39
6996.08
7517.19
8385.95
8725.22
8987.77
9479.49
10481.1
12444.2
16056
21689.7
28195.8
33815.4
38644.1
43172.8
45881.9
46978.6
47170.5
47151.9
47195.3
47566.1
48423.2
49870.8
51991.1
54864.8
58584.5
63266.8
69063.5
76179
84890
95578
108774
125198
145827
172059
205819
249745
307331
383001
481922
609929
769967
981456
27815.1
48032.5
59470.6
62472.4
55502.1
43058.1
30926.4
21935.2
16385.9
12463.5
9932.07
8063.66
6888.56
6119.86
5616.41
5305.13
5131.14
5030.68
4997.62
4984.96
5017.11
5053.13
5101.94
5171.72
5257.04
5317.57
5528.93
6065.98
6555.84
6699.62
6811.42
6861.38
6851.58
6884.26
6891.01
6920.01
6939.74
7018.55
7417.01
8311.37
8736.02
9021.21
9528.57
10541.6
12505.5
16094.3
21711.2
28297.7
34082.8
39062.8
43818.1
46657.1
47789.7
48004
47904
47946
48291.4
49122.8
50549.3
52652.7
55511.8
59217.5
63883.7
69659.4
76741.4
85396.4
95988.2
109021
125199
145456
171119
204038
246754
302672
376161
472495
597497
757479
955125
1.2148e+06
28945.3
57021.2
62005.8
62031.4
55253.4
42988.3
30852.1
21881.8
16448.9
12528.9
9959.1
8081.86
6906.81
6133.2
5628.3
5317.72
5143.22
5038.59
5010.05
4997.52
5022.9
5063.19
5119.3
5183.21
5277.09
5337.58
5462.54
5867.92
6440.71
6720.39
6837.97
6894.01
6886.62
6925.13
6935.74
6969.28
6987.58
7050.57
7342.37
8219.93
8738.06
9051.05
9576.02
10603.1
12570.3
16138
21737.8
28396
34347.1
39472.6
44408.4
47497.1
48619.4
48824.4
48706.3
48673.1
49015.9
49826.3
51232.4
53320.5
56167.2
59861.1
64513.6
70270.2
77322.7
85927.6
96433.9
109321
125258
145168
170291
202407
243959
298251
369589
463262
585319
742118
940488
1.18325e+06
1.50127e+06
28856
61320.5
69986.1
64836.9
55642
42811.2
30770.2
21901.7
16512.1
12585.8
9986.55
8100.01
6925.27
6148.79
5639.68
5328.73
5156.93
5047.85
5018.33
5010.41
5031.33
5071.18
5137.43
5196.85
5293.59
5356.66
5440.11
5721.54
6302.24
6728.21
6867.92
6928.71
6924.05
6968.55
6982.99
7020.84
7038.52
7088.32
7293.82
8115.76
8729.65
9076.65
9621.63
10665.5
12638.3
16187
21768.3
28492.3
34605.7
39887.3
44977.4
48295.9
49522.9
49643.4
49509
49436.4
49718.6
50528.3
51920
53993.1
56829.7
60514.3
65155.7
70895.8
77921.7
86482
96911.5
109668
125386
144957
169576
200925
241358
294072
363287
454293
573257
726885
922055
1.16646e+06
1.46391e+06
1.85368e+06
28741.7
60777.7
76371.9
65050.9
57664.1
43288.6
30647.8
21962.7
16588.4
12603.7
10015.5
8125.67
6940.66
6164.58
5653.92
5338.13
5169.98
5060.02
5023.28
5022.58
5045.22
5078.46
5155.57
5211.35
5306.24
5368.66
5435.47
5634.28
6136.27
6695.14
6902.49
6965.89
6964.44
7014.62
7032.91
7074.52
7091.69
7128.42
7269
8004.66
8709.07
9098.23
9665.48
10729.1
12710.1
16242.1
21803.3
28587.1
34860.7
40298.1
45550
49065.9
50415.3
50533.6
50294
50212.4
50447.2
51211.5
52605.6
54670.9
57497.5
61175.9
65809.2
71536
78538.5
87058.3
97418.9
110057
125578
144825
168969
199592
238952
290137
357270
445600
561406
711625
903554
1.14487e+06
1.44488e+06
1.80972e+06
2.28926e+06
28535.4
59793.5
75667.2
71083
48934.7
42184.2
31144.8
21953.3
16673.1
12608.6
10027
8155.18
6957.88
6177.65
5669.4
5348.68
5179.52
5073.65
5030.76
5031.58
5063.42
5087.23
5171.77
5225.31
5312.39
5369.22
5429.74
5582.33
5964.79
6606.82
6941.89
7005.84
7008.43
7063.63
7085.2
7129.77
7145.56
7168.51
7263.94
7893.76
8674.9
9115.82
9707.44
10793.8
12785.9
16303.5
21843.7
28682.4
35112.5
40707.6
46117.6
49846
51279
51430.3
51142.4
50960.3
51197.7
51913.4
53275
55346.7
58171.7
61844.1
66473.1
72190.1
79173
87656.7
97954.3
110486
125827
144778
168466
198408
236744
286452
351543
437212
549789
696456
884824
1.12296e+06
1.42002e+06
1.78816e+06
2.23761e+06
2.83165e+06
28281.1
58556.8
75643.3
73216.4
54279.3
23277.2
28271.8
22160.5
16732.6
12656.1
10038.1
8171.88
6979.25
6189.05
5683
5363.39
5185.93
5086.12
5044.25
5037.99
5081.56
5099.65
5183.08
5234.17
5307.51
5370.25
5434.03
5548.75
5831.59
6494.66
6979.69
7049.58
7056.62
7115.7
7139.59
7186
7198.64
7208.17
7274.14
7790.7
8626.14
9129.64
9747.64
10859.3
12865.5
16371.6
21890.2
28778.3
35361.6
41118.6
46683.8
50628.2
52159.8
52295.3
52007.5
51762.1
51912.6
52644.2
53959
56008.2
58843.6
62520.1
67145.5
72857.4
79825
88277.3
98517.9
110952
126131
144812
168063
197366
234733
283023
346123
429145
538452
681411
865994
1.10057e+06
1.39455e+06
1.75978e+06
2.21293e+06
2.77079e+06
3.51366e+06
28067.2
57356.9
76223.8
76856.8
56039.9
23241.6
10438
19501.6
16464.3
12725
10105.7
8188.51
6999.13
6207.95
5691.15
5379.34
5195.54
5095.41
5061.6
5045.56
5096.55
5112.79
5186.05
5228.64
5303.12
5376.38
5443.67
5527.45
5734.14
6362.18
6998.58
7098.5
7109.5
7170.6
7194.86
7241.46
7249.74
7247.28
7294.8
7702.29
8562.64
9139.47
9786.29
10925.1
12948.8
16446.4
21943.7
28875.4
35608.5
41531.8
47250.2
51417.1
53052.7
53177.2
52839
52587.2
52673.8
53334
54678.4
56682.4
59502.7
63193.4
67827.5
73536
80494
88920.4
99110.1
111455
126484