/*--------------------------------*- C++ -*----------------------------------*\
| =========                 |                                                 |
| \\      /  F ield         | OpenFOAM: The Open Source CFD Toolbox           |
|  \\    /   O peration     | Version:  v2012                                 |
|   \\  /    A nd           | Website:  www.openfoam.com                      |
|    \\/     M anipulation  |                                                 |
\*---------------------------------------------------------------------------*/
FoamFile
{
    version     2.0;
    format      ascii;
    class       volScalarField;
    location    "600";
    object      p;
}
// * * * * * * * * * * * * * * * * * * * * * * * * * * * * * * * * * * * * * //

dimensions      [1 -1 -2 0 0 0 0];


internalField   nonuniform List<scalar> 
27324
(
44548.6
45932.8
44548.8
46738.9
45933.5
44549.3
47672.6
46739.9
45934.6
44549.6
48627.4
47673.6
46742.1
45936.4
44549.5
49666.2
48628.1
47675.8
46744.7
45937.6
44548.6
50768.5
49666.4
48630.6
47679
46747.7
45939.5
44546.6
51917.1
50767.9
49668.2
48633.3
47682.7
46751
45940.3
44543.5
53067.3
51915.3
50768.7
49669.9
48637.4
47687.8
46753.9
45940.6
44537.8
54188.9
53065
51914.1
50768
49672.4
48642.3
47693.5
46756.7
45938.1
44529.2
55306.2
54186.9
53063
51910
50767.9
49674.6
48648.7
47700.1
46758.6
45933.3
44517.5
56451.8
55304.9
54185.1
53057.7
51904.8
50765.7
49678.5
48655.9
47707.2
46758.7
45925
44500.9
57697.4
56452.2
55303.9
54180.5
53050.8
51896.9
50764.5
49682
48664.7
47713.8
46757.9
45911.7
44478.8
59031.7
57699.5
56454
55301.9
54173.8
53040.9
51888
50760.8
49686.7
48674.9
47722.5
46752.6
45893.7
44449.3
60412
59034.3
57703
56456.5
55299.4
54166.9
53029.2
51875.8
50757
49692.3
48688.1
47727.9
46745.2
45869.9
44415
61781.1
60413.9
59040.2
57708.7
56459
55297.7
54157.7
53014
51861.5
50752.2
49698.9
48700.8
47733.2
46731.6
45841.6
44372.6
63182
61781.3
60418.7
59046
57716.6
56466.3
55296
54148
52996.5
51846.9
50744.7
49705.6
48713.5
47732.9
46712.8
45809.9
44323.4
64679
63180.4
61783.6
60423.5
59054.6
57726.3
56473.3
55296.1
54138.4
52978
51828.7
50737.8
49712.5
48722.8
47724.6
46687
45773.8
44264.2
66326.4
64676.8
63180.6
61784.8
60431.5
59061.9
57736.2
56484.1
55299
54129.6
52954.2
51812.7
50732
49720.2
48726.9
47706.5
46654.3
45728.6
44189.1
68083.6
66325
64675.8
63179.5
61787.7
60437.6
59069.9
57747.6
56498.3
55303.7
54118.6
52932.3
51795
50729.7
49727.5
48714.7
47674.9
46610.7
45667.2
44083.7
69903.1
68082.6
66324.1
64672.9
63180.5
61788.7
60441.4
59074.1
57757.9
56513.6
55310.4
54109.2
52907.6
51779
50730.1
49723.9
48682
47625.6
46546.6
45576.8
43926.5
71730.1
69902.1
68082.9
66322.7
64670.2
63180.9
61793.6
60440.2
59073
57763.9
56531.2
55319.1
54094.8
52886.3
51766.2
50730.6
49700.6
48630.4
47553.8
46453.2
45434.1
43704.3
73616.4
71727.8
69902
68080.9
66321.2
64669.1
63183.3
61797.5
60430.6
59059.2
57768.7
56547.6
55322.7
54073.1
52866.4
51760.3
50726.9
49656.2
48553.7
47455
46313.4
45216
43431.5
75657.9
73615.3
71726
69899.4
68077
66321.3
64674.6
63191.1
61798.8
60407.1
59041.9
57766.3
56558.4
55314.5
54045.1
52850
51763.1
50700.8
49586.5
48449.6
47317.3
46104.8
44913.5
43246.2
78077.1
75659.2
73614.8
71720.2
69895.8
68073.4
66322.4
64684.9
63204.6
61793.2
60374.4
59013.3
57765.6
56554.2
55284.2
54009.9
52837.3
51759.3
50643.8
49481.5
48312.3
47119.6
45808.9
44584.7
43714.8
80792.2
78076.8
75663.2
73613.6
71713.6
69888.8
68069.4
66327.7
64704.5
63224.2
61783.5
60330.1
58986.3
57757.5
56528.1
55221.8
53961.8
52822.4
51718.4
50540.6
49337.9
48123.2
46836.8
45470.8
44425
45138.4
83516.4
80789.7
78078.2
75668.2
73612.5
71705.6
69877.9
68063.4
66335.6
64736.4
63249.4
61765.6
60286.6
58959.4
57742.6
56468.7
55135.9
53910.4
52788.6
51622.4
50389.7
49152.7
47862.9
46493.7
45215.3
45296.2
50262.6
85667.1
83513.9
80787.4
78079.2
75678.3
73612.7
71695
69859.2
68054.9
66349.4
64781.2
63276.8
61740.4
60249.4
58956.7
57717.7
56378
55048.6
53862.3
52719.3
51476.6
50208
48919.5
47535.4
46186.3
45691.7
47646.5
61651
87455
85667.5
83508.3
80777.9
78080.5
75693.8
73614.9
71683.9
69836.5
68047.4
66370.1
64834.9
63296
61718.1
60244
58984.3
57676.5
56275.8
54985.7
53829.7
52608.5
51303.2
50007.1
48626.3
47196.3
46198.5
47324.7
55665.8
79696.2
88776.9
87451.4
85666.2
83498.1
80767.5
78083.8
75715.2
73622.3
71671.3
69807.8
68034.7
66397.5
64883.8
63309.3
61702.5
60291
59014.1
57617.4
56201.4
54979.6
53787.4
52458.8
51129.2
49750.2
48240.7
46961.8
47622
53127.6
73964.7
84708.3
88598.1
88778
87452.1
85665.3
83477.5
80746.9
78089
75747.6
73632.9
71658.2
69773.6
68023.2
66432.2
64920.7
63289.8
61706.7
60365.5
59031.8
57539.6
56188.7
54998.3
53670
52295.3
50894.1
49333.1
47900.4
48126.6
51080.4
69189.6
77895.8
66499.7
75710.5
88556.1
88750.7
87438.5
85664.8
83452.3
80721.1
78099.9
75790.5
73651.6
71642.4
69744.5
68011.6
66471.6
64915.1
63241.6
61744.4
60448.7
58977
57475.5
56221.6
54921
53495.5
52035.7
50502.4
48933.3
48810.4
49828.9
63317
71300.4
59133.3
53944.6
47303.9
75562.6
88481.1
88737.5
87423.1
85658.3
83406.6
80686.2
78118.8
75842.3
73675.6
71626.2
69718.5
68022.2
66500.6
64853.2
63185.5
61801.1
60444
58851.2
57449.8
56193.1
54705.8
53215.4
51729.2
50176.5
49725.1
49140.8
56896.3
63104.4
55539.6
51396.5
51622
27674.1
47274.9
75286.4
88302.6
88695.1
87397.8
85652.4
83347.7
80644
78143.3
75903.7
73713.2
71616.4
69710.8
68062.8
66499.9
64752
63161.3
61850.9
60306.9
58720.6
57448.7
55954.5
54491
53011.1
51762.4
50414.3
48414.9
49896.1
54712.3
52075.1
50556.2
51212.3
52332
22843.4
27734.6
47206.9
74699
87977.9
88615.2
87359.6
85637.6
83258.4
80591.5
78181.9
75972.3
73746.4
71631.5
69744.9
68140.3
66454.4
64654.2
63216.5
61815.5
60101.4
58681.7
57335.6
55821.9
54528.7
53280
50639
47047.7
43076.2
46560.2
49172.5
49903.5
51028.1
52228.3
53015.3
22432.3
22858.6
27834.2
47076.2
73666.8
87388.4
88492.5
87302.6
85604.6
83147.1
80540.6
78230.9
76029
73781.2
71663.9
69849.4
68237.9
66379
64620.7
63322.2
61633.3
59986.7
58826
57280.1
56313.2
54170.6
50304.4
44182.2
36704.1
39261.8
46618.5
49440.7
50816
52122.9
53195
54043.2
22502.5
22437.9
22883
28054
46863.7
72082.8
86417.2
88266.6
87228.8
85556.3
83013
80490.7
78288.7
76072
73801.7
71736.5
70023.3
68266.5
66288.8
64802.1
63345.5
61517.9
60359.4
59195.8
57593.1
54409.4
48273.4
39484.9
31665
33811.6
44231.7
48920.9
50605.6
51958.4
53264.5
54471.4
55565.1
22739.7
22506.7
22445.4
22935.7
28417.3
46544.7
69649
84801
87872.4
87068.7
85413.9
82846.4
80452.3
78335.4
76070.4
73811.9
71863.9
70186
68277.7
66360.1
65219.9
63209.4
62193
60826.6
57880.6
52965.9
44336.6
34421.6
28558.4
30120.6
41493
48360.3
50358.2
51778.4
53257.2
54710.5
56240.7
57457.4
22901.3
22742.6
22512.9
22460.7
23022.8
29031.7
46089.8
66305.2
82181.9
87122.4
86795
85197.6
82662.8
80419.7
78388.8
76053.3
73849.5
72086.7
70440.8
68275.3
66952.1
65403.6
63782
61289.1
56992.5
49619.7
38598.7
30590
27148.4
27968.2
38314.6
47418.2
50039.4
51580.9
53219
54970.7
56629.6
58376.3
59469.8
23005.7
22902.8
22746.8
22522
22481.3
23171.4
29952.9
45583.6
61980.7
78015.1
85518.6
86242.3
84798
82406.1
80518.9
78418.4
76019.6
74063.3
72535.6
70404.9
68614.1
67334.8
64121.6
60871.8
53623.9
43027.4
33733.6
28717.3
26689.7
26936.3
34908
46076.2
49631.5
51373.2
53152.5
55206.4
57071.2
58897.2
60622.4
61430.2
23056.1
23006
22905.5
22753.8
22534.5
22514.9
23420.5
31312
45043.1
56978.1
71711.3
82101.9
84866.1
83907.6
81890.9
80359.9
78132.9
75970
74144
72470
69673.6
67728.8
63021.4
56770.7
46360
36947
31136.7
28195.5
26611.1
26564.1
31731.6
44129.7
49099.2
51156.3
53072.4
55418.9
57499.2
59482.7
61277.5
62799.2
63236.7
23089
23055.1
23006.5
22909.4
22763.1
22548.6
22559.5
23829.1
33180.2
44625.2
52043.9
63199
74956
80790.2
81851.2
80513
79284.7
77216
75006.3
73061
69517.7
65585.2
58092.4
48200.6
39220.2
33422.5
30355.1
28214.5
26731.7
26490.7
29243.6
41520.8
48370.8
50917.8
52998.9
55606.1
57923.3
60049.9
62011.7
63586.1
64792.6
64850.4
23100.9
23088.1
23055.5
23008.5
22914.9
22774.3
22568.6
22634.4
24526.1
35598.3
44435.6
48302.2
54251.2
63377.4
70988.9
74225.1
75104
75729.5
71237.8
69668.8
63555.4
56266.2
47648.8
40336.2
35222.3
32279
30254.1
28541.4
27037.7
26517.3
27630
38361.1
47364.9
50636.5
52956.7
55714.2
58332.6
60621.4
62721.2
64468.8
65698.5
66558.7
66287.8
23110.9
23099.6
23086
23053
23009.9
22920.5
22784.9
22590.7
22733.2
25695.5
38472.8
44650
46392.8
48344.9
51972.6
56368.2
59358.1
60345.7
58346.6
55694.6
50524
45267.9
40223
36521.7
33985
32130.4
30616.4
28979.3
27458.9
26566.6
26793.1
34995
45979.6
50276.9
52955.9
55805.9
58719
61193.1
63434.6
65321.3
66718.6
67564.3
68116.4
67401.9
23117.5
23109.1
23098.1
23084.8
23052.9
23010.4
22923.8
22794.8
22626.2
22915.2
27598.9
41494.4
45235.8
46005.3
46189.8
46466.7
46872.9
46842.9
46198.4
44603.6
42245.3
39728
37450.7
35616.3
33987.1
32528
31000.3
29515.6
27889.9
26646.5
26449.5
31882.2
44123.4
49795.6
52971.6
55852.6
59074.9
61765.3
64148.7
66174.1
67708.7
68700.7
69200.6
69342.7
68515.9
23120.6
23115.7
23106.3
23094.7
23081.7
23051.5
23012.2
22927.1
22802.7
22672.5
23247
30494.8
44222.9
45874.3
46260
45907.4
44872
43595.7
42481.5
41400
40085.2
38627.6
37142.3
35914.1
34392.5
32955.8
31547.3
30013.1
28334.8
26832
26348.5
29407.2
41751.5
49130.9
53026.6
55886.7
59394.9
62333.9
64866.6
67022
68700.7
69811.4
70428
70514.1
70530.8
69313.2
23119.3
23118.6
23112.3
23101.4
23089.5
23078.9
23050.6
23010.1
22925.5
22805.5
22743.2
23941.6
34382.5
46385.6
46821.2
46693
45939.9
44409.5
42903.8
41605.8
40416.3
39115.8
37748
36309.7
34939.4
33540.2
32050.5
30479.6
28776.7
27089.5
26323.5
27737.5
38922.7
48241.6
53051.6
55924.5
59683.9
62893.3
65588
67869.3
69685.4
70930.9
71633.8
71838.6
71738.7
71403.4
69959.3
23101.1
23117.8
23114.7
23107
23093.6
23082.4
23073.8
23046.8
23007.5
22917.1
22811.7
22847.3
25411.9
38663.9
47381.1
47362.8
46877.3
45679.2
44004.2
42456.6
41082.7
39756.9
38402.2
37011
35561.4
34068.5
32534.5
30926.6
29211.1
27435.2
26330.1
26795.9
35893
47104.7
52899
56004.8
59923.2
63435.3
66311.2
68719.2
70664.8
72048
72855
73144.5
73108.4
72666.2
72086.6
70445
23074.9
23101
23114.5
23110.5
23099.5
23084.3
23073
23068.8
23045
22998
22906.2
22813.5
23045.6
28276.1
42221
47466.9
47220.3
46558.8
45060.8
43387
41905.7
40503.1
39078.3
37610.4
36118.2
34586.4
33006.3
31371.6
29646.6
27825.3
26442.8
26366
33035.1
45514.1
52518.7
56161.7
60150
63950.5
67031.3
69575.1
71640.1
73161.9
74080.2
74470.3
74463
74097.4
73383.6
72592.6
70812.5
23052
23075.8
23100.1
23112
23102.3
23090.9
23072
23062.8
23059.7
23033.1
22983
22885.4
22833.2
23569.9
32922.5
44381
47053.2
47030.9
45987
44299
42657.2
41180.4
39718.7
38209.7
36666.1
35097
33487.8
31824.4
30084.7
28246.1
26658.7
26212.2
30674.5
43471.8
52010.5
56416.9
60363.8
64431.3
67742.8
70438.2
72615.3
74270
75309.1
75803.7
75841.6
75516.2
74849.8
73922.2
72964.4
71085.2
23041.4
23053.9
23076.8
23100.2
23108.1
23096.6
23076.8
23058.9
23048.7
23048.3
23024.2
22954.2
22870.6
22876.6
25025.3
38739.8
46086.1
47163.6
46751.7
45313.1
43484.9
41866.7
40356.5
38818
37237.6
35628.7
33984.1
32289.7
30529.1
28680.5
26970.8
26162.2
29002.1
41035.9
51267.1
56695.5
60576.8
64872.4
68439.6
71307.8
73594.5
75371.6
76538.5
77144.1
77231.7
76963.5
76306.5
75417.1
74320.8
73233.5
71286.6
23048.9
23042.5
23055.3
23079.6
23100.2
23105.7
23085.1
23064.8
23042.7
23033.5
23032.7
22999.3
22917.1
22845.1
23034
28473.5
43856.5
47177.7
47252.8
46307.7
44432.9
42619.8
41025.2
39452.5
37832.4
36180.8
34498.9
32768.1
30980
29124.5
27350
26156.7
28030.4
38373
50244.3
56976.4
60796.4
65277.9
69117
72179.5
74582.4
76467.5
77765.2
78488.2
78632.3
78427.7
77794.9
76906.1
75834.8
74612.7
73427.1
71435
23080.6
23049.8
23044.4
23059.2
23083.7
23102.5
23099.8
23082.6
23047.2
23025.8
23017
23014.6
22969
22862.8
22834.4
23686
34321.7
46657.5
47437.6
46995.9
45442.3
43455.5
41732.2
40114.3
38454
36752.8
35028.1
33259.4
31440
29578.5
27774.7
26409.1
27600.4
35767
48955.2
57001.7
61049.4
65661.2
69772
73046.4
75581.2
77561.8
78985.6
79832.8
80040.3
79908.7
79304.3
78429.1
77346.3
76140.4
74824.7
73567.2
71543.2
23103.1
23080.4
23050.8
23046.8
23064.2
23090.4
23105.2
23103.1
23068.6
23033.9
23008.9
23001.7
22986.7
22919.4
22820.3
22849.7
25996.5
40532.2
47247.3
47227
46372.2
44400.1
42492.5
40798.6
39097.3
37344.9
35573
33764.4
31911.4
30042.6
28239
26740.1
27466.6
33525.9
47265
56767.7
61361.2
66039.6
70401.8
73899.7
76589.4
78660.3
80197.9
81173.3
81454.5
81403.2
80835.1
79975.7
78892.2
77668.4
76361.6
74979.7
73669.9
71621
23108.3
23102.9
23079.7
23051.9
23052.1
23071.4
23098.8
23112.5
23098.4
23064.2
23016.1
22993
22984.6
22956.2
22855.6
22784
23174.1
31370
44656.8
47197.6
47024.8
45446.8
43337.3
41511.4
39760
37958
36134.5
34284.6
32397.3
30520.3
28735.2
27218.2
27443.6
31870.1
45122.7
56206.1
61811.3
66429.7
71003.9
74731.5
77601.9
79769.3
81402.8
82504.9
82874.2
82907.9
82383.9
81546
80462.7
79230.5
77900.9
76522.9
75093.3
73745.9
71676.2
23089.1
23107.7
23101.8
23078.4
23052.9
23054.6
23082.8
23112.5
23118.6
23102
23051.3
23007.6
22981.5
22968.1
22909.5
22783.4
22773.1
24784.1
38940.2
46619.2
47318.8
46467
44290.2
42265.4
40440.9
38594.2
36715.4
34820.9
32900.5
31015.1
29259.2
27777.4
27579.4
30867.2
42696
55471.2
62303.3
66838.9
71577.6
75537.5
78610.4
80892.4
82605
83822.2
84300.3
84418.5
83947.1
83136.2
82057.5
80817
79473.5
78070.1
76641.1
75177.3
73803.1
71714.6
23049.9
23088.7
23106.9
23099.4
23076.8
23054
23064.1
23093
23124.6
23128.4
23100.3
23045.7
22996.4
22975.1
22947.7
22850.3
22743.8
22956.5
29776.6
44749.9
47402.6
47184.1
45334.7
43084.2
41141.9
39254.2
37318.9
35375
33423.1
31532.7
29813.3
28383.7
27804.5
30414.8
40218.9
54460.9
62717.8
67263.6
72127.4
76317.8
79605.6
82028.9
83811.3
85125
85732.1
85929
85519.2
84742
83672.9
82427.5
81070.3
79649.8
78193.8
76728.5
75239.9
73846.7
71740.9
23021.9
23050.7
23088.4
23104.9
23095.6
23071
23057.4
23066.7
23107.7
23137.6
23133.8
23100.2
23037
22997.9
22974
22923
22791.7
22744.8
24318.3
37783.2
47042.9
47438.3
46357.9
44000
41874.1
39937.7
37948.4
35948.5
33968
32077.8
30401.4
29047.4
28311.6
30305.6
38000.5
53177.5
62983.4
67718.2
72668.1
77076.9
80579.1
83172.4
85028.4
86416.9
87159.4
87433.3
87094.2
86357.4
85305
84058.4
82690.5
81253.1
79778.3
78285.2
76793.7
75286.9
73880.4
71759
23023.5
23022.5
23051.8
23087.3
23102.8
23090.2
23066.3
23054.3
23076.6
23120.9
23150.2
23139.4
23092.9
23037.2
23002.2
22974.1
22878.2
22748.5
22914.3
29317.4
44214.6
47449.4
47132
45027.8
42661.1
40643.8
38606.7
36543.7
34537.9
32654.4
31031.7
29762.1
28948.6
30298.1
36303.8
51481.5
62783.4
68244
73219.6
77819.5
81525.5
84311.8
86260
87702
88567.3
88928.1
88667
87976.8
86948.8
85706.5
84331
82879.5
81386
79873
78353.4
76842.9
75322.7
73906.7
71771.3
23040.6
23023.6
23023.1
23052.9
23087
23098.8
23083.5
23054.8
23055.6
23080.3
23134.2
23155.9
23135.8
23085
23034.2
23007.7
22958.9
22818.7
22764.5
24261.6
38143.3
46908.4
47473.8
46103.3
43537.9
41375
39294.1
37164.5
35135.1
33267.8
31710.7
30525.8
29705.9
30520.5
35267.6
49348
62244.2
68878.9
73795.4
78547.3
82442.6
85434.2
87503.7
88988
89952.6
90411.7
90233.6
89595.2
88599.8
87367.6
85989.3
84526
83016.4
81483.8
79943.7
78404.9
76880.5
75350.1
73927.4
71779.8
23058.1
23041
23023.5
23024.4
23055
23086
23094.5
23071.8
23045.1
23049.6
23090.7
23140.8
23154.3
23123.3
23066.2
23032.3
23003
22909.6
22763.8
22898.8
29859.5
44889.8
47520.3
47015.2
44536.9
42142.2
40007.1
37817.2
35761.2
33926.1
32440.8
31342.2
30540.5
30841.4
34812.8
46986.5
61599.7
69551.6
74395.1
79260.3
83333.2
86528.2
88750.5
90282.7
91315.7
91876.2
91792.2
91208.5
90253.4
89038.1
87661.7
86190.8
84667.1
83117.1
81556.8
79997.2
78444.4
76909.6
75371.4
73943.7
71785.8
23044.5
23058
23040
23023.4
23027.6
23058.5
23086.9
23087.1
23059.8
23034.4
23050.9
23094.7
23144.8
23144.5
23095.1
23049.5
23018.3
22969.2
22800.1
22737.9
24610.2
39185.6
47223.5
47502.6
45645.8
42970.8
40740.7
38508.7
36418.7
34637.7
33225.5
32216.7
31448.8
31444
34694.8
44658.6
60712.4
70091.2
75004.8
79962.5
84204
87587.3
89985.4
91589.6
92663.4
93314.2
93339.1
92814.1
91905.3
90714
89345.1
87870.5
86336.1
84770.5
83192.2
81612.1
80038.3
78475.1
76932.4
75388
73956.7
71790.1
23018.9
23044.9
23057.3
23039.9
23024.2
23032.4
23064
23086
23080.7
23044.2
23023.9
23047.8
23104.4
23138.4
23115.1
23062.7
23016.7
22991
22885.7
22733.8
22958.7
31337.7
45610.5
47597.7
46728.9
43898.5
41494.3
39242.2
37116.7
35402.3
34069.3
33151.1
32424.1
32210.2
34851.1
42757.5
59603
70400.2
75632.5
80666.8
85062.6
88609.8
91192.4
92903
94007.6
94722.4
94868
94410.5
93551.2
92390.8
91035.8
89562.5
88020.7
86442.6
84847.8
83249.1
81654.7
80070.4
78499.1
76950.3
75400.9
73966.9
71793.2
23004.8
23019.3
23044.9
23056.4
23038.4
23025.2
23036.5
23070.8
23087.9
23071.2
23032.6
23016.8
23055.7
23104.9
23118.5
23083.2
23015.3
22993.3
22941.8
22767.2
22697.3
25475.2
41161.7
47573.3
47505
44956.6
42279.9
40013.5
37872.2
36218.4
34987.9
34147.3
33463.5
33155.8
35098.4
41492.9
57922.8
70208.5
76324.8
81393
85913.4
89596.8
92358.5
94210.3
95359.1
96106.2
96369.9
95996.6
95188
94063.8
92729.2
91263.2
89718.6
88130.7
86522.1
84906.4
83293.2
81688.1
80095.7
78518.2
76964.5
75411.1
73975
71795.5
23009.6
23004.4
23019.5
23044.8
23055.6
23035.9
23027.7
23043.4
23079.6
23091.2
23062.8
23022.3
23023.2
23067.5
23107.6
23102.8
23032.2
22993.6
22968.1
22848
22678
23168.9
33985.9
46566
47794.6
46112.1
43126.8
40813.6
38703.4
37088.3
35985
35205.9
34576.6
34202.2
35454.9
40842.9
55841.5
69889.9
77124.8
82146.9
86752.9
90550.2
93476.8
95494.3
96721.4
97479
97836.2
97567.7
96813.5
95727.9
94420.5
92968.5
91426.4
89832.6
88212.7
86582.7
84952.1
83327.8
81714.6
80115.9
78533.4
76975.8
75419
73981.2
71797.2
23019.4
23009.5
23003.7
23021.2
23046.5
23053.5
23034.9
23026.7
23050.8
23087.7
23088.7
23053.8
23019.3
23035
23097.9
23111.1
23072.1
23013.6
22977.3
22925.7
22704.1
22697.7
27307.1
43493.2
47838.8
47178.4
44077.8
41645.6
39606.5
38023.1
37058.9
36337.1
35767.5
35356.6
36117.4
40631.6
53569.1
69437.2
77879.1
82910.6
87573.8
91473.6
94548.1
96740.1
98086.9
98857.8
99265.6
99112
98424.8
97377.9
96104
94672.9
93138.9
91544.6
89917.5
88275.8
86630.1
84987.8
83355.7
81735.8
80132.1
78545.6
76984.7
75425.1
73986
71798.4
23014.9
23019.7
23008.1
23003.3
23022.9
23045.2
23046.5
23028
23029.6
23063.2
23095.7
23089.2
23042.3
23027.3
23061.8
23116.2
23110.4
23045.5
22985.2
22968.8
22800.6
22665.5
23827.5
37543.8
47442.2
47850.2
45173.1
42524.1
40580
39057.3
38207.3
37552.5
37042.3
36613.5
36977.1
40889.6
51438.4
68794.7
78441.1
83651.3
88375.9
92373.1
95579
97938.3
99438.4
100250
100668
100610
100013
99009.2
97770.5
96366.8
94848
93261.9
91634.8
89985
88325.9
86667.9
85017.7
83377.8
81753
80145.1
78555.2
76991.7
75429.7
73989.6
71799.2
23010.9
23015.3
23018.7
23007.8
23003.3
23024.8
23046.4
23041.5
23026
23031.7
23072.9
23098.8
23075.8
23039.3
23033.9
23098.3
23129.2
23089.3
22997.7
22987.7
22899.5
22680.9
22765.8
30524.1
45694.6
48057.9
46392.6
43482.8
41619
40196.6
39428.3
38863.5
38408.7
37965.4
38042.7
41245.2
49767.3
67806.4
78711.3
84385.6
89172.8
93257.1
96577.7
99086.3
100754
101649
102059
102049
101557
100615
99407.6
98037.2
96549.8
94984.4
93364.5
91709.4
90038.3
88366.2
86699.7
85040.1
83396.4
81766.9
80155.5
78562.9
76997.1
75433.1
73992.1
71799.7
23025
23012.4
23016
23020.3
23006.2
23004
23028
23042.1
23035.9
23021.2
23033.3
23083.1
23095.2
23060.5
23027.5
23059.7
23134
23118.3
23027.7
22998
22949.9
22747.6
22584.8
25498.2
41443.4
48092.8
47557.7
44568.9
42720.5
41446.5
40737
40276.2
39870.2
39408.3
39290.1
41745.2
48615.7
66189.1
78688.4
85152.5
89981.2
94131
97548.6
100185
102011
103026
103439
103430
103035
102182
101002
99678.9
98240.1
96703.5
95084.8
93417.8
91743
90066.6
88390
86719
85061.2
83410.8
81778.1
80163.8
78568.8
77001.1
75435.5
73993.8
71799.8
23041.5
23025.9
23012.2
23016.5
23018.9
23005.9
23003.9
23029.6
23045.4
23026.5
23017.1
23046
23085.8
23082
23025.8
23026
23090.8
23125.5
23073.5
23003.9
22963
22853.6
22570.7
23253.5
35176
47276.9
48352.6
45808.5
43898.9
42805.2
42151.9
41799.1
41433.2
40948.3
40657.8
42332.3
47987.8
64250.7
78576.4
85952.9
90796.3
94992
98490.6
101236
103189
104345
104789
104766
104425
103685
102551
101289
99907.7
98387.3
96768.4
95131.6
93474.1
91792.7
90104.7
88419.2
86741.3
85073.4
83423
81787.1
80170.3
78573.4
77004.1
75437.2
73994.8
71799.6
23025.4
23041
23024.6
23015.1
23018.4
23018.6
23003.9
23008.3
23035
23037.3
23019.9
23017.3
23057.6
23085.9
23057.7
23011.9
23037.7
23101.8
23112.4
23017.4
22959
22927.9
22603.5
22619.9
29027.6
44838.5
48673.1
47213.8
45200.8
44271.5
43696.1
43439.3
43105.1
42588.9
42142.9
43182.1
48004.4
62120.5
78393.7
86606.9
91588.2
95833.6
99398.4
102229
104268
105556
106071
106050
105720
105074
104049
102859
101523
100004
98448
96852.1
95199.3
93519.7
91827.3
90132
88440.6
86758.1
85087.8
83432.6
81794.3
80175.4
78576.8
77006.3
75438.1
73995.2
71799.3
23027.3
23025.7
23040.2
23026
23015.3
23018.6
23016.1
23005.6
23015.1
23037.7
23035.6
23012.2
23021.2
23070.4
23081.3
23024.1
23002.1
23067.7
23125.3
23051.2
22952.9
22959.4
22745
22531.9
24962.5
40172.3
48737.7
48719.6
46642.8
45844.3
45385.3
45207.1
44891.3
44335.4
43745.4
44253.1
48441.6
60089.6
78003.8
87016.7
92329.5
96655.9
100263
103142
105227
106609
107236
107245
106923
106320
105466
104366
103038
101589
100115
98541.8
96912.3
95246.8
93558.3
91857.7
90155.7
88459
86772.2
85098.2
83440.4
81799.8
80179.2
78579.2
77007.6
75438.5
73995.1
71798.7
23069.2
23025.3
23026.3
23039.3
23023.6
23017.1
23018.6
23018
23006.7
23022.1
23042.9
23027.5
23009.2
23037.8
23082.8
23064
22991.6
23024.4
23127.7
23099
22955.2
22971
22883.8
22528.1
23078.5
34477
47356.7
50074.4
48249.8
47547
47234.2
47107.4
46796.5
46194.3
45460.1
45518
49014.1
58349.5
76902.5
87147.9
93050.3
97460.5
101064
103936
106034
107468
108228
108316
108017
107432
106753
105773
104472
103151
101724
100197
98605.7
96964.6
95287.4
93589.8
91882.5
90175.1
88474
86783.7
85106.8
83446.3
81804.1
80182
78580.8
77008.4
75438.5
73994.7
71798
23092.1
23068.7
23023.6
23028.2
23038.9
23023.7
23018.8
23024.7
23015.1
23003
23032
23046.1
23016
23011.7
23072.8
23086.6
23025.7
23003.6
23088.6
23123.1
23004.6
22979.2
22963.2
22606.9
22464
29086.7
45033.6
50985.4
50023.1
49409.2
49258.3
49153.8
48825.9
48173.1
47281.1
46963.1
49747.5
57047.1
75399.6
87277.5
93779.7
98224.7
101760
104565
106656
108122
108995
109234
108963
108436
107856
106976
105820
104628
103268
101807
100267
98660
97006.8
95321.1
93616.5
91903.5
90191.3
88486.4
86793
85113.5
83451.1
81807.2
80183.9
78581.8
77008.6
75438
73994
71797.1
23039.5
23095.1
23067.2
23020.1
23031.9
23039
23020.3
23021.3
23023.8
23010
23011.1
23040.6
23044.9
23011.1
23022.9
23088.6
23078.7
23007.9
23028.8
23125.3
23073
22981.8
22983.9
22755.4
22343
25495.4
40619.3
51149.4
52000.6
51472.9
51467.5
51358
50985.6
50276.9
49204
48569.9
50543.9
56233.4
73524.3
87346.8
94377.5
98871.7
102295
104985
107072
108573
109528
109957
109760
109321
108807
107991
107083
105989
104727
103356
101879
100323
98704.9
97042.8
95349.6
93639
91921
90204.7
88496.5
86800.4
85118.8
83454.7
81809.5
80185.1
78582.3
77008.4
75437.4
73993.1
71796.2
23160.6
23044.8
23098.7
23063.7
23019.4
23034.3
23040.3
23021.8
23023
23025.6
23007.6
23016.1
23045.6
23034.6
22999.6
23053.7
23106.4
23037.2
22985.8
23091.8
23144.4
23003.4
22969.4
22918.9
22320.5
23634.5
35705.6
49955.3
54207.2
53773.7
53874.4
53730.7
53283.4
52508.3
51235
50255
51391.7
55806.1
71504.9
87238.5
94739.7
99301.8
102619
105191
107293
108835
109864
110446
110433
110043
109666
108829
108162
107223
106080
104815
103428
101938
100371
98743.4
97073.5
95373.9
93658
91935.7
90215.7
88504.7
86806.3
85122.8
83457.3
81810.9
80185.8
78582.3
77008
75436.5
73992
71795.2
23489.2
23151.8
23052.9
23103.7
23053.9
23015.7
23040.2
23040
23014.2
23027.6
23025.9
23002.3
23029.7
23052.2
23005.8
23007.8
23106
23083.8
22974.8
23034
23174.1
23045.6
22918.6
23000.4
22388.9
22979.6
31039.4
47663.2
56285.6
56268.9
56489.5
56284.1
55728.6
54867.2
53372.4
52029.7
52503.2
56266.5
69473.1
86560.7
94833.8
99477.6
102731
105234
107360
108942
110050
110748
110920
110649
110336
109591
108989
108300
107316
106163
104885
103488
101988
100412
98776.5
97099.9
95394.7
93674
91947.9
90224.8
88511.2
86810.8
85125.8
83459.1
81811.8
80185.9
78581.9
77007.3
75435.5
73990.8
71794.2
23634.4
23486.2
23144.7
23068.6
23106.2
23044.6
23016.2
23046.5
23025.5
23016.4
23034.3
23015.9
23003.1
23045.1
23048.2
22996.8
23045
23102.9
23007.2
22987.1
23178.6
23115.1
22879.6
23025.1
22774.7
22865
27766.8
44341.4
57587.8
58950.8
59319.5
59031.1
58334
57347.3
55613.7
53890.8
53778.2
56760.2
67550.8
85424.9
94645.8
99489.3
102757
105228
107330
108896
110002
110729
111143
111163
110756
110276
109639
109119
108401
107391
106231
104946
103540
102032
100448
98805.3
97122.5
95412.2
93687.4
91957.9
90232
88516.3
86814.2
85127.9
83460.2
81812.2
80185.7
78581.3
77006.4
75434.3
73989.6
71793.1
24288.7
23714.7
23476.9
23127.6
23096.5
23115.5
23032.4
23014
23046.3
23022.4
23019.6
23040.4
23004.4
23010.5
23062.4
23023.5
22984.4
23083.4
23087.7
22978.7
23085.9
23149.2
22871.4
23015.2
23176.7
22879.2
26002.1
40057.7
57597.4
61871.3
62401.9
61987.6
61111.8
59942.4
57953.5
55837.4
55184.1
57458.7
65763.2
83753.9
94033.7
99169.3
102537
104860
106907
108558
109742
110656
111080
111416
111156
110569
110483
109618
109239
108466
107456
106291
104999
103586
102071
100479
98830.2
97141.9
95427
93698.5
91966
90237.8
88520.2
86816.7
85129.2
83460.7
81812.1
80185.2
78580.5
77005.3
75433.2
73988.4
71792
55406.4
28602.2
23775.2
23472.1
23106.9
23126.7
23119.2
23019.6
23029.8
23049.6
23013
23039.6
23039.6
22992.1
23043.9
23063.9
22975.4
23036.7
23152.4
23013.3
22977.4
23158.1
23020.8
23001.5
23556.5
23124
25356.1
35969.9
56027
65070.8
65742.1
65164.5
64068.9
62654
60388.9
57868.3
56685.1
58227.6
64248.3
81617.9
93108.1
98499.4
102022
104396
106400
108080
109348
110322
110902
111298
111499
110862
110623
110568
109623
109325
108524
107513
106345
105047
103627
102105
100506
98851.6
97158.4
95439.4
93707.6
91972.5
90242.3
88523.1
86818.4
85129.9
83460.8
81811.7
80184.5
78579.5
77004.2
75432
73987.2
71791
55289.9
55248.3
30112
24057.1
23463
23078.3
23174.4
23119.9
23014.6
23060.4
23035.5
23012.8
23050.8
23023.5
22993.7
23068.3
23031.3
22985.7
23162.8
23077.4
22894.8
23117.6
23198.6
23096.7
23887.6
23691.7
25268.6
32956.9
53622.3
67978.4
69269.9
68566.5
67211.3
65480.7
62925.6
59977.5
58239.2
58973.9
63013.9
79096.1
91807.8
97651.6
101381
103823
105800
107509
108876
109900
110570
111098
111271
111480
110834
110644
110642
109666
109389
108578
107565
106394
105091
103664
102135
100530
98870
97172.3
95449.6
93715
91977.7
90245.7
88525.2
86819.5
85130.6
83460.6
81811.1
80183.6
78578.5
77003.1
75430.8
73986
71790.1
55193.5
55284.5
55703.1
32503.9
24478.8
23485.9
23064.6
23211.9
23104.3
23025.8
23070
23021.8
23015.3
23069.7
22986.5
23031
23100.4
22983.8
23054
23141.3
22871.6
23055.9
23441.8
23237.6
24233.6
24414.8
25780.7
31484.1
50577.2
69912.9
72903.3
72196.4
70556.2
68423.3
65544.5
62137.9
59786.9
59603.3
62056
76309
90153.5
96564.7
100576
103178
105151
106876
108328
109400
110184
110765
111035
111263
111481
110809
110683
110684
109722
109444
108628
107612
106439
105130
103696
102161
100551
98885.7
97183.9
95458.1
93721
91981.7
90248.2
88526.6
86820
85130.5
83460.2
81810.4
80182.7
78577.4
77002
75429.7
73984.8
71789.2
55173
55196.1
55283.8
55512.5
35041
25335.7
23546.5
23084.9
23224.6
23078.4
23043.7
23092.8
23005.1
23076.7
23057.4
22982.7
23114.7
23057.7
22944.9
23149.3
23044.8
23023
23708.2
23521
24664.3
25334.5
26712.9
31136.8
46875.7
70567.6
76647.7
76059.1
74130.7
71470.5
68219.6
64296.5
61235
60056.7
61358.1
73421.4
88172.8
95298.1
99616.5
102464
104470
106194
107708
108868
109747
110365
110706
111039
111244
111488
110812
110730
110716
109787
109493
108676
107656
106480
105165
103725
102184
100568
98898.9
97193.5
95465
93725.7
91984.8
90250
88527.4
86819.9
85130.2
83459.5
81809.5
80181.6
78576.3
77000.9
75428.6
73983.7
71788.3
55119
55173.4
55197.6
55280.8
55940.5
37713
26631.3
23787.3
23162.3
23265.9
23020.4
23119.7
23074.6
23011.6
23098.5
22999.4
23035.1
23129.7
22909.5
23069.6
23297.2
23063.3
23958.7
23983.2
25290
26448.5
28056
31780.2
43657
69342.2
80444.6
80129.6
77953
74612.2
70898.3
66390.2
62514.9
60352.6
60899.5
70604.4
85905.6
93886.3
98522.1
101672
103759
105471
107027
108290
109246
109912
110348
110723
111016
111251
111484
110835
110778
110744
109852
109539
108721
107697
106517
105196
103750
102204
100583
98910
97201.5
95470.5
93729.4
91987.1
90251.3
88527.9
86820.3
85129.7
83458.8
81808.6
80180.6
78575.2
76999.8
75427.5
73982.7
71787.5
55086.9
55118.6
55173
55199.1
55289.6
55642.7
40497.7
28583.4
24378.4
23322.3
23281.5
23014.5
23148.7
23013.1
23072.3
23116.5
22966.2
23144.2
23073.1
23021.2
23576.4
23299.2
24281.6
24699.2
26185.2
27778.9
29670.4
32586.1
41785.9
67738
83602.6
84371.6
82021.7
77820.5
73493.6
68369.3
63646.8
60599.4
60632.4
68004.6
83394.6
92353.6
97302.4
100783
103011
104716
106291
107630
108661
109408
109929
110358
110703
111023
111275
111473
110867
110826
110771
109913
109582
108763
107734
106550
105223
103772
102221
100596
98919.3
97208
95475
93732.3
91988.7
90252
88527.8
86819.9
85129
83457.9
81807.6
80179.6
78574.2
76998.8
75426.6
73981.8
71786.8
55125.7
55089
55118.8
55175.1
55204
55271.8
56041.1
43207.5
31077.1
25582.8
23813.8
23389.3
23111.9
23214.8
22992.7
23183.7
23036.1
23100.2
23311.3
23038
23822
23755.5
24848.3
25738
27416.8
29351.1
31501.1
33977
41048.1
64913.8
85314.4
88737.1
86297.1
81025.1
75929.4
70116.5
64620.7
60785.6
60453.2
65729.8
80688.9
90705.9
95969.5
99771.1
102206
103931
105508
106906
108027
108860
109461
109941
110338
110711
111046
111299
111473
110908
110874
110800
109970
109622
108801
107767
106580
105247
103791
102235
100607
98927.1
97213.4
95478.5
93734.4
91989.9
90252.5
88528
86819.4
85128.3
83457.1
81806.7
80178.6
78573.2
76997.9
75425.7
73981
71786.1
55079.1
55121.7
55090.7
55119.7
55177.9
55202.6
55270.1
55796
45816
34126.6
27551.4
24790.1
23822
23380
23295.5
23192.5
23272.5
23176.4
23563.4
23540.7
24242.8
24650
25835.1
27147
29013.3
31187
33558.9
35892.6
42042.2
61236.6
85766.3
93307
90692.6
84080.2