/*--------------------------------*- C++ -*----------------------------------*\
| =========                 |                                                 |
| \\      /  F ield         | OpenFOAM: The Open Source CFD Toolbox           |
|  \\    /   O peration     | Version:  v2012                                 |
|   \\  /    A nd           | Website:  www.openfoam.com                      |
|    \\/     M anipulation  |                                                 |
\*---------------------------------------------------------------------------*/
FoamFile
{
    version     2.0;
    format      ascii;
    class       volScalarField;
    location    "0";
    object      p1;
}
// * * * * * * * * * * * * * * * * * * * * * * * * * * * * * * * * * * * * * //

dimensions      [0 1 0 0 0 0 0];


internalField   nonuniform List<scalar> 
27324
(
1.4242e-05
1.36603e-05
1.8417e-05
1.31004e-05
1.78605e-05
1.8057e-05
1.25602e-05
1.73067e-05
1.74461e-05
1.5561e-05
1.20424e-05
1.67584e-05
1.68413e-05
1.50044e-05
1.31282e-05
1.15455e-05
1.62193e-05
1.62457e-05
1.44627e-05
1.2666e-05
1.12493e-05
1.10679e-05
1.56896e-05
1.56642e-05
1.39322e-05
1.22204e-05
1.08584e-05
9.59619e-06
1.0607e-05
1.51688e-05
1.50964e-05
1.34157e-05
1.17849e-05
1.04832e-05
9.24835e-06
7.89467e-06
1.01616e-05
1.46546e-05
1.4542e-05
1.291e-05
1.13607e-05
1.0116e-05
8.91417e-06
7.58157e-06
6.1406e-06
9.73179e-06
1.41458e-05
1.39986e-05
1.2415e-05
1.09415e-05
9.75575e-06
8.58627e-06
7.28342e-06
5.87505e-06
4.52937e-06
9.32006e-06
1.36421e-05
1.3465e-05
1.19294e-05
1.05271e-05
9.39387e-06
8.26347e-06
6.9936e-06
5.62487e-06
4.32465e-06
3.25738e-06
8.92885e-06
1.31462e-05
1.29399e-05
1.14545e-05
1.01167e-05
9.02957e-06
7.93712e-06
6.71036e-06
5.38396e-06
4.1347e-06
3.1192e-06
2.38147e-06
8.55852e-06
1.26617e-05
1.24243e-05
1.09932e-05
9.71379e-06
8.66334e-06
7.60773e-06
6.42467e-06
5.15007e-06
3.95427e-06
2.99325e-06
2.29787e-06
1.81101e-06
8.2071e-06
1.21894e-05
1.19195e-05
1.05453e-05
9.32535e-06
8.30242e-06
7.27789e-06
6.13671e-06
4.91549e-06
3.78174e-06
2.87562e-06
2.22239e-06
1.76101e-06
1.4208e-06
7.87019e-06
1.17271e-05
1.14249e-05
1.01111e-05
8.95027e-06
7.95867e-06
6.95645e-06
5.84935e-06
4.6807e-06
3.61153e-06
2.76498e-06
2.15222e-06
1.71554e-06
1.38817e-06
1.12975e-06
7.54417e-06
1.12686e-05
1.09384e-05
9.68505e-06
8.5887e-06
7.63265e-06
6.65598e-06
5.57069e-06
4.44953e-06
3.44446e-06
2.65774e-06
2.08656e-06
1.67275e-06
1.3579e-06
1.10595e-06
8.99119e-07
7.2274e-06
1.08092e-05
1.0456e-05
9.26295e-06
8.23012e-06
7.32389e-06
6.37481e-06
5.31244e-06
4.22896e-06
3.28378e-06
2.55432e-06
2.02327e-06
1.63226e-06
1.32878e-06
1.08341e-06
8.80466e-07
7.13636e-07
6.92116e-06
1.03474e-05
9.97672e-06
8.84409e-06
7.87186e-06
7.0176e-06
6.10939e-06
5.07243e-06
4.0285e-06
3.13395e-06
2.4566e-06
1.96244e-06
1.59288e-06
1.30071e-06
1.06131e-06
8.62528e-07
6.9866e-07
5.66532e-07
6.62722e-06
9.88685e-06
9.50211e-06
8.43207e-06
7.51566e-06
6.70922e-06
5.84175e-06
4.84651e-06
3.84573e-06
3.00033e-06
2.36643e-06
1.9049e-06
1.55461e-06
1.27304e-06
1.03971e-06
8.44769e-07
6.84153e-07
5.54629e-07
4.52986e-07
6.34634e-06
9.43198e-06
9.03771e-06
8.03071e-06
7.17124e-06
6.39935e-06
5.56699e-06
4.61899e-06
3.67653e-06
2.8805e-06
2.28622e-06
1.85138e-06
1.51773e-06
1.24574e-06
1.01827e-06
8.2729e-07
6.6974e-07
5.43079e-07
4.43731e-07
3.68047e-07
6.07748e-06
8.98447e-06
8.58753e-06
7.64218e-06
6.84156e-06
6.1014e-06
5.28912e-06
4.38822e-06
3.5095e-06
2.77086e-06
2.21432e-06
1.80291e-06
1.48262e-06
1.2189e-06
9.96965e-07
8.09957e-07
6.55558e-07
5.31618e-07
4.34775e-07
3.61054e-07
3.07104e-07
5.81916e-06
8.54289e-06
8.15238e-06
7.26707e-06
6.52408e-06
5.81632e-06
5.0257e-06
4.16071e-06
3.3447e-06
2.66455e-06
2.14845e-06
1.75863e-06
1.44973e-06
1.19276e-06
9.7581e-07
7.92778e-07
6.41571e-07
5.20384e-07
4.25922e-07
3.54332e-07
3.01995e-07
2.64996e-07
5.57125e-06
8.10582e-06
7.73114e-06
6.90343e-06
6.21203e-06
5.54052e-06
4.77866e-06
3.95336e-06
3.18737e-06
2.56183e-06
2.08507e-06
1.71731e-06
1.41879e-06
1.16755e-06
9.54944e-07
7.75717e-07
6.27815e-07
5.09386e-07
4.17293e-07
3.47723e-07
2.97133e-07
2.61382e-07
2.37099e-07
5.33428e-06
7.67465e-06
7.32268e-06
6.55046e-06
5.90075e-06
5.26317e-06
4.54383e-06
3.76582e-06
3.04858e-06
2.46569e-06
2.0243e-06
1.67723e-06
1.38921e-06
1.14325e-06
9.34488e-07
7.58813e-07
6.14246e-07
4.98642e-07
4.08896e-07
3.41322e-07
2.92379e-07
2.57982e-07
2.34612e-07
2.19149e-07
5.10955e-06
7.25144e-06
6.92737e-06
6.20882e-06
5.59149e-06
4.98291e-06
4.30915e-06
3.59184e-06
2.92587e-06
2.38186e-06
1.96747e-06
1.63836e-06
1.36019e-06
1.11968e-06
9.14497e-07
7.42122e-07
6.00818e-07
4.88132e-07
4.0074e-07
3.35122e-07
2.87803e-07
2.5467e-07
2.32292e-07
2.17458e-07
2.07869e-07
4.89651e-06
6.83859e-06
6.54428e-06
5.87797e-06
5.29271e-06
4.70581e-06
4.07573e-06
3.41982e-06
2.81301e-06
2.30802e-06
1.91712e-06
1.60122e-06
1.33163e-06
1.0965e-06
8.95028e-07
7.25706e-07
5.87542e-07
4.77794e-07
3.92809e-07
3.29126e-07
2.83387e-07
2.51499e-07
2.30033e-07
2.15882e-07
2.06694e-07
2.0099e-07
4.69377e-06
6.43511e-06
6.16863e-06
5.55378e-06
5.00601e-06
4.44672e-06
3.85072e-06
3.25109e-06
2.70162e-06
2.23973e-06
1.87173e-06
1.56695e-06
1.30367e-06
1.07359e-06
8.75999e-07
7.0973e-07
5.74489e-07
4.67604e-07
3.85071e-07
3.23324e-07
2.79131e-07
2.4845e-07
2.27877e-07
2.14343e-07
2.05583e-07
2.00099e-07
1.97955e-07
4.49815e-06
6.03842e-06
5.79624e-06
5.21986e-06
4.72748e-06
4.20651e-06
3.64815e-06
3.09194e-06
2.59363e-06
2.17224e-06
1.82865e-06
1.53482e-06
1.27686e-06
1.05088e-06
8.57312e-07
6.9425e-07
5.61807e-07
4.57614e-07
3.77497e-07
3.1771e-07
2.75027e-07
2.45519e-07
2.25808e-07
2.12872e-07
2.04521e-07
1.99263e-07
1.96743e-07
2.68608e-07
4.3084e-06
5.64198e-06
5.42453e-06
4.87707e-06
4.4333e-06
3.97898e-06
3.46586e-06
2.95214e-06
2.49352e-06
2.10699e-06
1.78529e-06
1.50332e-06
1.2509e-06
1.02854e-06
8.38758e-07
6.79185e-07
5.496e-07
4.47907e-07
3.70097e-07
3.12269e-07
2.71076e-07
2.42699e-07
2.23822e-07
2.11459e-07
2.03503e-07
1.98476e-07
1.95652e-07
1.97749e-07
2.02113e-06
4.12638e-06
5.24147e-06
5.05667e-06
4.53447e-06
4.12945e-06
3.73924e-06
3.29646e-06
2.82853e-06
2.40678e-06
2.04661e-06
1.74258e-06
1.47105e-06
1.22504e-06
1.0065e-06
8.20253e-07
6.64282e-07
5.37817e-07
4.38553e-07
3.62895e-07
3.06979e-07
2.67271e-07
2.39986e-07
2.21913e-07
2.10101e-07
2.02519e-07
1.97723e-07
1.94947e-07
1.96294e-07
1.49727e-06
7.97206e-06
3.94866e-06
4.83564e-06
4.6899e-06
4.22776e-06
3.83454e-06
3.49559e-06
3.12047e-06
2.71481e-06
2.33049e-06
1.99359e-06
1.70211e-06
1.43862e-06
1.19864e-06
9.84512e-07
8.01831e-07
6.4931e-07
5.26263e-07
4.29534e-07
3.55903e-07
3.01824e-07
2.63589e-07
2.37374e-07
2.20072e-07
2.08791e-07
2.01567e-07
1.97006e-07
1.94348e-07
1.95114e-07
1.12465e-06
7.46602e-06
1.49909e-05
3.69739e-06
4.40179e-06
4.31475e-06
3.95053e-06
3.59687e-06
3.26804e-06
2.946e-06
2.59889e-06
2.25992e-06
1.94588e-06
1.66512e-06
1.40716e-06
1.17207e-06
9.62443e-07
7.83595e-07
6.34325e-07
5.14697e-07
4.20751e-07
3.49132e-07
2.96787e-07
2.60006e-07
2.34849e-07
2.18293e-07
2.07523e-07
2.00646e-07
1.96313e-07
1.93798e-07
1.9407e-07
8.75777e-07
6.84935e-06
1.3713e-05
2.52472e-05
3.34837e-06
3.77164e-06
3.91429e-06
3.68201e-06
3.40294e-06
3.10054e-06
2.78897e-06
2.48596e-06
2.18862e-06
1.90049e-06
1.63039e-06
1.37736e-06
1.14608e-06
9.40444e-07
7.6569e-07
6.1958e-07
5.0314e-07
4.1204e-07
3.42562e-07
2.91882e-07
2.565e-07
2.32404e-07
2.16571e-07
2.06293e-07
1.99756e-07
1.95644e-07
1.93287e-07
1.93342e-07
7.44733e-07
6.19207e-06
1.23886e-05
2.28178e-05
4.02508e-05
2.56574e-06
3.28387e-06
3.48372e-06
3.46787e-06
3.23158e-06
2.97704e-06
2.67837e-06
2.38514e-06
2.11904e-06
1.85409e-06
1.596e-06
1.34846e-06
1.12105e-06
9.18795e-07
7.48136e-07
6.05336e-07
4.91815e-07
4.03381e-07
3.3616e-07
2.8713e-07
2.53073e-07
2.30029e-07
2.14901e-07
2.05102e-07
1.98894e-07
1.95017e-07
1.92797e-07
1.92773e-07
6.67784e-07
5.48265e-06
1.11137e-05
2.05277e-05
3.66663e-05
6.27403e-05
2.17132e-06
2.86136e-06
3.15596e-06
3.25402e-06
3.14399e-06
2.87691e-06
2.59854e-06
2.31309e-06
2.056e-06
1.80765e-06
1.56024e-06
1.31913e-06
1.09639e-06
8.97648e-07
7.30821e-07
5.91597e-07
4.80944e-07
3.9487e-07
3.29878e-07
2.82562e-07
2.49742e-07
2.27716e-07
2.13287e-07
2.03952e-07
1.98064e-07
1.94424e-07
1.92298e-07
1.92105e-07
6.4332e-07
4.72038e-06
9.87909e-06
1.84081e-05
3.33106e-05
5.7741e-05
9.54408e-05
2.09768e-06
2.69522e-06
2.90538e-06
3.05647e-06
3.04172e-06
2.84308e-06
2.53034e-06
2.26028e-06
2.00955e-06
1.76386e-06
1.52344e-06
1.28858e-06
1.07122e-06
8.76513e-07
7.13687e-07
5.78063e-07
4.70569e-07
3.86637e-07
3.23691e-07
2.78157e-07
2.46534e-07
2.25459e-07
2.11736e-07
2.02831e-07
1.97283e-07
1.93838e-07
1.91733e-07
1.91052e-07
5.63568e-07
3.87598e-06
8.70456e-06
1.64535e-05
3.01777e-05
5.30178e-05
8.86045e-05
0.000142188
2.06336e-06
2.63856e-06
2.76667e-06
2.87806e-06
2.90361e-06
2.78806e-06
2.51007e-06
2.21434e-06
1.9755e-06
1.72938e-06
1.48709e-06
1.25695e-06
1.04539e-06
8.54883e-07
6.96427e-07
5.64488e-07
4.60405e-07
3.78727e-07
3.17603e-07
2.73872e-07
2.43455e-07
2.23269e-07
2.10231e-07
2.01767e-07
1.96531e-07
1.93214e-07
1.90782e-07
1.89633e-07
4.43658e-07
2.99417e-06
7.58046e-06
1.46568e-05
2.72652e-05
4.85521e-05
8.21136e-05
0.00013292
0.000208702
2.03115e-06
2.59522e-06
2.70795e-06
2.8277e-06
2.70367e-06
2.71123e-06
2.48326e-06
2.20137e-06
1.94646e-06
1.70303e-06
1.45605e-06
1.22517e-06
1.01905e-06
8.32937e-07
6.78868e-07
5.50727e-07
4.50133e-07
3.71002e-07
3.11669e-07
2.69611e-07
2.40498e-07
2.21143e-07
2.0877e-07
2.0075e-07
1.95743e-07
1.92346e-07
1.89375e-07
1.87779e-07
3.26171e-07
2.1398e-06
6.48952e-06
1.30127e-05
2.45633e-05
4.43477e-05
7.5935e-05
0.000124107
0.000196312
0.000302671
1.99924e-06
2.55334e-06
2.66435e-06
2.78479e-06
2.61551e-06
2.52848e-06
2.47376e-06
2.19882e-06
1.93873e-06
1.68096e-06
1.43102e-06
1.19679e-06
9.92694e-07
8.10916e-07
6.61337e-07
5.368e-07
4.39689e-07
3.63206e-07
3.05888e-07
2.65366e-07
2.37585e-07
2.19096e-07
2.07357e-07
1.99707e-07
1.94783e-07
1.90943e-07
1.87429e-07
1.85377e-07
2.45536e-07
1.4025e-06
5.413e-06
1.1502e-05
2.20643e-05
4.03992e-05
7.00711e-05
0.000115698
0.000184499
0.000286456
0.000432834
1.96729e-06
2.51159e-06
2.62215e-06
2.73918e-06
2.57464e-06
2.38784e-06
2.37473e-06
2.24448e-06
1.96219e-06
1.67309e-06
1.41272e-06
1.17418e-06
9.68378e-07
7.88958e-07
6.442e-07
5.22983e-07
4.29163e-07
3.55243e-07
3.00155e-07
2.61194e-07
2.34634e-07
2.17131e-07
2.05895e-07
1.98505e-07
1.93242e-07
1.88938e-07
1.85199e-07
1.83511e-07
2.06015e-07
8.60926e-07
4.34064e-06
1.01037e-05
1.97545e-05
3.67056e-05
6.45113e-05
0.000107708
0.000173183
0.000270923
0.000412292
0.000605615
1.93531e-06
2.46976e-06
2.5803e-06
2.69575e-06
2.53309e-06
2.34738e-06
2.25436e-06
2.23146e-06
2.05814e-06
1.72629e-06
1.41331e-06
1.15906e-06
9.49916e-07
7.67514e-07
6.27366e-07
5.09516e-07
4.18696e-07
3.47166e-07
2.94343e-07
2.57106e-07
2.31649e-07
2.15121e-07
2.04194e-07
1.96665e-07
1.91043e-07
1.86491e-07
1.83601e-07
1.82494e-07
1.9059e-07
5.27309e-07
3.29008e-06
8.78905e-06
1.76233e-05
3.3259e-05
5.92566e-05
0.000100118
0.000162402
0.000255956
0.000392486
0.000580911
0.000818334
1.90376e-06
2.42797e-06
2.53867e-06
2.65391e-06
2.49113e-06
2.3169e-06
2.2146e-06
2.16389e-06
2.11925e-06
1.85547e-06
1.49798e-06
1.1764e-06
9.36823e-07
7.52293e-07
6.10562e-07
4.96302e-07
4.08215e-07
3.38978e-07
2.88391e-07
2.53058e-07
2.28472e-07
2.12565e-07
2.01852e-07
1.93979e-07
1.88376e-07
1.84724e-07
1.8273e-07
1.81966e-07
1.84807e-07
3.44818e-07
2.32549e-06
7.52057e-06
1.5654e-05
3.00542e-05
5.43013e-05
9.2921e-05
0.000152135
0.000241627
0.00037326
0.000556895
0.000791042
0.00104942
1.8726e-06
2.38683e-06
2.49766e-06
2.61328e-06
2.45071e-06
2.28338e-06
2.19151e-06
2.12862e-06
2.10513e-06
1.96958e-06
1.64494e-06
1.2789e-06
9.77197e-07
7.55885e-07
5.97787e-07
4.82237e-07
3.98104e-07
3.30228e-07
2.81536e-07
2.48019e-07
2.24523e-07
2.09062e-07
1.98458e-07
1.91073e-07
1.86653e-07
1.8379e-07
1.82162e-07
1.81702e-07
1.82737e-07
2.49815e-07
1.52948e-06
6.27241e-06
1.38301e-05
2.7077e-05
4.96512e-05
8.61016e-05
0.000142377
0.000227916
0.000354736
0.000533373
0.000764186
0.00102327
0.00125385
1.84168e-06
2.34661e-06
2.45782e-06
2.57407e-06
2.41208e-06
2.25068e-06
2.16297e-06
2.11174e-06
2.07102e-06
2.01715e-06
1.79144e-06
1.42243e-06
1.07864e-06
8.1031e-07
6.18629e-07
4.83542e-07
3.88322e-07
3.20983e-07
2.73115e-07
2.41665e-07
2.19457e-07
2.05249e-07
1.95931e-07
1.89743e-07
1.85767e-07
1.83177e-07
1.8193e-07
1.81505e-07
1.81935e-07
2.07194e-07
9.51557e-07
5.03947e-06
1.21309e-05
2.43135e-05
4.53019e-05
7.9653e-05
0.000133107
0.000214834
0.000336901
0.000510531
0.000737552
0.000997099
0.00123327
0.00139166
1.81134e-06
2.30743e-06
2.41938e-06
2.53612e-06
2.37518e-06
2.21994e-06
2.1339e-06
2.09034e-06
2.05887e-06
2.00109e-06
1.89611e-06
1.57561e-06
1.20503e-06
8.96768e-07
6.70031e-07
5.1044e-07
4.00701e-07
3.25751e-07
2.74665e-07
2.40845e-07
2.18656e-07
2.04244e-07
1.95057e-07
1.89075e-07
1.85269e-07
1.82998e-07
1.81763e-07
1.81328e-07
1.8155e-07
1.90429e-07
5.84734e-07
3.84005e-06
1.05286e-05
2.1747e-05
4.12524e-05
7.35644e-05
0.000124318
0.000202361
0.000319786
0.000488365
0.000711403
0.000970659
0.00121237
0.00137723
0.00147308
1.78111e-06
2.26879e-06
2.38228e-06
2.49927e-06
2.33887e-06
2.19125e-06
2.10655e-06
2.06943e-06
2.04547e-06
1.9892e-06
1.91124e-06
1.71661e-06
1.34597e-06
1.00084e-06
7.36776e-07
5.50451e-07
4.23166e-07
3.37579e-07
2.80507e-07
2.4336e-07
2.19541e-07
2.04369e-07
1.94892e-07
1.88975e-07
1.85219e-07
1.82898e-07
1.81615e-07
1.81156e-07
1.81295e-07
1.84435e-07
3.73935e-07
2.73214e-06
8.99141e-06
1.9354e-05
3.74958e-05
6.78315e-05
0.00011599
0.000190499
0.000303385
0.000466933
0.000685762
0.000944284
0.00119083
0.00136276
0.00146078
0.00154712
1.74998e-06
2.22986e-06
2.34572e-06
2.46248e-06
2.30274e-06
2.16309e-06
2.08217e-06
2.05141e-06
2.03174e-06
1.97756e-06
1.89698e-06
1.78237e-06
1.49205e-06
1.11676e-06
8.16149e-07
5.99979e-07
4.52352e-07
3.53767e-07
2.8914e-07
2.4772e-07
2.21594e-07
2.05404e-07
1.95398e-07
1.8917e-07
1.85246e-07
1.82818e-07
1.81474e-07
1.80978e-07
1.81083e-07
1.82313e-07
2.61125e-07
1.80725e-06
7.48177e-06
1.71174e-05
3.40145e-05
6.24513e-05
0.000108114
0.000179226
0.000287712
0.000446247
0.000660722
0.000918019
0.00116897
0.00134779
0.00144877
0.00153351
0.00163965
1.71792e-06
2.19035e-06
2.30958e-06
2.42504e-06
2.26589e-06
2.13459e-06
2.05913e-06
2.03676e-06
2.0189e-06
1.96518e-06
1.88761e-06
1.77554e-06
1.60754e-06
1.2438e-06
9.04601e-07
6.56943e-07
4.86642e-07
3.73423e-07
3.00019e-07
2.53542e-07
2.24575e-07
2.06865e-07
1.96076e-07
1.89434e-07
1.85298e-07
1.82751e-07
1.81331e-07
1.80796e-07
1.80881e-07
1.81513e-07
2.09395e-07
1.11693e-06
6.00286e-06
1.50328e-05
3.07807e-05
5.7417e-05
0.000100683
0.000168534
0.000272752
0.000426347
0.000636323
0.000891987
0.00114681
0.00133261
0.00143663
0.00152009
0.00162596
0.00171673
1.68556e-06
2.15015e-06
2.274e-06
2.38757e-06
2.22888e-06
2.10555e-06
2.03657e-06
2.02357e-06
2.00725e-06
1.95349e-06
1.87813e-06
1.76806e-06
1.62376e-06
1.37881e-06
1.00503e-06
7.21707e-07
5.26397e-07
3.96188e-07
3.12487e-07
2.60166e-07
2.27958e-07
2.08514e-07
1.96834e-07
1.89742e-07
1.85367e-07
1.82685e-07
1.81186e-07
1.8061e-07
1.80682e-07
1.81136e-07
1.89787e-07
6.66059e-07
4.5744e-06
1.30553e-05
2.77455e-05
5.27288e-05
9.36877e-05
0.000158413
0.000258503
0.000407241
0.000612641
0.000866268
0.00112442
0.0013172
0.00142468
0.00150667
0.0016118
0.00170703
0.00174577
1.6537e-06
2.10957e-06
2.23913e-06
2.35038e-06
2.19219e-06
2.07677e-06
2.01465e-06
2.01093e-06
1.99577e-06
1.94324e-06
1.8697e-06
1.76102e-06
1.61649e-06
1.4359e-06
1.12513e-06
7.958e-07
5.7222e-07
4.22738e-07
3.2689e-07
2.67711e-07
2.3177e-07
2.10361e-07
1.97679e-07
1.90081e-07
1.85449e-07
1.82625e-07
1.81043e-07
1.80424e-07
1.80482e-07
1.80889e-07
1.83553e-07
4.02313e-07
3.25452e-06
1.11475e-05
2.48981e-05
4.83813e-05
8.71286e-05
0.000148844
0.000244956
0.000388946
0.000589715
0.000840975
0.00110191
0.00130156
0.00141288
0.00149352
0.0015976
0.00169645
0.00173857
0.00174216
1.62282e-06
2.06958e-06
2.20535e-06
2.31373e-06
2.15569e-06
2.04806e-06
1.99426e-06
1.99849e-06
1.98394e-06
1.93369e-06
1.86293e-06
1.75505e-06
1.6116e-06
1.43467e-06
1.21921e-06
8.84608e-07
6.24751e-07
4.53609e-07
3.43681e-07
2.76373e-07
2.36092e-07
2.12433e-07
1.98624e-07
1.90467e-07
1.85551e-07
1.82575e-07
1.80905e-07
1.80238e-07
1.8028e-07
1.80678e-07
1.81676e-07
2.62977e-07
2.12836e-06
9.27777e-06
2.22108e-05
4.43672e-05
8.09962e-05
0.000139824
0.000232092
0.000371472
0.000567602
0.000816186
0.00107936
0.00128571
0.00140123
0.00148065
0.00158341
0.00168575
0.00173067
0.00173581
0.00172305
1.59266e-06
2.03056e-06
2.17269e-06
2.2776e-06
2.11984e-06
2.01907e-06
1.97503e-06
1.98653e-06
1.97184e-06
1.9245e-06
1.85712e-06
1.7509e-06
1.60756e-06
1.43085e-06
1.23673e-06
9.79577e-07
6.85311e-07
4.88966e-07
3.63198e-07
2.86393e-07
2.41016e-07
2.14775e-07
1.99685e-07
1.90905e-07
1.85678e-07
1.82537e-07
1.80771e-07
1.80053e-07
1.80077e-07
1.80474e-07
1.81075e-07
2.03473e-07
1.26632e-06
7.44124e-06
1.96561e-05
4.06587e-05
7.52854e-05
0.000131339
0.000219908
0.000354805
0.000546352
0.000792004
0.00105688
0.00126969
0.00138974
0.0014681
0.00156923
0.00167464
0.00172296
0.00172883
0.0017173
0.00169283
1.56383e-06
1.99289e-06
2.14055e-06
2.24122e-06
2.08486e-06
1.99018e-06
1.95665e-06
1.97455e-06
1.95975e-06
1.91576e-06
1.85196e-06
1.74796e-06
1.60529e-06
1.42799e-06
1.23208e-06
1.02995e-06
7.56212e-07
5.28915e-07
3.8563e-07
2.98037e-07
2.46663e-07
2.17425e-07
2.00884e-07
1.91402e-07
1.85834e-07
1.82513e-07
1.80642e-07
1.7987e-07
1.79873e-07
1.8027e-07
1.80799e-07
1.85673e-07
6.99286e-07
5.66157e-06
1.7221e-05
3.72213e-05
6.99808e-05
0.000123388
0.000208394
0.000338949
0.000525978
0.000768527
0.00103457
0.00125354
0.00137843
0.00145588
0.00155513
0.00166317
0.00171502
0.00172206
0.00171095
0.00168796
0.00165063
1.53681e-06
1.95671e-06
2.10841e-06
2.20415e-06
2.0506e-06
1.9618e-06
1.93907e-06
1.96209e-06
1.94769e-06
1.90771e-06
1.84736e-06
1.74587e-06
1.60441e-06
1.4266e-06
1.22994e-06
1.0332e-06
8.24056e-07
5.7484e-07
4.11119e-07
3.11581e-07
2.53186e-07
2.2044e-07
2.02234e-07
1.91967e-07
1.8602e-07
1.82502e-07
1.80521e-07
1.79687e-07
1.79667e-07
1.80064e-07
1.80593e-07
1.81752e-07
3.81004e-07
4.00315e-06
1.48749e-05
3.39927e-05
6.50737e-05
0.000115964
0.000197553
0.000323886
0.000506512
0.000745825
0.00101255
0.00123732
0.00136728
0.00144406
0.00154113
0.00165132
0.00170695
0.00171508
0.00170476
0.00168253
0.00164699
0.00159473
1.51089e-06
1.92181e-06
2.0759e-06
2.16606e-06
2.01657e-06
1.93427e-06
1.92235e-06
1.94901e-06
1.93551e-06
1.90033e-06
1.84339e-06
1.74443e-06
1.60434e-06
1.4266e-06
1.22871e-06
1.03108e-06
8.46861e-07
6.29732e-07
4.40212e-07
3.27182e-07
2.60793e-07
2.23885e-07
2.0376e-07
1.92607e-07
1.86239e-07
1.82508e-07
1.80405e-07
1.79505e-07
1.7946e-07
1.79857e-07
1.80398e-07
1.80944e-07
2.33107e-07
2.55892e-06
1.25523e-05
3.09297e-05
6.05503e-05
0.000109069
0.00018738
0.000309622
0.000487948
0.000723991
0.000990933
0.00122108
0.00135633
0.00143267
0.00152729
0.00163908
0.00169875
0.00170796
0.00169832
0.00167719
0.00164281
0.00159254
0.00152428
1.48582e-06
1.88828e-06
2.04316e-06
2.1268e-06
1.98224e-06
1.90753e-06
1.90653e-06
1.93537e-06
1.92348e-06
1.89345e-06
1.8401e-06
1.74354e-06
1.60486e-06
1.42747e-06
1.22863e-06
1.0299e-06
8.45398e-07
6.73054e-07
4.7451e-07
3.44954e-07
2.69638e-07
2.27855e-07
2.05486e-07
1.9333e-07
1.86495e-07
1.82532e-07
1.80296e-07
1.79325e-07
1.79253e-07
1.79648e-07
1.80204e-07
1.80704e-07
1.88027e-07
1.42001e-06
1.02231e-05
2.80317e-05
5.64014e-05
0.00010269
0.000177881
0.000296148
0.000470297
0.00070307
0.000969854
0.0012049
0.00134559
0.00142172
0.00151368
0.00162645
0.00169038
0.0017007
0.00169171
0.00167158
0.00163869
0.00158987
0.00152365
0.00143989
1.46099e-06
1.85635e-06
2.01071e-06
2.08661e-06
1.94761e-06
1.88152e-06
1.89107e-06
1.92126e-06
1.9119e-06
1.88713e-06
1.83741e-06
1.74327e-06
1.60573e-06
1.42879e-06
1.22943e-06
1.02939e-06
8.4402e-07
6.83774e-07
5.12844e-07
3.65143e-07
2.7977e-07
2.32459e-07
2.07448e-07
1.94147e-07
1.86793e-07
1.82574e-07
1.80196e-07
1.79148e-07
1.79044e-07
1.79437e-07
1.80008e-07
1.80527e-07
1.81045e-07
6.46027e-07
7.89718e-06
2.52842e-05
5.25984e-05
9.68158e-05
0.000169048
0.000283485
0.000453546
0.000683117
0.000949423
0.00118886
0.00133508
0.00141129
0.0015004
0.00161343
0.0016819
0.00169329
0.00168491
0.00166576
0.00163427
0.00158722
0.00152257
0.00144078
0.00134354
1.43713e-06
1.82598e-06
1.9789e-06
2.04599e-06
1.91353e-06
1.8564e-06
1.87544e-06
1.90648e-06
1.90102e-06
1.88148e-06
1.8354e-06
1.74346e-06
1.60695e-06
1.43029e-06
1.23061e-06
1.02962e-06
8.43104e-07
6.81662e-07
5.40436e-07
3.88393e-07
2.91238e-07
2.37804e-07
2.09695e-07
1.9507e-07
1.87135e-07
1.82639e-07
1.80105e-07
1.78971e-07
1.78836e-07
1.79226e-07
1.79809e-07
1.80349e-07
1.80658e-07
2.52621e-07
5.62873e-06
2.26982e-05
4.9091e-05
9.14252e-05
0.000160877
0.000271638
0.000437717
0.000664147
0.000929765
0.00117308
0.00132485
0.00140138
0.00148755
0.00160019
0.00167326
0.00168574
0.00167792
0.0016597
0.0016296
0.00158425
0.00152151
0.00144128
0.00134581
0.00123816
1.41394e-06
1.79684e-06
1.94781e-06
2.00581e-06
1.88002e-06
1.83282e-06
1.85959e-06
1.8908e-06
1.89079e-06
1.87659e-06
1.8341e-06
1.74413e-06
1.60858e-06
1.43187e-06
1.23182e-06
1.03022e-06
8.42575e-07
6.80582e-07
5.46067e-07
4.14309e-07
3.04155e-07
2.43936e-07
2.12297e-07
1.96116e-07
1.87528e-07
1.82727e-07
1.80025e-07
1.78798e-07
1.78626e-07
1.79014e-07
1.79611e-07
1.80167e-07
1.80487e-07
1.81058e-07
3.51747e-06
2.02468e-05
4.58157e-05
8.64956e-05
0.000153369
0.000260628
0.000422814
0.000646188
0.000910959
0.00115765
0.0013149
0.00139203
0.0014752
0.00158703
0.00166446
0.00167804
0.00167075
0.00165342
0.00162468
0.00158102
0.00152014
0.00144178
0.00134774
0.00124161
0.00112719
1.39056e-06
1.76838e-06
1.91718e-06
1.96638e-06
1.84729e-06
1.81037e-06
1.84378e-06
1.87474e-06
1.88104e-06
1.87248e-06
1.83351e-06
1.74537e-06
1.61058e-06
1.43351e-06
1.23289e-06
1.0308e-06
8.42411e-07
6.79603e-07
5.44156e-07
4.32433e-07
3.19011e-07
2.50864e-07
2.15322e-07
1.97309e-07
1.87977e-07
1.82841e-07
1.79957e-07
1.78629e-07
1.78417e-07
1.78801e-07
1.79411e-07
1.79982e-07
1.8032e-07
1.80777e-07
1.66992e-06
1.79036e-05
4.27302e-05
8.20166e-05
0.000146511
0.000250475
0.000408874
0.000629244
0.000893089
0.00114269
0.00130528
0.00138327
0.0014634
0.00157404
0.00165541
0.00167018
0.00166338
0.00164691
0.00161948
0.00157751
0.00151848
0.00144198
0.00134967
0.00124476
0.00113157
0.00101408
1.36721e-06
1.73998e-06
1.8867e-06
1.92774e-06
1.81557e-06
1.7883e-06
1.82755e-06
1.85928e-06
1.87204e-06
1.86898e-06
1.83357e-06
1.74714e-06
1.61294e-06
1.43536e-06
1.23379e-06
1.03121e-06
8.42348e-07
6.78843e-07
5.43062e-07
4.36203e-07
3.35386e-07
2.5863e-07
2.18792e-07
1.98685e-07
1.8849e-07
1.82985e-07
1.79902e-07
1.78463e-07
1.78208e-07
1.78589e-07
1.79209e-07
1.79794e-07
1.80149e-07
1.8054e-07
2.2693e-07
1.5731e-05
3.987e-05
7.79721e-05
0.000140296
0.000241175
0.000395936
0.00061335
0.000876193
0.00112832
0.00129601
0.00137514
0.00145221
0.00156127
0.00164612
0.00166219
0.00165583
0.00164017
0.00161403
0.00157371
0.00151654
0.00144191
0.00135132
0.00124792
0.0011357
0.00101917
0.000902023
1.34305e-06
1.71115e-06
1.85618e-06
1.89036e-06
1.78518e-06
1.76651e-06
1.81043e-06
1.84465e-06
1.86424e-06
1.86629e-06
1.83401e-06
1.74934e-06
1.61571e-06
1.43751e-06
1.23479e-06
1.03143e-06
8.42201e-07
6.78302e-07
5.41986e-07
4.34505e-07
3.47663e-07
2.67265e-07
2.22707e-07
2.00281e-07
1.89076e-07
1.8316e-07
1.79861e-07
1.78303e-07
1.78e-07
1.78375e-07
1.79007e-07
1.79605e-07
1.79972e-07
1.80328e-07
2.25761e-07
1.38565e-05
3.72595e-05
7.43348e-05
0.0001347
0.000232735
0.000384031
0.000598548
0.000860313
0.00111462
0.00128718
0.00136763
0.00144168
0.00154876
0.00163655
0.00165405
0.00164809
0.00163319
0.00160831
0.00156963
0.0015143
0.00144155
0.00135272
0.00125082
0.00113985
0.00102404
0.000907602
0.000793689
1.31803e-06
1.68167e-06
1.8255e-06
1.85483e-06
1.75626e-06
1.74513e-06
1.79255e-06
1.83066e-06
1.85766e-06
1.86461e-06
1.8348e-06
1.75182e-06
1.61875e-06
1.43989e-06
1.23612e-06
1.03165e-06
8.41938e-07
6.77855e-07
5.41162e-07
4.33494e-07
3.50974e-07
2.7687e-07
2.27052e-07
2.02114e-07
1.89752e-07
1.83369e-07
1.79837e-07
1.78147e-07
1.77791e-07
1.78161e-07
1.78802e-07
1.79413e-07
1.7979e-07
1.80138e-07
2.25156e-07
1.25519e-05
3.49659e-05
7.1048e-05
0.0001297
0.000225143
0.000373203
0.000584888
0.000845494
0.00110168
0.00127884
0.00136082
0.00143186
0.00153658
0.00162671
0.00164577
0.00164017
0.00162599
0.00160233
0.00156525
0.00151176
0.00144089
0.00135385
0.0012535
0.00114378
0.00102894
0.000912977
0.000799563
0.000691161
1.29294e-06
1.65156e-06
1.79496e-06
1.82165e-06
1.72884e-06
1.72403e-06
1.77432e-06
1.81758e-06
1.85213e-06
1.86391e-06
1.83601e-06
1.75429e-06
1.62186e-06
1.44242e-06
1.23765e-06
1.03212e-06
8.4173e-07
6.7741e-07
5.40615e-07
4.3255e-07
3.4984e-07
2.84879e-07
2.31636e-07
2.04176e-07
1.90536e-07
1.83615e-07
1.79831e-07
1.77999e-07
1.77584e-07
1.77945e-07
1.78597e-07
1.79219e-07
1.79603e-07
1.79958e-07
2.24876e-07
1.2032e-05
3.292e-05
6.80346e-05
0.000125272
0.000218402
0.000363478
0.000572441
0.000831779
0.00108955
0.00127103
0.00135471
0.00142283
0.00152479
0.00161659
0.00163736
0.00163207
0.00161856
0.00159607
0.00156056
0.0015089
0.00143994
0.00135468
0.00125592
0.00114749
0.00103363
0.000918387
0.000805241
0.000697168
0.000595921
1.26714e-06
1.6206e-06
1.76487e-06
1.7912e-06
1.70333e-06
1.70299e-06
1.75603e-06
1.80577e-06
1.84773e-06
1.86391e-06
1.83772e-06
1.75688e-06
1.62477e-06
1.44493e-06
1.23935e-06
1.0328e-06
8.41681e-07
6.7701e-07
5.40217e-07
4.31803e-07
3.49071e-07
2.87946e-07
2.36617e-07
2.06448e-07
1.9144e-07
1.83905e-07
1.79842e-07
1.77858e-07
1.77378e-07
1.77727e-07
1.7839e-07
1.79023e-07
1.7941e-07
1.79779e-07
2.24797e-07
1.20799e-05
3.11597e-05
6.53345e-05
0.000121417
0.000212509
0.000354881
0.000561261
0.000819248
0.00107827
0.00126383
0.00134936
0.00141461
0.00151346
0.00160616
0.00162883
0.00162378
0.00161091
0.00158956
0.00155559
0.00150573
0.00143866
0.00135523
0.00125807
0.00115097
0.00103814
0.000923617
0.000810965
0.000702983
0.000601924
0.000508906
1.24066e-06
1.58859e-06
1.73544e-06
1.76317e-06
1.67933e-06
1.68228e-06
1.73782e-06
1.79538e-06
1.84462e-06
1.86445e-06
1.83972e-06
1.75977e-06
1.62734e-06
1.44711e-06
1.24101e-06
1.03364e-06
8.4186e-07
6.76683e-07
5.39863e-07
4.31282e-07
3.4839e-07
2.87395e-07
2.41158e-07
2.08621e-07
1.9246e-07
1.84249e-07
1.79875e-07
1.77724e-07
1.77174e-07
1.77506e-07
1.78182e-07
1.78825e-07
1.79214e-07
1.79595e-07
2.24858e-07
1.21684e-05
2.98592e-05
6.30155e-05
0.000118133
0.00020746
0.000347418
0.000551411
0.000807974
0.00106791
0.00125726
0.0013448
0.00140728
0.00150264
0.00159544
0.00162017
0.00161532
0.00160307
0.00158285
0.0015504
0.0015023
0.00143706
0.00135546
0.00125996
0.00115422
0.00104244
0.000928693
0.000816536
0.000708846
0.000607733
0.000514798
0.00043059
1.21337e-06
1.55558e-06
1.70712e-06
1.73724e-06
1.65639e-06
1.66179e-06
1.72025e-06
1.78646e-06
1.84278e-06
1.86535e-06
1.84195e-06
1.76289e-06
1.62972e-06
1.44868e-06
1.24243e-06
1.03448e-06
8.42023e-07
6.76451e-07
5.39519e-07
4.30868e-07
3.4783e-07
2.8668e-07
2.43556e-07
2.10827e-07
1.93582e-07
1.84657e-07
1.79931e-07
1.776e-07
1.76971e-07
1.77283e-07
1.7797e-07
1.78624e-07
1.79012e-07
1.79405e-07
2.25037e-07
1.23031e-05
2.92879e-05
6.11493e-05
0.000115391
0.00020323
0.000341096
0.000542926
0.000798057
0.00105855
0.00125133
0.00134107
0.00140089
0.00149248
0.00158442
0.00161141
0.00160676
0.0015951
0.00157594
0.00154499
0.00149865
0.00143528
0.00135543
0.00126154
0.00115723
0.00104655
0.000933587
0.000821967
0.000714582
0.0006136
0.000520484
0.000436277
0.000361071
1.18599e-06
1.52184e-06
1.68029e-06
1.71305e-06
1.63426e-06
1.64144e-06
1.70379e-06
1.77938e-06
1.84205e-06
1.86646e-06
1.84435e-06
1.76612e-06
1.63206e-06
1.44985e-06
1.24338e-06
1.03519e-06
8.42272e-07
6.76302e-07
5.3918e-07
4.30469e-07
3.47429e-07
2.86087e-07
2.43575e-07
2.12726e-07
1.94699e-07
1.85125e-07
1.80017e-07
1.77485e-07
1.76769e-07
1.77061e-07
1.77756e-07
1.78421e-07
1.78808e-07
1.7921e-07
2.25312e-07
1.24788e-05
2.94053e-05
5.97857e-05
0.000113142
0.000199797
0.000335914
0.000535855
0.000789578
0.00105029
0.00124607
0.00133813
0.00139551
0.00148306
0.00157332
0.0016026
0.00159805
0.00158689
0.00156878
0.00153932
0.00149475
0.00143325
0.0013552
0.00126292
0.00115997
0.00105043
0.000938305
0.000827245
0.0007202
0.00061936
0.00052624
0.000441747
0.000366478
0.000300171
1.1588e-06
1.48777e-06
1.65508e-06
1.69023e-06
1.6126e-06
1.62161e-06
1.68864e-06
1.77422e-06
1.84225e-06
1.86765e-06
1.84683e-06
1.76935e-06
1.63434e-06
1.45081e-06
1.24371e-06
1.03561e-06
8.4251e-07
6.7611e-07
5.38879e-07
4.30063e-07
3.47106e-07
2.85531e-07
2.42745e-07
2.13793e-07
1.95495e-07
1.85652e-07
1.80144e-07
1.77383e-07
1.76568e-07
1.76836e-07
1.77538e-07
1.78214e-07
1.78599e-07
1.7901e-07
2.2567e-07
1.26901e-05
2.96294e-05
5.8895e-05
0.000111348
0.00019716
0.000331892
0.000530229
0.000782619
0.00104323
0.00124153
0.00133598
0.00139114
0.00147446
0.00156229
0.00159361
0.00158913
0.00157844
0.00156137
0.00153338
0.00149055
0.00143092
0.00135469
0.00126406
0.00116251
0.00105409
0.000942834
0.000832366
0.000725684
0.00062502
0.00053191
0.0004473
0.000371653
0.00030523
0.000247491
1.13178e-06
1.45375e-06
1.63149e-06
1.66826e-06
1.59118e-06
1.60248e-06
1.67543e-06
1.77071e-06
1.84291e-06
1.86884e-06
1.84926e-06
1.77239e-06
1.63658e-06
1.45194e-06
1.24379e-06
1.03551e-06
8.42666e-07
6.7601e-07
5.3871e-07
4.29639e-07
3.46788e-07
2.85114e-07
2.42255e-07
2.13861e-07
1.96019e-07
1.86197e-07
1.8031e-07
1.77292e-07
1.76366e-07
1.76609e-07
1.77315e-07
1.78004e-07
1.78386e-07
1.78806e-07
2.26093e-07
1.29351e-05
2.99556e-05
5.87518e-05
0.000110145
0.000195337
0.000329051
0.000526087
0.000777234
0.00103749
0.00123775
0.00133458
0.00138779
0.00146635
0.0015514
0.00158455
0.00157997
0.00156976
0.00155371
0.00152717
0.00148608
0.0014283
0.0013539
0.00126493
0.00116479
0.00105753
0.000947176
0.000837327
0.00073103
0.000630564