/*--------------------------------*- C++ -*----------------------------------*\
| =========                 |                                                 |
| \\      /  F ield         | OpenFOAM: The Open Source CFD Toolbox           |
|  \\    /   O peration     | Version:  v2012                                 |
|   \\  /    A nd           | Website:  www.openfoam.com                      |
|    \\/     M anipulation  |                                                 |
\*---------------------------------------------------------------------------*/
FoamFile
{
    version     2.0;
    format      ascii;
    class       volScalarField;
    location    "0";
    object      q2;
}
// * * * * * * * * * * * * * * * * * * * * * * * * * * * * * * * * * * * * * //

dimensions      [0 0 0 0 0 0 0];


internalField   nonuniform List<scalar> 
27324
(
3.50171e-17
2.4647e-17
1.71045e-17
1.98498e-17
1.32723e-17
1.19154e-17
1.59862e-17
1.12483e-17
9.51991e-18
6.08357e-18
1.29822e-17
9.42989e-18
8.01681e-18
4.98961e-18
4.12129e-18
1.04279e-17
7.89504e-18
6.668e-18
4.24037e-18
3.57005e-18
5.30252e-18
8.28208e-18
6.50407e-18
5.50944e-18
3.56981e-18
3.13265e-18
4.80811e-18
1.11596e-17
6.58125e-18
5.27224e-18
4.48055e-18
2.97088e-18
2.71852e-18
4.34241e-18
1.01633e-17
2.96381e-17
5.36944e-18
4.24738e-18
3.60404e-18
2.43449e-18
2.33652e-18
3.86709e-18
9.37977e-18
2.79626e-17
8.57356e-17
4.52853e-18
3.46506e-18
2.89824e-18
1.98534e-18
1.99549e-18
3.42687e-18
8.58609e-18
2.69129e-17
9.09217e-17
3.00779e-16
3.85728e-18
2.8699e-18
2.35117e-18
1.62969e-18
1.71004e-18
3.03903e-18
7.8419e-18
2.58441e-17
9.6254e-17
3.05643e-16
6.10216e-16
3.1991e-18
2.38014e-18
1.91495e-18
1.35454e-18
1.47456e-18
2.71255e-18
7.1554e-18
2.48651e-17
1.00108e-16
3.16434e-16
5.71054e-16
6.79584e-16
2.50833e-18
1.93447e-18
1.54779e-18
1.13004e-18
1.27668e-18
2.42239e-18
6.55325e-18
2.40081e-17
1.00061e-16
3.10749e-16
5.84387e-16
6.33026e-16
7.00978e-16
1.89205e-18
1.51896e-18
1.22937e-18
9.34086e-19
1.09545e-18
2.15324e-18
6.00679e-18
2.33786e-17
9.60857e-17
2.91012e-16
5.73632e-16
6.45932e-16
6.27046e-16
7.21353e-16
1.45823e-18
1.17428e-18
9.63886e-19
7.61149e-19
9.28458e-19
1.8917e-18
5.58407e-18
2.27925e-17
9.03066e-17
2.67042e-16
5.49592e-16
6.34166e-16
6.23701e-16
6.2366e-16
7.51324e-16
1.19554e-18
9.25717e-19
7.63215e-19
6.18482e-19
7.85122e-19
1.66222e-18
5.30131e-18
2.26562e-17
8.4114e-17
2.50784e-16
5.26721e-16
6.17735e-16
6.05327e-16
6.16928e-16
6.40634e-16
7.74764e-16
1.0398e-18
7.5373e-19
6.18569e-19
5.11122e-19
6.75316e-19
1.49622e-18
5.19557e-18
2.29229e-17
8.07915e-17
2.42525e-16
5.10438e-16
5.96268e-16
6.01359e-16
6.00527e-16
6.32974e-16
6.60042e-16
7.89696e-16
9.06197e-19
6.24406e-19
5.07705e-19
4.30873e-19
5.98043e-19
1.40173e-18
5.26267e-18
2.33324e-17
8.0497e-17
2.4885e-16
4.87861e-16
5.58912e-16
5.9675e-16
6.20514e-16
6.07334e-16
6.48477e-16
6.8206e-16
7.97057e-16
7.41733e-19
5.03058e-19
4.09819e-19
3.63681e-19
5.40037e-19
1.35995e-18
5.39337e-18
2.33763e-17
8.13649e-17
2.6992e-16
4.62894e-16
5.16278e-16
5.62946e-16
6.34431e-16
6.4126e-16
6.24978e-16
6.76696e-16
7.04765e-16
8.03881e-16
5.7777e-19
3.84344e-19
3.16207e-19
2.9884e-19
4.83159e-19
1.3253e-18
5.38032e-18
2.23452e-17
8.16228e-17
2.92067e-16
4.4497e-16
4.59111e-16
5.26383e-16
6.13045e-16
6.7358e-16
6.49665e-16
6.59577e-16
7.16401e-16
7.35711e-16
8.13145e-16
4.52586e-19
2.86682e-19
2.37301e-19
2.37754e-19
4.20308e-19
1.25063e-18
5.05927e-18
2.02012e-17
7.91771e-17
3.03188e-16
4.25539e-16
4.23507e-16
4.574e-16
5.67751e-16
6.63096e-16
6.86269e-16
6.72633e-16
7.00292e-16
7.6346e-16
7.72935e-16
8.39854e-16
3.64895e-19
2.16392e-19
1.80578e-19
1.89778e-19
3.60899e-19
1.13628e-18
4.50198e-18
1.80001e-17
7.6195e-17
3.06862e-16
4.21654e-16
4.09361e-16
4.16375e-16
4.87008e-16
6.01656e-16
6.9463e-16
6.8544e-16
7.01101e-16
7.51055e-16
8.15091e-16
8.09296e-16
9.28039e-16
3.0038e-19
1.65883e-19
1.41391e-19
1.56524e-19
3.17679e-19
1.02708e-18
3.94622e-18
1.65932e-17
7.95864e-17
3.0805e-16
4.22494e-16
4.35047e-16
4.11685e-16
4.31727e-16
5.17115e-16
6.39185e-16
7.10049e-16
6.94736e-16
7.35058e-16
8.086e-16
8.60954e-16
8.52393e-16
1.225e-15
2.43718e-19
1.26938e-19
1.12245e-19
1.32593e-19
2.88566e-19
9.55325e-19
3.64453e-18
1.60825e-17
9.28316e-17
3.34579e-16
4.12345e-16
4.55459e-16
4.68633e-16
4.35837e-16
4.58444e-16
5.64268e-16
6.93443e-16
7.03083e-16
7.18932e-16
7.88018e-16
8.59735e-16
8.98464e-16
9.66173e-16
2.63641e-15
1.93046e-19
9.45866e-20
8.78546e-20
1.12295e-19
2.6306e-19
9.05264e-19
3.60398e-18
1.68477e-17
1.11894e-16
3.69551e-16
3.85638e-16
4.38465e-16
5.08019e-16
5.08692e-16
4.58287e-16
5.1665e-16
6.48802e-16
7.33019e-16
7.13207e-16
7.64719e-16
8.51724e-16
8.94912e-16
9.71049e-16
1.35947e-15
1.60357e-14
1.50765e-19
6.86355e-20
6.68957e-20
9.27195e-20
2.34337e-19
8.49129e-19
3.69138e-18
1.86096e-17
1.22606e-16
3.80909e-16
3.6627e-16
3.69469e-16
4.87413e-16
5.72782e-16
5.17487e-16
4.89826e-16
6.05745e-16
7.41817e-16
7.46754e-16
7.50805e-16
8.31209e-16
8.93745e-16
9.31624e-16
1.2253e-15
3.52171e-15
2.02064e-15
1.16054e-19
4.89495e-20
4.99709e-20
7.5169e-20
2.03747e-19
7.86971e-19
3.76713e-18
2.07201e-17
1.21875e-16
3.22037e-16
3.50832e-16
3.25381e-16
3.73608e-16
5.3172e-16
5.76941e-16
5.0886e-16
5.44093e-16
7.06262e-16
7.9331e-16
7.51229e-16
8.01029e-16
8.75974e-16
9.10022e-16
1.08468e-15
2.29678e-15
6.38326e-15
8.14925e-17
9.12275e-20
3.4398e-20
3.7135e-20
6.07239e-20
1.7918e-19
7.35247e-19
3.80841e-18
2.22641e-17
1.16105e-16
2.67365e-16
3.28365e-16
3.05897e-16
3.01148e-16
3.8236e-16
5.45549e-16
5.2611e-16
4.93285e-16
6.16007e-16
7.67127e-16
7.64785e-16
7.57509e-16
8.41479e-16
8.81936e-16
9.772e-16
1.61118e-15
1.04703e-14
2.47724e-16
3.60653e-17
7.58634e-20
2.44714e-20
2.77749e-20
4.94744e-20
1.6032e-19
7.17771e-19
3.81161e-18
2.3081e-17
1.05553e-16
2.35081e-16
2.95373e-16
3.24661e-16
2.78692e-16
2.9295e-16
3.99534e-16
5.27666e-16
4.64194e-16
4.96525e-16
6.65997e-16
7.47882e-16
7.11377e-16
7.72575e-16
8.53224e-16
9.19167e-16
1.3562e-15
5.11946e-15
1.51444e-15
3.25717e-17
8.55697e-17
6.69024e-20
1.79448e-20
2.14383e-20
4.09382e-20
1.44725e-19
7.06165e-19
3.84564e-18
2.23135e-17
9.58877e-17
2.04879e-16
2.63643e-16
3.24866e-16
3.24225e-16
2.69499e-16
3.0391e-16
4.43015e-16
4.66836e-16
4.24923e-16
5.33214e-16
6.90926e-16
6.87196e-16
7.09687e-16
8.16485e-16
8.85881e-16
1.18469e-15
2.90357e-15
5.56837e-15
7.71609e-17
2.46238e-17
1.16625e-16
5.03903e-20
1.33474e-20
1.70012e-20
3.52965e-20
1.30994e-19
6.80574e-19
3.64379e-18
2.01647e-17
8.62947e-17
1.81141e-16
2.26689e-16
2.86126e-16
3.63819e-16
3.29861e-16
2.75437e-16
3.58615e-16
4.64555e-16
4.14173e-16
4.40753e-16
6.14818e-16
6.91599e-16
6.76609e-16
7.84048e-16
9.10016e-16
1.01856e-15
1.84068e-15
7.27308e-15
1.50858e-16
2.05723e-17
3.05876e-17
1.32643e-16
8.50785e-20
1.00827e-20
1.36388e-20
3.10059e-20
1.21381e-19
6.46974e-19
3.2793e-18
1.58815e-17
7.87852e-17
1.54263e-16
1.92553e-16
2.33711e-16
3.11586e-16
3.86677e-16
3.1612e-16
3.15713e-16
4.51374e-16
4.88236e-16
4.04121e-16
5.37572e-16
7.15401e-16
6.77597e-16
7.74714e-16
9.19635e-16
9.17501e-16
1.35082e-15
5.13122e-15
3.3287e-16
1.62955e-17
1.959e-17
1.09642e-16
2.45828e-15
5.57012e-20
1.3039e-20
1.32616e-20
2.75505e-20
1.11105e-19
6.16346e-19
3.00956e-18
1.20091e-17
6.53333e-17
1.43179e-16
1.56516e-16
1.8404e-16
2.36746e-16
3.45675e-16
3.82569e-16
3.03143e-16
3.85113e-16
5.35464e-16
4.62876e-16
4.70951e-16
7.03246e-16
7.17257e-16
7.71643e-16
8.02239e-16
8.7575e-16
1.03441e-15
5.56637e-15
5.62544e-16
1.45906e-17
1.48634e-17
1.61284e-16
6.83246e-15
2.53093e-12
4.47451e-19
2.57054e-20
9.06435e-21
2.49807e-20
1.00354e-19
5.58519e-19
2.97849e-18
1.06752e-17
5.1174e-17
1.2794e-16
1.51235e-16
1.49426e-16
1.74612e-16
2.41693e-16
3.66075e-16
3.39057e-16
3.16792e-16
4.83025e-16
5.46259e-16
4.33816e-16
6.14235e-16
7.7494e-16
6.57968e-16
7.32808e-16
7.96821e-16
8.9269e-16
1.94078e-14
2.92194e-16
1.43927e-17
1.42521e-17
2.13616e-16
1.74664e-14
1.30937e-11
2.17806e-09
6.90618e-18
2.43034e-19
2.23966e-20
1.30519e-20
7.82696e-20
5.13132e-19
2.7189e-18
1.24028e-17
4.95404e-17
1.05901e-16
1.45725e-16
1.53001e-16
1.43979e-16
1.71493e-16
2.55774e-16
3.46725e-16
2.8171e-16
3.48983e-16
5.81608e-16
4.53833e-16
4.88407e-16
7.40835e-16
5.78527e-16
6.86126e-16
6.8929e-16
2.01246e-15
4.60778e-15
7.57237e-17
1.54816e-17
1.59485e-17
2.75442e-16
4.61367e-14
1.09616e-11
2.92287e-10
1.48469e-09
7.8458e-18
1.27756e-18
2.30205e-19
2.42882e-20
2.96833e-20
2.26794e-19
2.31926e-18
1.28274e-17
8.71688e-17
9.30257e-17
1.21392e-16
1.64526e-16
1.49788e-16
1.45811e-16
1.81308e-16
2.78545e-16
3.05056e-16
2.62752e-16
4.32323e-16
4.97114e-16
3.8888e-16
5.35671e-16
5.79422e-16
5.71997e-16
9.66875e-16
6.11853e-15
2.18768e-16
2.73776e-17
2.02097e-17
2.32688e-17
3.06507e-16
7.04864e-14
5.51837e-12
1.53929e-10
8.22443e-10
4.25907e-09
7.76788e-18
1.37194e-18
1.52325e-18
2.1272e-19
3.0384e-20
4.7319e-20
3.44641e-19
8.54788e-18
1.68464e-16
1.69899e-16
8.74263e-17
1.51967e-16
1.76744e-16
1.54087e-16
1.5586e-16
2.12319e-16
3.03841e-16
2.40801e-16
2.68936e-16
4.85432e-16
3.2108e-16
4.04286e-16
5.80109e-16
5.29309e-16
4.7919e-15
4.22753e-16
3.6243e-17
1.73865e-17
3.64653e-17
4.64139e-17
2.43103e-16
4.42753e-14
3.21728e-12
8.00497e-11
5.23445e-10
2.34162e-09
2.51887e-08
8.10351e-18
1.3975e-18
1.80824e-18
1.37196e-18
2.40253e-19
3.77732e-20
4.81076e-20
3.70149e-19
2.79127e-17
8.89702e-16
1.6222e-16
9.4868e-17
1.74191e-16
1.86302e-16
1.53524e-16
1.72863e-16
2.54956e-16
2.51378e-16
1.99587e-16
3.27188e-16
3.63436e-16
3.32877e-16
5.59229e-16
2.74848e-15
6.91454e-16
3.67055e-17
1.33233e-17
1.97811e-17
1.04954e-16
1.2304e-16
1.62495e-16
1.52849e-14
1.71902e-12
4.59527e-11
2.80359e-10
1.4965e-09
1.46991e-08
2.24853e-07
8.35204e-18
1.55078e-18
1.98175e-18
1.58406e-18
1.6786e-18
2.66153e-19
4.99627e-20
4.3875e-20
2.11477e-19
9.28215e-18
2.67198e-16
3.57531e-16
9.97704e-17
2.04279e-16
1.61807e-16
1.49836e-16
1.95479e-16
2.59971e-16
2.02974e-16
2.42987e-16
5.68493e-16
2.79522e-16
3.5041e-15
6.24309e-16
3.28472e-17
9.27833e-18
1.10404e-17
4.18123e-17
5.53012e-16
4.52939e-16
1.2575e-16
4.78202e-15
7.33523e-13
2.71065e-11
1.4676e-10
8.87943e-10
9.94962e-09
1.44413e-07
2.47871e-06
8.7102e-18
1.65594e-18
2.34932e-18
1.80604e-18
1.83796e-18
3.06637e-18
2.50876e-19
7.94281e-20
4.54735e-20
9.22841e-20
1.43988e-18
6.72688e-17
7.6813e-16
2.17308e-16
4.03128e-16
1.56196e-16
1.75085e-16
2.87025e-16
4.37016e-16
2.38584e-16
7.64785e-16
1.93188e-15
3.59856e-16
2.10085e-17
6.25746e-18
6.07374e-18
1.82577e-17
1.75927e-16
6.99153e-15
2.4207e-15
1.26415e-16
1.58232e-15
2.63383e-13
1.56284e-11
7.4078e-11
5.36643e-10
6.37134e-09
1.05758e-07
1.70869e-06
2.97545e-05
8.73889e-18
1.73031e-18
2.4417e-18
1.84164e-18
2.04091e-18
3.35768e-18
6.63003e-18
2.24921e-19
1.64531e-19
6.15818e-20
4.63212e-20
2.55624e-19
4.88575e-18
8.03018e-17
7.10372e-16
2.61181e-15
3.50243e-16
4.41692e-16
1.16027e-15
9.62252e-16
8.40454e-16
6.44175e-17
9.8241e-18
3.40597e-18
3.48733e-18
8.72417e-18
6.48898e-17
1.65362e-15
2.23628e-13
2.21279e-14
1.77e-16
6.34327e-16
8.27403e-14
8.4268e-12
3.77048e-11
3.21558e-10
4.14856e-09
7.25895e-08
1.33436e-06
2.15054e-05
0.000351267
8.09204e-18
1.68112e-18
2.31809e-18
1.66308e-18
1.7204e-18
3.39947e-18
1.11977e-17
5.92462e-18
2.22739e-19
5.08494e-19
1.34829e-19
3.92341e-20
6.5317e-20
3.3535e-19
2.16279e-18
1.15364e-17
4.38509e-17
6.32018e-17
5.14674e-17
2.24103e-17
7.34138e-18
2.53977e-18
1.66905e-18
1.97092e-18
4.88698e-18
2.93348e-17
5.52568e-16
1.57346e-14
1.26787e-13
6.59591e-13
3.49814e-16
3.28952e-16
2.52059e-14
4.09614e-12
2.04427e-11
1.92189e-10
2.70611e-09
5.00138e-08
9.73626e-07
1.77379e-05
0.000263943
0.00358398
7.4236e-18
1.53067e-18
2.04589e-18
1.44918e-18
1.48516e-18
2.80577e-18
9.01424e-18
4.23161e-17
2.61492e-18
2.59706e-19
2.88916e-18
6.26316e-19
8.739e-20
4.71556e-20
7.34925e-20
1.67058e-19
3.57121e-19
6.33051e-19
7.30159e-19
6.75921e-19
6.82007e-19
7.75955e-19
1.27183e-18
3.30513e-18
1.876e-17
2.81949e-16
8.46292e-15
1.36492e-14
3.72621e-14
2.45399e-11
9.75636e-16
2.29419e-16
8.0223e-15
1.71343e-12
1.1304e-11
1.14269e-10
1.77463e-09
3.41743e-08
7.12036e-07
1.36727e-05
0.000229119
0.0028227
0.030786
6.35329e-18
1.37118e-18
1.85638e-18
1.29427e-18
1.3452e-18
2.61739e-18
8.21097e-18
3.01789e-17
1.01929e-16
1.00761e-18
3.91951e-19
3.84167e-17
9.68643e-18
7.1253e-19
1.62735e-19
9.9781e-20
1.09048e-19
1.42821e-19
2.10493e-19
2.98721e-19
5.18505e-19
1.04626e-18
3.33945e-18
1.92863e-17
2.44589e-16
6.18996e-15
1.26018e-14
1.00143e-14
2.00794e-14
8.00469e-13
3.89683e-15
2.18619e-16
2.86669e-15
6.20999e-13
6.50486e-12
6.81511e-11
1.14686e-09
2.32735e-08
5.15569e-07
1.0597e-05
0.000185417
0.00257657
0.0252039
0.163714
5.59993e-18
1.15619e-18
1.5815e-18
1.2183e-18
1.29711e-18
2.57116e-18
7.97337e-18
2.77965e-17
1.01646e-16
1.51166e-16
4.47572e-19
8.27011e-19
6.22959e-16
1.42354e-15
3.47121e-17
3.19622e-18
9.54585e-19
6.48058e-19
6.90243e-19
1.08092e-18
2.42707e-18
7.74543e-18
4.39242e-17
4.7641e-16
6.50459e-15
1.08684e-14
9.5805e-15
9.03437e-15
1.43649e-14
2.13356e-13
2.45208e-14
2.86162e-16
1.21983e-15
1.96888e-13
3.89847e-12
4.10503e-11
7.40165e-10
1.58043e-08
3.71615e-07
8.14227e-06
0.000151346
0.00218906
0.0237941
0.146766
0.372573
5.57368e-18
1.09434e-18
1.43382e-18
1.12206e-18
1.28276e-18
2.59236e-18
7.9773e-18
2.5292e-17
9.1965e-17
6.73759e-16
3.55522e-17
2.69984e-19
2.82128e-18
1.88172e-16
1.10423e-15
1.19911e-15
3.12605e-16
8.0187e-17
4.52396e-17
5.14096e-17
1.12086e-16
4.3393e-16
2.43844e-15
6.45854e-15
7.75269e-15
7.50033e-15
8.3404e-15
9.22828e-15
1.23926e-14
8.27553e-14
3.80801e-13
5.18842e-16
6.4377e-16
6.03925e-14
2.43444e-12
2.47848e-11
4.68793e-10
1.07382e-08
2.67061e-07
6.2256e-06
0.000122789
0.00187841
0.020981
0.143214
0.369587
0.648814
5.82302e-18
1.15506e-18
1.54134e-18
1.19542e-18
1.34565e-18
2.66855e-18
8.01453e-18
2.38822e-17
9.09862e-17
5.44358e-16
3.03673e-15
6.17706e-18
2.47946e-19
1.63864e-17
2.20485e-16
7.08385e-16
6.48216e-16
6.568e-16
1.27552e-15
2.35441e-15
3.1937e-15
3.82985e-15
4.13763e-15
4.92269e-15
5.50178e-15
6.78127e-15
8.258e-15
9.84984e-15
1.18165e-14
3.97302e-14
1.99307e-09
1.29152e-15
4.37914e-16
1.98979e-14
1.52401e-12
1.52078e-11
2.92769e-10
7.29592e-09
1.91843e-07
4.73397e-06
9.92895e-05
0.00160552
0.0186864
0.133369
0.369594
0.633671
0.959431
6.32709e-18
1.23346e-18
1.69065e-18
1.32081e-18
1.51528e-18
2.90382e-18
8.16752e-18
2.33256e-17
9.59714e-17
5.13617e-16
1.58684e-15
2.66454e-15
1.31768e-18
3.82402e-19
1.00487e-16
1.26026e-14
3.36465e-15
7.70641e-16
7.8355e-16
1.30583e-15
2.06956e-15
2.69115e-15
3.29257e-15
4.07434e-15
5.15482e-15
6.65112e-15
8.45839e-15
1.0139e-14
1.18217e-14
2.39488e-14
1.23676e-12
4.42446e-15
3.98946e-16
7.08685e-15
8.48794e-13
9.20051e-12
1.80835e-10
4.97004e-09
1.3795e-07
3.5848e-06
7.98611e-05
0.0013711
0.0166022
0.124993
0.365346
0.621056
0.946895
0.99997
6.89777e-18
1.38255e-18
1.82639e-18
1.37992e-18
1.62046e-18
3.0482e-18
8.16245e-18
2.26743e-17
1.00682e-16
5.36692e-16
1.1731e-15
5.0487e-15
2.28412e-16
4.56114e-19
1.10879e-18
3.55066e-16
1.18372e-13
2.60307e-15
9.16453e-16
1.18027e-15
2.00719e-15
2.65579e-15
3.21778e-15
4.04238e-15
5.25333e-15
6.62297e-15
8.36193e-15
1.03118e-14
1.19355e-14
1.81456e-14
2.17077e-13
2.22991e-14
4.8635e-16
2.8946e-15
3.85365e-13
5.43053e-12
1.11814e-10
3.36909e-09
9.93497e-08
2.70762e-06
6.39027e-05
0.00116839
0.0147652
0.116986
0.362091
0.606993
0.936254
0.999925
1
6.5143e-18
1.44493e-18
1.97673e-18
1.47724e-18
1.67293e-18
3.08037e-18
7.85537e-18
2.23032e-17
1.0304e-16
5.59617e-16
9.86729e-16
3.93008e-15
1.01807e-13
1.70107e-17
3.17431e-19
8.17215e-18
8.61268e-15
2.45001e-14
1.41153e-15
9.57778e-16
1.70718e-15
2.62914e-15
3.20886e-15
3.90869e-15
4.98745e-15
6.43712e-15
8.20136e-15
1.02005e-14
1.19925e-14
1.54856e-14
7.97912e-14
2.2727e-13
7.90931e-16
1.46432e-15
1.47019e-13
3.26241e-12
7.06805e-11
2.28558e-09
7.15701e-08
2.0442e-06
5.08887e-05
0.000992947
0.0131407
0.109614
0.359251
0.594378
0.923017
0.999867
1
1
6.08094e-18
1.34515e-18
1.87095e-18
1.47939e-18
1.76596e-18
3.13336e-18
7.59534e-18
2.22732e-17
1.1711e-16
5.42437e-16
9.39156e-16
3.5879e-15
5.57269e-14
1.28976e-14
2.10307e-18
5.02333e-19
1.38016e-16
2.29884e-13
4.60643e-15
9.32673e-16
1.27088e-15
2.29209e-15
3.07265e-15
3.7345e-15
4.73681e-15
6.13589e-15
7.87255e-15
9.98443e-15
1.19764e-14
1.43637e-14
4.04206e-14
6.69071e-12
1.71558e-15
9.39715e-16
5.03875e-14
2.11675e-12
4.63731e-11
1.5402e-09
5.14839e-08
1.54609e-06
4.04048e-05
0.00084053
0.0117123
0.102813
0.356938
0.583115
0.908686
0.999755
1
1
1
5.17687e-18
1.24909e-18
1.76929e-18
1.41516e-18
1.73567e-18
3.09829e-18
7.30112e-18
2.25127e-17
1.2876e-16
5.35735e-16
8.90589e-16
4.25083e-15
3.79647e-14
3.92198e-13
3.13287e-16
5.63353e-19
1.99643e-18
1.90264e-15
5.14314e-14
1.70591e-15
9.92429e-16
1.83389e-15
2.82588e-15
3.52723e-15
4.43421e-15
5.82553e-15
7.576e-15
9.69935e-15
1.18609e-14
1.3646e-14
2.59466e-14
5.68083e-13
4.88966e-15
7.77469e-16
1.88087e-14
1.41994e-12
3.09186e-11
1.02605e-09
3.68962e-08
1.17318e-06
3.20708e-05
0.00070823
0.0104572
0.0966006
0.354885
0.573108
0.893174
0.999566
1
1
1
1
4.47076e-18
1.09765e-18
1.69299e-18
1.40402e-18
1.71853e-18
2.94131e-18
6.52326e-18
2.34874e-17
1.39169e-16
5.19277e-16
8.08473e-16
5.44581e-15
5.62283e-14
1.19227e-13
1.85526e-13
1.27495e-17
4.13386e-19
1.92061e-17
2.53736e-13
9.77939e-15
1.01697e-15
1.37517e-15
2.47849e-15
3.35283e-15
4.17642e-15
5.5044e-15
7.27772e-15
9.3885e-15
1.16156e-14
1.32108e-14
1.97759e-14
1.04705e-13
1.77476e-14
8.50095e-16
7.62745e-15
8.92172e-13
2.07431e-11
6.7525e-10
2.63639e-08
8.94245e-07
2.55203e-05
0.000594083
0.00934715
0.0909346
0.352901
0.564302
0.876733
0.999254
1
1
1
1
1
4.24331e-18
1.03265e-18
1.72058e-18
1.43299e-18
1.72642e-18
2.83884e-18
5.99712e-18
2.35938e-17
1.52123e-16
4.86933e-16
8.02012e-16
6.8993e-15
8.67373e-14
8.92013e-14
1.38133e-13
4.42962e-15
1.44591e-18
9.92495e-19
3.92936e-16
2.7104e-13
1.93445e-15
1.0544e-15
2.00759e-15
3.15141e-15
3.96612e-15
5.18675e-15
6.96987e-15
9.05148e-15
1.12397e-14
1.27502e-14
1.60926e-14
4.08891e-14
7.65116e-14
1.22164e-15
3.59837e-15
4.58742e-13
1.30108e-11
4.44186e-10
1.88583e-08
6.84323e-07
2.04075e-05
0.000496854
0.00835681
0.0857996
0.350654
0.556768
0.859697
0.998758
1
1
1
1
1
1
4.16389e-18
1.02513e-18
1.90649e-18
1.60073e-18
1.76136e-18
2.76815e-18
5.74075e-18
2.38501e-17
1.71157e-16
4.15291e-16
7.94566e-16
7.76882e-15
1.71531e-13
1.66457e-13
7.0514e-14
1.85037e-12
6.47352e-17
5.73234e-19
9.02321e-18
6.69296e-14
1.09817e-14
1.03079e-15
1.51561e-15
2.84843e-15
3.79108e-15
4.87353e-15
6.63885e-15
8.69858e-15
1.07491e-14
1.21492e-14
1.37326e-14
2.16844e-14
1.70012e-13
2.23553e-15
2.06464e-15
1.90794e-13
8.27248e-12
2.9694e-10
1.35543e-08
5.2506e-07
1.64142e-05
0.00041547
0.00745937
0.0810972
0.348022
0.550646
0.842353
0.997996
1
1
1
1
1
1
1
4.01586e-18
1.03046e-18
2.03988e-18
1.74695e-18
1.86203e-18
2.55885e-18
5.48899e-18
2.41897e-17
1.79411e-16
3.7082e-16
8.0324e-16
8.95146e-15
2.43688e-13
2.79909e-13
8.67284e-14
4.3193e-13
4.05083e-14
3.51326e-18
9.06242e-19
3.55248e-16
3.54351e-13
1.85593e-15
1.1588e-15
2.40197e-15
3.61624e-15
4.58435e-15
6.2759e-15
8.32657e-15
1.01817e-14
1.13457e-14
1.1715e-14
1.39386e-14
9.8316e-14
5.0469e-15
1.49927e-15
7.37146e-14
5.44661e-12
2.0947e-10
9.79862e-09
4.02751e-07
1.32775e-05
0.000348758
0.00664002
0.0766577
0.345105
0.546211
0.825223
0.996868
1
1
1
1
1
1
1
1
3.75968e-18
9.89409e-19
2.14729e-18
1.84769e-18
1.8974e-18
2.324e-18
5.26686e-18
2.46616e-17
1.83245e-16
3.33258e-16
8.91043e-16
1.05647e-14
2.75167e-13
3.36638e-13
1.84669e-13
1.51548e-13
8.02048e-12
2.29012e-16
8.38392e-19
6.5094e-18
6.69211e-14
1.0644e-14
1.08344e-15
1.86815e-15
3.36502e-15
4.33786e-15
5.88535e-15
7.93105e-15
9.56079e-15
1.03798e-14
1.0091e-14
1.03021e-14
4.39945e-14
1.31617e-14
1.40677e-15
2.90187e-14
3.78781e-12
1.52503e-10
7.09265e-09
3.08478e-07
1.07851e-05
0.0002949
0.00589983
0.0723997
0.342697
0.544042
0.808695
0.995254
1
1
1
1
1
1
1
1
1
3.60537e-18
9.26752e-19
2.1586e-18
1.91942e-18
1.89162e-18
2.17219e-18
5.14786e-18
2.67735e-17
1.85532e-16
3.1659e-16
9.92775e-16
1.04576e-14
1.95859e-13
2.54127e-13
3.41183e-13
2.71777e-13
3.06759e-13
3.33808e-13
6.42158e-18
1.02549e-18
2.12939e-16
6.02018e-13
1.69858e-15
1.40673e-15
2.95281e-15
4.13421e-15
5.48253e-15
7.50558e-15
8.89043e-15
9.34187e-15
8.61473e-15
8.14067e-15
2.28078e-14
3.30194e-14
1.71267e-15
1.30647e-14
2.47925e-12
1.10653e-10
5.11151e-09
2.36323e-07
8.79423e-06
0.000251858
0.00525228
0.0683308
0.3418
0.544517
0.793118
0.993034
1
1
1
1
1
1
1
1
1
1
3.53214e-18
8.92247e-19
2.1606e-18
1.87602e-18
1.82335e-18
2.00719e-18
5.08832e-18
3.04074e-17
1.90282e-16
2.812e-16
1.09717e-15
1.26095e-14
1.2781e-13
1.24655e-13
4.32299e-13
9.45724e-13
1.6046e-13
1.77565e-12
4.25259e-16
1.16015e-18
7.55528e-18
4.11575e-14
7.16821e-15
1.19374e-15
2.37706e-15
3.93452e-15
5.103e-15
7.02896e-15
8.18374e-15
8.27174e-15
7.24562e-15
6.70126e-15
1.38123e-14
5.68852e-14
2.62402e-15
6.69084e-15
1.33263e-12
7.87389e-11
3.70038e-09
1.82331e-07
7.2001e-06
0.000217403
0.00470675
0.0644529
0.342428
0.547243
0.77847
0.990102
1
1
1
1
1
1
1
1
1
1
1
3.59209e-18
8.93817e-19
2.20036e-18
1.85533e-18
1.68078e-18
1.8406e-18
5.04669e-18
3.3511e-17
1.88225e-16
2.65391e-16
1.29105e-15
1.46121e-14
1.40043e-13
8.3383e-14
4.58669e-13
2.59304e-12
4.5878e-13
2.12263e-13
5.87725e-13
8.07399e-18
1.34398e-18
3.52596e-16
1.79553e-13
1.50475e-15
1.78336e-15
3.64589e-15
4.78723e-15
6.47554e-15
7.47687e-15
7.159e-15
6.04549e-15
5.65409e-15
9.41766e-15
5.05594e-14
4.76637e-15
4.11823e-15
6.07504e-13
5.22706e-11
2.75415e-09
1.42713e-07
5.92838e-06
0.000189381
0.00426464
0.0608468
0.34404
0.551406
0.764919
0.986334
0.999999
1
1
1
1
1
1
1
1
1
1
1
3.79701e-18
9.24183e-19
2.32109e-18
1.81257e-18
1.53489e-18
1.72973e-18
5.06949e-18
3.61953e-17
1.81627e-16
2.67054e-16
1.42605e-15
1.99652e-14
1.30339e-13
7.02584e-14
4.64936e-13
4.40865e-12
4.24233e-12
2.26516e-13
3.07184e-12
3.71859e-16
1.40528e-18
1.17116e-17
2.36224e-13
4.22398e-15
1.38039e-15
3.1679e-15
4.55448e-15
5.84776e-15
6.77995e-15
6.04652e-15
5.05819e-15
4.82782e-15
7.11941e-15
3.3282e-14
9.87571e-15
3.16507e-15
2.57996e-13
3.72383e-11
2.1618e-09
1.13478e-07
4.91062e-06
0.000166093
0.00391901
0.0577016
0.346305
0.557031
0.752541
0.981676
0.999997
1
1
1
1
1
1
1
1
1
1
1
1
3.87605e-18
1.01039e-18
2.5145e-18
1.75303e-18
1.3667e-18
1.61733e-18
5.08983e-18
4.01962e-17
1.77527e-16
2.61463e-16
1.51006e-15
2.5468e-14
7.41842e-14
7.01312e-14
5.14611e-13
2.66597e-12
8.36744e-11
1.13827e-12
3.17441e-13
1.73645e-13
7.28007e-18
2.0241e-18
8.13032e-16
4.84277e-14
1.3659e-15
2.51519e-15
4.35645e-15
5.21469e-15
6.02738e-15
5.01314e-15
4.23898e-15
4.14348e-15
5.73605e-15
2.05728e-14
2.02494e-14
3.10894e-15
1.13606e-13
2.76365e-11
1.77173e-09
9.11209e-08
4.0964e-06
0.000146528
0.0036532
0.0552383
0.348878
0.563752
0.741322
0.976083
0.999993
1
1
1
1
1
1
1
1
1
1
1
1
1
3.85778e-18
1.07119e-18
2.65652e-18
1.68183e-18
1.2262e-18
1.55775e-18
5.32732e-18
4.53013e-17
1.75801e-16
2.6196e-16
1.53186e-15
2.79735e-14
4.88256e-14
6.45917e-14
8.34758e-13
1.43175e-12
8.49892e-11
2.27823e-11
2.75242e-13
8.16279e-12
1.87058e-16
1.6528e-18
2.71885e-17
4.27524e-12
2.39888e-15
1.88593e-15
4.05842e-15
4.67499e-15
5.15378e-15
4.15635e-15
3.5491e-15
3.57705e-15
4.81455e-15
1.34755e-14
3.3508e-14
3.87669e-15
5.55959e-14
1.93894e-11
1.4341e-09
7.32601e-08
3.45504e-06
0.000130355
0.00344691
0.053599
0.351799
0.571695
0.730946
0.969577
0.999982
1
1
1
1
1
1
1
1
1
1
1
1
1
1
3.84097e-18
1.1033e-18
2.63809e-18
1.49999e-18
1.08894e-18
1.54904e-18
6.04755e-18
5.46774e-17
1.79756e-16
2.702e-16
1.72481e-15
2.92265e-14
3.86466e-14
7.91385e-14
2.73066e-12
1.19991e-12
2.0579e-11
1.89481e-10
8.72969e-13
4.48913e-13
3.65355e-14
5.48228e-18
3.75359e-18
3.87933e-15
1.16813e-14
1.52557e-15
3.51523e-15
4.2789e-15
4.21085e-15
3.46655e-15
2.96385e-15
3.11919e-15
4.09076e-15
9.41634e-15
3.79028e-14
5.90583e-15
3.05692e-14
1.13895e-11
1.11342e-09
5.95587e-08
2.97081e-06
0.000117396
0.00327884
0.0527992
0.355363
0.581244
0.721369
0.962213
0.99996
1
1
1
1
1
1
1
1
1
1
1
1
1
1
1
3.84706e-18
1.13289e-18
2.62762e-18
1.30743e-18
9.63173e-19
1.56891e-18
6.88351e-18
6.62398e-17
1.67102e-16
2.94921e-16
1.81165e-15
2.84752e-14
3.63645e-14
1.20355e-13
7.49336e-12
3.40096e-12
2.98111e-12
7.01403e-11
7.37298e-12
2.34141e-13
1.3035e-11
6.99816e-17
2.03601e-18
9.54839e-17
3.65114e-13
1.6957e-15
2.77043e-15
3.91196e-15
3.34558e-15
2.88219e-15
2.49668e-15
2.72264e-15
3.50432e-15
7.08378e-15
3.19467e-14
1.01281e-14
2.00465e-14
5.84436e-12
8.22877e-10
5.05317e-08
2.6287e-06
0.000107311
0.00313218
0.0526413
0.360495
0.592933
0.71305
0.95407
0.999915
1
1
1
1
1
1
1
1
1
1
1
1
1
1
1
1
3.80771e-18
1.15441e-18
2.54543e-18
1.16859e-18
8.83832e-19
1.61258e-18
8.11475e-18
7.20745e-17
1.50015e-16
3.09414e-16
2.13108e-15
1.78515e-14
2.14458e-14
1.81193e-13
3.93056e-12
2.32548e-11
1.58615e-12
6.37444e-12
4.61647e-11
5.00407e-13
4.30203e-13
4.46297e-15
3.98998e-18
9.36917e-18
3.3855e-14
3.57606e-15
2.06486e-15
3.45089e-15
2.70096e-15
2.36084e-15
2.11704e-15
2.36228e-15
3.03045e-15
5.60877e-15
2.30157e-14
1.8178e-14
1.63897e-14
2.90723e-12
6.71533e-10
4.61709e-08
2.39141e-06
9.93686e-05
0.00299728
0.0528322
0.368153
0.607271
0.707173
0.94528
0.999831
1
1
1
1
1
1
1
1
1
1
1
1
1
1
1
1
1
3.63647e-18
1.13877e-18
2.43727e-18
1.04711e-18
8.45091e-19
1.73051e-18
1.0092e-17
7.43128e-17
1.34238e-16
3.25545e-16
2.97455e-15
1.41329e-14
1.69205e-14
1.80389e-13
2.30415e-12
1.04919e-10
5.4331e-12
1.90156e-12
4.02723e-11
3.37729e-12
1.55035e-13
2.06101e-11
2.39033e-17
3.16181e-18
5.50609e-16
2.04737e-14
1.66674e-15
2.83597e-15
2.21248e-15
1.90164e-15
1.82278e-15
2.03598e-15
2.63446e-15
4.63965e-15
1.67266e-14
3.18406e-14
1.68937e-14
1.50693e-12
5.62445e-10
4.357e-08
2.20657e-06
9.27857e-05
0.00287503
0.0532031
0.379657
0.62484
0.705315
0.936308
0.99968
1
1
1
1
1
1
1
1
1
1
1
1
1
1
1
1
1
1
3.25467e-18
1.08372e-18
2.27161e-18
9.72104e-19
8.50725e-19
1.96188e-18
1.25976e-17
7.35465e-17
1.13391e-16
3.356e-16
3.84067e-15
1.19671e-14
1.45969e-14
1.73037e-13
4.39878e-12
4.40798e-12
2.16417e-10
1.92802e-12
8.86045e-12
3.12411e-11
3.26223e-13
8.33495e-13
4.58814e-16
3.43543e-18
3.48572e-17
1.93581e-12
1.80179e-15
2.13434e-15
1.83168e-15
1.53588e-15
1.56179e-15
1.74666e-15
2.31128e-15
3.96514e-15
1.24572e-14
4.75237e-14
2.19947e-14
8.56334e-13
4.42083e-10
3.98553e-08
2.03423e-06
8.74181e-05
0.00277738
0.0538782
0.396719
0.646837
0.708291
0.927703
0.999424
1
1
1
1
1
1
1
1
1
1
1
1
1
1
1
1
1
1
1
2.9923e-18
1.01628e-18
2.07473e-18
9.36782e-19
8.83614e-19
2.29884e-18
1.51539e-17
6.86267e-17
9.02058e-17
3.70194e-16
4.06814e-15
8.97527e-15
1.56027e-14
1.35909e-13
2.04736e-12
2.17592e-12
1.16007e-11
1.79551e-11
1.97896e-12
8.92766e-11
2.15931e-12
2.04232e-13
4.18803e-14
1.00917e-17
7.17364e-18
6.30121e-15
3.15739e-15
1.54272e-15
1.50972e-15
1.25657e-15
1.32558e-15
1.50819e-15
2.03694e-15
3.44992e-15
9.61304e-15
5.58817e-14
3.22611e-14
5.48632e-13
2.99202e-10
3.46723e-08
1.90392e-06
8.39201e-05
0.00272599
0.0554018
0.422366
0.675092
0.716031
0.920461
0.998902
1
1
1
1
1
1
1
1
1
1
1
1
1
1
1
1
1
1
1
1
2.82074e-18
9.79682e-19
2.07103e-18
9.41825e-19
9.65415e-19
2.73908e-18
1.68168e-17
5.55982e-17
8.1912e-17
4.07663e-16
4.24236e-15
7.32365e-15
1.76306e-14
1.90059e-13
8.2937e-13
6.85505e-12
9.92431e-13
4.95663e-11
1.62002e-12
2.23264e-11
4.34219e-11
1.9552e-13
5.54712e-12
7.12872e-17
4.17567e-18
2.18694e-16
9.4168e-15
1.18751e-15
1.21177e-15
1.03805e-15
1.11334e-15
1.30655e-15
1.80313e-15
3.04181e-15
7.70654e-15
5.00696e-14
5.24558e-14
4.18734e-13
1.82902e-10
3.03956e-08
1.8699e-06
8.30726e-05
0.00274475
0.0587697
0.462765
0.712309
0.728531
0.914469
0.998041
1
1
1
1
1
1
1
1
1
1
1
1
1
1
1
1
1
1
1
1
1
2.68245e-18
9.51888e-19
2.16706e-18
9.92957e-19
1.1066e-18
3.2237e-18
1.71143e-17
4.44517e-17
7.4589e-17
4.60981e-16
4.28842e-15
4.96549e-15
1.94111e-14
3.23671e-13
5.78386e-13
3.1436e-11
1.18121e-12
3.24945e-12
5.4387e-12
3.18343e-12
1.84178e-10
6.39161e-13
2.11404e-13
1.32196e-15
6.14833e-18
2.59707e-17
8.92637e-14
1.06593e-15
9.482e-16
8.69488e-16
9.25921e-16
1.13323e-15
1.60561e-15
2.71227e-15
6.39364e-15
4.16374e-14
8.99943e-14
3.73114e-13
1.12425e-10
2.90282e-08
1.95172e-06
8.48593e-05
0.00286282
0.0655764
0.528383
0.759712
0.744282
0.909464
0.997155
0.999999
1
1
1
1
1
1
1
1
1
1
1
1
1
1
1
1
1
1
1
1
1
2.68615e-18
9.34782e-19
2.27196e-18
1.06165e-18
1.27547e-18
3.62205e-18
1.54859e-17
3.26262e-17
7.24997e-17
5.83647e-16
3.68176e-15
3.61483e-15
1.92642e-14
3.29852e-13
2.36794e-12
2.14915e-12
1.86931e-11
1.11778e-12
4.39027e-10
1.20045e-12
1.02189e-10
7.04577e-12
9.48492e-14
1.40704e-13
1.884e-17
9.03702e-18
4.07284e-15
1.17405e-15
7.38438e-16
7.21419e-16
7.69411e-16
9.91823e-16
1.43946e-15
2.43966e-15
5.46837e-15
3.36441e-14
1.56859e-13
4.05091e-13
6.98912e-11
2.75001e-08
2.0146e-06
8.86526e-05
0.00313795
0.0788671
0.63215
0.814353
0.762065
0.905688
0.996515
0.999995
1
1
1
1
1
1
1
1
1
1
1
1
1
1
1
1
1
1
1
1
1
1
2.64686e-18
9.30953e-19
2.38925e-18
1.13189e-18
1.42116e-18
3.91083e-18
1.35633e-17
2.48854e-17
7.19845e-17
7.2964e-16
3.41131e-15
2.91545e-15
1.71138e-14
3.79299e-13
1.40571e-11
2.14074e-12
3.69516e-11
1.74518e-12
8.17282e-12
1.88287e-12
5.62737e-12
1.47111e-10
1.4545e-13
1.47962e-12
1.13384e-16
6.64099e-18
2.01611e-16
1.4896e-15
5.87496e-16
5.91965e-16
6.4474e-16
8.69574e-16
1.29958e-15
2.20948e-15
4.79989e-15
2.77578e-14
2.54135e-13
5.04164e-13
4.50266e-11
2.31316e-08
1.9294e-06
9.42805e-05
0.00368033
0.104122
0.773715
0.871294
0.780384
0.903417
0.996
0.999988
1
1
1
1
1
1
1
1
1
1
1
1
1
1
1
1
1
1
1
1
1
1
1
2.4038e-18
8.81465e-19
2.32696e-18
1.15066e-18
1.50207e-18
3.89322e-18
1.10198e-17
2.10329e-17
8.21792e-17
8.03879e-16
2.44993e-15
2.83495e-15
1.57724e-14
4.06198e-13
2.1032e-12
5.44474e-11
1.25692e-12
2.85523e-11
9.60565e-13
2.56901e-11
9.46661e-13
1.89258e-10
7.64853e-13
1.24818e-13
1.30659e-15
1.03065e-17
3.54515e-17
3.98399e-15
4.92775e-16
4.79983e-16
5.44102e-16
7.65464e-16
1.17986e-15
2.01335e-15
4.30614e-15
2.35235e-14
3.62122e-13
7.2525e-13
3.16874e-11
1.66527e-08
1.83801e-06
0.000108251
0.00483603
0.153856
0.913495
0.921754
0.798068
0.901533
0.995034
0.999977
1
1
1