/*--------------------------------*- C++ -*----------------------------------*\
| =========                 |                                                 |
| \\      /  F ield         | OpenFOAM: The Open Source CFD Toolbox           |
|  \\    /   O peration     | Version:  v2012                                 |
|   \\  /    A nd           | Website:  www.openfoam.com                      |
|    \\/     M anipulation  |                                                 |
\*---------------------------------------------------------------------------*/
FoamFile
{
    version     2.0;
    format      ascii;
    class       volScalarField;
    location    "0";
    object      q3;
}
// * * * * * * * * * * * * * * * * * * * * * * * * * * * * * * * * * * * * * //

dimensions      [0 0 0 0 0 0 0];


internalField   nonuniform List<scalar> 
27324
(
2
2
2
2
2
2
2
2
2
2
2
2
2
2
2
2
2
2
2
2
2
2
2
2
2
2
2
2
2
2
2
2
2
2
2
2
2
2
2
2
2
2
2
2
2
2
2
2
2
2
2
2
2
2
2
2
2
2
2
2
2
2
2
2
2
2
2
2
2
2
2
2
2
2
2
2
2
2
2
2
2
2
2
2
2
2
2
2
2
2
2
2
2
2
2
2
2
2
2
2
2
2
2
2
2
2
2
2
2
2
2
2
2
2
2
2
2
2
2
2
2
2
2
2
2
2
2
2
2
2
2
2
2
2
2
1.88482
2
2
2
2
2
2
2
2
2
2
2
2
2
2
2
1.87686
1.46811
2
2
2
2
2
2
2
2
2
2
2
2
2
2
2
1.86279
1.46309
1.15509
2
2
2
2
2
2
2
2
2
2
2
2
2
2
2
1.84869
1.45293
1.15216
0.92083
2
2
2
2
2
2
2
2
2
2
2
2
2
2
2
1.83448
1.44254
1.14494
0.919667
0.747599
2
2
2
2
2
2
2
2
2
2
2
2
2
2
2
1.81976
1.43199
1.13745
0.914986
0.74815
0.622138
2
2
2
2
2
2
2
2
2
2
2
2
2
2
2
1.80454
1.42131
1.12997
0.910103
0.74584
0.624285
0.533938
2
2
2
2
2
2
2
2
2
2
2
2
2
2
2
1.7891
1.41058
1.12264
0.905362
0.74342
0.624085
0.537587
0.473003
2
2
2
2
2
2
2
2
2
2
2
2
2
2
2
1.77411
1.39975
1.1155
0.900912
0.741202
0.623853
0.539258
0.477714
0.431094
2
2
2
2
2
2
2
2
2
2
2
2
2
2
2
1.75981
1.38903
1.10848
0.896759
0.739318
0.623827
0.540949
0.480746
0.436111
0.404626
2
2
2
2
2
2
2
2
2
2
2
2
2
2
2
1.74607
1.37857
1.10142
0.892827
0.73777
0.624084
0.542828
0.483845
0.439954
0.407022
0.391331
2
2
2
2
2
2
2
2
2
2
2
2
2
2
2
1.73295
1.3686
1.0944
0.888899
0.736484
0.624642
0.544936
0.48714
0.443959
0.410554
0.390577
0.410644
2
2
2
2
2
2
2
2
2
2
2
2
2
2
2
1.72022
1.3596
1.08782
0.884962
0.735429
0.625529
0.547303
0.490648
0.44818
0.414896
0.391924
0.392941
0.645107
2
2
2
2
2
2
2
2
2
2
2
2
2
2
2
1.7079
1.35169
1.08217
0.881402
0.734581
0.626801
0.549986
0.494382
0.452654
0.41958
0.394035
0.385139
0.444002
2
2
2
2
2
2
2
2
2
2
2
2
2
2
2
2
1.69568
1.34446
1.07777
0.878588
0.734038
0.628485
0.553078
0.49838
0.457347
0.424381
0.397482
0.384124
0.420588
2
2
2
2
2
2
2
2
2
2
2
2
2
2
2
2
2
1.6837
1.33728
1.07426
0.876746
0.733911
0.63045
0.556556
0.502644
0.462175
0.429399
0.401893
0.386099
0.403712
2
2
2
2
2
2
2
2
2
2
2
2
2
2
2
2
2
2
1.67234
1.32952
1.07082
0.875715
0.734271
0.632528
0.560311
0.507127
0.467045
0.434703
0.406811
0.389152
0.391821
2
2
2
2
2
2
2
2
2
2
2
2
2
2
2
2
2
2
2
1.66162
1.32169
1.06646
0.874974
0.735233
0.634621
0.564243
0.511706
0.472099
0.440267
0.41258
0.393601
0.386045
1.62854
2
2
2
2
2
2
2
2
2
2
2
2
2
2
2
2
2
2
2
1.65173
1.31489
1.06165
0.873909
0.73674
0.636928
0.568175
0.516488
0.477549
0.446197
0.419804
0.39761
0.382365
1.3258
2
2
2
2
2
2
2
2
2
2
2
2
2
2
2
2
2
2
2
2
1.64234
1.3097
1.05768
0.872371
0.738686
0.639865
0.572041
0.521833
0.483392
0.453007
0.427059
0.399968
0.373928
1.14759
2
2
2
2
2
2
2
2
2
2
2
2
2
2
2
2
2
2
2
2
2
1.63319
1.30595
1.05569
0.870878
0.740769
0.643662
0.576262
0.527705
0.489713
0.461026
0.43222
0.39864
0.355061
0.896522
2
2
2
2
2
2
2
2
2
2
2
2
2
2
2
2
2
2
2
2
2
2
1.62486
1.30201
1.05513
0.870799
0.742771
0.648442
0.581533
0.533829
0.498071
0.467536
0.434053
0.385842
0.325859
0.634544
2
2
2
2
2
2
2
2
2
2
2
2
2
2
2
2
2
2
2
2
2
2
2
1.61662
1.29739
1.05467
0.872663
0.744995
0.654107
0.587607
0.541222
0.505572
0.470117
0.426179
0.360387
0.292661
0.430589
2
2
2
2
2
2
2
2
2
2
2
2
2
2
2
2
2
2
2
2
2
2
2
2
1.60841
1.29268
1.05314
0.875469
0.748844
0.659074
0.596132
0.547774
0.508653
0.465162
0.402731
0.32403
0.26451
0.309045
1.77158
2
2
2
2
2
2
2
2
2
2
2
2
2
2
2
2
2
2
2
2
2
2
2
2
1.60007
1.28791
1.05097
0.877362
0.753848
0.663391
0.603491
0.549319
0.506209
0.44079
0.361534
0.290192
0.247803
0.25311
1.04184
2
2
2
2
2
2
2
2
2
1.63747
2
2
2
2
2
2
2
2
2
2
2
2
2
2
1.98608
1.58686
1.28175
1.04746
0.87604
0.758326
0.664519
0.604365
0.540966
0.475882
0.394691
0.319977
0.26964
0.240436
0.233315
0.627175
2
2
2
2
2
2
2
2
2
1.70676
1.08772
2
2
2
2
2
2
2
2
2
2
2
2
2
2
1.94198
1.55634
1.26589
1.03821
0.869241
0.755397
0.660015
0.584692
0.504561
0.420794
0.346222
0.29363
0.260614
0.237889
0.227067
0.408667
2
2
2
2
2
2
2
2
2
1.77996
1.12515
0.756854
2
2
2
2
2
2
2
2
2
2
2
2
2
2
1.72606
1.42986
1.19331
0.999987
0.822024
0.714856
0.607494
0.51917
0.435449
0.366145
0.316625
0.281975
0.256867
0.239534
0.226419
0.29655
1.84972
2
2
2
2
2
2
2
2
1.858
1.16458
0.776168
0.562308
2
2
2
2
2
2
2
2
2
2
2
2
2
1.86703
1.47587
1.20774
1.00374
0.841695
0.701468
0.604244
0.513083
0.440933
0.381967
0.337149
0.304205
0.277004
0.257862
0.24154
0.227859
0.246683
1.1109
2
2
2
2
2
2
2
2
1.9406
1.20651
0.796509
0.571684
0.447633
2
2
2
2
2
2
2
2
2
2
2
2
2
1.96608
1.44861
1.10684
0.880604
0.721874
0.604156
0.518382
0.451374
0.398463
0.35819
0.326289
0.298713
0.278218
0.259938
0.244215
0.229887
0.227586
0.672445
2
2
2
2
2
2
2
2
2
1.25072
0.81817
0.581526
0.452318
0.372082
2
2
2
2
2
2
2
2
2
2
2
2
2
2
1.57532
1.15262
0.878804
0.696242
0.572065
0.489195
0.430497
0.385156
0.351179
0.324796
0.301492
0.280802
0.262723
0.246756
0.232071
0.221746
0.428367
2
2
2
2
2
2
2
2
2
1.29733
0.840982
0.592035
0.457119
0.375213
0.310534
2
2
2
2
2
2
2
2
2
2
2
2
2
2
1.77111
1.27047
0.941249
0.722557
0.579795
0.48854
0.428665
0.386381
0.354332
0.327902
0.304779
0.284046
0.265468
0.24913
0.234254
0.220852
0.299293
2
2
2
2
2
2
2
2
2
1.34632
0.864999
0.603093
0.462193
0.378323
0.313289
0.255961
2
2
2
2
2
2
2
2
2
2
2
2
2
2
1.98667
1.405
1.02328
0.773327
0.609314
0.505673
0.438686
0.393357
0.359986
0.332662
0.30876
0.287252
0.268097
0.251388
0.23638
0.221905
0.240542
1.25233
2
2
2
2
2
2
2
2
1.39774
0.890196
0.614738
0.467452
0.381518
0.316055
0.258116
0.212909
2
2
2
2
2
2
2
2
2
2
2
2
2
2
2
1.55222
1.11289
0.828326
0.641993
0.524549
0.450301
0.401169
0.365809
0.337314
0.312566
0.290368
0.270664
0.253606
0.238482
0.223646
0.218978
0.733845
2
2
2
2
2
2
2
2
1.45155
0.916573
0.62696
0.472917
0.384718
0.31887
0.260384
0.21412
0.181848
2
2
2
2
2
2
2
2
2
2
2
2
2
2
2
1.66572
1.20747
0.888219
0.678155
0.545466
0.462677
0.409208
0.371702
0.341949
0.316328
0.293477
0.273261
0.255847
0.240579
0.225649
0.213277
0.44078
2
2
2
2
2
2
2
2
1.50774
0.944083
0.639757
0.478595
0.38793
0.321677
0.262699
0.215455
0.182601
0.157894
2
2
2
2
2
2
2
2
2
2
2
2
2
2
1.8886
1.6964
1.31255
0.954167
0.718438
0.569032
0.476237
0.417592
0.37773
0.346721
0.320231
0.296688
0.275928
0.25813
0.242684
0.22773
0.212981
0.288044
2
2
2
2
2
2
2
2
1.5662
0.972694
0.653102
0.484491
0.391152
0.324474
0.265053
0.216822
0.183435
0.158473
0.138039
2
2
2
2
2
2
2
2
2
2
2
2
2
2
1.76504
1.57384
1.39001
1.02864
0.76288
0.595453
0.49159
0.426768
0.38411
0.351724
0.324317
0.300035
0.278686
0.260467
0.244803
0.229834
0.214434
0.223285
1.38869
2
2
2
2
2
2
2
1.62682
1.00232
0.66698
0.490597
0.394385
0.327247
0.267447
0.218261
0.184257
0.159112
0.138502
0.121263
2
2
2
2
2
2
2
2
2
2
2
2
2
2
1.72619
1.43449
1.32598
1.10663
0.810837
0.623772
0.5087
0.436913
0.390944
0.356995
0.328609
0.30352
0.281527
0.262853
0.246942
0.231959
0.216426
0.205285
0.753298
2
2
2
2
2
2
2
1.68951
1.03287
0.681345
0.496913
0.39762
0.329992
0.269873
0.219767
0.185109
0.159739
0.139016
0.121613
0.10716
2
2
2
2
2
2
2
2
2
2
2
2
2
2
1.72317
1.37107
1.20188
1.09988
0.860348
0.653348
0.527207
0.448221
0.398307
0.362537
0.33309
0.307143
0.284454
0.265291
0.249114
0.234108
0.218632
0.202949
0.408008
2
2
2
2
2
2
2
1.75407
1.06423
0.696141
0.503421
0.40086
0.332692
0.272324
0.221345
0.185985
0.160389
0.139521
0.122006
0.107397
0.095438
2
2
2
2
2
2
2
2
2
2
2
2
2
2
1.72582
1.36182
1.11125
1.02298
0.891654
0.684643
0.546598
0.46081
0.406362
0.368373
0.337763
0.310915
0.287472
0.267783
0.251328
0.236292
0.22096
0.204616
0.249545
2
2
2
2
2
2
2
1.82041
1.09624
0.711306
0.510111
0.404095
0.335338
0.274791
0.222998
0.186883
0.161058
0.14005
0.122394
0.107671
0.0955695
0.0858092
2
2
2
2
2
2
2
2
2
2
2
2
2
2
1.73077
1.36209
1.07589
0.923533
0.873704
0.716744
0.566574
0.47435
0.415237
0.37457
0.342628
0.31485
0.290591
0.27034
0.253598
0.23853
0.223388
0.207248
0.202201
1.55058
2
2
2
2
2
2
1.8883
1.12877
0.726744
0.516957
0.407317
0.337919
0.277262
0.224729
0.187808
0.161745
0.140598
0.122806
0.107942
0.0957306
0.0858451
0.0779818
2
2
2
2
2
2
2
2
2
2
2
2
2
2
1.73709
1.36615
1.07286
0.866495
0.795394
0.736135
0.587659
0.487913
0.424888
0.38122
0.347697
0.318957
0.293834
0.272964
0.255929
0.240843
0.225914
0.210065
0.195951
0.692872
2
2
2
2
2
2
1.95757
1.16165
0.742361
0.523922
0.410522
0.340416
0.279716
0.226543
0.188756
0.162453
0.141165
0.123235
0.108234
0.0958906
0.0859062
0.077934
0.0716787
2
2
2
2
2
2
2
2
2
2
2
2
2
2
1.74354
1.37171
1.07473
0.845716
0.716508
0.701583
0.608222
0.500756
0.434966
0.388456
0.353022
0.32325
0.297214
0.275665
0.258334
0.243248
0.22855
0.213026
0.197898
0.269248
2
2
2
2
2
2
2
1.19473
0.758034
0.530965
0.41369
0.342823
0.282132
0.228417
0.18973
0.163181
0.141753
0.123685
0.108544
0.0960704
0.0859664
0.0779075
0.0715581
0.0666539
2
2
2
2
2
2
2
2
2
2
2
2
2
2
1.75002
1.37731
1.07825
0.844881
0.677391
0.631304
0.609283
0.513546
0.444729
0.396355
0.358707
0.327732
0.300751
0.278452
0.260822
0.245761
0.231328
0.216126
0.200645
0.192824
2
2
2
2
2
2
2
1.22784
0.77366
0.538037
0.416818
0.345124
0.284493
0.230311
0.190734
0.163931
0.142363
0.124155
0.108874
0.096267
0.0860444
0.0778806
0.0714563
0.0664695
0.062699
2
2
2
2
2
2
2
2
2
2
2
2
2
2
1.75637
1.38222
1.08239
0.846928
0.664605
0.568147
0.578152
0.523875
0.453474
0.404716
0.364886
0.332424
0.304459
0.281342
0.263402
0.248402
0.234263
0.219348
0.203795
0.193412
1.84069
2
2
2
2
2
2
1.2608
0.789117
0.545074
0.41989
0.347309
0.286788
0.232212
0.191777
0.164702
0.142993
0.124647
0.109223
0.0964813
0.0861383
0.0778703
0.071354
0.0663015
0.0624564
0.0596434
2
2
2
2
2
2
2
2
2
2
2
2
2
2
1.76244
1.38649
1.0858
0.849355
0.664107
0.537456
0.516145
0.523558
0.461535
0.412853
0.371681
0.337368
0.308323
0.284361
0.26608
0.251201
0.237349
0.222711
0.207154
0.194568
0.245864
2
2
2
2
2
2
1.29336
0.804312
0.552012
0.42289
0.349363
0.288998
0.234112
0.19286
0.165494
0.143646
0.125159
0.109592
0.0967144
0.0862487
0.0778743
0.0712672
0.0661339
0.0622297
0.059346
0.057353
2
2
2
2
2
2
2
2
2
2
2
2
2
2
1.76867
1.39013
1.08825
0.851697
0.664945
0.526356
0.460657
0.492997
0.468113
0.419812
0.379078
0.342663
0.312337
0.287537
0.268862
0.25419
0.240594
0.226242
0.210677
0.196718
0.242802
2
2
2
2
2
2
1.32524
0.819136
0.558788
0.42579
0.351279
0.291109
0.236002
0.193987
0.166309
0.14432
0.125694
0.109982
0.0969665
0.0863765
0.0778939
0.0711938
0.0659806
0.0620033
0.0590643
0.057001
0.0557245
2
2
2
2
2
2
2
2
2
2
2
2
2
2
1.77526
1.39365
1.0902
0.853331
0.666416
0.525609
0.432684
0.438726
0.466842
0.425488
0.386659
0.348439
0.316506
0.29089
0.271782
0.257346
0.244007
0.229943
0.214343
0.199512
0.241924
2
2
2
2
2
2
1.35608
0.833471
0.565347
0.428566
0.353036
0.293104
0.237873
0.195162
0.167146
0.145017
0.126251
0.110393
0.0972381
0.0865222
0.0779296
0.071135
0.0658403
0.0617911
0.0587838
0.056666
0.0553158
0.0546822
2
2
2
2
2
2
2
2
2
2
2
2
2
2
1.78161
1.39784
1.09207
0.854438
0.668168
0.525997
0.421936
0.386516
0.44262
0.43075
0.393476
0.354814
0.320878
0.294409
0.274905
0.260641
0.247652
0.233799
0.21814
0.202871
0.242475
2
2
2
2
2
2
1.38546
0.847193
0.571636
0.431196
0.354628
0.294966
0.239713
0.196383
0.168004
0.145738
0.12683
0.110826
0.09753
0.0866864
0.0779817
0.0710913
0.0657136
0.0615914
0.0585174
0.0563326
0.0549263
0.0542119
0.0541733
2
2
2
2
2
2
2
2
2
2
2
2
2
2
1.78775
1.40247
1.09497
0.85551
0.669577
0.527148
0.421083
0.357129
0.397015
0.43085
0.398708
0.361729
0.325544
0.298064
0.278302
0.264066
0.251546
0.237805
0.222093
0.206512
0.243773
2
2
2
2
2
2
1.41296
0.860133
0.57761
0.433651
0.356033
0.296679
0.241507
0.197658
0.168885
0.146482
0.127433
0.11128
0.0978421
0.0868693
0.0780512
0.071063
0.0656013
0.0614054
0.0582637
0.0560142
0.0545393
0.0537643
0.0536341
0.054165
2
2
2
2
2
2
2
2
2
2
2
2
2
2
1.79377
1.407
1.0983
0.857248
0.670747
0.528659
0.421311
0.345618
0.346046
0.414278
0.403038
0.368669
0.330657
0.301874
0.281922
0.267639
0.255676
0.241984
0.226209
0.210384
0.246496
2
2
2
2
2
2
1.43811
0.872117
0.583208
0.435917
0.35724
0.298224
0.243246
0.198987
0.169788
0.147249
0.128056
0.111752
0.0981695
0.0870678
0.0781382
0.0710513
0.0655036
0.0612328
0.0580234
0.0557084
0.0541678
0.0533203
0.0531224
0.0535464
0.0546402
2
2
2
2
2
2
2
2
2
2
2
2
2
2
1.79823
1.41117
1.10198
0.859364
0.671877
0.529903
0.422618
0.343825
0.311566
0.378452
0.405472
0.374619
0.336348
0.305899
0.285744
0.271521
0.260023
0.246357
0.230501
0.214466
0.250162
2
2
2
2
2
2
1.46051
0.882939
0.588362
0.437981
0.358236
0.299584
0.244903
0.200371
0.17071
0.148034
0.128696
0.112242
0.0985136
0.0872796
0.0782351
0.0710526
0.0654216
0.0610742
0.0577962
0.0554169
0.0538104
0.052893
0.0526154
0.0529626
0.0539297
0.055596
2
2
2
2
2
2
2
2
2
2
2
2
2
2
1.80203
1.41467
1.10521
0.861911
0.673109
0.530802
0.424164
0.343972
0.296084
0.330417
0.399605
0.379078
0.342623
0.310262
0.28974
0.27571
0.264548
0.250951
0.234985
0.218731
0.254712
2
2
2
2
2
2
1.47972
0.892408
0.592987
0.439828
0.359023
0.30074
0.246458
0.201784
0.171649
0.14884
0.129362
0.112754
0.0988768
0.0875078
0.0783466
0.071065
0.0653502
0.06093
0.0575829
0.0551386
0.0534676
0.052481
0.0521269
0.0523845
0.0532635
0.0547782
0.0570384
2
2
2
2
2
2
2
2
2
2
2
2
2
2
1.80575
1.41693
1.10803
0.864161
0.67472
0.53153
0.425383
0.344453
0.290409
0.289253
0.375253
0.38295
0.349061
0.315091
0.293875
0.280221
0.269293
0.25577
0.239664
0.223161
0.260002
2
2
2
2
2
2
1.49538
0.900335
0.596999
0.441438
0.359601
0.301683
0.247895
0.204153
0.174605
0.149677
0.130055
0.11329
0.0992601
0.0877543
0.0784743
0.0710919
0.0652916
0.0607974
0.0573833
0.0548741
0.0531391
0.0520851
0.0516557
0.0518272
0.0526037
0.0540175
0.0560961
0.0589798
2
2
2
2
2
2
2
2
2
2
2
2
2
2
1.80925
1.41819
1.10928
0.866035
0.676795
0.532155
0.426188
0.345597
0.290023
0.265782
0.336351
0.383336
0.354712
0.320406
0.298205
0.285044
0.274273
0.260826
0.244544
0.227766
0.265784
2
2
2
2
2
2
1.50712
0.906568
0.600304
0.442784
0.359978
0.302413
0.249267
0.206766
0.17819
0.150545
0.130775
0.113848
0.0996641
0.0880185
0.0786184
0.0711339
0.065247
0.0606782
0.0571969
0.054623
0.0528247
0.0517047
0.0512023
0.0512896
0.0519676
0.0532635
0.0552277
0.0578955
0.061431
2
2
2
2
2
2
2
2
2
2
2
2
2
2
1.81458
1.41967
1.11005
0.867411
0.678809
0.532874
0.426715
0.346624
0.290376
0.255821
0.293068
0.372671
0.358986
0.326272
0.302932
0.290146
0.279516
0.266143
0.249643
0.232553
0.271987
2
2
2
2
2
2
1.51469
0.91098
0.602843
0.443843
0.360161
0.303035
0.250591
0.208332
0.181615
0.152287
0.131521
0.114431
0.100088
0.0883016
0.0787801
0.0711921
0.0652174
0.060573
0.0570244
0.0543869
0.0525238
0.0513396
0.0507663
0.0507722
0.0513545
0.0525369
0.0543654
0.0569059
0.0601879
0.0643937
2
2
2
2
2
2
2
2
2
2
2
2
2
2
1.82007
1.42254
1.11082
0.868295
0.680512
0.533995
0.427234
0.347333
0.291564
0.253165
0.259496
0.346851
0.362603
0.332593
0.30807
0.295481
0.285074
0.271723
0.25496
0.237537
0.278607
2
2
2
2
2
2
1.51852
0.913633
0.604625
0.444659
0.360288
0.303582
0.251869
0.208865
0.18449
0.155915
0.132296
0.115037
0.100533
0.0886053
0.0789598
0.0712661
0.0652026
0.0604819
0.0568662
0.0541661
0.0522395
0.0509882
0.0503472
0.0502745
0.0507643
0.0518365
0.0535347
0.0559206
0.0590653
0.0629804
0.0678497
2
2
2
2
2
2
2
2
2
2
2
2
2
2
1.82493
1.4259
1.11215
0.868853
0.682044
0.535375
0.427779
0.347847
0.292965
0.253068
0.240504
0.311265
0.359966
0.338695
0.313685
0.301107
0.290947
0.277575
0.260505
0.242729
0.285631
2
2
2
2
2
2
1.52199
0.916171
0.606401
0.445495
0.360408
0.304075
0.253102
0.208982
0.186381
0.159145
0.133099
0.115667
0.101002
0.0889291
0.0791568
0.0713568
0.065203
0.0604059
0.0567224
0.0539601
0.0519725
0.0506549
0.0499432
0.049796
0.0501966
0.0511628
0.0527339
0.0549704
0.0579427
0.0617178
0.0662639
0.0717493
2
2
2
2
2
2
2
2
2
2
2
2
2
2
1.82895
1.42926
1.11487
0.869519
0.682776
0.536534
0.42893
0.348307
0.294004
0.253662
0.231808
0.274188
0.350079
0.34362
0.319813
0.307042
0.297172
0.283712
0.266283
0.248149
0.293058
2
2
2
2
2
2
1.52346
0.917692
0.607721
0.446195
0.360512
0.304526
0.254284
0.210142
0.187775
0.161734
0.133929
0.116323
0.101495
0.0892722
0.0793724
0.0714645
0.0652197
0.060345
0.0565936
0.0537692
0.0517213
0.0503413
0.0495576
0.0493353
0.0496511
0.0505148
0.0519638
0.0540542
0.0568585
0.0604463
0.0648616
0.0700025
0.076003
2
2
2
2
2
2
2
2
2
2
2
2
2
2
1.83022
1.43195
1.11851
0.87059
0.682986
0.537456
0.430272
0.348697
0.294586
0.254793
0.2292
0.2456
0.327357
0.346332
0.326569
0.313339
0.303765
0.290153
0.272303
0.253806
0.300887
2
2
2
2
2
2
1.52289
0.918197
0.608592
0.446755
0.360596
0.304936
0.255417
0.211493
0.18956
0.163462
0.135821
0.117009
0.10201
0.0896355
0.0796069
0.0715897
0.0652531
0.0603
0.0564804
0.0535937
0.0514863
0.0500455
0.0491949
0.0488928
0.0491267
0.0498925
0.0512227
0.0531731
0.0558124
0.0592161
0.0634375
0.0684737
0.0741248
0.0804808
2
2
2
2
2
2
2
2
2
2
2
2
2
2
1.83158
1.43301
1.12162
0.872094
0.683041
0.537851
0.43169
0.349229
0.294838
0.256142
0.228985
0.228291
0.298452
0.343299
0.333963
0.320029
0.310736
0.296921
0.278581
0.25971
0.309145
2
2
2
2
2
2
1.5202
0.917721
0.609037
0.447187
0.360661
0.305309
0.25651
0.212838
0.191053
0.165328
0.137581
0.11772
0.102547
0.0900191
0.0798603
0.0717335
0.0653043
0.060272
0.0563833
0.0534344
0.0512677
0.0497671
0.0488523
0.0484758
0.0486217
0.0492948
0.050512
0.0523257
0.054805
0.0580256
0.0620531
0.0669029
0.0724981
0.0785195
0.0850226
2
2
2
2
2
2
2
2
2
2
2
2
2
2
1.83286
1.43354
1.124
0.874206
0.683421
0.537876
0.432701
0.349973
0.294754
0.257058
0.229545
0.219892
0.268516
0.332388
0.340536
0.327031
0.318088
0.304035
0.28513
0.265857
0.317862
2
2
2
2
2
2
1.5155
0.91634
0.609104
0.447498
0.360707
0.305648
0.257561
0.214186
0.191354
0.168093
0.13849
0.118452
0.103105
0.0904224
0.0801325
0.0718959
0.0653738
0.0602617
0.0563034
0.0532917
0.0510659
0.0495064
0.0485292
0.0480824
0.0481438
0.0487207
0.0498296
0.0515124
0.0538358
0.0568778
0.0607093
0.0653666
0.0708022
0.0768397
0.0830415
0.0894626
2
2
2
2
2
2
2
2
2
2
2
2
2
2
1.83696
1.43415
1.12434
0.875841
0.684501
0.537768
0.433419
0.351001
0.294685
0.25759
0.231811
0.216963
0.24481
0.31576
0.344753
0.334322
0.325828
0.311523
0.291984
0.272243
0.327045
2
2
2
2
2
2
1.509
0.914204
0.608846
0.447705
0.360735
0.305952
0.258572
0.215536
0.192408
0.168497
0.142328
0.11921
0.10368
0.0908444
0.080423
0.0720769
0.0654622
0.0602704
0.0562419
0.053167
0.0508819
0.0492639
0.0482256
0.0477112
0.0476933
0.0481731
0.0491764
0.0507322
0.0529053
0.0557719
0.0594094
0.0638676
0.0691296
0.0750578
0.0813667
0.0875295
0.0936573
2
2
2
2
2
2
2
2
2
2
2
2
2
2
1.83997
1.43647
1.12389
0.876766
0.686641
0.537957
0.433074
0.351786
0.294842
0.257859
0.234483
0.216455
0.229725
0.292925
0.346068
0.342118
0.33402
0.319417
0.299171
0.27886
0.336695
2
2
2
2
2
2
1.50084
0.91134
0.608279
0.447816
0.360753
0.30623
0.259541
0.216874
0.195303
0.16942
0.142796
0.120012
0.104271
0.091282
0.0807305
0.0722758
0.0655695
0.0602988
0.0562001
0.0530614
0.0507166
0.0490402
0.0479418
0.0473617
0.0472685
0.0476572
0.0485506
0.049986
0.0520122
0.0547084
0.0581531
0.06241
0.0674849
0.0732808
0.0795536
0.0859227
0.0918343
0.09751
2
2
2
2
2
2
2
2
2
2
2
2
2
2
1.84049
1.43954
1.1239
0.876782
0.688547
0.538771
0.432255
0.352378
0.296195
0.257994
0.236948
0.21788
0.222014
0.269356
0.336107
0.350421
0.342667
0.327743
0.306711
0.28572
0.346831
2
2
2
2
2
2
1.49118
0.907874
0.607451
0.44785
0.360769
0.306481
0.260471
0.218205
0.19708
0.174483
0.143703
0.12082
0.1049
0.0917283
0.0810534
0.0724918
0.0656954
0.0603467
0.0561789
0.0529764
0.0505716
0.0488365
0.0476782
0.0470341
0.0468682
0.0471711
0.0479587
0.049273
0.0511581
0.0536871
0.0569425
0.0609958
0.0658752
0.0715166
0.0777214
0.0841436
0.0903528
0.0958439
0.100984
2
2
2
2
2
2
2
2
2
2
2
2
2
2
1.84038
1.44139
1.12564
0.876208
0.689719
0.540067
0.431489
0.352556
0.297912
0.258698
0.239071
0.220557
0.218421
0.250052
0.3236
0.357686
0.351645
0.336517
0.314624
0.292831
0.35753
2
2
2
2
2
2
1.48013
0.903879
0.60642
0.447821
0.360778
0.306704
0.261362
0.219535
0.197788
0.176751
0.148188
0.121664
0.105536
0.0922055
0.0813842
0.0727227
0.0658389
0.060414
0.0561782
0.0529131
0.0504482
0.0486543
0.0474364
0.0467288
0.0464927
0.0467135
0.0474018
0.0485933
0.0503434
0.0527091
0.0557776
0.0596274
0.0643034
0.0697744
0.0758814
0.0823185
0.0886726
0.0945291
0.0995019
0.1041
2
2
2
2
2
2
2
2
2
2
2
2
2
2
1.83965
1.44116
1.12803
0.876015
0.688744
0.541436
0.431259
0.352437
0.300026
0.259715
0.241003
0.223991
0.2186
0.238427
0.307636
0.361604
0.360888
0.345751
0.322966
0.300206
0.368782
2
2
2
2
2
2
1.46784
0.899434
0.605223
0.447738
0.360782
0.3069
0.262211
0.220851
0.199553
0.178779
0.15096
0.122554
0.10619
0.0926908
0.0817378
0.0729624
0.0659972
0.0605001
0.0561981
0.0528716
0.0503476
0.0484951
0.0472173
0.046447
0.0461417
0.0462837
0.0468778
0.0479538
0.0495669
0.0517764
0.0546602
0.0583063
0.0627739
0.0680587
0.0740436
0.080461
0.0869208
0.0930021
0.098374
0.10281
0.106926
2
2
2
2
2
2
2
2
2
2
2
2
2
2
1.8426
1.43905
1.12913
0.877586
0.686934
0.542256
0.433221
0.352268
0.302252
0.261442
0.243019
0.227727
0.221357
0.233478
0.2887
0.359496
0.370475
0.355467
0.331808
0.307849
0.380565
2
2
2
2
2
2
1.45441
0.894562
0.603877
0.447606
0.360785
0.307075
0.263016
0.222148
0.201438
0.181238
0.153514
0.124578
0.106879
0.0931818
0.0821031
0.0732199
0.0661657
0.0606008
0.0562375
0.0528518
0.0502705
0.0483603
0.0470231
0.04619
0.0458168
0.0458819
0.0463857
0.0473525
0.0488309
0.0508883
0.0535926
0.0570354
0.0612898
0.0663766
0.0722145
0.0785816
0.0851123
0.0913828
0.0970354
0.101868
0.10582
0.109557
2
2
2
2
2
2
2
2
2
2
2
2
2
2
1.84452
1.43753
1.1273
0.879458
0.685958
0.541899
0.436284
0.352461
0.304234
0.263962
0.245417
0.231561
0.225175
0.232058
0.270987
0.35132
0.38027
0.365618
0.341207
0.315775
0.392702
2
2
2
2
2
2
1.43994
0.88928
0.602392
0.447431
0.360783
0.30723
0.263777
0.223424
0.203083
0.183776
0.156273
0.126671
0.107579
0.0936988
0.0824668
0.0734935
0.0663492
0.0607127
0.0562915
0.0528524
0.0502163
0.0482503
0.0468548
0.0459597
0.0455191
0.0455089
0.0459257
0.0467884
0.0481388
0.0500453
0.0525761
0.0558181
0.0598556
0.0647323
0.0704031
0.0766871
0.0832561
0.0896872
0.0955918
0.100731
0.105047
0.108617
0.112105
2
2
2
2
2
2
2
2
2
2
2
2
2
2
1.84253
1.44011
1.12422
0.879943
0.68823
0.5412
0.439506
0.354126
0.306125
0.267321
0.248202
0.236023
0.230236
0.232612
0.259449
0.339988
0.388481
0.376187
0.351184
0.323957
0.40489
2
2
2
2
2
2
1.42452
0.883584
0.600769
0.447212
0.36078
0.307368
0.2645
0.224679
0.204849
0.186247
0.158967
0.128844
0.108277
0.0942236
0.0828493
0.0737598
0.0665533
0.0608383
0.0563573
0.0528672
0.0501834
0.0481648
0.0467133
0.0457574
0.0452502
0.0451659
0.0454982
0.0462612
0.0474906
0.0492476
0.0516108
0.0546559
0.0584762
0.063133
0.0686158
0.0747877
0.0813584
0.0879212
0.0940595
0.0994846
0.104104
0.107986
0.111308
0.11468
2
2
2
2
2
2
2
2
2
2
2
2
2
2
1.83377
1.44156
1.12238
0.879165
0.692233
0.540835
0.442074
0.357284
0.308498
0.271151
0.252135
0.241345
0.236025
0.235224
0.25374
0.324999
0.392374
0.387181
0.361709
0.332233
0.416839
2
2
2
2
2
2
1.40822
0.87746
0.599006
0.446959
0.360774
0.307494
0.265185
0.22591
0.206747
0.188721
0.161746
0.131066
0.108992
0.0947394
0.0832384
0.0740412
0.0667459
0.0609898
0.0564364
0.0528945
0.0501645
0.0481018
0.046598
0.045584
0.0450119
0.0448546
0.0451041
0.0457706
0.0468846
0.0485003
0.0506965
0.0535514
0.0571546
0.0615856
0.0668622
0.0728918
0.0794291
0.0860884
0.0924416
0.0981468
0.103057
0.107218
0.110787
0.114003
0.117383
2
2
2
2
2
2
1.70991
0.825784
2
2
2
2
2
2
1.83795
1.44036
1.12755
0.879811
0.696004
0.545797
0.444751
0.362282
0.311693
0.276784
0.257687
0.247492
0.242422
0.239853
0.2517
0.307634
0.391064
0.39882
0.372622
0.340246
0.428211
2
2
2
2
2
2
1.39112
0.870903
0.597095
0.446672
0.360769
0.307606
0.265835
0.227116
0.208643
0.191182
0.1645
0.133361
0.109722
0.0952641
0.0836119
0.0743287
0.066952
0.0611256
0.0565471
0.0529347
0.050158
0.0480524
0.0465065
0.0454388
0.0448047
0.0445769
0.0447453
0.0453178
0.0463214
0.0478024
0.0498344
0.0525036
0.0558947
0.0600954
0.0651519
0.0710112
0.0774766
0.0841968
0.0907366
0.0967157
0.101922
0.106354
0.110164
0.11356
0.116804
0.120353
2
2
2
2
2
2
1.71944
0.744113
0.566475
2
2
2
2
2
1.86539
1.45717
1.1361
0.890516
0.700634
0.553098
0.448606
0.369655
0.318105
0.284145
0.264652
0.254405
0.249265
0.245782
0.252714
0.29168
0.385415
0.410485
0.383333
0.347635
0.438792
2
2
2
2
2
2
1.37329
0.863919
0.595036
0.446356
0.360765
0.307709
0.266449
0.228296
0.210649
0.193672
0.167258
0.135737
0.11047
0.0957979
0.0839864
0.0745935
0.0671648
0.061276
0.0566385
0.0530124
0.0501641
0.0480155
0.0464285
0.045319
0.0446283
0.0443327
0.0444232
0.0449046
0.0458006
0.047154
0.0490283
0.051514
0.0546972
0.0586684
0.0634926
0.0691577
0.0755141
0.0822533
0.0889508
0.0951881
0.100697
0.105413
0.109458
0.113051
0.116412
0.11979
0.124344
2
2
2
2
2
2
1.7339
0.755601
0.563491
0.416067
2
2
2
2
1.95576
1.5032
1.16467
0.911004
0.714025
0.567367
0.459248
0.380795
0.327394
0.293006
0.272728
0.261988
0.256431
0.252459
0.254643
0.279163
0.374302
0.419916
0.393144
0.35425
0.448396
2
2
2
2
2
2
1.35481
0.856525
0.592813
0.446013
0.360769
0.307803
0.26703
0.229449
0.212846
0.196287
0.170066
0.138218
0.111239
0.0963437
0.0843635
0.0748527
0.0673484
0.0614348
0.0567469
0.0530677
0.0502139
0.0479901
0.0463631
0.0452133
0.0444795
0.0441229
0.0441381
0.044532
0.0453243
0.0465544
0.0482799
0.0505848
0.0535634
0.0573068
0.0618935
0.0673423
0.0735555
0.0802704
0.0870856
0.0935635
0.0993719
0.10439
0.108688
0.112474
0.115987
0.119429
0.123621
0.128789
2
2
2
2
2
2
1.71385
0.766854
0.55546
0.413484
0.36482
2
2
2
2
1.6058
1.2309
0.953127
0.744645
0.590211
0.476127
0.394587
0.338727
0.302922
0.281598
0.270086
0.26383
0.259176
0.257039
0.271788
0.362698
0.425754
0.401199
0.360057
0.457232
2
2
2
2
2
2
1.33573
0.848766
0.590432
0.445641
0.360779
0.307888
0.267579
0.230575
0.215264
0.199053
0.172974
0.140894
0.112034
0.0969032
0.0847455
0.075109
0.0675214
0.0615584
0.0568667
0.0531435
0.0502384
0.0480153
0.0463075
0.0451201
0.0443457
0.0439427
0.0438903
0.0442003
0.0448935
0.046005
0.0475886
0.0497191
0.0524958
0.0560137
0.0603589
0.0655772
0.071614
0.0782624
0.0851533
0.0918412
0.0979458
0.103274
0.107849
0.111846
0.115509
0.119064
0.123177
0.12818
0.132999
2
2
2
2
2
2
1.70743
0.771342
0.548543
0.4135
0.366643
0.345534
2
2
2
1.71541
1.3136
1.01009
0.784342
0.617815
0.496422
0.409967
0.350981
0.313384
0.290866
0.278427
0.271211
0.265558
0.260342
0.266092
0.343789
0.427894
0.406959
0.365384
0.465597
2
2
2
2
2
2
1.31609
0.840684
0.587897
0.445242
0.360798
0.307969
0.268097
0.231671
0.217822
0.201973
0.175999
0.143765
0.11355
0.0974791
0.0851339
0.0753641
0.0676866
0.0616675
0.0569457
0.0532347
0.0502876
0.0480122
0.0463094
0.0450343
0.0442245
0.0437797
0.0436764
0.0439101
0.0445086
0.0455067
0.0469542
0.0489205
0.0514989
0.0547914
0.0588944
0.0638701
0.0697048
0.0762434
0.0831644
0.0900277
0.0964133
0.10206
0.106929
0.111163
0.114992
0.118658
0.122775
0.127729
0.132629
0.135691
2
2
2
2
2
2
1.68975
0.770197
0.542685
0.41458
0.368443
0.350121
0.341985
1.95561
2
1.71586
1.3594
1.05554
0.819744
0.643808
0.515409
0.424398
0.362716
0.323567
0.299962
0.286541
0.278129
0.27112
0.264059
0.264467
0.323636
0.424575
0.41037
0.370807
0.473908
2
2
2
2
2
2
1.2959
0.83234
0.585204
0.444805
0.36083
0.308046
0.268587
0.232739
0.22031
0.204984
0.179115
0.14677
0.115728
0.0980726
0.0855308
0.0756198
0.0678457
0.0617652
0.0570078
0.0532801
0.050357
0.0480386
0.0462805
0.0450136
0.0441077
0.0436294
0.0434815
0.0436578
0.0441699
0.0450603
0.046378
0.0481874
0.0505746
0.0536458
0.0575043
0.0622297
0.0678396
0.0742309
0.0811327
0.0881303
0.0947741
0.100741
0.105922
0.110414
0.114434
0.118225
0.122315
0.127351
0.132229
0.13567
0.134536
2
2
2
2
2
2
1.646
0.758215
0.537726
0.416469
0.370842
0.352464
0.345495
0.339639
1.33771
1.45659
1.2836
1.04488
0.82837
0.65608
0.526823
0.434468
0.3719
0.332232
0.307982
0.293655
0.283868
0.275269
0.267622
0.262615
0.304894
0.413557
0.412375
0.37682
0.482439
2
2
2
2
2
2
1.27506
0.823774
0.582371
0.444322
0.360874
0.308127
0.269052
0.233782
0.223034
0.208032
0.182283
0.149877
0.118033
0.0986812
0.0859364
0.0758781
0.0680007
0.0618528
0.0570556
0.0533071
0.0503765
0.0480903
0.0462858
0.0449591
0.0440641
0.04348
0.0433006
0.0434281
0.0438739
0.0446656
0.0458596
0.0475203
0.0497268
0.0525821
0.0561951
0.0606634
0.0660303
0.0722394
0.0790755
0.0861581
0.0930321
0.0993129
0.104819
0.109592
0.113826
0.117763
0.121833
0.126922
0.131918
0.135419
0.135011
0.126051
2
2
2
2
2
2
1.60605
0.743994
0.535169
0.419569
0.37298
0.355295
0.348253
0.342659
0.33783
0.900599
1.01746
0.92875
0.781262
0.638645
0.521954
0.435439
0.375834
0.337646
0.313648
0.298739
0.287582
0.278798
0.270603
0.262894
0.289088
0.392687
0.413654
0.383054
0.4912
2
2
2
2
2
2
1.2534
0.815035
0.579405
0.443792
0.360932
0.308216
0.269498
0.234802
0.225641
0.211038
0.185545
0.153025
0.120423
0.0993041
0.0863516
0.0761405
0.0681536
0.061932
0.05709
0.0533179
0.0503766
0.0480884
0.0463222
0.0449439
0.0439834
0.0434126
0.0431158
0.0432135
0.0436047
0.0443193
0.0454002
0.0469187
0.0489544
0.0516016
0.0549743
0.0591799
0.064289
0.0702851
0.0770092
0.0841279
0.0911908
0.0977713
0.103613
0.10869
0.113161
0.117264
0.121319
0.126479
0.13158
0.135254
0.135055
0.127181
0.1072
2
2
2
2
2
2
1.5623
0.730224
0.5351
0.422588
0.375074
0.358292
0.350968
0.345416
0.340645
0.337395
0.614481
0.698819
0.661514
0.578663
0.492853
0.422662
0.371753
0.337999
0.31564
0.300809
0.290328
0.281511
0.272887
0.263873
0.276906
0.368161
0.413373
0.389182
0.499931
2
2
2
2
2
1.97238