/*--------------------------------*- C++ -*----------------------------------*\
| =========                 |                                                 |
| \\      /  F ield         | OpenFOAM: The Open Source CFD Toolbox           |
|  \\    /   O peration     | Version:  v2012                                 |
|   \\  /    A nd           | Website:  www.openfoam.com                      |
|    \\/     M anipulation  |                                                 |
\*---------------------------------------------------------------------------*/
FoamFile
{
    version     2.0;
    format      ascii;
    class       volScalarField;
    location    "0";
    object      q4;
}
// * * * * * * * * * * * * * * * * * * * * * * * * * * * * * * * * * * * * * //

dimensions      [0 0 0 0 0 0 0];


internalField   uniform 0;

boundaryField
{
    top
    {
        type            calculated;
        value           uniform 0;
    }
    base
    {
        type            calculated;
        value           nonuniform List<scalar> 
276
(
0.0101177
0.00877836
0.0108814
0.0111843
0.0111665
0.0110992
0.0110235
0.0109521
0.0108877
0.0108303
0.0107797
0.0107346
0.0106943
0.0106579
0.0106254
0.0105963
0.0105698
0.0105455
0.0105234
0.0105032
0.0104851
0.0104686
0.0104537
0.0104404
0.0104286
0.0104182
0.0104093
0.0104018
0.0103955
0.0103904
0.0103864
0.0103835
0.0103815
0.0103803
0.0103799
0.0103801
0.0103808
0.010382
0.0103836
0.0103855
0.0103875
0.0103898
0.0103921
0.0103945
0.0103969
0.0103993
0.0104016
0.0104038
0.0104058
0.0104078
0.0104095
0.010411
0.0104123
0.0104133
0.0104141
0.0104147
0.0104151
0.0104154
0.0104157
0.0104159
0.0104161
0.0104163
0.0104164
0.0104164
0.0104162
0.010416
0.0104157
0.0104153
0.010415
0.0104146
0.0104143
0.010414
0.0104136
0.0104132
0.0104128
0.0104125
0.0104118
0.0104114
0.0104108
0.0104111
0.0104114
0.0104117
0.0104119
0.0104121
0.0104122
0.0104122
0.0104122
0.0104124
0.0104125
0.0104128
0.0104131
0.0104134
0.0104137
0.0104138
0.0104139
0.0104139
0.0104139
0.0104139
0.0104138
0.0104138
0.0104138
0.0104137
0.0104136
0.0104136
0.0104136
0.0104135
0.0104133
0.0104131
0.0104129
0.0104126
0.0104124
0.0104122
0.0104119
0.0104116
0.0104112
0.0104108
0.0104105
0.0104101
0.0104097
0.0104094
0.0104092
0.0104087
0.0104081
0.0104076
0.0104071
0.0104065
0.010406
0.0104053
0.0104046
0.010404
0.0104033
0.0104026
0.0104018
0.0104009
0.0104002
0.0103993
0.0103984
0.0103975
0.0103965
0.0103955
0.0103942
0.0103932
0.0103921
0.010391
0.0103898
0.0103885
0.0103872
0.0103861
0.0103849
0.0103835
0.0103821
0.0103807
0.0103791
0.0103775
0.010376
0.0103743
0.0103727
0.0103715
0.0103677
0.0103154
0.0088555
0.00407215
0.00710114
0.00702544
0.00696533
0.00685773
0.00679212
0.00676577
0.00681391
0.00688221
0.00695056
0.00703555
0.00711124
0.00717864
0.00723675
0.00728446
0.00732837
0.00737123
0.00741245
0.00745501
0.00750143
0.00756325
0.00766267
0.00783386
0.00813963
0.00858004
0.00917087
0.00984731
0.0105214
0.0109569
0.0112256
0.0115019
0.0116973
0.0118283
0.0119137
0.0119546
0.0119686
0.0119519
0.0118677
0.011732
0.0115148
0.0112042
0.0107873
0.0102499
0.00956951
0.00871253
0.00762326
0.00618976
0.00408165
0.00259238
0.00561591
0.00759869
0.00923906
0.0106946
0.012024
0.0132498
0.0143812
0.0154216
0.0163722
0.0172379
0.0180279
0.0187545
0.0194305
0.0200676
0.0206774
0.0212703
0.021853
0.0224277
0.0229923
0.0235406
0.0240651
0.0245577
0.0250125
0.0254265
0.0257992
0.0261343
0.0264375
0.0267175
0.0269838
0.0272466
0.0275147
0.0277929
0.028082
0.0283797
0.0286798
0.0289928
0.0293397
0.029634
0.0298477
0.0301173
0.0303149
0.0304829
0.0306717
0.0308071
0.0309002
0.0309538
0.0309652
0.0309389
0.030878
0.0307854
0.0306629
0.0305119
0.0303348
0.030135
0.0299143
0.0296752
0.0294195
0.029149
0.0288653
0.0285704
0.0282658
0.0279523
0.0276331
0.0272993
0.0270467
0.0264423
)
;
    }
    frontAndBack
    {
        type            empty;
    }
    inlet
    {
        type            calculated;
        value           uniform 0;
    }
    outlet
    {
        type            calculated;
        value           uniform 0;
    }
}


// ************************************************************************* //
