/*--------------------------------*- C++ -*----------------------------------*\
| =========                 |                                                 |
| \\      /  F ield         | OpenFOAM: The Open Source CFD Toolbox           |
|  \\    /   O peration     | Version:  v2012                                 |
|   \\  /    A nd           | Website:  www.openfoam.com                      |
|    \\/     M anipulation  |                                                 |
\*---------------------------------------------------------------------------*/
FoamFile
{
    version     2.0;
    format      ascii;
    class       volScalarField;
    location    "0";
    object      Rekd;
}
// * * * * * * * * * * * * * * * * * * * * * * * * * * * * * * * * * * * * * //

dimensions      [0 0 0 0 0 0 0];


internalField   nonuniform List<scalar> 
27324
(
282.545
278.731
558.063
273.627
563.003
617.339
268.549
563.791
617.488
500.993
263.577
564.165
613.068
495.505
330.156
258.777
564.252
608.188
486.664
323.024
193.137
254.07
564.478
603.012
477.425
314.175
187.467
106.907
249.373
564.759
598.115
468.063
305.318
181.098
103.191
57.9763
244.508
564.791
593.441
458.843
296.575
174.861
99.1644
55.7064
31.4765
239.446
563.926
588.606
449.58
287.766
168.708
95.2451
53.309
30.1435
17.4278
234.531
561.855
582.906
439.901
278.77
162.437
91.4032
50.9898
28.7681
16.7056
10.1607
229.99
559.145
575.881
429.45
269.402
155.997
87.4969
48.7205
27.457
15.9783
9.8079
6.42284
226.105
556.469
567.88
418.285
259.736
149.37
83.4937
46.4108
26.1908
15.2937
9.45371
6.26563
4.41532
222.789
554.735
559.289
406.795
250.204
142.752
79.4045
44.0551
24.9202
14.6435
9.12607
6.10395
4.34976
3.22836
219.492
553.621
550.641
395.344
240.971
136.499
75.3645
41.6818
23.6459
14.0022
8.81897
5.95583
4.27706
3.2004
2.44601
215.753
551.1
541.102
383.975
232.213
130.629
71.5818
39.381
22.3911
13.3695
8.51922
5.81792
4.21037
3.16491
2.4327
1.88592
211.509
545.933
529.662
371.903
223.391
125.063
68.0378
37.2786
21.2013
12.7574
8.22718
5.68403
4.14784
3.13129
2.41209
1.87793
1.46865
207.037
537.986
515.982
358.927
214.088
119.315
64.6966
35.3578
20.139
12.19
7.95006
5.5546
4.08609
3.09897
2.39193
1.86382
1.46361
1.15535
202.809
528.681
500.761
345.026
204.176
113.186
61.283
33.5839
19.1853
11.693
7.69624
5.43328
4.02554
3.06609
2.37202
1.84969
1.45343
1.15242
0.920966
199.036
519.593
485.82
331.023
194
106.701
57.7298
31.7991
18.3154
11.2546
7.4774
5.32332
3.96794
3.03293
2.3513
1.83544
1.44302
1.14519
0.9198
0.747672
195.397
511.09
471.746
317.332
184.049
100.402
54.1553
29.9863
17.4508
10.8577
7.28801
5.22931
3.91496
3.00049
2.32985
1.82069
1.43246
1.13769
0.915115
0.748223
0.622181
191.654
501.43
457.569
303.901
174.33
94.4775
50.86
28.2138
16.5893
10.4677
7.11867
5.14751
3.86882
2.96994
2.30829
1.80543
1.42176
1.1302
0.910228
0.745911
0.624328
0.533966
187.609
489.364
441.517
289.624
164.592
88.9295
47.8988
26.6389
15.7669
10.0868
6.95303
5.07265
3.82776
2.94238
2.28768
1.78996
1.41101
1.12286
0.905483
0.743489
0.624127
0.537615
0.473023
183.489
474.281
422.876
274.074
154.379
83.401
45.1679
25.2545
15.0545
9.73204
6.79288
4.99785
3.78894
2.91718
2.26853
1.77493
1.40017
1.11571
0.901029
0.741269
0.623894
0.539286
0.477735
0.43111
179.706
456.886
402.139
257.465
143.863
77.7449
42.4179
23.9824
14.4395
9.43483
6.646
4.92465
3.74894
2.89258
2.25049
1.76061
1.38943
1.10869
0.896873
0.739383
0.623868
0.540976
0.480766
0.436127
0.40464
175.948
438.322
380.053
240.689
133.596
72.1142
39.6205
22.698
13.8822
9.18474
6.52563
4.857
3.70865
2.86683
2.23273
1.74683
1.37896
1.10162
0.892938
0.737834
0.624124
0.542856
0.483866
0.439971
0.407035
0.391344
171.781
417.371
356.892
223.927
123.94
66.8882
36.8782
21.4035
13.3244
8.95987
6.42479
4.80141
3.67082
2.84043
2.21453
1.73369
1.36898
1.0946
0.889007
0.736547
0.624682
0.544964
0.48716
0.443975
0.410567
0.39059
0.410658
166.382
392.219
331.277
206.241
114.712
62.1401
34.4311
20.1766
12.7778
8.73417
6.3317
4.75363
3.63897
2.81523
2.19616
1.72093
1.35996
1.08801
0.885067
0.73549
0.625568
0.54733
0.490668
0.448197
0.41491
0.391936
0.392954
0.645155
159.724
359.659
302.064
187.258
104.85
57.6834
32.2736
19.1187
12.2711
8.51425
6.23398
4.70664
3.61074
2.79337
2.17831
1.70859
1.35204
1.08235
0.881503
0.734641
0.626839
0.550013
0.494403
0.452671
0.419594
0.394048
0.385151
0.444019
5.80357
151.719
319.531
268.559
167.213
94.4942
52.932
30.3008
18.2175
11.8498
8.31504
6.13683
4.65398
3.58183
2.7736
2.16207
1.69634
1.3448
1.07795
0.878687
0.734097
0.628523
0.553105
0.4984
0.457364
0.424396
0.397494
0.384136
0.420603
4.07419
24.1454
141.341
272.516
231.533
147.881
84.3195
48.0875
28.2266
17.4192
11.5031
8.15569
6.0489
4.60019
3.54884
2.75307
2.14692
1.68434
1.33761
1.07443
0.876843
0.733969
0.630488
0.556583
0.502665
0.462192
0.429413
0.401906
0.386111
0.403726
2.87461
21.3784
36.6512
113.741
217.793
191.682
129.031
75.7293
43.5531
26.1619
16.5943
11.1996
8.02621
5.97866
4.552
3.51475
2.7298
2.13164
1.67295
1.32983
1.07099
0.875809
0.734329
0.632565
0.560339
0.507148
0.467062
0.434718
0.406824
0.389164
0.391834
2.08306
18.1289
31.2027
48.0106
72.5029
138.607
149.514
110.004
68.3167
40.1942
24.3032
15.7834
10.8845
7.91096
5.9216
4.51285
3.48487
2.70577
2.11546
1.66221
1.322
1.06663
0.875067
0.735289
0.634659
0.56427
0.511727
0.472117
0.440282
0.412594
0.393613
0.386057
1.62943
14.8776
26.7034
42.2393
68.0744
30.4801
81.4925
103.566
93.1328
61.4264
37.6392
23.0079
15.0574
10.5722
7.78549
5.86882
4.48084
3.46055
2.68411
2.09881
1.65229
1.31519
1.0618
0.874
0.736796
0.636965
0.568202
0.516509
0.477567
0.446213
0.419817
0.397622
0.382378
1.32632
11.7912
22.8173
37.572
62.027
98.982
19.3025
45.287
67.5494
73.0632
56.5935
35.3754
22.0608
14.5623
10.2893
7.65679
5.80681
4.44908
3.44024
2.66597
2.08326
1.64289
1.30999
1.05784
0.872459
0.738741
0.639902
0.572068
0.521854
0.48341
0.453023
0.427073
0.39998
0.37394
1.14797
9.00048
19.3991
33.5216
56.4902
91.3623
140.105
18.0098
35.2934
44.4409
55.2535
48.1229
33.9157
21.1507
14.2009
10.1056
7.53887
5.73772
4.40928
3.4186
2.64988
2.07014
1.63373
1.30623
1.05584
0.870965
0.740824
0.643699
0.576289
0.527728
0.489732
0.461043
0.432235
0.398653
0.355071
0.896725
6.50657
16.4259
29.902
51.3085
84.1383
130.826
193.743
17.7909
33.803
34.4453
44.1303
40.2967
29.7111
20.5483
13.8202
9.97691
7.46544
5.66772
4.362
3.39123
2.63182
2.05791
1.62538
1.30228
1.05528
0.870884
0.742825
0.648479
0.581561
0.533851
0.498091
0.467553
0.434068
0.385854
0.325867
0.634624
4.46909
13.7303
26.6047
46.4721
77.2379
121.829
182.662
263.884
17.654
33.4501
32.6912
37.9617
36.7281
26.625
18.1164
13.4026
9.81857
7.40408
5.61546
4.31218
3.35775
2.6101
2.04505
1.61711
1.29765
1.05482
0.872748
0.745049
0.654144
0.587635
0.541245
0.505592
0.470134
0.426193
0.360397
0.292668
0.430616
2.90075
11.1393
23.5526
41.9576
70.6969
113.204
171.791
250.811
354.763
17.4802
33.1834
32.2001
36.5164
33.9601
26.5027
16.7517
11.807
9.40742
7.30077
5.55899
4.26931
3.32245
2.58335
2.03092
1.60889
1.29294
1.05328
0.875552
0.748898
0.659111
0.596161
0.547797
0.508673
0.465178
0.402744
0.324039
0.264515
0.309056
1.77364
8.69959
20.6539
37.7457
64.5273
104.831
161.289
237.784
339.712
470.009
17.2656
32.8298
31.6956
35.9619
32.9968
25.5734
17.2252
11.0771
8.28285
6.74389
5.44358
4.22012
3.28826
2.5526
2.01363
1.60053
1.28816
1.05111
0.877444
0.753901
0.663429
0.60352
0.549342
0.506228
0.440804
0.361544
0.290198
0.247808
0.253116
1.04228
6.46402
17.8618
33.8124
58.7343
96.8374
151.18
225.152
324.39
453.203
612.658
17.0198
32.3866
31.1804
35.5105
32.4365
25.1195
17.3154
11.417
7.98237
5.9453
4.86636
4.03735
3.24024
2.51191
1.98693
1.5873
1.28199
1.04759
0.87612
0.758379
0.664556
0.604394
0.540988
0.475899
0.394702
0.319984
0.269646
0.24044
0.23332
0.627272
4.52498
15.1022
30.1344
53.3126
89.2169
141.435
212.969
309.409
435.679
594.476
785.375
16.7654
31.8886
30.6664
35.1729
32.0649
24.7159
17.0027
11.4865
8.41975
5.92966
4.34576
3.50434
2.9306
2.40682
1.94277
1.55675
1.26612
1.03834
0.869318
0.755449
0.660051
0.584719
0.50458
0.420807
0.346231
0.293636
0.260619
0.237894
0.227071
0.408694
2.97699
12.3356
26.6687
48.2514
82.0004
132.039
201.222
294.875
418.404
575.004
766.176
990.233
16.5024
31.3924
30.1814
34.8577
31.7635
24.4437
16.7164
11.0865
8.56194
6.37474
4.52973
3.24264
2.52405
2.08114
1.72668
1.4302
1.1935
1.0001
0.822092
0.714902
0.607524
0.519191
0.435463
0.366155
0.316633
0.281981
0.256872
0.239538
0.226424
0.29656
1.8523
9.65142
23.371
43.5225
75.214
123.051
189.903
280.805
401.539
555.699
745.016
970.696
1226.31
16.2303
30.9144
29.7531
34.5635
31.454
24.1394
16.4575
11.005
8.05872
6.43258
5.01474
3.51216
2.49738
1.86799
1.47633
1.20798
1.00388
0.841775
0.701515
0.604275
0.513104
0.440948
0.381977
0.337157
0.304211
0.27701
0.257867
0.241544
0.227863
0.246689
1.11148
7.19859
20.1903
39.0941
68.8592
114.38
178.99
267.22
385.12
536.761
723.962
948.217
1208.06
1477.88
15.9675
30.487
29.3863
34.2466
31.1002
23.8267
16.1483
10.9076
7.9918
6.0293
5.06576
3.96986
2.78129
1.96726
1.44909
1.10705
0.880712
0.721934
0.604191
0.518406
0.45139
0.398475
0.3582
0.326297
0.29872
0.278223
0.259943
0.244219
0.229892
0.22759
0.672575
5.07753
17.0748
34.9293
62.9371
106.107
168.473
254.113
369.19
518.213
703.262
925.735
1185.29
1465.83
1703.84
15.673
30.0619
29.0815
33.9537
30.67
23.496
15.8567
10.7987
7.95405
5.92203
4.75756
4.01143
3.16769
2.22368
1.57595
1.15287
0.878917
0.696299
0.572097
0.489215
0.430512
0.385167
0.351188
0.324804
0.301499
0.280808
0.262728
0.246761
0.232076
0.22175
0.428401
3.36714
13.9992
30.9786
57.4487
98.2291
158.335
241.487
353.764
500.124
682.951
903.555
1162.27
1446.37
1705.51
1838.16
15.3348
29.5292
28.723
33.5815
30.2235
23.1517
15.617
10.7183
7.9005
5.88191
4.56724
3.76334
3.24038
2.52475
1.77199
1.27081
0.941388
0.722621
0.57983
0.488561
0.42868
0.386392
0.354341
0.32791
0.304786
0.284052
0.265473
0.249135
0.234258
0.220856
0.299304
2.10664
10.9971
27.2104
52.3361
90.7864
148.579
229.326
338.868
482.514
663.084
881.765
1139.31
1426.2
1695.53
1857.93
1849.06
14.9601
28.9201
28.3043
33.0902
29.6592
22.7857
15.4059
10.6741
7.84891
5.8366
4.54208
3.55334
3.04635
2.62966
1.9879
1.40545
1.02346
0.773406
0.609354
0.505696
0.438702
0.393369
0.359996
0.33267
0.308767
0.287258
0.268103
0.251393
0.236384
0.221909
0.240548
1.25324
8.25589
23.6233
47.4569
83.8099
139.256
217.616
324.499
465.446
643.675
860.427
1116.58
1405.43
1684.46
1863.17
1882.21
1750.58
14.5706
28.2508
27.8631
32.5583
29.0515
22.3728
15.2128
10.6446
7.80549
5.79489
4.52794
3.5197
2.83559
2.49285
2.11237
1.55282
1.11311
0.828421
0.642039
0.524574
0.450317
0.401182
0.365818
0.337322
0.312573
0.290375
0.27067
0.253611
0.238486
0.22365
0.218983
0.734032
5.86856
20.0899
42.7586
77.3351
130.339
206.352
310.648
448.942
624.805
839.57
1094.18
1384.37
1671.97
1867.65
1901.06
1790.03
1580.68
14.2056
27.5504
27.4018
32.0254
28.474
21.9656
15.0348
10.629
7.76083
5.76636
4.51888
3.50732
2.76621
2.2946
2.05439
1.66649
1.20776
0.888336
0.678208
0.545494
0.462695
0.409221
0.371712
0.341957
0.316336
0.293483
0.273266
0.255852
0.240584
0.225654
0.213281
0.440821
3.91305
16.5917
38.2791
71.3718
121.89
195.518
297.314
433.034
606.504
819.274
1072.18
1363.15
1658.45
1870.41
1920.02
1817.28
1620.74
1378.95
13.896
26.9351
26.9696
31.4832
27.8861
21.5784
14.8968
10.6076
7.70743
5.74261
4.51604
3.49986
2.75709
2.19393
1.89009
1.69728
1.31293
0.954311
0.718501
0.569064
0.476257
0.417606
0.377741
0.34673
0.320239
0.296694
0.275934
0.258135
0.242689
0.227734
0.212985
0.288056
2.42652
13.164
33.9555
65.8375
113.92
185.123
284.474
417.736
588.849
799.574
1050.73
1341.87
1643.97
1871.93
1937.78
1845.24
1651.19
1415.76
1175.73
13.6366
26.4133
26.5916
30.9747
27.3224
21.1765
14.791
10.59
7.64722
5.72214
4.51623
3.49634
2.75396
2.18023
1.76636
1.57468
1.39047
1.02883
0.762955
0.595489
0.491612
0.426782
0.384121
0.351733
0.324325
0.300042
0.278692
0.260472
0.244808
0.229839
0.214438
0.22329
1.39004
9.9706
29.7411
60.6405
106.451
175.183
272.132
403.031
571.894
780.55
1029.85
1320.71
1628.64
1872.12
1954.87
1872.61
1682.66
1445.41
1207.71
987.891
13.4276
26.0079
26.2191
30.4396
26.7934
20.8191
14.717
10.5691
7.58924
5.71133
4.51556
3.49579
2.75599
2.17758
1.72745
1.43522
1.32644
1.10686
0.810927
0.623814
0.508723
0.436928
0.390956
0.357004
0.328616
0.303527
0.281533
0.262859
0.246947
0.231964
0.21643
0.205289
0.753517
7.13888
25.6293
55.8167
99.5014
165.741
260.291
388.909
555.661
762.293
1009.66
1299.83
1612.61
1871.03
1971.14
1899.89
1713.99
1476.12
1234.45
1014.81
822.42
13.2411
25.698
25.8309
29.8516
26.2588
20.4983
14.6874
10.5406
7.52866
5.71078
4.51492
3.49928
2.76036
2.18132
1.72443
1.37174
1.20229
1.10013
0.860456
0.653395
0.527233
0.448237
0.398319
0.362547
0.333098
0.30715
0.28446
0.265296
0.249119
0.234113
0.218637
0.202953
0.408043
4.76413
21.5741
50.9646
93.1051
156.831
248.978
375.342
540.169
744.874
990.246
1279.37
1596.04
1868.73
1986.61
1926.91
1745.64
1506.99
1262.16
1037.91
844.715
680.736
13.0491
25.3816
25.3968
29.1994
25.7146
20.2054
14.6803
10.494
7.47348
5.72042
4.51807
3.50408
2.76565
2.18741
1.72707
1.36248
1.11161
1.02321
0.891778
0.684698
0.546626
0.460828
0.406375
0.368383
0.337771
0.310922
0.287478
0.267788
0.251333
0.236297
0.220964
0.20462
0.249553
2.90035
17.5166
46.2283
87.2251
148.498
238.206
362.331
525.399
728.398
971.705
1259.45
1579.19
1865.25
2001.23
1953.65
1777.43
1538.38
1290.12
1061.84
864.211
699.053
561.474
12.8362
25.0703
24.922
28.4817
25.1454
19.9644
14.6811
10.4269
7.43086
5.73577
4.52599
3.51306
2.77198
2.19424
1.73203
1.36275
1.07623
0.923734
0.873832
0.716808
0.566605
0.474369
0.41525
0.374581
0.342636
0.314857
0.290597
0.270345
0.253603
0.238534
0.223392
0.207252
0.202206
1.5526
13.5753
41.6103
81.8563
140.755
228.012
349.877
511.321
712.898
954.187
1240.21
1562.3
1860.64
2014.98
1980
1809.33
1570.18
1318.64
1086.01
884.353
715.289
576.476
462.117
12.5987
24.7824
24.4618
27.7306
24.5868
19.7716
14.6941
10.3349
7.40006
5.75298
4.53426
3.52629
2.77957
2.20158
1.73837
1.36681
1.0732
0.866675
0.795509
0.736206
0.587694
0.487934
0.424902
0.381231
0.347706
0.318965
0.29384
0.272969
0.255935
0.240848
0.225918
0.210069
0.195955
0.693055
9.93839
37.0904
76.8289
133.606
218.423
338.028
497.897
698.41
937.822
1221.82
1545.62
1855.04
2027.79
2005.91
1841.23
1602.36
1347.61
1110.69
904.723
732.017
589.899
474.399
379.852
12.3586
24.5122
24.0027
26.9773
24.056
19.6224
14.6941
10.2197
7.37492
5.76903
4.54616
3.54036
2.78887
2.21006
1.74482
1.37238
1.07507
0.845887
0.716606
0.701651
0.608261
0.500778
0.434981
0.388467
0.353031
0.323258
0.297221
0.275671
0.258339
0.243253
0.228554
0.213031
0.197902
0.269259
6.72346
32.6903
71.9977
127.055
209.484
326.83
485.128
684.884
922.743
1204.48
1529.35
1848.57
2039.49
2031.27
1873.05
1634.85
1377.04
1135.79
925.533
748.951
603.705
485.461
389.914
311.993
12.1062
24.2372
23.5519
26.2147
23.5482
19.5118
14.654
10.0877
7.36232
5.78623
4.56009
3.55476
2.80155
2.21983
1.75131
1.37798
1.07859
0.845051
0.67748
0.631363
0.609324
0.51357
0.444745
0.396367
0.358716
0.32774
0.300757
0.278458
0.260828
0.245766
0.231332
0.21613
0.200649
0.192828
4.01688
28.3477
67.3773
121.113
201.249
316.352
473.017
672.287
909.022
1188.41
1513.53
1841.45
2050.12
2056.01
1904.7
1667.58
1406.84
1161.32
946.689
766.231
617.674
496.809
399.019
320.243
256.137
11.8264
23.9096
23.1125
25.4922
23.1081
19.4348
14.5898
9.95302
7.35458
5.79464
4.57673
3.56802
2.81455
2.2305
1.75768
1.3829
1.08273
0.847099
0.66469
0.568197
0.578191
0.5239
0.45349
0.404729
0.364895
0.332432
0.304466
0.281348
0.263408
0.248407
0.234268
0.219352
0.203799
0.193416
1.8443
24.0921
62.556
115.796
193.743
306.65
461.624
660.554
896.676
1173.84
1498.4
1833.89
2059.68
2080.09
1936.16
1700.49
1437
1187.19
968.197
783.812
631.926
508.291
408.33
327.732
262.909
210.217
11.5187
23.5029
22.6498
24.8362
22.7429
19.3572
14.4969
9.83546
7.34813
5.80102
4.59502
3.57897
2.82743
2.24131
1.76375
1.38717
1.08615
0.849527
0.664192
0.537501
0.516178
0.523585
0.461553
0.412866
0.371691
0.337376
0.30833
0.284367
0.266086
0.251206
0.237354
0.222716
0.207158
0.194572
0.245873
20.205
57.9882
111.014
186.984
297.756
451.028
649.664
885.66
1160.94
1484.22
1826.14
2068.33
2103.46
1967.34
1733.49
1467.42
1213.4
990.017
801.669
646.414
520.004
417.762
335.376
269.07
215.781
172.494
11.1702
22.9602
22.1739
24.2623
22.4747
19.2771
14.3723
9.74408
7.35418
5.81165
4.61022
3.58718
2.83966
2.25193
1.76999
1.39082
1.0886
0.85187
0.66503
0.526399
0.460684
0.493021
0.468131
0.419826
0.379089
0.342672
0.312344
0.287543
0.268867
0.254195
0.240599
0.226247
0.210681
0.196722
0.24281
16.9626
53.5627
106.577
180.949
289.715
441.324
639.638
875.885
1149.86
1471.39
1818.37
2076.2
2126.16
1998.15
1766.46
1498.04
1239.88
1012.12
819.786
661.133
531.906
427.375
343.117
275.346
220.852
177.069
141.516
10.7912
22.3144
21.6548
23.7993
22.2939
19.1968
14.2239
9.66442
7.36397
5.82913
4.62589
3.59571
2.85237
2.26288
1.7766
1.39434
1.09054
0.853504
0.666501
0.525651
0.432708
0.438746
0.466861
0.425502
0.386671
0.348448
0.316513
0.290896
0.271788
0.257352
0.244013
0.229948
0.214347
0.199516
0.241933
14.7192
49.3967
102.286
175.636
282.567
432.616
630.548
867.27
1140.59
1460.25
1810.87
2083.45
2148.23
2028.5
1799.31
1528.77
1266.56
1034.45
838.132
676.059
544
437.144
351.008
281.704
226.009
181.244
145.28
116.089
10.4021
21.5864
21.1454
23.46
22.2172
19.092
14.0397
9.59294
7.37974
5.8568
4.64444
3.6051
2.86497
2.27108
1.78295
1.39854
1.09242
0.854611
0.668253
0.52604
0.421958
0.386532
0.442637
0.430765
0.393488
0.354823
0.320886
0.294415
0.274911
0.260646
0.247657
0.233804
0.218144
0.202876
0.242483
13.6534
45.224
98.0999
171.075
276.374
424.98
622.493
859.782
1133.06
1451.17
1804.08
2090.15
2169.81
2058.31
1831.92
1559.51
1293.4
1056.96
856.67
691.17
556.253
447.064
359.025
288.184
231.233
185.481
148.718
119.186
95.2218
9.99443
20.8034
20.6551
23.2564
22.2231
18.9683
13.8175
9.52434
7.40085
5.88946
4.66256
3.61418
2.87762
2.279
1.78911
1.40318
1.09532
0.855684
0.669663
0.527191
0.421105
0.357143
0.397029
0.430865
0.39872
0.361739
0.325552
0.29807
0.278309
0.264072
0.251552
0.23781
0.222098
0.206517
0.243781
13.4084
41.2215
93.9563
167.316
271.175
418.484
615.584
853.452
1127.15
1444.35
1798.56
2096.44
2190.97
2087.58
1864.12
1590.14
1320.25
1079.6
875.355
706.436
568.663
457.114
367.16
294.766
236.558
189.778
152.202
122.015
97.7684
78.1037
9.58088
19.9836
20.2186
23.1424
22.2686
18.8186
13.5702
9.46479
7.42868
5.92851
4.678
3.63186
2.89049
2.28616
1.79514
1.40771
1.09865
0.857422
0.670833
0.528702
0.421334
0.345631
0.346057
0.414292
0.40305
0.368679
0.330665
0.301881
0.281928
0.267645
0.255682
0.241989
0.226214
0.210389
0.246505
13.3663
37.8873
90.1504
164.176
266.961
413.148
609.945
848.389
1122.79
1439.81
1794.93
2102.59
2211.68
2116.29
1895.8
1620.49
1347
1102.25
894.157
721.845
581.202
467.291
375.407
301.444
241.964
194.155
155.736
124.88
100.096
80.1968
64.0675
9.16686
19.1603
19.858
23.1352
22.3121
18.6076
13.3134
9.41268
7.46851
5.96214
4.69238
3.652
2.90552
2.29283
1.7996
1.41188
1.10233
0.859539
0.671963
0.529946
0.422641
0.343838
0.311575
0.378463
0.405485
0.374629
0.336356
0.305906
0.285751
0.271527
0.260029
0.246363
0.230506
0.214471
0.250171
13.4682
35.7122
86.6547
161.443
263.684
409.02
605.674
844.753
1119.98
1437.46
1793.61
2109.17
2231.75
2144.38
1926.67
1650.17
1373.42
1124.85
913.023
737.376
593.873
477.584
383.757
308.217
247.453
198.601
159.337
127.788
102.452
82.1088
65.7844
52.5644
8.77399
18.3575
19.5818
23.1923
22.3163
18.3188
13.0566
9.37649
7.51905
5.98895
4.70262
3.67247
2.91981
2.29948
1.80341
1.41539
1.10557
0.862087
0.673195
0.530845
0.424187
0.343984
0.296092
0.330426
0.399617
0.379089
0.342632
0.310269
0.289746
0.275716
0.264554
0.250957
0.23499
0.218736
0.254721
13.7006
34.6763
83.3926
158.91
261.361
406.167
602.903
842.706
1118.86
1437.17
1794.78
2116.77
2251.09
2171.42
1956.13
1678.98
1399.45
1147.34
931.927
752.99
606.64
487.975
392.202
315.072
253.012
203.113
162.993
130.75
104.843
84.0436
67.353
53.9698
43.145
8.39725
17.6082
19.3652
23.2675
22.2272
17.958
12.8092
9.37385
7.58368
6.00797
4.71201
3.692
2.9322
2.30635
1.80714
1.41765
1.10839
0.864338
0.674806
0.531573
0.425406
0.344465
0.290417
0.28926
0.375264
0.382961
0.349071
0.315099
0.293882
0.280227
0.2693
0.255776
0.239669
0.223167
0.260012
14.0148
34.0382
80.0975
156.66
260.06
404.684
601.731
842.413
1119.56
1438.84
1798.28
2125.89
2270.13
2196.32
1984.03
1706.94
1425.06
1169.67
950.75
768.51
619.317
498.348
400.674
321.977
258.635
207.689
166.706
133.76
107.28
86.0092
68.9398
55.2535
44.2918
35.4389
8.01898
16.8942
19.1944
23.3042
22.0121
17.5501
12.5954
9.39816
7.65216
6.02303
4.71868
3.70958
2.94282
2.31417
1.81065
1.4189
1.10964
0.866213
0.676883
0.532198
0.426211
0.34561
0.290031
0.265788
0.336359
0.383347
0.354722
0.320414
0.298212
0.285051
0.27428
0.260832
0.24455
0.227771
0.265794
14.4019
33.8308
77.3892
154.828
259.82
404.627
602.237
843.978
1122.28
1442.43
1803.78
2136.62
2287.66
2218.58
2010.65
1734.12
1450.22
1191.67
969.207
783.773
632.036
508.853
409.262
328.973
264.332
212.313
170.464
136.814
109.756
88.0133
70.5538
56.552
45.3386
36.3693
29.1406
7.62592
16.2043
19.036
23.229
21.6448
17.1102
12.4147
9.44863
7.71884
6.03025
4.72716
3.72466
2.95052
2.32166
1.81599
1.42039
1.11041
0.86759
0.678897
0.532918
0.426738
0.346637
0.290384
0.255826
0.293074
0.372682
0.358995
0.32628
0.30294
0.290153
0.279522
0.26615
0.249649
0.232559
0.271998
14.8786
33.9249
74.9138
153.667
260.382
405.979
604.494
847.476
1127.11
1447.94
1810.95
2146.61
2303.31
2239.46
2035.57
1760.52
1474.79
1213.02
987.09
799.004
644.79
519.328
417.847
335.997
270.065
216.991
174.277
139.91
112.271
90.0502
72.1992
57.8748
46.3981
37.219
29.8906
23.9984
7.22698
15.527
18.8852
23.0339
21.1632
16.6867
12.2897
9.5249
7.77084
6.0331
4.74069
3.73829
2.95704
2.32888
1.82148
1.42326
1.11118
0.868474
0.680601
0.534039
0.427257
0.347346
0.291571
0.253171
0.259502
0.34686
0.362613
0.332601
0.308077
0.295489
0.285082
0.271729
0.254967
0.237543
0.278619
15.4417
34.5975
72.8691
152.579
261.211
408.408
608.296
852.804
1133.81
1454.81
1817.18
2154.61
2318.05
2259.35
2058.61
1785.88
1498.5
1233.31
1004.69
814.137
657.356
529.731
426.428
343.041
275.834
221.704
178.126
143.047
114.82
92.1191
73.873
59.2238
47.4785
38.0799
30.5767
24.5982
19.8037
6.84966
14.8849
18.724
22.7324
20.6385
16.2945
12.2284
9.61873
7.8056
6.02894
4.75592
3.75165
2.96354
2.33437
1.82635
1.42662
1.11252
0.869031
0.682133
0.535419
0.427802
0.34786
0.292973
0.253073
0.240508
0.311272
0.359975
0.338704
0.313692
0.301114
0.290955
0.277582
0.260512
0.242735
0.285643
16.086
35.4458
71.3888
150.735
261.846
410.924
612.198
857.986
1139.9
1460.58
1821.64
2161.28
2331.79
2278.25
2080.09
1809.8
1520.99
1252.8
1022.08
828.832
669.677
540.023
434.954
350.071
281.611
226.443
182.001
146.215
117.401
94.216
75.5743
60.5973
48.5822
38.9593
31.2721
25.1476
20.2784
16.3834
6.48595
14.3437
18.6152
22.3624
20.1136
15.9511
12.2214
9.71565
7.8199
6.02229
4.76893
3.76387
2.97112
2.33853
1.83037
1.42999
1.11523
0.869697
0.682865
0.536578
0.428953
0.34832
0.294012
0.253667
0.231812
0.274194
0.350088
0.343629
0.319821
0.307049
0.297179
0.283719
0.26629
0.248155
0.29307
16.8099
36.5451
70.536
148.298
262.722
414.003
616.85
863.87
1146.41
1466.54
1825.74
2166.54
2344.25
2295.69
2100.5
1831.6
1541.39
1271.55
1038.77
843.019
681.716
550.127
443.371
357.05
287.374
231.184
185.896
149.403
120.009
96.341
77.2989
61.9936
49.7064
39.8586
31.9839
25.7052
20.7149
16.7552
13.5934
6.1258
13.8941
18.6184
22.0045
19.6299
15.6844
12.2584
9.80764
7.81723
6.0115
4.7836
3.77604
2.98021
2.34219
1.83165
1.43268
1.11888
0.87077
0.683075
0.5375
0.430295
0.348709
0.294594
0.254798
0.229204
0.245604
0.327365
0.346341
0.326577
0.313347
0.303773
0.290161
0.27231
0.253813
0.3009
17.6138
37.8215
70.4771
145.373
263.82
417.4
622.041
870.228
1153.05
1472.47
1829.56
2170.2
2354.82
2311.71
2119.88
1851.66
1559.88
1289.62
1054.52
856.61
693.352
559.957
451.623
363.937
293.093
235.915
189.792
152.606
122.634
98.4884
79.0471
63.4109
50.8506
40.776
32.7131
26.2775
21.1578
17.0984
13.8813
11.3138
5.7954
13.4483
18.6643
21.697
19.1878
15.4834
12.3184
9.86649
7.79771
6.01056
4.79946
3.78521
2.98865
2.34716
1.83301
1.43374
1.12199
0.872274
0.68313
0.537895
0.431713
0.349241
0.294846
0.256148
0.228989
0.228295
0.298459
0.343308
0.333972
0.320037
0.310744
0.296929
0.278589
0.259717
0.309159
18.4864
39.2705
71.2904
142.323
264.85
420.932
627.482
876.799
1159.64
1478.31
1833.06
2172.52
2362.51
2326.6
2137.63
1870.75
1576.55
1306.05
1069.25
869.472
704.445
569.441
459.653
370.686
298.732
240.605
193.677
155.81
125.27
100.649
80.8141
64.8472
52.0127
41.7105
33.4582
26.8651
21.614
17.4465
14.1485
11.5347
9.44485
5.52797
13.0611
18.652
21.3392
18.7894
15.3336
12.3658
9.88164
7.76647
6.01391
4.82044
3.79292
2.9946
2.35156
1.83429
1.43427
1.12437
0.874387
0.68351
0.537921
0.432724
0.349986
0.294762
0.257064
0.229549
0.219895
0.268522
0.332397
0.340545
0.32704
0.318097
0.304044
0.285138
0.265865
0.317876
19.4315
40.9518
72.7346
139.561
264.856
424.591
633.006
883.449
1166.42
1484.2
1836.25
2173.64
2367.19
2339.25
2154.19
1887.95
1592.47
1320.23
1082.75
881.533
714.891
578.458
467.379
377.242
304.254
245.228
197.527
159.003
127.906
102.819
82.5928
66.3
53.1911
42.6611
34.2188
27.4667
22.0836
17.8063
14.4189
11.7407
9.61351
7.90512
5.17797
12.8365
18.6547
20.8498
18.3862
15.2069
12.3679
9.84303
7.72277
6.02033
4.8395
3.80019
2.99679
2.35444
1.83839
1.43488
1.1247
0.876022
0.68459
0.537813
0.433443
0.351013
0.294693
0.257595
0.231815
0.216966
0.244815
0.315768
0.344763
0.334331
0.325837
0.311532
0.291992
0.272251
0.32706
20.4541
42.8495
74.9054
137.471
264.33
427.877
638.868
890.664
1173.88
1490.77
1840.4
2175.54
2370.95
2347.9
2169.8
1902.52
1607.88
1332.78
1094.29
892.569
724.632
586.928
474.712
383.543
309.614
249.749
201.32
162.168
130.532
104.989
84.3786
67.7633
54.3829
43.6255
34.993
28.0821
22.5659
18.1781
14.6995
11.9483
9.77158
8.03423
6.62922
4.89536
12.5279
18.7509
20.325
17.951
15.0535
12.2879
9.75018
7.68245
6.02985
4.85458
3.80619
2.99772
2.35471
1.84141
1.4372
1.12426
0.876947
0.68673
0.538001
0.433097
0.351799
0.29485
0.257865
0.234487
0.216458
0.229729
0.292931
0.346078
0.342128
0.33403
0.319427
0.29918
0.278868
0.336712
21.5594
44.9509
77.5563
136.259
262.789
431.012
643.553
897.012
1180.1
1494.8
1841.54
2173.98
2372.91
2354.79
2182.39
1916.9
1620.09
1346.74
1103.42
901.962
733.491
594.795
481.579
389.513
314.758
254.136
205.029
165.283
133.134
107.15
86.1646
69.2326
55.5852
44.602
35.7798
28.7098
23.0602
18.5608
14.9902
12.1646
9.92953
8.15539
6.72889
5.56496
9.15231
13.3501
18.5063
20.0153
17.525
14.8384
12.1361
9.61176
7.64199
6.04312
4.85869
3.80797
2.99894
2.35444
1.84193
1.44028
1.12427
0.876963
0.688637
0.538815
0.432278
0.352391
0.296203
0.258
0.236953
0.217883
0.222018
0.269361
0.336116
0.350431
0.342677
0.327753
0.30672
0.285729
0.346848
22.7527
47.2506
80.6373
136.179
260.403
433.529
648.814
903.649
1186.31
1499.21
1843
2172.45
2371.53
2358.5
2189.47
1931.3
1631.89
1355.88
1115.19
908.638
741.107
601.908
487.93
395.087
319.624
258.342
208.624
168.327
135.696
109.291
87.9433
70.7021
56.7935
45.5872
36.5774
29.3487
23.5653
18.9542
15.2906
12.3891
10.0943
8.27499
6.82226
5.64326
4.672
9.20915
24.4367
21.6865
19.4972
17.347
14.5385
11.9447
9.47206
7.59724
6.05035
4.85775
3.80243
2.99984
2.35441
1.84182
1.44212
1.12601
0.876389
0.689809
0.540112
0.431512
0.352569
0.29792
0.258704
0.239075
0.220561
0.218425
0.250056
0.323608
0.357696
0.351656
0.336527
0.314633
0.29284
0.357549
24.0386
49.7411
84.0548
137.313
257.324
435.426
653.157
909.48
1192.44
1503.49
1844.06
2170.59
2369.66
2360.66
2195.48
1938.61
1647.41
1364.62
1122.28
918.321
746.281
608.033
493.659
400.222
324.159
262.315
212.066
171.276
138.196
111.397
89.7048
72.1657
58.0019
46.5792
37.3828
29.9973
24.0813
19.3577
15.6004
12.622
10.2658
8.39963
6.9131
5.716
4.73481
3.91892
8.9845
25.1534
37.8918
23.9204
17.0946
14.42
11.7072
9.37386
7.58724
6.04041
4.84911
3.79523
2.99558
2.35638
1.84108
1.44189
1.1284
0.876195
0.688833
0.541481
0.431282
0.35245
0.300034
0.259721
0.241007
0.223994
0.218603
0.238431
0.307643
0.361615
0.360899
0.345762
0.322976
0.300216
0.368803
25.4194
52.4084
87.7257
139.633
253.87
436.442
657.308
915.144
1198.63
1508.06
1845.24
2168.41
2366.81
2361.89
2199.34
1945.27
1655.22
1377.31
1128.78
923.805
753.952
612.164
498.592
404.85
328.323
266.011
215.315
174.098
140.618
113.454
91.438
73.6155
59.2054
47.5715
38.1944
30.6536
24.6059
19.7707
15.9193
12.8629
10.4438
8.52937
7.00726
5.78571
4.7924
3.9704
3.2814
8.7678
24.3762
39.6853
33.1493
21.5216
14.5036
11.7336
9.25789
7.5809
6.02144
4.82948
3.79022
2.98819
2.35594
1.84403
1.43978
1.1295
0.877766
0.687023
0.542301
0.433244
0.352281
0.30226
0.261447
0.243023
0.22773
0.221361
0.233482
0.288706
0.359506
0.370486
0.355479
0.331819
0.307859
0.380587
26.8879
55.2284
91.5768
143.037
250.501
436.474
661.069
920.38
1204.86
1512.98
1846.62
2165.95
2363.85
2362.27
2202.05
1950.59
1661.93
1383.53
1139.07
928.642
758.328
618.223
501.955
408.837
332.073
269.397
218.335
176.761
142.935
115.444
93.13
75.0416
60.3978
48.5602
39.0076
31.3154
25.1378
20.192
16.2466
13.1116
10.6287
8.66413
7.10495
5.8574
4.84681
4.01675
3.32447
2.74038
8.51049
23.4564
38.1067
34.4937
18.9915
17.7787
12.2841
9.41994
7.54861
6.00109
4.79744
3.78518
2.98691
2.34988
1.84595
1.43826
1.12767
0.879639
0.686047
0.541944
0.436308
0.352473
0.304242
0.263967
0.245421
0.231565
0.225179
0.232062
0.270993
0.35133
0.380283
0.36563
0.341218
0.315785
0.392726
28.4381
58.1681
95.5859
147.392
247.734
435.434
664.593
925.319
1211.06
1518.27
1848.34
2163.42
2360.55
2361.65
2203.77
1955.22
1667.48
1388.87
1143.94
936.691
761.978
621.725
506.725
411.592
335.302
272.444
221.095
179.232
145.118
117.347
94.7667
76.4331
61.5709
49.5396
39.8186
31.9798
25.675
20.62
16.5816
13.3681
10.8202
8.80416
7.20618
5.93113
4.90201
4.06014
3.36227
2.77692
2.28052
8.23384
22.4134
36.9233
34.484
19.6156
6.98847
14.3361
10.1946
7.80412
5.98588