/*--------------------------------*- C++ -*----------------------------------*\
| =========                 |                                                 |
| \\      /  F ield         | OpenFOAM: The Open Source CFD Toolbox           |
|  \\    /   O peration     | Version:  v2012                                 |
|   \\  /    A nd           | Website:  www.openfoam.com                      |
|    \\/     M anipulation  |                                                 |
\*---------------------------------------------------------------------------*/
FoamFile
{
    version     2.0;
    format      ascii;
    class       volScalarField;
    location    "0";
    object      Res;
}
// * * * * * * * * * * * * * * * * * * * * * * * * * * * * * * * * * * * * * //

dimensions      [0 0 0 0 0 0 0];


internalField   nonuniform List<scalar> 
27324
(
1
1
1
1
1
1
1
1
1
1
1
1
1
1
1
1
1
1
1
1
1
1
1
1
1
1
1
1
1
1
1
1
1
1
1
1
1
1
1
1
1
1
1
1
1
1
1
1
1
1
1
1
1
1
1
1
1
1
1
1
1
1
1
1
1
1
1
1
1
1
1
1
1
1
1
1
1
1
1
1
1
1
1
1
1
1
1
1
1
1
1
1
1
1
1
1
1
1
1
1
1
1
1
1
1
1
1
1
1
1
1
1
1
1
1
1
1
1
1
1
1
1
1
1
1
1
1
1
1
1
1
1
1
1
1
1
1
1
1
1
1
1
1
1
1
1
1
1
1
1
1
1
1
1
1
1
1
1
1
1
1
1
1
1
1
1
1
1
1
1
1
1
1
1
1
1
1
1
1
1
1
1
1
1
1
1
1
1
1
1
1
1
1
1
1
1
1
1
1
1
1
1
1
1
1
1
1
1
1
1
1
1
1
1
1
1
1
1
1
1
1
1
1
1
1
1
1
1
1
1
1
1
1
1
1
1
1
1
1
1
1
1
1
1
1
1
1
1
1
1
1
1
1
1
1
1
1
1
1
1
1
1
1
1
1
1
1
1
1
1
1
1
1
1
1
1
1
1
1
1
1
1
1
1
1
1
1
1
1
1
1
1
1
1
1
1
1
1
1
1
1
1
1
1
1
1
1
1
1
1
1
1
1
1
1
1
1
1
1
1
1
1
1
1
1
1
1
1
1
1
1
1
1
1
1
1
1
1
1
1
1
1
1
1
1
1
1
1
1
1
1
1
1
1
1
1
1
1
1
1
1
1
1
1
1
1
1
1
1
1
1
1
1
1
1
1
1
1
1
1
1
1
1
1
1
1
1
1
1
1
1
1
1
1
1
1
1
1
1
1
1
1
1
1
1
1
1
1
1
1
1
1
1
1
1
1
1
1
1
1
1
1
1
1
1
1
1
1
1
1
1
1
1
1
1
1
1
1
1
1
1
1
1
1
1
1
1
1
1
1
1
1
1
1
1
1
1
1
1
1
1
1
1
1
1
1
1
1
1
1
1
1
1
1
1
1
1
1
1
1
1
1
1
1
1
1
1
1
1
1
1
1
1
1
1
1
1
1
1
1
1
1
1
1
1
1
1
1
1
1
1
1
1
1
1
1
1
1
1
1
1
1
1
1
1
1
1
1
1
1
1
1
1
1
1
1
1
1
1
1
1
1
1
1
1
1
1
1
1
1
1
1
1
1
1
1
1
1
1
1
1
1
1
1
1
1
1
1
1
1
1
1
1
1
1
1
1
1
1
1
1
1
1
1
1
1
1
1
1
1
1
1
1
1
1
1
1
1
1
1
1
1
1
1
1
1
1
1
1
1
1
1
1
1
1
1
1
1
1
1
1
1
1
1
1
1
1
1
1
1
1
1
1
1
1
1
1
1
1
1
1
1
1
1
1
1
1
1
1
1
1
1
1
1
1
1
1
1
1
1
1
1
1
1
1
1
1
1
1
1
1
1
1
1
1
1
1
1
1
1
1
1
1
1
1
1
1
1
1
1
1
1
1
1
1
1
1
1
1
1
1
1
1
1
1
1
1
1
1
1
1
1
1
1
1
1
1
1
1
1
1
1
1
1
1
1
1
1
1
1
1
1
1
1
1
1
1
1
1
1
1
1
1
1
1
1
1
1
1
1
1
1
1
1
1
1
1
1
1
1
1
1
1
1
1
1
1
1
1
1
1
1
1
1
1
1
1
1
1
1
1
1
1
1
1
1
1
1
1
1
1
1
1
1
1
1
1
1
1
1
1
1
1
1
1
1
1
1
1
1
1
1
1
1
1
1
1
1
1
1
1
1
1
1
1
1
1
1
1
1
1
1
1
1
1
1
1
1
1
1
1
1
1
1
1
1
1
1
1
1
1
1
1
1
1
1
1
1
1
1
1
1
1
1
1
1
1
1
1
1
1
1
1
1
1
1
1
1
1
1
1
1
1
1
1
1
1
1
1
1
1
1
1
1
1
1
1
1
1
1
1
1
1
1
1
1
1
1
1
1
1
1
1
1
1
1
1
1
1
1
1
1
1
1
1
1
1
1
1
1
1
1
1
1
1
1
1
1
1
1
1
1
1
1
1
1
1
1
1
1
1
1
1
1
1
1
1
1
1
1
1
1
1
1
1
1
1
1
1
1
1
1
1
1
1
1
1
1
1
1
1
1
1
1
1
1
1
1
1
1
1
1
1
1
1
1
1
1
1
1
1
1
1
1
1
1
1
1
1
1
1
1
1
1
1
1
1
1
1
1
1
1
1
1
1
1
1
1
1
1
1
1
1
1
1
1
1
1
1
1
1
1
1
1
1
1
1
1
1
1
1
1
1
1
1
1
1
1
1
1
1
1
1
1
1
1
1
1
1
1
1
1
1
1
1
1
1
1
1
1
1
1
1
1
1
1
1
1
1
1
1
1
1
1
1
1
1
1
1
1
1
1
1
1
1
1
1
1
1
1
1
1
1
1
1
1
1
1
1
1
1
1
1
1
1
1
1
1
1
1
1
1
1
1
1
1
1
1
1
1
1
1
1
1
1
1
1
1
1
1
1
1
1
1
1
1
1
1
1
1
1
1
1
1
1
1
1
1
1
1
1
1
1
1
1
1
1
1
1
1
1
1
1
1
1
1
1
1
1
1
1
1
1
1
1
1
1
1
1
1
1
1
1
1
1
1
1
1
1
1
1
1
1
1
1
1
1
1
1
1
1
1
1
1
1
1
1
1
1
1
1
1
1
1
1
1
1
1
1
1
1
1
1
1
1
1
1
1
1
1
1
1
1
1
1
1
1
1
1
1
1
1
1
1
1
1
1
1
1
1
1
1
1
1
1
1
1
1
1
1
1
1
1
1
1
1
1
1
1
1
1
1
1
1
1
1
1
1
1
1
1
1
1
1
1
1
1
1
1
1
1
1
1
1
1
1
1
1
1
1
1
1
1
1
1
1
1
1
1
1
1
1
1
1
1
1
1
1
1
1
1
1
1
1
1
1
1
1
1
1
1
1
1
1
1
1
1
1
1
1
1
1
1
1
1
1
1
1
1
1
1
1
1
1
1
1
1
0.99998
1
1
1
1
1
1
1
1
1
1
1
1
1
1
1
1
1
1
1
1
1
1
1
1
1
1
1
1
1
1
1
1
1
1
1
1
1
1
1
1
1
1
1
1
1
1
1
1
1
1
1
0.999989
0.99965
1
1
1
1
1
1
1
1
1
1
1
1
1
1
1
1
1
1
1
1
1
1
1
1
1
1
1
1
1
1
1
1
1
1
1
1
1
1
1
1
1
1
1
1
1
1
1
1
1
1
1
0.99999
0.999776
0.99723
1
1
1
1
1
1
1
1
1
1
1
1
1
1
1
1
1
1
1
1
1
1
1
1
1
1
1
1
1
1
1
1
1
1
1
1
1
1
1
1
1
1
1
1
1
1
1
1
1
1
1
0.999992
0.999789
0.998056
0.987773
1
1
1
1
1
1
1
1
1
1
1
1
1
1
1
1
1
1
1
1
1
1
1
1
1
1
1
1
1
1
1
1
1
1
1
1
1
1
1
1
1
1
1
1
1
1
1
1
1
1
1
0.999994
0.999824
0.998109
0.990799
0.964756
1
1
1
1
1
1
1
1
1
1
1
1
1
1
1
1
1
1
1
1
1
1
1
1
1
1
1
1
1
1
1
1
1
1
1
1
1
1
1
1
1
1
1
1
1
1
1
1
1
1
1
0.999995
0.999852
0.998337
0.99084
0.971942
0.925446
1
1
1
1
1
1
1
1
1
1
1
1
1
1
1
1
1
1
1
1
1
1
1
1
1
1
1
1
1
1
1
1
1
1
1
1
1
1
1
1
1
1
1
1
1
1
1
1
1
1
1
0.999996
0.999877
0.998527
0.991609
0.971608
0.937783
0.873818
1
1
1
1
1
1
1
1
1
1
1
1
1
1
1
1
1
1
1
1
1
1
1
1
1
1
1
1
1
1
1
1
1
1
1
1
1
1
1
1
1
1
1
1
1
1
1
1
1
1
1
0.999997
0.999899
0.998707
0.99228
0.973238
0.936394
0.890509
0.817971
1
1
1
1
1
1
1
1
1
1
1
1
1
1
1
1
1
1
1
1
1
1
1
1
1
1
1
1
1
1
1
1
1
1
1
1
1
1
1
1
1
1
1
1
1
1
1
1
1
1
1
0.999998
0.999917
0.998871
0.99294
0.974669
0.938813
0.887404
0.836812
0.765881
1
1
1
1
1
1
1
1
1
1
1
1
1
1
1
1
1
1
1
1
1
1
1
1
1
1
1
1
1
1
1
1
1
1
1
1
1
1
1
1
1
1
1
1
1
1
1
1
1
1
1
0.999998
0.999933
0.99902
0.99357
0.976142
0.940866
0.890004
0.83169
0.78426
0.723031
1
1
1
1
1
1
1
1
1
1
1
1
1
1
1
1
1
1
1
1
1
1
1
1
1
1
1
1
1
1
1
1
1
1
1
1
1
1
1
1
1
1
1
1
1
1
1
1
1
1
1
0.999999
0.999946
0.999156
0.994175
0.977602
0.943114
0.892141
0.833607
0.777054
0.738693
0.692283
1
1
1
1
1
1
1
1
1
1
1
1
1
1
1
1
1
1
1
1
1
1
1
1
1
1
1
1
1
1
1
1
1
1
1
1
1
1
1
1
1
1
1
1
1
1
1
1
1
1
1
0.999999
0.999958
0.99928
0.994752
0.97905
0.945404
0.894572
0.835073
0.777644
0.729557
0.703687
0.674926
1
1
1
1
1
1
1
1
1
1
1
1
1
1
1
1
1
1
1
1
1
1
1
1
1
1
1
1
1
1
1
1
1
1
1
1
1
1
1
1
1
1
1
1
1
1
1
1
1
1
1
0.999999
0.999967
0.99939
0.995301
0.980499
0.947766
0.897176
0.836955
0.77782
0.728449
0.692781
0.680967
0.671093
1
1
1
1
1
1
1
1
1
1
1
1
1
1
1
1
1
1
1
1
1
1
1
1
1
1
1
1
1
1
1
1
1
1
1
1
1
1
1
1
1
1
1
1
1
1
1
1
1
1
1
1
0.999975
0.999489
0.995819
0.981926
0.950194
0.899992
0.839141
0.778498
0.726782
0.689506
0.668413
0.671341
0.680692
1
1
1
1
1
1
1
1
1
1
1
1
1
1
1
1
1
1
1
1
1
1
1
1
1
1
1
1
1
1
1
1
1
1
1
1
1
1
1
1
1
1
1
1
1
1
1
1
1
1
1
1
0.999981
0.999575
0.996308
0.983347
0.952697
0.903013
0.841658
0.77954
0.725754
0.685702
0.662702
0.657145
0.674885
0.703131
1
1
1
1
1
1
1
1
1
1
1
1
1
1
1
1
1
1
1
1
1
1
1
1
1
1
1
1
1
1
1
1
1
1
1
1
1
1
1
1
1
1
1
1
1
1
1
1
1
1
1
1
0.999986
0.999652
0.996778
0.984768
0.955315
0.9063
0.844561
0.781018
0.725159
0.682706
0.656617
0.648791
0.65902
0.691263
0.737158
1
1
1
1
1
1
1
1
1
1
1
1
1
1
1
1
1
1
1
1
1
1
1
1
1
1
1
1
1
1
1
1
1
1
1
1
1
1
1
1
1
1
1
1
1
1
1
1
1
1
1
1
0.999989
0.999719
0.997189
0.986024
0.957679
0.909368
0.847475
0.7829
0.725073
0.680172
0.651348
0.640182
0.647718
0.673666
0.719877
0.780419
1
1
1
1
1
1
1
1
1
1
1
1
1
1
1
1
1
1
1
1
1
1
1
1
1
1
1
1
1
1
1
1
1
1
1
1
1
1
1
1
1
1
1
1
1
1
1
1
1
1
1
1
0.999992
0.999772
0.997544
0.987221
0.959999
0.91248
0.850478
0.784778
0.725186
0.678098
0.646538
0.632356
0.636519
0.659436
0.700471
0.758924
0.829118
1
1
1
1
1
1
1
1
1
1
1
1
1
1
1
1
1
1
1
1
1
1
1
1
1
1
1
1
1
1
1
1
1
1
1
1
1
1
1
1
1
1
1
1
1
1
1
1
1
1
1
1
0.999994
0.999814
0.997865
0.98835
0.962512
0.916124
0.854196
0.787507
0.726083
0.676449
0.642305
0.625167
0.625858
0.645316
0.683273
0.738286
0.805489
0.878258
1
1
1
1
1
1
1
1
1
1
1
1
1
1
1
1
1
1
1
1
1
1
1
1
1
1
1
1
1
1
1
1
1
1
1
1
1
1
1
1
1
1
1
1
1
1
1
1
1
1
1
1
0.999996
0.99985
0.998147
0.9895
0.965032
0.919729
0.858081
0.790575
0.727462
0.675653
0.638791
0.618612
0.616052
0.631836
0.666249
0.718345
0.784413
0.855087
0.922
1
1
1
1
1
1
1
1
1
1
1
1
1
1
1
1
1
1
1
1
1
1
1
1
1
1
1
1
1
1
1
1
1
1
1
1
1
1
1
1
1
1
1
1
1
1
1
1
1
1
1
1
0.999997
0.999878
0.998416
0.990579
0.967402
0.92332
0.862084
0.794009
0.72941
0.675419
0.635895
0.61279
0.606964
0.619232
0.650014
0.698785
0.762861
0.834994
0.902054
0.95567
1
1
1
1
1
1
1
1
1
1
1
1
1
1
1
1
1
1
1
1
1
1
1
1
1
1
1
1
1
1
1
1
1
1
1
1
1
1
1
1
1
1
1
1
1
1
1
1
1
1
1
1
0.999998
0.999902
0.998657
0.991545
0.969709
0.926953
0.866271
0.797655
0.731737
0.675701
0.633777
0.607752
0.598671
0.607346
0.634306
0.679678
0.741289
0.813292
0.884608
0.940868
0.977845
1
1
1
1
1
1
1
1
1
1
1
1
1
1
1
1
1
1
1
1
1
1
1
1
1
1
1
1
1
1
1
1
1
1
1
1
1
1
1
1
1
1
1
1
1
1
1
1
1
1
1
1
0.999998
0.999922
0.998852
0.992428
0.971931
0.930562
0.870516
0.801574
0.734417
0.676562
0.632255
0.603426
0.591249
0.596318
0.619515
0.660976
0.719768
0.790981
0.864741
0.927549
0.96851
0.99024
1
1
1
1
1
1
1
1
1
1
1
1
1
1
1
1
1
1
1
1
1
1
1
1
1
1
1
1
1
1
1
1
1
1
1
1
1
1
1
1
1
1
1
1
1
1
1
1
1
1
1
1
0.999999
0.999937
0.999012
0.993218
0.974028
0.934079
0.87487
0.805685
0.737368
0.677889
0.631336
0.59986
0.58452
0.586227
0.605569
0.643198
0.698548
0.768161
0.843529
0.91136
0.95973
0.985241
0.996135
1
1
1
1
1
1
1
1
1
1
1
1
1
1
1
1
1
1
1
1
1
1
1
1
1
1
1
1
1
1
1
1
1
1
1
1
1
1
1
1
1
1
1
1
1
1
1
1
1
1
1
1
0.999999
0.999949
0.999147
0.993903
0.975935
0.93752
0.879205
0.809952
0.740701
0.679552
0.630926
0.597035
0.578755
0.576888
0.592589
0.626202
0.677804
0.745156
0.8211
0.893298
0.948271
0.980304
0.993842
0.998579
1
1
1
1
1
1
1
1
1
1
1
1
1
1
1
1
1
1
1
1
1
1
1
1
1
1
1
1
1
1
1
1
1
1
1
1
1
1
1
1
1
1
1
1
1
1
1
1
1
1
1
1
0.999999
0.99996
0.999264
0.994508
0.977659
0.940727
0.883532
0.814374
0.744193
0.681536
0.631087
0.594825
0.573797
0.568745
0.580512
0.61003
0.657794
0.722216
0.797784
0.873315
0.934841
0.973429
0.991484
0.997654
0.999494
1
1
1
1
1
1
1
1
1
1
1
1
1
1
1
1
1
1
1
1
1
1
1
1
1
1
1
1
1
1
1
1
1
1
1
1
1
1
1
1
1
1
1
1
1
1
1
1
1
1
1
1
0.999999
0.999969
0.999367
0.995047
0.979225
0.94369
0.887646
0.818825
0.748037
0.68392
0.631552
0.593115
0.569547
0.561358
0.569462
0.595054
0.638567
0.699572
0.773789
0.851632
0.919111
0.964827
0.987977
0.996676
0.999151
0.999817
1
1
1
1
1
1
1
1
1
1
1
1
1
1
1
1
1
1
1
1
1
1
1
1
1
1
1
1
1
1
1
1
1
1
1
1
1
1
1
1
1
1
1
1
1
1
1
1
1
1
1
1
1
0.99997
0.999472
0.995507
0.980641
0.946464
0.891503
0.823095
0.751879
0.68654
0.632436
0.591938
0.56584
0.554782
0.559525
0.580924
0.620402
0.677521
0.749592
0.82856
0.901189
0.954151
0.983309
0.995136
0.998789
0.999696
0.999931
1
1
1
1
1
1
1
1
1
1
1
1
1
1
1
1
1
1
1
1
1
1
1
1
1
1
1
1
1
1
1
1
1
1
1
1
1
1
1
1
1
1
1
1
1
1
1
1
1
1
1
1
1
0.999978
0.999496
0.995979
0.981889
0.948928
0.895179
0.827194
0.755583
0.689331
0.633623
0.591149
0.562836
0.549085
0.55049
0.568105
0.603137
0.656194
0.72531
0.804391
0.881149
0.941263
0.977132
0.992974
0.998195
0.999571
0.999888
0.999972
1
1
1
1
1
1
1
1
1
1
1
1
1
1
1
1
1
1
1
1
1
1
1
1
1
1
1
1
1
1
1
1
1
1
1
1
1
1
1
1
1
1
1
1
1
1
1
1
1
1
1
1
1
0.999981
0.999577
0.99623
0.983008
0.951166
0.898295
0.831056
0.759241
0.692066
0.635051
0.590797
0.560369
0.544003
0.54242
0.556362
0.587115
0.635868
0.701412
0.7794
0.859133
0.925897
0.969162
0.989939
0.99732
0.999361
0.999846
0.999957
0.999988
1
1
1
1
1
1
1
1
1
1
1
1
1
1
1
1
1
1
1
1
1
1
1
1
1
1
1
1
1
1
1
1
1
1
1
1
1
1
1
1
1
1
1
1
1
1
1
1
1
1
1
1
1
0.999983
0.999617
0.996509
0.984019
0.952868
0.901268
0.8342
0.762671
0.694737
0.636569
0.590653
0.5582
0.539632
0.535165
0.545583
0.572379
0.616552
0.67827
0.754086
0.83555
0.908177
0.959113
0.985768
0.996036
0.999043
0.999775
0.999942
0.999982
0.999995
1
1
1
1
1
1
1
1
1
1
1
1
1
1
1
1
1
1
1
1
1
1
1
1
1
1
1
1
1
1
1
1
1
1
1
1
1
1
1
1
1
1
1
1
1
1
1
1
1
1
1
1
1
0.999987
0.999653
0.996768
0.984488
0.95529
0.903102
0.837342
0.765272
0.697329
0.637991
0.590754
0.556476
0.535648
0.528521
0.535857
0.558659
0.598485
0.655851
0.728921
0.810695
0.888127
0.94673
0.980172
0.994176
0.99856
0.999667
0.999919
0.999977
0.999992
0.999998
1
1
1
1
1
1
1
1
1
1
1
1
1
1
1
1
1
1
1
1
1
1
1
1
1
1
1
1
1
1
1
1
1
1
1
1
1
1
1
1
1
1
1
1
1
1
1
1
1
1
1
1
1
0.999989
0.999688
0.99702
0.985394
0.955591
0.907104
0.838781
0.767922
0.698941
0.639325
0.590823
0.555005
0.532187
0.522693
0.526961
0.546177
0.581716
0.634538
0.704094
0.785035
0.865983
0.931805
0.972777
0.991511
0.997835
0.9995
0.999883
0.999969
0.999991
0.999997
0.999999
1
1
1
1
1
1
1
1
1
1
1
1
1
1
1
1
1
1
1
1
1
1
1
1
1
1
1
1
1
1
1
1
1
1
1
1
1
1
1
1
1
1
1
1
1
1
1
1
1
1
1
1
1
0.999992
0.999729
0.997147
0.98627
0.957577
0.90683
0.843799
0.768586
0.700705
0.639907
0.590821
0.553653
0.528993
0.517218
0.51884
0.53464
0.566085
0.614487
0.679995
0.758997
0.842051
0.91433
0.963286
0.987783
0.996746
0.999245
0.999828
0.999957
0.999988
0.999996
0.999999
1
1
1
1
1
1
1
1
1
1
1
1
1
1
1
1
1
1
1
1
1
1
1
1
1
1
1
1
1
1
1
1
1
1
1
1
1
1
1
1
1
1
1
1
1
1
1
1
1
1
1
1
1
1
0.999993
0.999766
0.997391
0.986477
0.959522
0.909908
0.842867
0.773821
0.700343
0.640549
0.590258
0.552282
0.526073
0.512191
0.511272
0.524012
0.551581
0.595641
0.656809
0.733023
0.816831
0.894403
0.95141
0.982665
0.995142
0.998852
0.999744
0.99994
0.999984
0.999995
0.999998
0.999999
1
1
1
1
1
1
1
1
1
1
1
1
1
1
1
1
1
1
1
1
1
1
1
1
1
1
1
1
1
1
1
1
1
1
1
1
1
1
1
1
1
1
1
1
1
1
1
1
1
1
1
1
1
1
0.999995
0.999795
0.997636
0.98718
0.959594
0.913049
0.846604
0.772336
0.705033
0.639032
0.589607
0.550406
0.52329
0.507615
0.504326
0.514176
0.538199
0.578041
0.634762
0.707489
0.790654
0.872317
0.936937
0.975808
0.992796
0.998247
0.999613
0.999913
0.999978
0.999994
0.999998
0.999999
1
1
1
1
1
1
1
1
1
1
1
1
1
1
1
1
1
1
1
1
1
1
1
1
1
1
1
1
1
1
1
1
1
1
1
1
1
1
1
1
1
1
1
1
1
1
1
1
1
1
1
1
1
1
1
0.999996
0.999822
0.997821
0.98799
0.96082
0.912702
0.850586
0.776074
0.703278
0.642675
0.587032
0.548469
0.520128
0.503395
0.498002
0.505153
0.525892
0.561609
0.613925
0.682594
0.76413
0.848328
0.91984
0.966863
0.989444
0.997324
0.999408
0.999871
0.999969
0.999992
0.999998
0.999999
1
1
1
1
1
1
1
1
1
1
1
1
1
1
1
1
1
1
1
1
1
1
1
1
1
1
1
1
1
1
1
1
1
1
1
1
1
1
1
1
1
1
1
1
1
1
1
1
1
1
1
1
1
1
1
1
0.999997
0.999846
0.998001
0.988571
0.962445
0.914193
0.849767
0.78046
0.706313
0.640723
0.589377
0.544856
0.516947
0.498945
0.492029
0.496654
0.514366
0.54645
0.594342
0.658833
0.737671
0.822884
0.900272
0.955518
0.984774
0.995931
0.999086
0.999806
0.999957
0.999989
0.999997
0.999999
1
1
1
1
1
1
1
1
1
1
1
1
1
1
1
1
1
1
1
1
1
1
1
1
1
1
1
1
1
1
1
1
1
1
1
1
1
1
1
1
1
1
1
1
1
1
1
1
1
1
1
1
1
1
1
1
1
0.999998
0.999869
0.998174
0.98914
0.963499
0.916455
0.8511
0.779242
0.710653
0.642799
0.587071
0.545655
0.512226
0.494442
0.486146
0.488891
0.503679
0.53216
0.575921
0.636133
0.711629
0.796549
0.878364
0.941617
0.978425
0.993865
0.998584
0.999704
0.999937
0.999985
0.999996
0.999999
1
1
1
1
1
1
1
1
1
1
1
1
1
1
1
1
1
1
1
1
1
1
1
1
1
1
1
1
1
1
1
1
1
1
1
1
1
1
1
1
1
1
1
1
1
1
1
1
1
1
1
1
1
1
1
1
1
1
0.999999
0.999889
0.998339
0.989699
0.964528
0.917712
0.853472
0.780152
0.709256
0.646629
0.58807
0.543023
0.511479
0.488649
0.480386
0.481462
0.493866
0.519128
0.558851
0.614636
0.686364
0.76972
0.854438
0.92503
0.97003
0.990871
0.997803
0.999541
0.999906
0.999979
0.999995
0.999999
1
1
1
1
1
1
1
1
1
1
1
1
1
1
1
1
1
1
1
1
1
1
1
1
1
1
1
1
1
1
1
1
1
1
1
1
1
1
1
1
1
1
1
1
1
1
1
1
1
1
1
1
1
1
1
1
1
1
1
0.999999
0.999908
0.998499
0.990252
0.965537
0.918881
0.854543
0.782245
0.709706
0.645322
0.591121
0.542828
0.508272
0.486248
0.473385
0.474211
0.484668
0.5069
0.542979
0.594446
0.662029
0.743012
0.829122
0.905875
0.959307
0.986628
0.996605
0.999282
0.999858
0.99997
0.999993
0.999998
1
1
1
1
1
1
1
1
1
1
1
1
1
1
1
1
1
1
1
1
1
1
1
1
1
1
1
1
1
1
1
1
1
1
1
1
1
1
1
1
1
1
1
1
1
1
1
1
1
1
1
1
1
1
1
1
1
1
1
1
1
0.999925
0.99865
0.990821
0.966575
0.920031
0.855367
0.782746
0.71127
0.645398
0.589926
0.544945
0.506882
0.482144
0.469305
0.466005
0.475767
0.495644
0.52825
0.575629
0.638857
0.716706
0.802861
0.884399
0.946051
0.9808
0.994806
0.99887
0.99978
0.999956
0.999991
0.999998
0.999999
1
1
1
1
1
1
1
1
1
1
1
1
1
1
1
1
1
1
1
1
1
1
1
1
1
1
1
1
1
1
1
1
1
1
1
1
1
1
1
1
1
1
1
1
1
1
1
1
1
1
1
1
1
1
1
1
1
1
1
1
1
0.999939
0.998791
0.991399
0.967716
0.921242
0.856122
0.782858
0.711078
0.646133
0.589674
0.543717
0.50791
0.479795
0.464106
0.460186
0.466219
0.48505
0.514764
0.558233
0.617122
0.691301
0.776191
0.860957
0.930129
0.973012
0.992153
0.998219
0.999654
0.999935
0.999987
0.999997
0.999999
1
1
1
1
1
1
1
1
1
1
1
1
1
1
1
1
1
1
1
1
1
1
1
1
1
1
1
1
1
1
1
1
1
1
1
1
1
1
1
1
1
1
1
1
1
1
1
1
1
1
1
1
1
1
1
1
1
1
1
1
1
1
0.999951
0.998925
0.991985
0.968959
0.922676
0.856948
0.782833
0.710373
0.645395
0.589741
0.543326
0.506717
0.479581
0.46071
0.453781
0.458588
0.474013
0.502116
0.542205
0.596883
0.666919
0.749693
0.836128
0.911652
0.962994
0.988345
0.997208
0.99945
0.999899
0.999981
0.999996
0.999999
1
1
1
1
1
1
1
1
1
1
1
1
1
1
1
1
1
1
1
1
1
1
1
1
1
1
1
1
1
1
1
1
1
1
1
1
1
1
1
1
1
1
1
1
1
1
1
1
1
1
1
1
1
1
1
1
1
1
1
1
1
1
1
0.999961
0.999051
0.992567
0.970295
0.924407
0.858085
0.782808
0.709406
0.643969
0.588461
0.542862
0.50609
0.478144
0.459267
0.449085
0.450762
0.464567
0.4895
0.527391
0.578061
0.644005
0.723641
0.810402
0.891001
0.950514
0.983074
0.995662
0.99912
0.999842
0.999972
0.999995
0.999999
1
1
1
1
1
1
1
1
1
1
1
1
1
1
1
1
1
1
1
1
1
1
1
1
1
1
1
1
1
1
1
1
1
1
1
1
1
1
1
1
1
1
1
1
1
1
1
1
1
1
1
1
1
1
1
1
1
1
1
1
1
1
1
1
0.999969
0.999167
0.993143
0.971686
0.926346
0.859701
0.783092
0.708327
0.64197
0.586369
0.540987
0.505017
0.477168
0.457306
0.44618
0.444809
0.454836
0.477987
0.512777
0.560943
0.622692
0.698714
0.78447
0.868523
0.93558
0.976014
0.993362
0.998593
0.999749
0.999957
0.999992
0.999999
1
1
1
1
1
1
1
1
1
1
0.999844
1
1
1
1
1
1
1
1
1
1
1
1
1
1
1
1
1
1
1
1
1
1
1
1
1
1
1
1
1
1
1
1
1
1
1
1
1
1
1
1
1
1
1
1
1
1
1
1
1
1
1
1
1
1
0.999976
0.999271
0.993694
0.973116
0.928497
0.861715
0.783952
0.707429
0.639861
0.583669
0.53845
0.502796
0.475626
0.456126
0.443739
0.440322
0.447608
0.466162
0.499189
0.544301
0.603049
0.675297
0.758815
0.84481
0.918306
0.966875
0.990049
0.997761
0.999594
0.999933
0.999989
0.999998
1
1
1
1
1
1
1
1
1
1
0.999895
0.901023
1
1
1
1
1
1
1
1
1
1
1
1
1
1
1
1
1
1
1
1
1
1
1
1
1
1
1
1
1
1
1
1
1
1
1
1
1
1
1
1
1
1
1
1
1
1
1
1
1
1
1
1
1
1
0.999981
0.999363
0.994208
0.974517
0.930778
0.864078
0.785419
0.707242
0.637841
0.580585
0.535089
0.499845
0.473176
0.454013
0.44221
0.437052
0.44136
0.457462
0.485061
0.528451
0.584346
0.65356
0.73416
0.820468
0.899056
0.95556
0.985435
0.996484
0.999342
0.999894
0.999983
0.999997
1
1
1
1
1
1
1
1
1
1
0.999913
0.912665
0.145774
1
1
1
1
1
1
1
1
1
1
1
1
1
1
1
1
1
1
1
1
1
1
1
1
1
1
1
1
1
1
1
1
1
1
1
1
1
1
1
1
1
1
1
1
1
1
1
1
1
1
1
1
1
1
0.999987
0.999444
0.994671
0.97584
0.93307
0.866689
0.787349
0.707649
0.636414
0.577483
0.531149
0.495847
0.469676
0.451108
0.439377
0.434943
0.43701
0.449124
0.474725
0.511823
0.566245
0.632788
0.711009
0.79629
0.878259
0.942049
0.979264
0.994579
0.998935
0.999828
0.999974
0.999996
0.999999
1
1
1
1
1
1
1
1
1
0.999932
0.9177
0.152391
1
1
1
1
1
1
1
1
1
1
1
1
1
1
1
1
1
1
1
1
1
1
1
1
1
1
1
1
1
1
1
1
1
1
1
1
1
1
1
1
1
1
1
1
1
1
1
1
1
1
1
1
1
1
0.999991
0.999513
0.995076
0.977041
0.935247
0.869412
0.789623
0.708614
0.635539
0.57473
0.527071
0.491213
0.465289
0.447202
0.435936
0.431454
0.434159
0.44359
0.464241
0.499809
0.547097
0.612707
0.688764
0.772862
0.856669
0.926586
0.971347
0.991831
0.998293
0.99972
0.99996
0.999994
0.999999
1
1
1
1
1
1
1
1
1
0.999946
0.923609
0.155304
1
1
1
1
1
1
1
1
1
1
1
1
1
1
1
1
1
1
1
1
1
1
1
1
1
1
1
1
1
1
1
1
1
1
1
1
1
1
1
1
1
1
1
1
1
1
1
1
1
1
1
1
1
1
0.999993
0.999572
0.995414
0.978086
0.937203
0.871991
0.792152
0.710135
0.63539
0.572615
0.523162
0.486226
0.460015
0.442362
0.431778
0.427458
0.4299
0.439831
0.45713
0.48682
0.533136
0.590836
0.667167
0.750375
0.835076
0.909598
0.961612
0.988042
0.997305
0.999541
0.999935
0.999991
0.999999
1
1
1
1
1
1
1
1
1
0.999957
0.928975
0.159105
1
1
1
1
1
1
1
1
1
1
1
1
1
1
1
1
1
1
1
1
1
1
1
1
1
1
1
1
1
1
1
1
1
1
1
1
1
1
1
1
1
1
1
1
1
1
1
1
1
1
1
1
1
1
0.999995
0.999623
0.995709
0.978976
0.938896
0.874289
0.794555
0.711977
0.635896
0.571245
0.519816
0.481268
0.454093
0.43644
0.42632
0.422695
0.42524
0.434703
0.452195
0.477874
0.517404
0.574932
0.643086
0.728109
0.813782
0.891826
0.950206
0.983004
0.995843
0.999254
0.999894
0.999987
0.999998
1
1
1
1
1
1
1
1
1
0.999965
0.933944
0.162788
1
1
1
1
1
1
1
1
1
1
1
1
1
1
1
1
1
1
1
1
1
1
1
1
1
1
1
1
1
1
1
1
1
1
1
1
1
1
1
1
1
1
1
1
1
1
1
1
1
1
1
1
1
1
0.999997
0.999668
0.995974
0.979749
0.940314
0.876247
0.796663
0.713794
0.636762
0.570575
0.517186
0.476742
0.448133
0.429783
0.419832
0.41671
0.419726
0.428979
0.445862
0.471607
0.506239
0.556727
0.625435
0.702692
0.792229
0.873619
0.937517
0.976661
0.993754
0.998803
0.999825
0.999979
0.999998
1
1
1
1
1
1
1
1
1
0.999972
0.938501
0.166446
1
1
1
1
1
1
1
1
1
1
1
1
1
1
1
1
1
1
1
1
1
1
1
1
1
1
1
1
1
1
1
1
1
1
1
1
1
1
1
1
1
1
1
1
1
1
1
1
1
1
1
1
1
1
0.999998
0.99971
0.996219
0.980428
0.941503
0.877805
0.798372
0.715338
0.637735
0.570445
0.515385
0.472983
0.442557
0.422849
0.412479
0.409541
0.413175
0.422749
0.439178
0.463882
0.498488
0.542995
0.604631
0.683797
0.766989
0.854692
0.924018
0.969147
0.990928
0.99812
0.999714
0.999965
0.999996
1
1
1
1
1
1
1
1
1
0.999977
0.942669
0.170037
1
1
1
1
1
1
1
1
1
1
1
1
1
1
1
1
1
1
1
1
1
1
1
1
1
1
1
1
1
1
1
1
1
1
1
1
1
1
1
1
1
1
1
1
1
1
1
1
1
1
1
1
1
1
0.999999
0.999748
0.996454
0.981062
0.942487
0.879003
0.799654
0.716552
0.638631
0.57058
0.514236
0.470046
0.437589
0.41617
0.404624
0.401414
0.405258
0.415468
0.431836
0.455939
0.489221
0.533359
0.58833
0.660997
0.747917
0.831663
0.909411
0.960673
0.987319
0.997128
0.999538
0.999943
0.999994
0.999999
1
1
1
1
1
1
1
1
0.999982
0.946457
0.173549
1
1
1
1
1
1
1
1
1
1
1
1
1
1
1
1
1
1
1
1
1
1
1
1
1
1
1
1
1
1
1
1
1
1
1
1
1
1
1
1
1
1
1
1
1
1
1
1
1
1
1
1
1
1
0.999999
0.999783
0.996684
0.981683
0.943403
0.879894
0.800463
0.717292
0.639204
0.570804
0.513579
0.467906
0.433595
0.410172
0.396809
0.392681
0.396332
0.406762
0.423605
0.447386
0.479569
0.52241
0.576863
0.642255
0.724278
0.813938
0.890702
0.95115
0.983011
0.995767
0.999268
0.999908
0.999991
0.999999
1
1
1
1
1
1
1
1
0.999985
0.94988
0.17696
1
1
1
1
1
1
1
1
1
1
1
1
1
1
1
1
1
1
1
1
1
1
1
1
1
1
1
1
1
1
1
1
1
1
1
1
1
1
1
1
1
1
1
1
1
1
1
1
1
1
1
1
1
1
1
0.999814
0.996909
0.982308
0.944276
0.880641
0.800856
0.717476
0.639318
0.570713
0.513046
0.466427
0.430504
0.405031
0.389695
0.383844
0.386522
0.396835
0.414014
0.437906
0.469761
0.511034
0.56403
0.629042
0.703761
0.791022
0.875808
0.93811
0.977931
0.994045
0.998875
0.999851
0.999985
0.999999
1
1
1
1
1
1
1
1
0.999987
0.952945
0.180244
1
1
1
1
1
1
1
1
1
1
1
1
1
1
1
1
1
1
1
1
1
1
1
1
1
1
1
1
1
1
1
1
1
1
1
1
1
1
1
1
1
1
1
1
1
1
1
1
1
1
1
1
1
1
1
0.999841
0.997129
0.982958
0.945188
0.881297
0.800986
0.717202
0.638866
0.570282
0.512423
0.465169
0.428131
0.400943
0.383454
0.375438
0.376609
0.386027
0.402983
0.427205
0.458912
0.499582
0.550843
0.614382
0.689098
0.770065
0.855946
0.927355
0.970478
0.991915
0.998347
0.999765
0.999976
0.999998
1
1
1
1
1
1
1
1
0.999989
0.955672
0.183374
1
1
1
1
1
1
1
1
1
1
1
1
1
1
1
1
1
1
1
1
1
1
1
1
1
1
1
1
1
1
1
1
1
1
1
1
1
1
1
1
1
1
1
1
1
1
1
1
1
1
1
1
1
1
1
0.999865
0.99734
0.983621
0.946183
0.88203
0.801054
0.716517
0.637891
0.569251
0.511514
0.464013
0.426289
0.397705
0.378315
0.368091
0.367092
0.374923
0.391108
0.415132
0.446911
0.487158
0.537317
0.59924
0.672938
0.754708
0.836405
0.912385
0.964076
0.988551
0.997671
0.999644
0.999962
0.999997
1
1
1
1
1
1
1
1
0.999991
0.958069
0.186326
1
1
1
1
1
1
1
1
1
1
1
1
1
1
1
1
1
1
1
1
1
1
1
1
1
1
1
1
1
1
1
1
1
1
1
1
1
1
1
1
1
1
1
1
1
1
1
1
1
1
1
1
1
1
1
0.999885
0.99754
0.984288
0.947245
0.882885
0.801097
0.715762
0.636537
0.567725
0.510041
0.462626
0.424626
0.39523
0.374305
0.361932
0.358529
0.364139
0.378762
0.401894
0.43346
0.473639
0.523305
0.583798
0.656047
0.73789
0.821824
0.896464
0.954702
0.985512
0.996514
0.999486
0.999942
0.999995
1
1
1
1
1
1
1
1
0.999992
0.960146
0.189069
1
1
1
1
1
1
1
1
1
1
1
1
1
1
1
1
1
1
1
1
1
1
1
1
1
1
1
1
1
1
1
1
1
1
1
1
1
1
1
1
1
1
1
1
1
1
1
1
1
1
1
1
1
1
1
0.999908
0.997725
0.984944
0.948354
0.883851
0.80129
0.71495
0.63495
0.565756
0.508039
0.460851
0.422874
0.393108
0.371032
0.356949
0.351199
0.354374
0.366688
0.388171
0.418837
0.45865
0.507927
0.567838
0.639058
0.720095
0.805599
0.88416
0.943761
0.980878
0.995428
0.999194
0.999915
0.999993
1
1
1
1
1
1
1
1
0.999993
0.96191
0.191571
1
1
1
1
1
1
1
1
1
1
1
1
1
1
1
1
1
1
1
1
1
1
1
1
1
1
1
1
1
1
1
1
1
1
1
1
1
1
1
1
1
1
1
1
1
1
1
1
1
1
1
1
1
1
1
0.999926
0.997887
0.985556
0.949473
0.884955
0.801618
0.714186
0.63325
0.563419
0.505528
0.458483
0.420712
0.390954
0.368351
0.352928
0.345139
0.345753
0.355479
0.374719
0.403702
0.442511
0.491423
0.550795
0.621247
0.701994
0.788285
0.870306
0.934955
0.974863
0.993689
0.998913
0.999863
0.99999
0.999999
1
1
1
1
1
1
1
0.999993
0.963356
0.1938
1
1
1
1
1
1
1
1
1
1
1
1
1
1
1
1
1
1
1
1
1
1
1
1
1
1
1
1
1
1
1
1
1
1
1
1
1
1
1
1
1
1
1
1
1
1
1
1
1
1
1
1
1
1
1
0.999938
0.998014
0.986051
0.950526
0.886064
0.802115
0.713634
0.631581
0.56095
0.50267
0.455624
0.418072
0.38841
0.365741
0.34961
0.340322
0.338631
0.345575
0.362018
0.388546
0.425614
0.473504
0.532403
0.602577
0.683034
0.770114
0.855029
0.924851
0.969817
0.991193
0.998445
0.999812
0.999983
0.999999
1
1
1
1
1
1
1
0.999994
0.964487
0.195707
1
1
1
1
1
1
1
1
1
1
1
1
1
1
1
1
1
1
1
1
1
1
1
1
1
1
1
1
1
1
1
1
1
1
1
1
1
1
1
1
1
1
1
1
1
1
1
1
1
1
1
1
1
1
1
0.999945
0.998103
0.986412
0.951367
0.887129
0.802665
0.713154
0.629994
0.558466
0.499576
0.452322
0.41486
0.385513
0.362943
0.346597
0.336338
0.332826
0.337249
0.350673
0.37416
0.408711
0.454792
0.512737
0.582477
0.66292
0.75102
0.83856
0.913226
0.963784
0.988967
0.9977
0.999726
0.999977
0.999999
1
1
1
1
1
1
1
0.999994
0.965311
0.197257
1
1
1
1
1
1
1
1
1
1
1
1
1
1
1
1
1
1
1
1
1
1
1
1
1
1
1
1
1
1
1
1
1
1
1
1
1
1
1
1
1
1
1
1
1
1
1
1
1
1
1
1
1
1
1
0.999947
0.998156
0.986653
0.951965
0.887944
0.803165
0.7128
0.628565
0.556017
0.496341
0.448714
0.411134
0.381953
0.359706
0.343467
0.332755
0.327983
0.330228
0.340892
0.361206
0.392505
0.436004
0.492155
0.561023
0.641649
0.730662
0.820919
0.900258
0.956574
0.98622
0.996995
0.999575
0.999967
0.999998
1
1
1
1
1
1
1
0.999994
0.965826
0.198428
1
1
1
1
1
1
1
1
1
1
1
1
1
1
1
1
1
1
1
1
1
1
1
1
1
1
1
1
1
1
1
1
1
1
1
1
1
1
1
1
1
1
1
1
1
1
1
1
1
1
1
1
1
1
1
0.999947
0.998175
0.986766
0.952309
0.888442
0.803461
0.712389
0.62719
0.553606
0.493157
0.444882
0.407062
0.377919
0.35594
0.339838
0.329154
0.323751
0.324508
0.332606
0.349711
0.377665
0.4178
0.471212
0.538418
0.618618
0.708704
0.801797
0.885965
0.948203
0.982776
0.996097
0.999425
0.999947
0.999997
1
1
1
1
1
1
1
0.999994
0.966019
0.199186
1
1
1
1
1
1
1
1
1
1
1
1
1
1
1
1
1
1
1
1
1
1
1
1
1
1
1
1
1
1
1
1
1
1
1
1
1
1
1
1
1
1
1
1
1
1
1
1
1
1
1
1
1
1
1
0.999945
0.998165
0.986749
0.952356
0.888585
0.803497
0.711895
0.625824
0.55135
0.489975
0.440967
0.402678
0.373327
0.351464
0.335711
0.325192
0.319592
0.319418
0.325754
0.340069
0.364473
0.400804
0.45083
0.515422
0.594312
0.685005
0.780694
0.869892
0.938515
0.97857
0.994912
0.999227
0.999927
0.999996
1
1
1
1
1
1
1
0.999994
0.965872
0.1995
1
1
1
1
1
1
1
1
1
1
1
1
1
1
1
1
1
1
1
1
1
1
1
1
1
1
1
1
1
1
1
1
1
1
1
1
1
1
1
1
1
1
1
1
1
1
1
1
1
1
1
1
1
1
1
0.999942
0.998132
0.986619
0.952099
0.888308
0.80317
0.711233
0.624532
0.549142
0.486924
0.437136
0.398271
0.368542
0.346563
0.330885
0.320596
0.315146
0.314604
0.319709
0.331777
0.353003
0.385596
0.431534
0.49273
0.569373
0.65972
0.757717
0.85186
0.927196
0.97344
0.993387
0.998957
0.9999
0.999994
1
1
1
1
1
1
1
0.999993
0.965341
0.199328
1
1
1
1
1
1
1
1
1
1
1
1
1
1
1
1
1
1
1
1
1
1
1
1
1
1
1
1
1
1
1
1
1
1
1
1
1
1
1
1
1
1
1
1
1
1
1
1
1
1
1
1
1
1
1
0.999937
0.998079
0.986384
0.951557
0.887545
0.802325
0.710276
0.62306
0.546997
0.483907
0.433333
0.393753
0.36356
0.341286
0.32551
0.315395
0.310134
0.30951
0.31404
0.324608
0.343176
0.372127
0.413854
0.470968
0.544308
0.63334
0.732845
0.831578
0.913996
0.96715
0.991415
0.998589
0.999862
0.999992
1
1
1
1
1
1
1
0.999993
0.964443
0.198614
1
1
1
1
1
1
1
1
1
1
1
1
1
1
1
1
1
1
1
1
1
1
1
1
1
1
1
1
1
1
1
1
1
1
1
1
1
1
1
1
1
1
1
1
1
1
1
1
1
1
1
1
1
1
1
0.99993
0.998006
0.986052
0.950757
0.886329
0.80092
0.708808
0.621417
0.544875
0.48103
0.429616
0.389307
0.358469
0.335625
0.319706
0.309518
0.304435
0.304007
0.308195
0.317875
0.334551
0.360361
0.398158
0.450574
0.519983
0.606358
0.706201
0.808999
0.898566
0.959421
0.988867
0.998087
0.999809
0.999989
1
1
1
1
1
1
1
0.999992
0.963136
0.197397
1
1
1
1
1
1
1
1
1
1
1
1
1
1
1
1
1
1
1
1
1
1
1
1
1
1
1
1
1
1
1
1
1
1
1
1
1
1
1
1
1
1
1
1
1
1
1
1
1
1
1
1
1
1
1
0.999921
0.99791
0.985641
0.949715
0.884682
0.798988
0.706807
0.619419
0.542591
0.478266
0.426072
0.384993
0.35338
0.330035
0.313565
0.30316
0.298012
0.29771
0.301929
0.311162
0.3265
0.349986
0.384165
0.432071
0.496917
0.579737
0.678524
0.784239
0.880715
0.949944
0.985546
0.997398
0.999732
0.999985
1
1
1
1
1
1
1
0.99999
0.96134
0.195652
1
1
1
1
1
1
1
1
1
1
1
1
1
1
1
1
1
1
1
1
1
1
1
1
1
1
1
1
1
1
1
1
1
1
1
1
1
1
1
1
1
1
1
1
1
1
1
1
1
1
1
1
1
1
1
0.999907
0.997784
0.98513
0.948474
0.882653
0.796516
0.704285
0.616923
0.540094
0.475457
0.422712
0.380805
0.348486
0.324377
0.307333
0.296526
0.291044
0.29061
0.294867
0.303954
0.318689
0.34035
0.371628
0.415524
0.475454
0.553967
0.650311
0.757583
0.860287
0.938422
0.98121
0.996446
0.999621
0.999979
0.999999
1
1
1
1
1
1
0.999989
0.959576
0.193275
1
1
1
1
1
1
1
1
1
1
1
1
1
1
1
1
1
1
1
1
1
1
1
1
1
1
1
1
1
1
1
1
1
1
1
1
1
1
1
1
1
1
1
1
1
1
1
1
1
1
1
1
1
1
1
0.999892
0.997616
0.984501
0.947026
0.880324
0.793578
0.701198
0.613962
0.537197
0.4725
0.419429
0.376907
0.343786
0.318834
0.301095
0.289597
0.283702
0.282927
0.287148
0.29611
0.310386
0.331089
0.360102
0.40063
0.455917
0.529587
0.622224
0.729578
0.837459
0.924511
0.975602
0.995118
0.999458
0.999969
0.999999
1
1
1
1
1
1
0.999986
0.957501
0.191131
1
1
1
1
1
1
1
1
1
1
1
1
1
1
1
1
1
1
1
1
1
1
1
1
1
1
1
1
1
1
1
1
1
1
1
1
1
1
1
1
1
1
1
1
1
1
1
1
1
1
1
1
1
1
1
0.999871
0.997392
0.983706
0.94532
0.877692
0.790288
0.697631
0.61047
0.53391
0.46925
0.416042
0.373118
0.339289
0.313528
0.294917
0.282648
0.276131
0.274881
0.278678
0.287489
0.301432
0.321453
0.349003
0.386796
0.438014
0.506768
0.595159
0.700888
0.812289
0.908084
0.968408
0.993272
0.999216
0.999955
0.999999
1
1
1
1
1
1
0.999984
0.954599
0.188656
1
1
1
1
1
1
1
1
1
1
1
1
1
1
1
1
1
1
1
1
1
1
1
1
1
1
1
1
1
1
1
1
1
1
1
1
1
1
1
1
1
1
1
1
1
1
1
1
1
1
1
1
1
1
1
0.999839
0.997089
0.982663
0.943256
0.8747
0.786664
0.693704
0.60654
0.530169
0.465699
0.412475
0.369326
0.335004
0.308489
0.288977
0.27583
0.268473
0.266588
0.269812
0.278098
0.291716
0.31118
0.337749
0.373436
0.421457
0.48554
0.569185
0.672026
0.785468
0.888918
0.959253
0.990718
0.998854
0.999932
0.999998
1
1
1
1
1
1
0.99998
0.952079
0.185333
1
1
1
1
1
1
1
1
1
1
1
1
1
1
1
1
1
1
1
1
1
1
1
1
1