/*--------------------------------*- C++ -*----------------------------------*\
| =========                 |                                                 |
| \\      /  F ield         | OpenFOAM: The Open Source CFD Toolbox           |
|  \\    /   O peration     | Version:  v2012                                 |
|   \\  /    A nd           | Website:  www.openfoam.com                      |
|    \\/     M anipulation  |                                                 |
\*---------------------------------------------------------------------------*/
FoamFile
{
    version     2.0;
    format      ascii;
    class       volScalarField;
    location    "0";
    object      Rew;
}
// * * * * * * * * * * * * * * * * * * * * * * * * * * * * * * * * * * * * * //

dimensions      [0 0 0 0 0 0 0];


internalField   nonuniform List<scalar> 
27324
(
1
1
1
1
1
1
1
1
1
1
1
1
1
1
1
1
1
1
1
1
1
1
1
1
1
1
1
1
1
1
1
1
1
1
1
1
1
1
1
1
1
1
1
1
1
1
1
1
1
1
1
1
1
1
1
1
1
1
1
1
1
1
1
1
1
1
1
1
1
1
1
1
1
1
1
1
1
1
1
1
1
1
1
1
1
1
1
1
1
1
1
1
1
1
1
1
1
1
1
1
1
1
1
1
1
1
1
1
1
1
1
1
1
1
1
1
1
1
1
1
1
1
1
1
1
1
1
1
1
1
1
1
1
1
1
1
1
1
1
1
1
1
1
1
1
1
1
1
1
1
1
1
1
1
1
1
1
1
1
1
1
1
1
1
1
1
1
1
1
1
1
1
1
1
1
1
1
1
1
1
1
1
1
1
1
1
1
1
1
1
1
1
1
1
1
1
1
1
1
1
1
1
1
1
1
1
1
1
1
1
1
1
1
1
1
1
1
1
1
1
1
1
1
1
1
1
1
1
1
1
1
1
1
1
1
1
1
1
1
1
1
1
1
1
1
1
1
1
1
1
1
1
1
1
1
1
1
1
1
1
1
1
1
1
1
1
1
1
1
1
1
1
1
1
1
1
1
1
1
1
1
1
1
1
1
1
1
1
1
1
1
1
1
1
1
1
1
1
1
1
1
1
1
1
1
1
1
1
1
1
1
1
1
1
1
1
1
1
1
1
1
1
1
1
1
1
1
1
1
1
1
1
1
1
1
1
1
1
1
1
1
1
1
1
1
1
1
1
1
1
1
1
1
1
1
1
1
1
1
1
1
1
1
1
1
1
1
1
1
1
1
1
1
1
1
1
1
1
1
1
1
1
1
1
1
1
1
1
1
1
1
1
1
1
1
1
1
1
1
1
1
1
1
1
1
1
1
1
1
1
1
1
1
1
1
1
1
1
1
1
1
1
1
1
1
1
1
1
1
1
1
1
1
1
1
1
1
1
1
1
1
1
1
1
1
1
1
1
1
1
1
1
1
1
1
1
1
1
1
1
1
1
1
1
1
1
1
1
1
1
1
1
1
1
1
1
1
1
1
1
1
1
1
1
1
1
1
1
1
1
1
1
1
1
1
1
1
1
1
1
1
1
1
1
1
1
1
1
1
1
1
1
1
1
1
1
1
1
1
1
1
1
1
1
1
1
1
1
1
1
1
1
1
1
1
1
1
1
1
1
1
1
1
1
1
1
1
1
1
1
1
1
1
1
1
1
1
1
1
1
1
1
1
1
1
1
1
1
1
1
1
1
1
1
1
1
1
1
1
1
1
1
1
1
1
1
1
1
1
1
1
1
1
1
1
1
1
1
1
1
1
1
1
1
1
1
1
1
1
1
1
1
1
1
1
1
1
1
1
1
1
1
1
1
1
1
1
1
1
1
1
1
1
1
1
1
1
1
1
1
1
1
1
1
1
1
1
1
1
1
1
1
1
1
1
1
1
1
1
1
1
1
1
1
1
1
1
1
1
1
1
1
1
1
1
1
1
1
1
1
1
1
1
1
1
1
1
1
1
1
1
1
1
1
1
1
1
1
1
1
1
1
1
1
1
1
1
1
1
1
1
1
1
1
1
1
1
1
1
1
1
1
1
1
1
1
1
1
1
1
1
1
1
1
1
1
1
1
1
1
1
1
1
1
1
1
1
1
1
1
1
1
1
1
1
1
1
1
1
1
1
1
1
1
1
1
1
1
1
1
1
1
1
1
1
1
1
1
1
1
1
1
1
1
1
1
1
1
1
1
1
1
1
1
1
1
1
1
1
1
1
1
1
1
1
1
1
1
1
1
1
1
1
1
1
1
1
1
1
0.994833
1
1
1
1
1
1
1
1
1
1
1
1
1
1
1
1
1
1
1
1
1
1
1
1
1
1
1
1
1
1
1
1
1
1
1
1
1
1
1
1
1
1
1
1
1
1
1
1
1
1
1
1
1
1
1
1
1
1
1
1
1
1
1
1
1
1
1
1
1
1
1
1
1
1
1
1
1
1
1
1
1
1
1
1
1
1
1
1
1
1
1
1
1
1
1
1
1
1
1
1
1
1
1
1
1
1
1
1
1
1
1
1
1
1
1
1
1
1
1
1
1
1
1
1
1
0.987432
1
1
1
1
1
1
1
1
1
1
1
1
1
1
1
1
1
1
1
1
1
1
1
1
1
1
1
1
1
1
1
1
1
1
1
1
1
1
1
1
1
1
0.999553
1
1
1
1
1
1
1
1
1
1
1
1
1
1
1
1
1
1
1
1
1
1
1
1
1
1
1
1
1
1
1
1
1
1
1
1
1
1
1
1
1
1
1
0.988255
1
1
1
1
1
1
1
1
1
1
1
1
1
1
1
1
1
1
1
1
1
1
1
1
1
1
1
1
1
1
1
1
1
1
1
1
1
1
1
1
1
1
1
1
0.99978
1
1
1
1
1
1
1
1
1
1
1
1
1
1
1
1
1
1
1
1
1
1
1
1
1
1
1
1
1
1
1
1
1
1
1
1
1
1
1
1
1
1
1
1
1
0.999982
1
1
1
1
1
1
1
1
1
1
1
1
1
1
1
1
1
1
1
1
1
1
1
1
1
1
1
1
1
1
1
1
1
1
1
1
1
1
1
1
1
1
1
1
1
1
0.999999
1
1
1
1
1
1
1
1
1
1
1
1
1
1
1
1
1
1
1
1
1
1
1
1
1
1
1
1
1
1
1
1
1
1
1
1
1
1
1
1
1
1
1
1
1
1
1
1
1
1
1
1
1
1
1
1
1
1
1
1
1
1
1
1
1
1
1
1
1
1
1
1
1
1
1
1
1
1
1
1
1
1
1
1
1
1
1
1
1
1
1
1
0.999933
1
1
1
1
0.999999
1
1
1
1
1
1
1
1
1
1
1
1
1
1
1
1
1
1
1
1
1
1
1
1
1
1
1
1
1
1
1
1
1
1
1
1
1
1
1
1
1
1
1
1
0.99998
1
1
1
1
0.999987
1
1
1
1
1
1
0.999999
1
1
1
1
1
1
1
1
1
1
1
1
1
1
1
1
1
1
1
1
1
1
1
1
1
1
1
1
1
1
1
1
1
1
1
1
1
1
1
1
1
1
1
0.999711
1
1
1
1
1
1
0.999999
0.999953
1
1
1
1
1
1
1
1
1
1
1
1
1
1
1
1
1
1
1
1
1
1
1
1
1
1
1
1
1
1
1
1
1
1
1
1
1
1
1
1
1
1
1
0.994107
1
1
1
1
1
1
0.999999
0.999964
0.999375
1
1
1
1
1
1
1
1
1
1
1
1
1
1
1
1
1
1
1
1
1
1
1
1
1
1
1
1
1
1
1
1
1
1
1
1
1
1
1
1
1
1
1
0.892777
1
1
1
1
1
1
0.999999
0.999973
0.999486
0.995859
1
1
1
1
1
1
1
1
1
1
1
1
1
1
1
1
1
1
1
1
1
1
1
1
1
1
1
1
1
1
1
1
1
1
1
1
1
1
1
1
1
1
1
0.0205883
1
1
1
1
1
1
1
0.999978
0.999579
0.996448
0.983765
1
1
1
1
1
1
1
1
1
1
1
1
1
1
1
1
1
1
1
1
1
1
1
1
1
1
1
1
1
1
1
1
1
1
1
1
1
1
1
1
1
1
1
0.900759
1
1
1
1
1
1
1
0.999983
0.999644
0.9969
0.985608
0.956838
1
1
1
1
1
1
1
1
1
1
1
1
1
1
1
1
1
1
1
1
1
1
1
1
1
1
1
1
1
1
1
1
1
1
1
1
1
1
1
1
1
1
1
0.994762
1
1
1
1
1
1
1
0.999987
0.999704
0.997245
0.986832
0.960721
0.913701
1
1
1
1
1
1
1
1
1
1
1
1
1
1
1
1
1
1
1
1
1
1
1
1
1
1
1
1
1
1
1
1
1
1
1
1
1
1
1
1
1
1
1
0.999747
1
1
1
1
1
1
1
0.99999
0.999755
0.997579
0.987857
0.96279
0.919712
0.859631
1
1
1
1
1
1
1
1
1
1
1
1
1
1
1
1
1
1
1
1
1
1
1
1
1
1
1
1
1
1
1
1
1
1
1
1
1
1
1
1
1
1
1
0.999986
1
1
1
1
1
1
1
0.999993
0.999799
0.997883
0.988894
0.964758
0.922062
0.867042
0.803122
1
1
1
1
1
1
1
1
1
1
1
1
1
1
1
1
1
1
1
1
1
1
1
1
1
1
1
1
1
1
1
1
1
1
1
1
1
1
1
1
1
1
1
0.999999
1
1
1
1
1
1
1
0.999995
0.999837
0.998161
0.989875
0.966789
0.924759
0.868745
0.810684
0.751821
1
1
1
1
1
1
1
1
1
1
1
1
1
1
1
1
1
1
1
1
1
1
1
1
1
1
1
1
1
1
1
1
1
1
1
1
1
1
1
1
1
1
1
1
1
1
1
1
1
1
1
0.999996
0.999868
0.998413
0.990815
0.968793
0.927512
0.871413
0.810974
0.7582
0.710627
1
1
1
1
1
1
1
1
1
1
1
1
1
1
1
1
1
1
1
1
1
1
1
1
1
1
1
1
1
1
1
1
1
1
1
1
1
1
1
1
1
1
1
1
1
1
1
1
1
1
1
0.999997
0.999895
0.998638
0.991709
0.970785
0.930378
0.874195
0.812686
0.756498
0.714695
0.681892
1
1
1
1
1
1
1
1
1
1
1
1
1
1
1
1
1
1
1
1
1
1
1
1
1
1
1
1
1
1
1
1
1
1
1
1
1
1
1
1
1
1
1
1
1
1
1
1
1
1
1
0.999998
0.999917
0.998841
0.99255
0.972738
0.933306
0.877159
0.814637
0.756656
0.710749
0.682885
0.666573
1
1
1
1
1
1
1
1
1
1
1
1
1
1
1
1
1
1
1
1
1
1
1
1
1
1
1
1
1
1
1
1
1
1
1
1
1
1
1
1
1
1
1
1
1
1
1
1
1
1
1
0.999999
0.999935
0.999019
0.993341
0.974669
0.936284
0.880338
0.816877
0.757128
0.70906
0.676579
0.663789
0.664614
1
1
1
1
1
1
1
1
1
1
1
1
1
1
1
1
1
1
1
1
1
1
1
1
1
1
1
1
1
1
1
1
1
1
1
1
1
1
1
1
1
1
1
1
0.999999
1
1
1
1
1
1
0.999999
0.99995
0.999177
0.994078
0.976541
0.939301
0.883713
0.819463
0.757974
0.707511
0.672636
0.655115
0.657754
0.675837
1
1
1
1
1
1
1
1
1
1
1
1
1
1
1
1
1
1
1
1
1
1
1
1
1
1
1
1
1
1
1
1
1
1
1
1
1
1
1
1
1
1
1
1
0.999995
1
1
1
1
1
1
0.999999
0.999962
0.999314
0.994762
0.97837
0.942351
0.887257
0.822346
0.759218
0.706492
0.668814
0.648705
0.646675
0.664565
0.699625
1
1
1
1
1
1
1
1
1
1
1
1
1
1
1
1
1
1
1
1
1
1
1
1
1
1
1
1
1
1
1
1
1
1
1
1
1
1
1
1
1
1
1
1
0.999968
1
1
1
1
1
1
1
0.999971
0.999434
0.995405
0.980159
0.945471
0.891017
0.825593
0.76087
0.705921
0.66571
0.642507
0.63764
0.651098
0.683748
0.734731
1
1
1
1
1
1
1
1
1
1
1
1
1
1
1
1
1
1
1
1
1
1
1
1
1
1
1
1
1
1
1
1
1
1
1
1
1
1
1
1
1
1
1
1
0.999805
1
1
1
1
1
1
1
0.999979
0.999539
0.995973
0.981776
0.948335
0.894575
0.828874
0.762914
0.705838
0.663078
0.637051
0.628857
0.639161
0.66791
0.714659
0.778825
1
1
1
1
1
1
1
1
1
1
1
1
1
1
1
1
1
1
1
1
1
1
1
1
1
1
1
1
1
1
1
1
1
1
1
1
1
1
1
1
1
1
1
1
0.9989
1
1
1
1
1
1
1
0.999984
0.999623
0.996481
0.983331
0.951145
0.89815
0.832186
0.764919
0.705956
0.660889
0.632066
0.620796
0.627757
0.653115
0.696473
0.755496
0.828135
1
1
1
1
1
1
1
1
1
1
1
1
1
1
1
1
1
1
1
1
1
1
1
1
1
1
1
1
1
1
1
1
1
1
1
1
1
1
1
1
1
1
1
1
0.994408
1
1
1
1
1
1
1
0.999989
0.999694
0.996938
0.984761
0.954072
0.902138
0.836091
0.767712
0.706787
0.659097
0.627643
0.613386
0.616837
0.638777
0.678792
0.735656
0.803383
0.877699
1
1
1
1
1
1
1
1
1
1
1
1
1
1
1
1
1
1
1
1
1
1
1
1
1
1
1
1
1
1
1
1
1
1
1
1
1
1
1
1
1
1
1
1
0.976526
1
1
1
1
1
1
1
0.999992
0.999754
0.997339
0.986213
0.956988
0.906082
0.840143
0.770767
0.70802
0.658108
0.623886
0.606584
0.606789
0.625045
0.661554
0.715318
0.782793
0.853897
0.921713
1
1
1
1
1
1
1
1
1
1
1
1
1
1
1
1
1
1
1
1
1
1
1
1
1
1
1
1
1
1
1
1
1
1
1
1
1
1
1
1
1
1
1
1
0.925399
1
1
1
1
1
1
1
0.999994
0.999801
0.997719
0.987575
0.959788
0.910079
0.844354
0.774193
0.709825
0.657626
0.620701
0.600483
0.597438
0.612196
0.645087
0.695562
0.760934
0.834076
0.901447
0.955538
1
1
1
1
1
1
1
1
1
1
1
1
1
1
1
1
1
1
1
1
1
1
1
1
1
1
1
1
1
1
1
1
1
1
1
1
1
1
1
1
1
1
1
1
0.821922
1
1
1
1
1
1
1
0.999996
0.999842
0.998061
0.988828
0.962552
0.914121
0.848751
0.777813
0.711953
0.657629
0.618288
0.595128
0.58885
0.600047
0.629148
0.676251
0.739193
0.812153
0.884138
0.940593
0.977792
1
1
1
1
1
1
1
1
1
1
1
1
1
1
1
1
1
1
1
1
1
1
1
1
1
1
1
1
1
1
1
1
1
1
1
1
1
1
1
1
1
1
1
1
0.659135
1
1
1
1
1
1
1
0.999997
0.999876
0.998353
0.990002
0.965228
0.918164
0.85323
0.781727
0.714433
0.658174
0.616419
0.59046
0.581103
0.58873
0.614111
0.657341
0.7175
0.789706
0.864125
0.927338
0.9684
0.990221
1
1
1
1
1
1
1
1
1
1
1
1
1
1
1
1
1
1
1
1
1
1
1
1
1
1
1
1
1
1
1
1
1
1
1
1
1
1
1
1
1
1
1
1
0.462561
1
1
1
1
1
1
1
0.999998
0.999903
0.998605
0.991084
0.967804
0.922156
0.85786
0.785842
0.717179
0.659181
0.61511
0.586517
0.574025
0.578326
0.599895
0.639343
0.696104
0.766751
0.842817
0.911063
0.959647
0.985202
0.996129
1
1
1
1
1
1
1
1
1
1
1
1
1
1
1
1
1
1
1
1
1
1
1
1
1
1
1
1
1
1
1
1
1
1
1
1
1
1
1
1
1
1
1
1
0.309145
1
1
1
1
1
1
1
0.999999
0.999924
0.998822
0.992069
0.970251
0.926155
0.862521
0.790145
0.720322
0.660519
0.614307
0.583282
0.567879
0.568648
0.586628
0.622109
0.675172
0.743605
0.82029
0.89294
0.948145
0.980276
0.99383
0.998577
1
1
1
1
1
1
1
1
1
1
1
1
1
1
1
1
1
1
1
1
1
1
1
1
1
1
1
1
1
1
1
1
1
1
1
1
1
1
1
1
1
1
1
1
0.33147
1
1
1
1
1
1
1
0.999999
0.999941
0.999008
0.992957
0.972576
0.93005
0.867302
0.794675
0.723636
0.662166
0.614082
0.580652
0.562511
0.560144
0.57424
0.60568
0.654961
0.720514
0.796869
0.872892
0.934681
0.973383
0.991476
0.99765
0.999493
1
1
1
1
1
1
1
1
1
1
1
1
1
1
1
1
1
1
1
1
1
1
1
1
1
1
1
1
1
1
1
1
1
1
1
1
1
1
1
1
1
1
1
1
0.284555
1
1
1
1
1
1
1
0.999999
0.999956
0.999166
0.993761
0.974753
0.933842
0.87208
0.799377
0.727379
0.66423
0.614137
0.578521
0.557847
0.552368
0.562854
0.590431
0.635514
0.697705
0.772759
0.851139
0.918916
0.964765
0.987962
0.996674
0.999151
0.999817
1
1
1
1
1
1
1
1
1
1
1
1
1
1
1
1
1
1
1
1
1
1
1
1
1
1
1
1
1
1
1
1
1
1
1
1
1
1
1
1
1
1
1
1
0.516847
1
1
1
1
1
1
1
1
0.999962
0.999322
0.994465
0.976804
0.937537
0.876817
0.804149
0.731258
0.666581
0.614612
0.57691
0.55372
0.545395
0.552564
0.576001
0.617115
0.675476
0.748437
0.827989
0.900952
0.954072
0.983289
0.995132
0.998788
0.999696
0.999931
1
1
1
1
1
1
1
1
1
1
1
1
1
1
1
1
1
1
1
1
1
1
1
1
1
1
1
1
1
1
1
1
1
1
1
1
1
1
1
1
1
1
1
1
0.528895
1
1
1
1
1
1
1
1
0.999974
0.99939
0.995172
0.978672
0.94107
0.881559
0.809023
0.735257
0.669244
0.615432
0.575673
0.550283
0.539301
0.543165
0.562869
0.599594
0.653956
0.724016
0.80373
0.880863
0.941163
0.977104
0.992968
0.998194
0.999571
0.999888
0.999972
1
1
1
1
1
1
1
1
1
1
1
1
1
1
1
1
1
1
1
1
1
1
1
1
1
1
1
1
1
1
1
1
1
1
1
1
1
1
1
1
1
1
1
1
0.712651
1
1
1
1
1
1
1
1
0.999977
0.999512
0.995544
0.980424
0.944378
0.886055
0.813911
0.739508
0.672093
0.616614
0.574909
0.54737
0.533805
0.534727
0.550803
0.583301
0.633418
0.699965
0.778638
0.85879
0.925772
0.969125
0.989931
0.997318
0.99936
0.999846
0.999957
0.999988
1
1
1
1
1
1
1
1
1
1
1
1
1
1
1
1
1
1
1
1
1
1
1
1
1
1
1
1
1
1
1
1
1
1
1
1
1
1
1
1
1
1
1
1
0.79311
1
1
1
1
1
1
1
1
0.999982
0.999559
0.99606
0.981582
0.947265
0.890441
0.81854
0.743813
0.675158
0.618111
0.574449
0.544772
0.529008
0.527094
0.539692
0.568285
0.613875
0.676655
0.753211
0.835142
0.90802
0.959066
0.985757
0.996034
0.999043
0.999775
0.999942
0.999982
0.999995
1
1
1
1
1
1
1
1
1
1
1
1
1
1
1
1
1
1
1
1
1
1
1
1
1
1
1
1
1
1
1
1
1
1
1
1
1
1
1
1
1
1
1
1
0.825342
1
1
1
1
1
1
1
1
0.999986
0.999618
0.996403
0.982813
0.949656
0.893991
0.823242
0.747824
0.678444
0.619758
0.57443
0.542702
0.524607
0.520048
0.529626
0.554274
0.595571
0.654053
0.727919
0.81021
0.887932
0.946668
0.980156
0.994173
0.99856
0.999667
0.999919
0.999977
0.999992
0.999998
1
1
1
1
1
1
1
1
1
1
1
1
1
1
1
1
1
1
1
1
1
1
1
1
1
1
1
1
1
1
1
1
1
1
1
1
1
1
1
1
1
1
1
1
0.833364
1
1
1
1
1
1
1
1
0.999989
0.999676
0.996698
0.984086
0.951556
0.897591
0.826754
0.752005
0.681283
0.621596
0.574598
0.541045
0.520793
0.513834
0.52037
0.541494
0.578555
0.632547
0.702952
0.78446
0.865741
0.931724
0.972756
0.991507
0.997834
0.9995
0.999883
0.999969
0.999991
0.999997
0.999999
1
1
1
1
1
1
1
1
1
1
1
1
1
1
1
1
1
1
1
1
1
1
1
1
1
1
1
1
1
1
1
1
1
1
1
1
1
1
1
1
1
1
1
1
0.816824
1
1
1
1
1
1
1
1
0.999991
0.999716
0.99702
0.984859
0.954497
0.899766
0.830949
0.754888
0.684448
0.623196
0.574938
0.539698
0.517372
0.508013
0.511892
0.529637
0.562665
0.61229
0.678701
0.758321
0.841752
0.914224
0.963258
0.987777
0.996745
0.999245
0.999828
0.999957
0.999988
0.999996
0.999999
1
1
1
1
1
1
1
1
1
1
1
1
1
1
1
1
1
1
1
1
1
1
1
1
1
1
1
1
1
1
1
1
1
1
1
1
1
1
1
1
1
1
0.929443
1
1
0.766495
1
1
1
1
1
1
1
1
0.999993
0.999745
0.997299
0.98585
0.955802
0.904542
0.833033
0.758971
0.686263
0.625066
0.57518
0.538539
0.514386
0.50274
0.504
0.518689
0.547884
0.593227
0.655349
0.732233
0.816466
0.894266
0.951372
0.982657
0.99514
0.998851
0.999744
0.99994
0.999984
0.999995
0.999998
0.999999
1
1
1
1
1
1
1
1
1
1
1
1
1
1
1
1
1
1
1
1
1
1
1
1
1
1
1
1
1
1
1
1
1
1
1
1
1
1
1
1
1
1
0.989067
1
1
0.669717
1
1
1
1
1
1
1
1
0.999994
0.999775
0.997465
0.986806
0.95777
0.906188
0.839111
0.760655
0.689616
0.625567
0.575575
0.53727
0.511717
0.498049
0.496805
0.508557
0.534221
0.575393
0.633125
0.706573
0.79021
0.872141
0.936883
0.975796
0.992794
0.998247
0.999613
0.999913
0.999978
0.999994
0.999998
0.999999
1
1
1
1
1
1
1
1
1
1
1
1
1
1
1
1
1
1
1
1
1
1
1
1
1
1
1
1
1
1
1
1
1
1
1
1
1
1
1
1
1
1
1
0.992121
1
1
0.5528
1
1
1
1
1
1
1
1
0.999995
0.999803
0.99765
0.987279
0.959808
0.909075
0.840727
0.767154
0.690841
0.62781
0.574804
0.536207
0.508994
0.493866
0.490336
0.499294
0.521649
0.558717
0.612094
0.681538
0.763596
0.848104
0.919767
0.966846
0.989441
0.997324
0.999408
0.999871
0.999969
0.999992
0.999998
0.999999
1
1
1
1
1
1
1
1
1
1
1
1
1
1
1
1
1
1
1
1
1
1
1
1
1
1
1
1
1
1
1
1
1
1
1
1
1
1
1
1
1
1
1
1
0.99581
1
1
0.435781
1
1
1
1
1
1
1
1
0.999996
0.999828
0.997831
0.987842
0.960626
0.912226
0.844234
0.768562
0.696811
0.628439
0.575775
0.534164
0.506533
0.489719
0.484338
0.49063
0.509897
0.543325
0.592306
0.657622
0.737032
0.8226
0.900173
0.955492
0.98477
0.99593
0.999086
0.999806
0.999957
0.999989
0.999997
0.999999
1
1
1
1
1
1
1
1
1
1
1
1
1
1
1
1
1
1
1
1
1
1
1
1
1
1
1
1
1
1
1
1
1
1
1
1
1
1
1
1
1
1
1
1
1
1
1
1
0.356004
1
1
1
1
1
1
1
1
0.999997
0.999852
0.998006
0.988398
0.961619
0.91316
0.848104
0.772204
0.697935
0.633429
0.575568
0.533668
0.503151
0.485799
0.478648
0.4828
0.49904
0.528828
0.573684
0.634754
0.710871
0.796194
0.878231
0.94158
0.978417
0.993864
0.998584
0.999704
0.999937
0.999985
0.999996
0.999999
1
1
1
1
1
1
1
1
1
1
1
1
1
1
1
1
1
1
1
1
1
1
1
1
1
1
1
1
1
1
1
1
1
1
1
1
1
1
1
1
1
1
1
1
1
1
1
1
1
0.286401
1
1
1
1
1
1
1
1
0.999998
0.999874
0.998174
0.988948
0.962593
0.914315
0.848807
0.776326
0.701361
0.634116
0.57931
0.53267
0.501219
0.481134
0.473353
0.475478
0.489131
0.515629
0.556429
0.613087
0.685473
0.769278
0.85426
0.924976
0.970019
0.990869
0.997803
0.999541
0.999906
0.999979
0.999995
0.999999
1
1
1
1
1
1
1
1
1
1
1
1
1
1
1
1
1
1
1
1
1
1
1
1
1
1
1
1
1
1
1
1
1
1
1
1
1
1
1
1
1
1
1
1
1
1
1
1
1
1
0.187884
1
1
1
1
1
1
1
1
0.999999
0.999893
0.998332
0.989485
0.96354
0.915377
0.849774
0.776681
0.705377
0.63722
0.57949
0.534953
0.499229
0.477671
0.467291
0.468582
0.479975
0.503288
0.540399
0.592736
0.661001
0.742471
0.828887
0.905797
0.959289
0.986625
0.996605
0.999282
0.999858
0.99997
0.999993
0.999998
1
1
1
1
1
1
1
1
1
1
1
1
1
1
1
1
1
1
1
1
1
1
1
1
1
1
1
1
1
1
1
1
1
1
1
1
1
1
1
1
1
1
1
1
1
1
1
1
1
1
1
0.000874437
1
1
1
1
1
1
1
1
0.999999
0.99991
0.998473
0.990008
0.964481
0.916374
0.850467
0.777126
0.705371
0.640909
0.58212
0.534558
0.500011
0.474432
0.462281
0.461155
0.471335
0.492028
0.52555
0.573775
0.637693
0.716058
0.802557
0.884288
0.946022
0.980795
0.994805
0.99887
0.99978
0.999956
0.999991
0.999998
0.999999
1
1
1
1
1
1
1
1
1
1
1
1
1
1
1
1
1
1
1
1
1
1
1
1
1
1
1
1
1
1
1
1
1
1
1
1
1
1
1
1
1
1
1
1
1
1
1
1
1
1
1
0.30595
1
1
1
1
1
1
1
1
1
0.999924
0.998602
0.990506
0.965436
0.917341
0.850976
0.777127
0.705203
0.640358
0.585304
0.536527
0.498902
0.473947
0.457661
0.454542
0.462425
0.481619
0.512028
0.55626
0.61583
0.690542
0.775809
0.860802
0.930083
0.973003
0.992152
0.998219
0.999654
0.999935
0.999987
0.999997
0.999999
1
1
1
1
1
1
1
1
1
1
1
1
1
1
1
1
1
1
1
1
1
1
1
1
1
1
1
1
1
1
1
1
1
1
1
1
1
1
1
1
1
1
1
1
1
1
1
1
1
1
1
1
0.65648
1
1
1
1
1
1
1
1
1
0.999937
0.998728
0.991006
0.966401
0.918356
0.851402
0.776806
0.704437
0.639732
0.584399
0.539267
0.500322
0.471949
0.455831
0.448497
0.454132
0.471093
0.499503
0.540177
0.595479
0.666051
0.749226
0.835921
0.911582
0.962978
0.988343
0.997207
0.99945
0.9999
0.999981
0.999996
0.999999
1
1
1
1
1
1
1
1
1
1
1
1
1
1
1
1
1
1
1
1
1
1
1
1
1
1
1
1
1
1
1
1
1
1
1
1
1
1
1
1
1
1
1
1
1
1
1
1
1
1
1
1
1
0.890476
1
1
1
1
1
1
1
1
1
0.999948
0.998848
0.991509
0.967438
0.919493
0.851876
0.776268
0.703181
0.638309
0.583302
0.538119
0.502455
0.472608
0.452925
0.445087
0.446503
0.461107
0.487291
0.525438
0.576591
0.643036
0.723086
0.810134
0.8909
0.950487
0.983069
0.995662
0.99912
0.999842
0.999972
0.999995
0.999999
1
1
1
1
1
1
1
1
1
1
1
1
1
1
1
1
1
1
1
1
1
1
1
1
1
1
1
1
1
1
1
1
1
1
1
1
1
1
1
1
1
1
1
1
1
1
1
1
1
1
1
1
1
1
0.977217
1
1
1
1
1
1
1
1
1
0.999958
0.998965
0.992023
0.968544
0.920791
0.852568
0.775718
0.701535
0.636063
0.581271
0.536475
0.50093
0.474008
0.452622
0.440995
0.441589
0.451457
0.475342
0.511133
0.559513
0.621656
0.698073
0.784136
0.868383
0.935537
0.976005
0.993361
0.998593
0.999749
0.999957
0.999992
0.999999
1
1
1
1
1
1
1
1
1
1
0.999844
1
1
1
1
1
1
1
1
1
1
1
1
1
1
1
1
1
1
1
1
1
1
1
1
1
1
1
1
1
1
1
1
1
1
1
1
1
1
1
1
1
1
1
1
0.99654
1
1
1
1
1
1
1
1
1
0.999967
0.999078
0.99254
0.969726
0.922317
0.853585
0.775418
0.699736
0.633396
0.578386
0.534046
0.49897
0.472192
0.453449
0.439855
0.43615
0.445054
0.463523
0.497202
0.543103
0.602027
0.674593
0.758413
0.844625
0.918241
0.966859
0.990047
0.997761
0.999594
0.999933
0.999989
0.999998
1
1
1
1
1
1
1
1
1
1
0.999895
0.901023
1
1
1
1
1
1
1
1
1
1
1
1
1
1
1
1
1
1
1
1
1
1
1
1
1
1
1
1
1
1
1
1
1
1
1
1
1
1
1
1
1
1
1
1
0.999585
1
1
1
1
1
1
1
1
1
0.999974
0.999186
0.993061
0.970949
0.924026
0.854958
0.775626
0.698286
0.630488
0.574797
0.530558
0.496159
0.470014
0.451189
0.439994
0.43389
0.438053
0.455467
0.483033
0.526984
0.583491
0.652852
0.733702
0.820233
0.898963
0.955533
0.985429
0.996483
0.999342
0.999894
0.999983
0.999997
1
1
1
1
1
1
1
1
1
1
0.999913
0.912664
0.145774
1
1
1
1
1
1
1
1
1
1
1
1
1
1
1
1
1
1
1
1
1
1
1
1
1
1
1
1
1
1
1
1
1
1
1
1
1
1
1
1
0.997193
1
1
1
0.999956
1
1
1
1
1
1
1
1
1
0.999982
0.999289
0.99357
0.972201
0.925868
0.856643
0.776299
0.697306
0.627809
0.570866
0.526188
0.492087
0.46667
0.448551
0.437099
0.433148
0.434482
0.44654
0.47319
0.510291
0.565185
0.632196
0.710537
0.79601
0.878133
0.942008
0.979254
0.994577
0.998935
0.999828
0.999974
0.999996
0.999999
1
1
1
1
1
1
1
1
1
0.999932
0.9177
0.152391
1
1
1
1
1
1
1
1
1
1
1
1
1
1
1
1
1
1
1
1
1
1
1
1
1
1
1
1
1
1
1
1
1
1
1
1
1
1
1
1
1
1
1
1
0.999996
1
1
1
1
1
1
1
1
1
0.999988
0.999382
0.994049
0.973448
0.927785
0.858605
0.77738
0.69688
0.625534
0.566943
0.521367
0.487102
0.462253
0.444809
0.433911
0.429654
0.432735
0.441603
0.462253
0.498647
0.545962
0.61196
0.688368
0.772565
0.856511
0.926526
0.971331
0.991829
0.998293
0.99972
0.99996
0.999994
0.999999
1
1
1
1
1
1
1
1
1
0.999946
0.923609
0.155304
1
1
1
1
1
1
1
1
1
1
1
1
1
1
1
1
1
1
1
1
1
1
1
1
1
1
1
1
1
1
1
1
1
1
1
1
1
1
1
1
1
1
1
1
1
1
1
1
1
1
1
1
1
1
0.999991
0.999464
0.994478
0.97462
0.929692
0.860681
0.778907
0.697076
0.623982
0.563497
0.516411
0.481468
0.456703
0.43997
0.429918
0.425889
0.428505
0.438724
0.455597
0.485316
0.532272
0.590014
0.666659
0.750122
0.834901
0.909518
0.961587
0.988037
0.997305
0.999541
0.999935
0.999991
0.999999
1
1
1
1
1
1
1
1
1
0.999957
0.928975
0.159105
1
1
1
1
1
1
1
1
1
1
1
1
1
1
1
1
1
1
1
1
1
1
1
1
1
1
1
1
1
1
1
1
1
1
1
1
1
1
1
1
1
1
1
1
1
1
1
1
1
1
1
1
1
1
0.999994
0.999535
0.994876
0.975701
0.931497
0.862767
0.780605
0.697788
0.623143
0.560784
0.511845
0.475598
0.45023
0.433837
0.424482
0.421282
0.424053
0.433645
0.451355
0.476713
0.516286
0.574302
0.642509
0.727778
0.813631
0.891733
0.95017
0.982995
0.995841
0.999254
0.999894
0.999987
0.999998
1
1
1
1
1
1
1
1
1
0.999965
0.933944
0.162788
1
1
1
1
1
1
1
1
1
1
1
1
1
1
1
1
1
1
1
1
1
1
1
1
1
1
1
1
1
1
1
1
1
1
1
1
1
1
1
1
1
1
1
1
1
1
1
1
1
1
1
1
1
1
0.999996
0.999596
0.995242
0.976721
0.933162
0.86475
0.782345
0.698787
0.62285
0.558823
0.507976
0.469983
0.443488
0.426723
0.417835
0.415334
0.418683
0.428104
0.445078
0.470984
0.505377
0.555914
0.624988
0.702302
0.792025
0.873536
0.937473
0.976648
0.993751
0.998803
0.999825
0.999979
0.999998
1
1
1
1
1
1
1
1
1
0.999972
0.938501
0.166446
1
1
1
1
1
1
1
1
1
1
1
1
1
1
1
1
1
1
1
1
1
1
1
1
1
1
1
1
1
1
1
1
1
1
1
1
1
1
1
1
1
1
1
1
1
1
1
1
1
1
1
1
1
1
0.999997
0.999648
0.995566
0.977655
0.934727
0.866535
0.783968
0.699862
0.622968
0.557576
0.504978
0.465111
0.436963
0.419125
0.41011
0.408049
0.412178
0.422005
0.438553
0.463317
0.498039
0.542371
0.604056
0.683492
0.766739
0.854577
0.923978
0.969129
0.990924
0.998119
0.999714
0.999965
0.999996
1
1
1
1
1
1
1
1
1
0.999977
0.942669
0.170037
1
1
1
1
1
1
1
1
1
1
1
1
1
1
1
1
1
1
1
1
1
1
1
1
1
1
1
1
1
1
1
1
1
1
1
1
1
1
1
1
1
1
1
1
1
1
1
1
1
1
1
1
1
1
0.999998
0.999692
0.99585
0.978488
0.936116
0.868155
0.785415
0.700909
0.623355
0.556875
0.502787
0.461089
0.431007
0.411632
0.4017
0.399622
0.404178
0.414772
0.431326
0.455511
0.488827
0.533045
0.58789
0.660604
0.747719
0.831515
0.909353
0.960655
0.987313
0.997127
0.999538
0.999943
0.999994
0.999999
1
1
1
1
1
1
1
1
0.999982
0.946457
0.173549
1
1
1
1
1
1
1
1
1
1
1
1
1
1
1
1
1
1
1
1
1
1
1
1
1
1
1
1
1
1
1
1
1
1
1
1
1
1
1
1
1
1
1
1
1
1
1
1
1
1
1
1
1
1
0.999999
0.99973
0.996098
0.979214
0.937339
0.869523
0.786622
0.701747
0.623715
0.55659
0.501345
0.457998
0.426049
0.404773
0.393193
0.390431
0.395012
0.406008
0.423145
0.447057
0.47929
0.522147
0.576652
0.641957
0.724023
0.813817
0.890623
0.951125
0.983005
0.995765
0.999268
0.999908
0.999991
0.999999
1
1
1
1
1
1
1
1
0.999985
0.94988
0.17696
1
1
1
1
1
1
1
1
1
1
1
1
1
1
1
1
1
1
1
1
1
1
1
1
1
1
1
1
1
1
1
1
1
1
1
1
1
1
1
1
1
1
1
0.99999
1
1
1
1
1
1
1
1
1
1
0.999999
0.999762
0.996314
0.979839
0.938335
0.870615
0.787485
0.702275
0.623879
0.556268
0.500321
0.455797
0.422102
0.398781
0.385338
0.381014
0.384825
0.395891
0.413514
0.437623
0.469569
0.510867
0.563863
0.628907
0.703568
0.790867
0.875741
0.938073
0.977922
0.994043
0.998874
0.999851
0.999985
0.999999
1
1
1
1
1
1
1
1
0.999987
0.952945
0.180244
1
1
1
1
1
1
1
1
1
1
1
1
1
1
1
1
1
1
1
1
1
1
1
1
1
1
1
1
1
1
1
1
1
1
1
1
1
1
1
1
1
1
1
0.995002
1
1
1
1
1
1
1
1
1
1
1
0.999791
0.99651
0.980389
0.939147
0.871351
0.787935
0.702425
0.623711
0.555857
0.49947
0.454079
0.419072
0.393934
0.378356
0.371973
0.37443
0.384776
0.402332
0.426896
0.458762
0.499487
0.550757
0.614284
0.689017
0.769948
0.855861
0.927322
0.970463
0.991913
0.998346
0.999765
0.999976
0.999998
1
1
1
1
1
1
1
1
0.999989
0.955672
0.183374
1
1
1
1
1
1
1
1
1
1
1
1
1
1
1
1
1
1
1
1
1
1
1
1
1
1
1
1
1
1
1
1
1
1
1
1
1
1
1
1
1
1
1
0.101113
1
1
1
1
1
1
1
1
1
1
1
0.999817
0.996694
0.980887
0.939825
0.871832
0.788024
0.70201
0.623102
0.555062
0.498565
0.452705
0.41681
0.390104
0.372547
0.363987
0.364378
0.373275
0.390209
0.414706
0.446743
0.4871
0.537289
0.599206
0.672887
0.754664
0.83634
0.912343
0.964063
0.988546
0.997671
0.999644
0.999962
0.999997
1
1
1
1
1
1
1
1
0.999991
0.958069
0.186326
1
1
1
1
1
1
1
1
1
1
1
1
1
1
1
1
1
1
1
1
1
1
1
1
1
1
1
1
1
1
1
1
1
1
1
1
1
1
1
1
1
1
1
0.988719
1
1
1
1
1
1
1
1
1
1
1
0.99984
0.996871
0.981366
0.940409
0.872093
0.787683
0.701226
0.62198
0.55385
0.497291
0.45131
0.414943
0.387246
0.368011
0.357245
0.35527
0.362043
0.377539
0.401268
0.4332
0.47357
0.523309
0.583813
0.656046
0.737869
0.821802
0.896433
0.954685
0.985508
0.996512
0.999486
0.999942
0.999995
1
1
1
1
1
1
1
1
0.999992
0.960146
0.189069
1
1
1
1
1
1
1
1
1
1
1
1
1
1
1
1
1
1
1
1
1
1
1
1
1
1
1
1
1
1
1
1
1
1
1
1
1
1
1
1
1
1
1
0.999966
1
1
1
1
1
1
1
1
1
1
1
0.999868
0.997045
0.981846
0.940967
0.8722
0.787073
0.699971
0.620337
0.552077
0.495558
0.449706
0.413177
0.384936
0.36439
0.351797
0.347435
0.351818
0.365094
0.387281
0.418417
0.45851
0.507924
0.567881
0.639095
0.720112
0.805594
0.884151
0.943747
0.980872
0.995427
0.999194
0.999915
0.999993
1
1
1
1
1
1
1
1
0.999993
0.96191
0.191571
1
1
1
1
1
1
1
1
1
1
1
1
1
1
1
1
1
1
1
1
1
1
1
1
1
1
1
1
1
1
1
1
1
1
1
1
1
1
1
1
1
1
1
1
1
1
1
1
1
1
1
1
1
1
1
0.999894
0.997212
0.982311
0.941535
0.872307
0.786258
0.698314
0.618191
0.549679
0.493217
0.447571
0.41116
0.382765
0.361536
0.347463
0.340966
0.342764
0.353499
0.373525
0.403069
0.442244
0.491365
0.550832
0.621307
0.702039
0.788306
0.870308
0.934952
0.974859
0.993687
0.998912
0.999863
0.99999
0.999999
1
1
1
1
1
1
1
0.999993
0.963356
0.193799
1
1
1
1
1
1
1
1
1
1
1
1
1
1
1
1
1
1
1
1
1
1
1
1
1
1
1
1
1
1
1
1
1
1
1
1
1
1
1
1
1
1
1
1
1
1
1
1
1
1
1
1
1
1
1
0.999911
0.99736
0.982704
0.942089
0.872378
0.785413
0.696504
0.615648
0.546799
0.490309
0.444866
0.408723
0.380345
0.358905
0.343986
0.335872
0.335287
0.343229
0.360504
0.387665
0.425176
0.473346
0.532398
0.602635
0.683098
0.770156
0.855048
0.924854
0.969817
0.991192
0.998445
0.999812
0.999983
0.999999
1
1
1
1
1
1
1
0.999994
0.964487
0.195707
1
1
1
1
1
1
1
1
1
1
1
1
1
1
1
1
1
1
1
1
1
1
1
1
1
1
1
1
1
1
1
1
1
1
1
1
1
1
1
1
1
1
0.999985
1
1
1
1
1
1
1
1
1
1
1
1
0.999922
0.997483
0.983035
0.942525
0.872464
0.784544
0.694526
0.612817
0.543517
0.486857
0.441528
0.405653
0.377626
0.356215
0.340952
0.331742
0.329237
0.334599
0.348852
0.373016
0.408072
0.454498
0.512654
0.582503
0.662984
0.751077
0.838594
0.913238
0.963786
0.988967
0.9977
0.999726
0.999977
0.999999
1
1
1
1
1
1
1
0.999994
0.965311
0.197257
1
1
1
1
1
1
1
1
1
1
1
1
1
1
1
1
1
1
1
1
1
1
1
1
1
1
1
1
1
1
1
1
1
1
1
1
1
1
1
1
1
1
0.99995
1
1
1
1
1
1
1
1
1
1
1
1
0.999927
0.997577
0.983332
0.942892
0.872434
0.783659
0.692568
0.609904
0.539925
0.482919
0.437622
0.401906
0.374196
0.353132
0.337914
0.328136
0.324262
0.327362
0.338813
0.359808
0.391653
0.43555
0.491965
0.56099
0.64169
0.73072
0.820963
0.900279
0.956581
0.986221
0.996995
0.999575
0.999967
0.999998
1
1
1
1
1
1
1
0.999994
0.965826
0.198428
1
1
1
1
1
1
1
1
1
1
1
1
1
1
1
1
1
1
1
1
1
1
1
1
1
1
1
1
1
1
1
1
1
1
1
1
1
1
1
1
1
1
0.967046
1
1
1
1
1
1
1
1
1
1
1
1
0.999929
0.997637
0.983569
0.943231
0.872362
0.782718
0.690555
0.60691
0.53613
0.478728
0.43319
0.397589
0.370157
0.34949
0.334419
0.324613
0.320007
0.321524
0.33034
0.348096
0.376604
0.417173
0.470896
0.538302
0.618614
0.708747
0.801842
0.885993
0.948214
0.982778
0.996097
0.999425
0.999947
0.999997
1
1
1
1
1
1
1
0.999994
0.966019
0.199186
1
1
1
1
1
1
1
1
1
1
1
1
1
1
1
1
1
1
1
1
1
1
1
1
1
1
1
1
1
1
1
1
1
1
1
1
1
1
1
1
1
1
1
1
1
1
1
1
1
1
1
1
1
1
1
0.999927
0.997661
0.9837
0.943473
0.872313
0.781852
0.688599
0.603906
0.532356
0.474313
0.428403
0.392703
0.365367
0.34502
0.330406
0.320771
0.315913
0.31641
0.323384
0.338296
0.363233
0.400008
0.450377
0.515207
0.594246
0.685016
0.78073
0.869923
0.93853
0.978575
0.994913
0.999227
0.999927
0.999996
1
1
1
1
1
1
1
0.999994
0.965872
0.1995
1
1
1
1
1
1
1
1
1
1
1
1
1
1
1
1
1
1
1
1
1
1
1
1
1
1
1
1
1
1
1
1
1
1
1
1
1
1
1
1
1
1
1
1
1
1
1
1
1
1
1
1
1
1
1
0.999923
0.99765
0.983712
0.943501
0.872212
0.781103
0.68681
0.601093
0.528589
0.469891
0.423501
0.38756
0.360168
0.339967
0.325597
0.316275
0.31157
0.31165
0.317315
0.329912
0.351629
0.384654
0.430945
0.492408
0.569231
0.659686
0.757732
0.851886
0.927213
0.973446
0.993388
0.998957
0.9999
0.999994
1
1
1
1
1
1
1
0.999993
0.965341
0.199328
1
1
1
1
1
1
1
1
1
1
1
1
1
1
1
1
1
1
1
1
1
1
1
1
1
1
1
1
1
1
1
1
1
1
1
1
1
1
1
1
1
1
1
1
1
1
1
1
1
1
1
1
1
1
1
0.999917
0.997596
0.983582
0.943263
0.871815
0.780318
0.685237
0.598393
0.524966
0.465451
0.41849
0.38212
0.354568
0.33435
0.320104
0.311102
0.306651
0.306646
0.311691
0.322721
0.341723
0.371074
0.413146
0.470539
0.544083
0.63325
0.73283
0.831592
0.914011
0.967157
0.991417
0.998589
0.999862
0.999992
1
1
1
1
1
1
1
0.999993
0.964443
0.198614
1
1
1
1
1
1
1
1
1
1
1
1
1
1
1
1
1
1
1
1
1
1
1
1
1
1
1
1
1
1
1
1
1
1
1
1
1
1
1
1
1
1
1
1
1
1
1
1
1
1
1
1
1
1
1
0.999907
0.997498
0.983262
0.942715
0.871044
0.779267
0.683686
0.596008
0.521624
0.4612
0.413504
0.376628
0.348696
0.328171
0.314025
0.305135
0.300984
0.301226
0.305922
0.316024
0.333077
0.359241
0.39736
0.45005
0.519676
0.606206
0.706147
0.808993
0.898575
0.959428
0.988869
0.998088
0.999809
0.999989
1
1
1
1
1
1
1
0.999992
0.963136
0.197397
1
1
1
1
1
1
1
1
1
1
1
1
1
1
1
1
1
1
1
1
1
1
1
1
1
1
1
1
1
1
1
1
1
1
1
1
1
1
1
1
1
1
1
1
1
1
1
1
1
1
1
1
1
1
1
0.999893
0.997354
0.982744
0.941723
0.869816
0.777843
0.681963
0.593804
0.518538
0.457272
0.408719
0.371204
0.342709
0.321927
0.307457
0.298556
0.294496
0.294964
0.29973
0.309376
0.325056
0.348847
0.383311
0.431474
0.496536
0.579523
0.678426
0.784209
0.880714
0.949949
0.985549
0.997399
0.999732
0.999985
1
1
1
1
1
1
1
0.99999
0.96134
0.195652
1
1
1
1
1
1
1
1
1
1
1
1
1
1
1
1
1
1
1
1
1
1
1
1
1
1
1
1
1
1
1
1
1
1
1
1
1
1
1
1
1
1
1
1
1
1
1
1
1
1
1
1
1
1
1
0.999872
0.997164
0.982035
0.94026
0.867915
0.77591
0.67993
0.591483
0.515738
0.45366
0.404281
0.365911
0.336853
0.315506
0.300677
0.291575
0.287353
0.287818
0.292705
0.302232
0.3173
0.339234
0.370758
0.414882
0.475015
0.553697
0.650167
0.757524
0.860272
0.938422
0.981212
0.996446
0.999621
0.999979
0.999999
1
1
1
1
1
1
0.999989
0.959576
0.193275
1
1
1
1
1
1
1
1
1
1
1
1
1
1
1
1
1
1
1
1
1
1
1
1
1
1
1
1
1
1
1
1
1
1
1
1
1
1
1
1
1
1
1
1
1
1
1
1
1
1
1
1
1
1
1
0.999851
0.996925
0.981156
0.938391
0.865313
0.773202
0.67743
0.588941
0.512919
0.450335
0.400222
0.361035
0.331186
0.309133
0.293796
0.284189
0.279727
0.279997
0.284956
0.294425
0.309054
0.330021
0.35925
0.399974
0.45544
0.529272
0.622038
0.729487
0.837427
0.924505
0.975602
0.995118
0.999458
0.999969
0.999999
1
1
1
1
1
1
0.999986
0.957501
0.191131
1
1
1
1
1
1
1
1
1
1
1
1
1
1
1
1
1
1
1
1
1
1
1
1
1
1
1
1
1
1
1
1
1
1
1
1
1
1
1
1
1
1
1
1
1
1
1
1
1
1
1
1
1
1
1
0.999822
0.99663
0.980102
0.936164
0.862115
0.769684
0.674174
0.586014
0.50996
0.447077
0.396433
0.356514
0.32581
0.302985
0.28691
0.2767
0.27178
0.271722
0.276379
0.285786
0.300134
0.320433
0.34819
0.386154
0.437526
0.506423
0.594939
0.700768
0.812237
0.908069
0.968406
0.993273
0.999216
0.999955