/*--------------------------------*- C++ -*----------------------------------*\
| =========                 |                                                 |
| \\      /  F ield         | OpenFOAM: The Open Source CFD Toolbox           |
|  \\    /   O peration     | Version:  v2012                                 |
|   \\  /    A nd           | Website:  www.openfoam.com                      |
|    \\/     M anipulation  |                                                 |
\*---------------------------------------------------------------------------*/
FoamFile
{
    version     2.0;
    format      ascii;
    class       volScalarField;
    location    "600";
    object      rho;
}
// * * * * * * * * * * * * * * * * * * * * * * * * * * * * * * * * * * * * * //

dimensions      [1 -3 0 0 0 0 0];


internalField   nonuniform List<scalar> 
27324
(
0.985795
1.00723
0.996221
1.01949
1.01831
1.01422
1.03373
1.03108
1.03744
1.0378
1.04823
1.04591
1.05095
1.06219
1.06219
1.06389
1.06096
1.06653
1.07632
1.08719
1.08228
1.08041
1.07718
1.08231
1.09254
1.10158
1.10751
1.09703
1.0976
1.09429
1.09937
1.10899
1.1181
1.1221
1.12235
1.10725
1.11468
1.11205
1.11742
1.12679
1.13494
1.13889
1.13697
1.13273
1.11433
1.13112
1.12972
1.13617
1.14557
1.15313
1.15587
1.15379
1.14752
1.13981
1.11934
1.14744
1.14685
1.15487
1.16503
1.17234
1.17409
1.17082
1.16454
1.15459
1.14469
1.12127
1.16396
1.16382
1.17296
1.18445
1.19216
1.19325
1.18915
1.18168
1.17166
1.15947
1.14671
1.12168
1.18182
1.18106
1.19087
1.20326
1.21191
1.213
1.20841
1.19996
1.18878
1.17649
1.16166
1.14714
1.12115
1.20105
1.1998
1.20912
1.22196
1.23107
1.23284
1.22825
1.21905
1.20693
1.19355
1.17891
1.16216
1.14662
1.12003
1.22076
1.22006
1.22902
1.24108
1.25009
1.25232
1.2483
1.23867
1.22582
1.21159
1.19607
1.1795
1.16175
1.14552
1.11894
1.24018
1.24065
1.25023
1.26188
1.26965
1.27189
1.268
1.25856
1.24522
1.2303
1.21392
1.19665
1.17927
1.16084
1.14454
1.11763
1.2599
1.26104
1.27201
1.28376
1.29079
1.29198
1.28769
1.2782
1.26499
1.24947
1.23225
1.21425
1.19652
1.17854
1.16
1.14328
1.11596
1.28073
1.28167
1.29353
1.3063
1.31316
1.31347
1.30784
1.2979
1.28475
1.2692
1.25104
1.23223
1.21398
1.19592
1.17786
1.15878
1.14187
1.11458
1.30341
1.30353
1.31509
1.32826
1.33614
1.33602
1.32922
1.31808
1.30463
1.28915
1.27035
1.25082
1.23169
1.21333
1.19544
1.17673
1.15746
1.14082
1.11318
1.32769
1.32735
1.33807
1.35064
1.35848
1.35879
1.35144
1.33934
1.32506
1.3093
1.29015
1.27008
1.25002
1.23085
1.2129
1.19435
1.17545
1.15646
1.1397
1.11114
1.35256
1.35306
1.36334
1.37449
1.38141
1.38101
1.37412
1.36146
1.34642
1.32982
1.31034
1.2902
1.26909
1.24895
1.23029
1.21191
1.19307
1.17437
1.1553
1.13793
1.10794
1.37756
1.37944
1.39054
1.4011
1.40573
1.40369
1.3963
1.38419
1.36864
1.35083
1.33093
1.31074
1.28928
1.26793
1.24815
1.22933
1.2108
1.19198
1.17308
1.15348
1.13496
1.10391
1.40298
1.40589
1.41841
1.4293
1.43269
1.42797
1.41911
1.40676
1.39156
1.37243
1.35165
1.33141
1.31002
1.28813
1.26701
1.24705
1.22857
1.20987
1.19062
1.17117
1.15055
1.13109
1.09919
1.43035
1.43278
1.4461
1.45814
1.46092
1.45476
1.44354
1.42997
1.41447
1.39472
1.37281
1.35177
1.33074
1.30911
1.2871
1.2657
1.24642
1.22797
1.20862
1.18861
1.16827
1.14691
1.12588
1.09608
1.46275
1.46168
1.47437
1.48637
1.48972
1.48288
1.47035
1.45462
1.43777
1.41744
1.39477
1.37246
1.35085
1.32994
1.30806
1.28543
1.26482
1.24621
1.22692
1.20659
1.18571
1.1649
1.14185
1.12031
1.10473
1.49845
1.49578
1.50465
1.51544
1.518
1.51177
1.49865
1.48144
1.46229
1.44069
1.41784
1.39415
1.37106
1.35002
1.32895
1.30591
1.28397
1.26445
1.24542
1.22493
1.20359
1.18257
1.16011
1.13616
1.11742
1.12986
1.53376
1.53354
1.54041
1.54665
1.54745
1.54051
1.5277
1.50944
1.4886
1.46508
1.44168
1.41765
1.39247
1.36997
1.34921
1.32683
1.30386
1.28301
1.26373
1.24353
1.22182
1.2006
1.17822
1.15436
1.1317
1.13279
1.21701
1.56161
1.57126
1.5799
1.58329
1.5795
1.57076
1.55696
1.53835
1.51612
1.49094
1.46645
1.44221
1.41624
1.39127
1.36936
1.34764
1.32478
1.30232
1.28198
1.26228
1.24055
1.21898
1.19676
1.17276
1.14899
1.14009
1.17313
1.39986
1.58496
1.60127
1.61929
1.62391
1.6168
1.60365
1.58765
1.56745
1.54421
1.51795
1.492
1.46737
1.4415
1.41535
1.39062
1.36863
1.34654
1.323
1.30097
1.28114
1.25992
1.23794
1.21571
1.19193
1.16695
1.14891
1.1684
1.30317
1.69087
1.60238
1.62617
1.65053
1.66451
1.6582
1.64121
1.62067
1.59791
1.57285
1.54572
1.51858
1.49247
1.46713
1.44129
1.41451
1.39016
1.36877
1.34544
1.32139
1.30055
1.28
1.25783
1.23517
1.21156
1.18535
1.16239
1.17279
1.26098
1.60364
1.77741
1.60066
1.64484
1.67653
1.69733
1.69996
1.68252
1.6572
1.63092
1.60337
1.57483
1.54618
1.51847
1.49205
1.46739
1.44033
1.41333
1.39112
1.36894
1.34371
1.32084
1.3005
1.27855
1.25526
1.23142
1.20449
1.17889
1.18176
1.22744
1.52849
1.67235
1.48423
1.43062
1.64632
1.69639
1.72407
1.73285
1.72339
1.69694
1.66691
1.63687
1.60594
1.57563
1.54599
1.51738
1.49232
1.46656
1.43832
1.41375
1.39234
1.36751
1.3423
1.32109
1.2998
1.2758
1.25112
1.22477
1.19705
1.19335
1.20769
1.43442
1.56797
1.36743
1.28735
1.02634
1.46134
1.6932
1.74279
1.75839
1.75583
1.73687
1.706
1.67289
1.63984
1.60741
1.57582
1.54473
1.5172
1.49189
1.46437
1.43724
1.41449
1.39165
1.3651
1.34163
1.32127
1.29638
1.27133
1.24589
1.21866
1.20903
1.19711
1.32839
1.43576
1.30926
1.24601
1.25027
0.697425
1.04557
1.50122
1.73304
1.77567
1.78044
1.76961
1.74594
1.71164
1.67517
1.64198
1.60871
1.57478
1.54414
1.51666
1.49079
1.46257
1.43659
1.41466
1.38903
1.36276
1.34235
1.31747
1.29302
1.26797
1.24569
1.22085
1.18576
1.20974
1.29612
1.25277
1.23206
1.24326
1.26482
0.607299
0.707596
1.06872
1.53914
1.76193
1.79729
1.79434
1.78003
1.75118
1.71249
1.67705
1.6441
1.60821
1.57437
1.54313
1.51694
1.48985
1.46068
1.43681
1.41364
1.38561
1.36297
1.3406
1.31565
1.29362
1.27134
1.22474
1.16177
1.08986
1.15646
1.20445
1.22097
1.24017
1.26263
1.27781
0.599052
0.614863
0.720716
1.09307
1.55828
1.77584
1.81078
1.80481
1.78606
1.75099
1.71311
1.6792
1.64367
1.60799
1.57311
1.54396
1.5183
1.48836
1.45944
1.43803
1.41078
1.38472
1.36531
1.34014
1.32324
1.28636
1.21808
1.11134
0.973957
1.02568
1.16108
1.21287
1.23648
1.26054
1.28082
1.29433
0.600667
0.606146
0.623825
0.73934
1.11364
1.5555
1.781
1.8192
1.81
1.78671
1.75039
1.7141
1.67836
1.64338
1.60623
1.57363
1.54651
1.51839
1.48611
1.46189
1.43866
1.41009
1.39055
1.3718
1.34444
1.28967
1.18315
1.02655
0.879684
0.923649
1.11893
1.20409
1.23276
1.25747
1.28177
1.30192
1.31896
0.605066
0.607979
0.614541
0.635536
0.762789
1.1271
1.52988
1.76926
1.81936
1.80884
1.78633
1.74998
1.71133
1.67805
1.6412
1.60588
1.57539
1.54868
1.51769
1.48694
1.46892
1.43793
1.42024
1.39847
1.34926
1.26563
1.11415
0.932897
0.819791
0.852147
1.06905
1.19392
1.22841
1.2541
1.28202
1.30613
1.33057
1.3504
0.607985
0.612397
0.61646
0.625472
0.650315
0.790342
1.13237
1.48618
1.7347
1.80936
1.80684
1.7853
1.74473
1.70985
1.67657
1.64047
1.60639
1.57846
1.55175
1.51753
1.4967
1.47348
1.44566
1.40619
1.33458
1.20822
1.01104
0.860215
0.791673
0.809202
1.00992
1.17709
1.2229
1.25045
1.28118
1.31071
1.33723
1.36581
1.38439
0.60979
0.615401
0.620606
0.627177
0.638776
0.667801
0.821765
1.13198
1.42257
1.67314
1.78916
1.80076
1.77706
1.73999
1.70882
1.67657
1.63982
1.60918
1.58437
1.55119
1.52304
1.50418
1.45118
1.40065
1.278
1.0926
0.921354
0.823809
0.78237
0.788146
0.945392
1.15291
1.21591
1.24663
1.28002
1.31484
1.34479
1.3745
1.40343
1.41776
0.610704
0.617368
0.623628
0.631156
0.639979
0.65372
0.685618
0.857745
1.12803
1.3425
1.57807
1.73951
1.77925
1.76233
1.7292
1.70606
1.6722
1.63847
1.60917
1.58325
1.53973
1.51045
1.43372
1.33137
1.15299
0.983041
0.872519
0.813787
0.78083
0.780429
0.884063
1.1176
1.20678
1.24266
1.27855
1.31852
1.3521
1.38426
1.41419
1.44012
1.44912
0.611311
0.618502
0.625674
0.634268
0.644357
0.65392
0.667294
0.70406
0.901257
1.12441
1.25933
1.44641
1.62744
1.71723
1.73011
1.70812
1.68915
1.65721
1.6223
1.59233
1.53975
1.47726
1.3531
1.18675
1.02656
0.918133
0.857905
0.813503
0.783281
0.778884
0.835064
1.06978
1.19423
1.23833
1.2772
1.32159
1.35935
1.3937
1.42623
1.45288
1.47421
1.47818
0.611475
0.619263
0.626703
0.636256
0.647567
0.65877
0.666835
0.67839
0.726741
0.952742
1.12305
1.19502
1.29886
1.44651
1.56118
1.6135
1.62641
1.6364
1.56405
1.5405
1.44168
1.32386
1.17701
1.04851
0.95405
0.897086
0.85649
0.820979
0.789706
0.779447
0.802662
1.01095
1.17671
1.23328
1.2763
1.3238
1.36634
1.40319
1.43782
1.46717
1.48869
1.5056
1.50404
0.611471
0.61949
0.627291
0.637197
0.649635
0.661946
0.671959
0.677754
0.687783
0.757069
1.01099
1.12867
1.16254
1.19724
1.25699
1.32961
1.37779
1.39122
1.3581
1.31459
1.22793
1.13734
1.04731
0.979893
0.932118
0.894964
0.863461
0.829695
0.798405
0.780425
0.785562
0.947073
1.15227
1.22692
1.27599
1.32535
1.37295
1.41267
1.44944
1.48092
1.50496
1.52153
1.53361
1.51907
0.611624
0.61968
0.627448
0.637594
0.650546
0.664009
0.675057
0.682348
0.685416
0.697313
0.800595
1.06935
1.1417
1.15676
1.15908
1.16335
1.16913
1.16694
1.15468
1.12691
1.08533
1.04023
0.998306
0.964564
0.931108
0.902457
0.871287
0.840651
0.807313
0.782059
0.778442
0.886805
1.11899
1.21851
1.276
1.3263
1.37905
1.42214
1.46104
1.49463
1.52069
1.5395
1.55083
1.55176
1.51709
0.611616
0.619993
0.627763
0.63795
0.650916
0.664823
0.677066
0.685295
0.689354
0.69214
0.708361
0.862399
1.11945
1.15481
1.16074
1.15304
1.13571
1.11201
1.09141
1.07224
1.04853
1.02175
0.993912
0.969562
0.940173
0.911049
0.882191
0.850705
0.816471
0.785922
0.776335
0.837962
1.07571
1.20701
1.2767
1.32695
1.38452
1.43153
1.47266
1.50822
1.5364
1.55695
1.5703
1.57098
1.55318
1.48866
0.611507
0.620018
0.627963
0.638336
0.651471
0.665421
0.677992
0.687179
0.692205
0.694863
0.697424
0.727131
0.940178
1.15955
1.17114
1.16855
1.15401
1.12613
1.09793
1.07445
1.05357
1.03001
1.00467
0.977351
0.950469
0.922485
0.892219
0.86013
0.825536
0.791277
0.775817
0.804431
1.02312
1.19169
1.27696
1.32763
1.38939
1.44076
1.4843
1.52175
1.55194
1.57446
1.58927
1.59266
1.57426
1.52719
1.44534
0.611175
0.619996
0.627998
0.638596
0.651718
0.665867
0.678568
0.687809
0.694218
0.697176
0.698838
0.703146
0.760239
1.02351
1.17926
1.18005
1.17062
1.14943
1.11852
1.09085
1.06623
1.04212
1.01713
0.990696
0.962541
0.932874
0.901857
0.869139
0.834411
0.798457
0.775998
0.785232
0.965834
1.17211
1.27391
1.32897
1.39365
1.44968
1.49594
1.53528
1.56734
1.59185
1.60836
1.61377
1.59808
1.54999
1.48353
1.39913
0.610654
0.619768
0.628028
0.638736
0.651908
0.66596
0.678795
0.687966
0.695123
0.698784
0.701114
0.702348
0.709174
0.820407
1.09083
1.18149
1.17676
1.16533
1.13751
1.10732
1.08105
1.05577
1.02973
1.00211
0.97329
0.943022
0.911242
0.878081
0.843266
0.80653
0.778317
0.776357
0.9108
1.14401
1.26712
1.33157
1.39754
1.45816
1.50749
1.54886
1.58264
1.60911
1.6274
1.63502
1.62133
1.57584
1.50638
1.43553
1.35643
0.610091
0.619184
0.627707
0.638836
0.652209
0.666163
0.678833
0.687977
0.695492
0.699421
0.702999
0.703858
0.704586
0.721738
0.912582
1.12956
1.17307
1.17398
1.15448
1.12381
1.09477
1.06823
1.0417
1.01349
0.983872
0.953025
0.920788
0.887142
0.852134
0.815201
0.782908
0.773154
0.864552
1.10729
1.25818
1.33581
1.40125
1.46608
1.51888
1.56251
1.59788
1.62622
1.64637
1.65621
1.64475
1.60122
1.53236
1.45754
1.39062
1.31899
0.609878
0.618744
0.627092
0.638425
0.652245
0.666548
0.678978
0.687949
0.695363
0.69948
0.703973
0.705369
0.705414
0.706522
0.754116
1.0239
1.15944
1.17647
1.16849
1.14195
1.10974
1.08077
1.05356
1.025
0.994849
0.963385
0.930586
0.896416
0.861089
0.824114
0.789445
0.772107
0.831286
1.06264
1.2453
1.34024
1.40491
1.47334
1.53
1.57621
1.61314
1.64316
1.66525
1.67732
1.66811
1.62694
1.55803
1.48252
1.4115
1.35103
1.28714
0.609984
0.618561
0.626609
0.637894
0.651845
0.666542
0.679062
0.688187
0.695126
0.698959
0.704268
0.706165
0.706542
0.705826
0.710988
0.826092
1.11902
1.17698
1.1776
1.15965
1.12681
1.09445
1.06593
1.03693
1.00622
0.974094
0.940703
0.905914
0.870135
0.833175
0.79735
0.771993
0.811714
1.01302
1.22773
1.34408
1.40869
1.48003
1.54078
1.5899
1.62848
1.65996
1.68398
1.69831
1.69141
1.65274
1.58419
1.50727
1.43508
1.37084
1.31727
1.2606
0.610473
0.618829
0.62641
0.637409
0.65137
0.666418
0.679003
0.688743
0.695093
0.698807
0.703959
0.70636
0.707701
0.70617
0.706627
0.725757
0.941111
1.16897
1.18092
1.1719
1.14493
1.10955
1.07893
1.0493
1.01804
0.985138
0.951065
0.91563
0.879323
0.842398
0.80615
0.777353
0.802968
0.963738
1.20535
1.3455
1.41303
1.48636
1.55117
1.60346
1.64394
1.67668
1.70251
1.71915
1.71459
1.67863
1.61061
1.53255
1.45847
1.39304
1.33612
1.28914
1.23871
0.610761
0.619739
0.626736
0.637213
0.650844
0.666207
0.678929
0.689446
0.695074
0.699086
0.703673
0.706282
0.708114
0.707478
0.706279
0.70738
0.775382
1.05775
1.1771
1.17621
1.16158
1.12652
1.09282
1.06203
1.0302
0.996517
0.961691
0.92558
0.888702
0.85178
0.815717
0.784384
0.800216
0.920802
1.17576
1.34074
1.41846
1.4926
1.56114
1.61677
1.65949
1.69341
1.72082
1.73977
1.73763
1.70454
1.63731
1.55817
1.48235
1.41507
1.35709
1.30717
1.26598
1.22071
0.610706
0.620323
0.627611
0.63759
0.650585
0.665786
0.678688
0.689777
0.69521
0.699941
0.703772
0.70621
0.708108
0.708302
0.707179
0.705962
0.714843
0.88362
1.13281
1.17573
1.1732
1.14523
1.10815
1.0752
1.04267
1.00825
0.972597
0.935788
0.898329
0.86139
0.825886
0.794483
0.799699
0.888664
1.13749
1.33139
1.42569
1.49902
1.57064
1.62971
1.67506
1.71026
1.73894
1.76011
1.76053
1.7304
1.66421
1.58413
1.50653
1.43751
1.37788
1.32712
1.28337
1.247
1.20586
0.610087
0.620475
0.628185
0.638384
0.650597
0.665532
0.678187
0.689747
0.695324
0.700998
0.704488
0.706749
0.708047
0.708592
0.708338
0.705968
0.705925
0.749716
1.02731
1.16678
1.17833
1.16333
1.12533
1.08906
1.05542
1.02036
0.983831
0.946272
0.908259
0.871293
0.836585
0.806222
0.802638
0.868984
1.09355
1.31888
1.43371
1.50573
1.57969
1.6422
1.69051
1.72727
1.75694
1.7801
1.7833
1.75612
1.69124
1.61036
1.53103
1.4602
1.39902
1.34687
1.30248
1.26388
1.23142
1.19351
0.609071
0.620124
0.628478
0.639075
0.651231
0.665506
0.678068
0.689101
0.695273
0.701781
0.705276
0.707856
0.708308
0.708768
0.70919
0.707526
0.705235
0.710158
0.851949
1.13328
1.17973
1.17599
1.14401
1.10401
1.06847
1.03286
0.995448
0.95706
0.918531
0.881607
0.847845
0.818829
0.807239
0.860046
1.0481
1.30181
1.44021
1.5127
1.58835
1.65426
1.70571
1.74444
1.77493
1.79974
1.80594
1.78162
1.7183
1.63679
1.55577
1.48314
1.42034
1.36691
1.32139
1.28233
1.24789
1.21854
1.18312
0.608444
0.619281
0.628096
0.639543
0.651855
0.665872
0.678335
0.688259
0.694657
0.70206
0.705873
0.709175
0.709016
0.709286
0.709764
0.709173
0.706335
0.705504
0.739585
1.00578
1.17349
1.18047
1.16219
1.12062
1.08203
1.04574
1.00751
0.968181
0.929194
0.892416
0.859732
0.832515
0.817749
0.857911
1.00703
1.28006
1.4437
1.52016
1.59685
1.66596
1.72052
1.76166
1.79302
1.8191
1.82831
1.80679
1.74529
1.66333
1.58071
1.50626
1.44185
1.38708
1.34055
1.30059
1.26585
1.2347
1.20777
1.17427
0.608365
0.61871
0.627223
0.639009
0.651958
0.666195
0.678653
0.687791
0.694146
0.70186
0.706131
0.710178
0.710186
0.710199
0.710377
0.710346
0.708237
0.705445
0.709085
0.842395
1.12308
1.18068
1.17581
1.13914
1.09652
1.05898
1.02006
0.979676
0.940301
0.903796
0.872403
0.847141
0.830841
0.857826
0.975309
1.25072
1.44192
1.52871
1.60551
1.67737
1.73487
1.77876
1.81126
1.83825
1.85018
1.83159
1.77212
1.68988
1.60577
1.52952
1.46348
1.40739
1.3598
1.31905
1.2836
1.25227
1.2237
1.19865
1.16661
0.608651
0.618627
0.626607
0.638015
0.651505
0.666285
0.67903
0.687736
0.694015
0.700727
0.705923
0.71057
0.711034
0.711336
0.711078
0.71111
0.710044
0.707098
0.705788
0.7383
1.01237
1.17085
1.18171
1.15835
1.11257
1.0726
1.03311
0.991616
0.951892
0.915845
0.885965
0.862645
0.846316
0.862339
0.955809
1.21347
1.43254
1.53889
1.61452
1.68853
1.74873
1.79556
1.82961
1.85732
1.87153
1.85598
1.7987
1.71638
1.63089
1.55286
1.48521
1.42777
1.37914
1.33759
1.30153
1.26963
1.24096
1.21439
1.1908
1.15986
0.608969
0.619024
0.626394
0.6372
0.650661
0.665827
0.679202
0.688055
0.694076
0.699786
0.705309
0.710149
0.71137
0.712251
0.711785
0.711669
0.711043
0.709012
0.705805
0.708751
0.853292
1.13467
1.18245
1.17449
1.13072
1.0868
1.04657
1.00412
0.963991
0.928718
0.900438
0.879091
0.863238
0.868846
0.947313
1.17183
1.42225
1.54957
1.62389
1.69943
1.76215
1.81188
1.84795
1.87643
1.89237
1.87986
1.825
1.74274
1.65599
1.57623
1.50696
1.4482
1.39853
1.35618
1.31951
1.28715
1.25804
1.23144
1.20641
1.18392
1.15381
0.608647
0.619268
0.626677
0.636795
0.650001
0.665023
0.678964
0.688618
0.694721
0.699314
0.704678
0.708928
0.711059
0.712783
0.712437
0.712046
0.711394
0.710308
0.706773
0.70509
0.746057
1.03076
1.17683
1.18301
1.15073
1.10204
1.06034
1.0173
0.976637
0.94257
0.91587
0.896583
0.881509
0.880974
0.945407
1.13045
1.40765
1.55798
1.63341
1.71015
1.77524
1.82764
1.86605
1.89563
1.91283
1.90311
1.85093
1.76891
1.68102
1.59956
1.52869
1.46862
1.41793
1.3748
1.33753
1.30471
1.27525
1.24829
1.22329
1.19943
1.17778
1.14826
0.608017
0.619077
0.626625
0.636775
0.649732
0.664532
0.678645
0.688869
0.695201
0.699341
0.704432
0.707698
0.710288
0.712898
0.712891
0.712323
0.711422
0.710753
0.708573
0.704965
0.710492
0.881511
1.14798
1.18458
1.17013
1.11897
1.07441
1.03123
0.990003
0.957363
0.932339
0.915134
0.900953
0.896267
0.94819
1.09642
1.3894
1.56228
1.64322
1.72088
1.7881
1.84282
1.88368
1.91484
1.93309
1.92569
1.87641
1.79485
1.70591
1.62279
1.55035
1.48899
1.4373
1.39341
1.35556
1.32231
1.2925
1.26528
1.23998
1.2162
1.19323
1.17219
1.14308
0.607638
0.618492
0.626158
0.636743
0.650079
0.664519
0.678441
0.688744
0.695289
0.699903
0.704996
0.706922
0.709395
0.712178
0.712976
0.71277
0.711412
0.710758
0.70984
0.70576
0.70473
0.763485
1.06735
1.18395
1.18392
1.13813
1.089
1.04581
1.00441
0.973034
0.950151
0.934737
0.921489
0.914975
0.953153
1.07371
1.36117
1.56033
1.65398
1.73191
1.8008
1.85743
1.90067
1.93389
1.95332
1.9477
1.90128
1.82052
1.73059
1.64585
1.57186
1.50926
1.45659
1.41197
1.37357
1.33989
1.30977
1.28229
1.2568
1.23277
1.20991
1.1876
1.167
1.13814
0.607527
0.618194
0.625419
0.636438
0.650579
0.665207
0.678551
0.688181
0.694836
0.700419
0.705765
0.706614
0.708851
0.711405
0.712768
0.713203
0.711893
0.71072
0.710411
0.707526
0.704323
0.714547
0.933033
1.1656
1.18902
1.1589
1.10461
1.06086
1.0202
0.989593
0.969369
0.955372
0.943286
0.935498
0.960067
1.06232
1.32611
1.55509
1.66632
1.74334
1.81331
1.8715
1.91691
1.95253
1.97358
1.96932
1.92541
1.84583
1.75504
1.66866
1.59315
1.52934
1.47576
1.43043
1.39151
1.35745
1.32702
1.29931
1.27364
1.24947
1.22641
1.20424
1.18239
1.16207
1.13333
0.607635
0.618288
0.625029
0.635869
0.650691
0.666233
0.679009
0.687857
0.693898
0.700846
0.706278
0.707292
0.708896
0.710719
0.712577
0.713379
0.712696
0.711187
0.710609
0.709245
0.704829
0.704187
0.801553
1.10998
1.18982
1.17798
1.12201
1.07645
1.03723
1.00722
0.989937
0.977211
0.966383
0.957933
0.972963
1.05949
1.28749
1.54804
1.67789
1.75489
1.8255
1.88511
1.93244
1.97055
1.99376
1.99082
1.94878
1.87058
1.77919
1.69114
1.61412
1.54916
1.49471
1.44875
1.40936
1.37494
1.34424
1.31632
1.29048
1.26618
1.24302
1.22068
1.199
1.17747
1.15731
1.12855
0.607544
0.618622
0.625207
0.635732
0.650598
0.666671
0.67954
0.687654
0.693344
0.70077
0.706377
0.708066
0.709662
0.710548
0.711802
0.71344
0.713559
0.711886
0.710774
0.710198
0.707031
0.703465
0.729377
1.00004
1.1829
1.19002
1.14184
1.09285
1.05544
1.02662
1.01179
1.00043
0.990867
0.98212
0.989466
1.06369
1.25102
1.53778
1.68644
1.76608
1.83739
1.89833
1.94736
1.98782
2.01363
2.0123
1.97152
1.8945
1.80289
1.71322
1.63463
1.56859
1.51335
1.46686
1.42708
1.39235
1.3614
1.3333
1.30732
1.2829
1.25965
1.23724
1.21543
1.19409
1.17273
1.1526
1.12371
0.607581
0.618855
0.625771
0.636102
0.650716
0.666494
0.679487
0.687412
0.693266
0.700536
0.705706
0.70835
0.710476
0.710762
0.711225
0.71308
0.713951
0.712872
0.711044
0.710606
0.709208
0.703867
0.706406
0.865007
1.15157
1.19383
1.16368
1.11068
1.07471
1.04783
1.03482
1.02521
1.01685
1.00787
1.00975
1.07067
1.22245
1.52189
1.69035
1.77715
1.84918
1.91129
1.96178
2.00434
2.03289
2.03366
1.99381
1.91735
1.82583
1.73478
1.65452
1.58744
1.53163
1.48475
1.44466
1.40964
1.37847
1.35021
1.32412
1.29959
1.27628
1.25381
1.23196
1.21051
1.18937
1.16807
1.14787
1.11872
0.60789
0.619439
0.62612
0.636722
0.651035
0.666041
0.678664
0.686989
0.693701
0.700683
0.704725
0.708132
0.710879
0.71118
0.711141
0.712272
0.71404
0.713537
0.711709
0.710818
0.710331
0.705229
0.702414
0.763553
1.07429
1.1945
1.18437
1.13073
1.09495
1.07095
1.05932
1.05164
1.04434
1.03508
1.03324
1.07997
1.2033
1.49563
1.69043
1.78867
1.86111
1.92408
1.97579
2.02012
2.05121
2.05452
2.01569
1.93915
1.84766
1.75568
1.67358
1.60567
1.54949
1.50229
1.46178
1.4264
1.39513
1.36685
1.34073
1.3162
1.29291
1.27039
1.24851
1.22704
1.20581
1.18475
1.1634
1.14304
1.11351
0.608043
0.620133
0.626469
0.637103
0.65121
0.6658
0.677644
0.686253
0.694189
0.701188
0.704044
0.707487
0.710651
0.711639
0.711134
0.711529
0.713013
0.713701
0.712716
0.710926
0.710634
0.707608
0.702107
0.716193
0.956659
1.18056
1.19852
1.15331
1.11645
1.09593
1.08552
1.07982
1.07343
1.0638
1.05876
1.09091
1.19411
1.46393
1.68852
1.80066
1.87311
1.93664
1.98937
2.03518
2.06831
2.07435
2.03685
1.96005
1.86805
1.77553
1.69182
1.62324
1.56676
1.51903
1.47813
1.44297
1.41186
1.38354
1.35737
1.33281
1.30943
1.28691
1.26505
1.24358
1.22237
1.20124
1.18015
1.15865
1.13801
1.10799
0.607364
0.620376
0.626684
0.637075
0.650642
0.665367
0.676854
0.685446
0.694453
0.701441
0.703783
0.706883
0.709878
0.711725
0.711856
0.711226
0.711832
0.713243
0.713576
0.711193
0.710534
0.709235
0.702858
0.70239
0.836242
1.13726
1.20435
1.17851
1.14013
1.12268
1.11375
1.10986
1.10421
1.09406
1.08621
1.10664
1.19315
1.42891
1.68572
1.81043
1.88476
1.94891
2.00243
2.04941
2.08394
2.09248
2.05681
1.97996
1.8869
1.79372
1.70921
1.64001
1.58301
1.53464
1.4942
1.45935
1.4282
1.39993
1.3738
1.34926
1.32591
1.30343
1.28157
1.26013
1.23893
1.21783
1.19671
1.17549
1.15372
1.13271
1.10209
0.606569
0.619446
0.626423
0.636782
0.649704
0.664633
0.676372
0.685243
0.694379
0.70137
0.703902
0.706748
0.708979
0.711503
0.712391
0.711559
0.711041
0.71249
0.713864
0.711927
0.710425
0.709927
0.705987
0.700441
0.753082
1.05237
1.20563
1.20502
1.16621
1.15111
1.1443
1.14188
1.13671
1.12591
1.11553
1.12628
1.20268
1.39543
1.67943
1.81652
1.89564
1.96086
2.01488
2.06249
2.09781
2.10822
2.07491
1.99841
1.90422
1.80985
1.72542
1.65564
1.59765
1.54963
1.50986
1.47505
1.4441
1.41602
1.39003
1.36558
1.34229
1.31986
1.29804
1.27664
1.25549
1.23443
1.21336
1.19213
1.17068
1.14856
1.12708
1.09573
0.606648
0.61845
0.625088
0.636192
0.649048
0.663906
0.675886
0.685574
0.694529
0.700662
0.70386
0.706992
0.70868
0.710868
0.712429
0.712315
0.710836
0.711547
0.713922
0.712977
0.710447
0.710183
0.709063
0.700355
0.713094
0.944099
1.18123
1.22848
1.19511
1.18163
1.17732
1.17592
1.17097
1.15942
1.14656
1.14925
1.21272
1.36702
1.66208
1.81852
1.9062
1.97254
2.02639
2.07386
2.10948
2.12112
2.09039
2.01493
1.91983
1.82407
1.7399
1.66967
1.61108
1.56413
1.5245
1.49002
1.45947
1.4317
1.40594
1.38168
1.35852
1.33618
1.31444
1.2931
1.27201
1.25103
1.23002
1.20887
1.18743
1.16566
1.14307
1.12102
1.08885
0.60669
0.618799
0.624099
0.635023
0.648703
0.663573
0.675575
0.685947
0.695008
0.699853
0.703299
0.707274
0.7089
0.710336
0.712212
0.712761
0.71161
0.711093
0.71304
0.713498
0.711592
0.710367
0.710818
0.70211
0.699692
0.837646
1.14224
1.24422
1.22686
1.21462
1.21303
1.21214
1.20703
1.19467
1.17917
1.17521
1.2259
1.34612
1.63824
1.82042
1.91689
1.98362
2.03639
2.08288
2.1185
2.13102
2.10257
2.02916
1.93329
1.83669
1.75196
1.68096
1.6233
1.57732
1.53807
1.5042
1.47417
1.44682
1.42144
1.39746
1.37452
1.35235
1.33072
1.30949
1.28849
1.26759
1.24667
1.22561
1.20428
1.18254
1.16034
1.13719
1.11449
1.08142
0.606269
0.619497
0.624788
0.634487
0.648421
0.66389
0.675737
0.686608
0.695357
0.699336
0.702763
0.707258
0.709622
0.710308
0.711033
0.712727
0.712856
0.711211
0.711727
0.71354
0.713069
0.710424
0.711275
0.705395
0.697017
0.763867
1.06267
1.24678
1.26185
1.25067
1.25154
1.25067
1.24494
1.23169
1.21324
1.20378
1.23993
1.33394
1.60841
1.82156
1.92563
1.993
2.04408
2.08896
2.12459
2.13799
2.11132
2.04055
1.94463
1.84762
1.76196
1.68991
1.63432
1.58887
1.55041
1.51738
1.48801
1.46127
1.43639
1.41284
1.39023
1.3683
1.34686
1.32577
1.30489
1.28411
1.26329
1.24234
1.22112
1.19952
1.17739
1.15466
1.13085
1.10742
1.07342
0.609977
0.61927
0.625852
0.63584
0.648462
0.66416
0.676643
0.687425
0.695405
0.69931
0.702745
0.706864
0.709891
0.710821
0.710536
0.711866
0.713538
0.711829
0.710771
0.712782
0.714651
0.710907
0.710948
0.709005
0.696529
0.724464
0.97038
1.22589
1.30009
1.29024
1.29298
1.29164
1.28478
1.27047
1.24881
1.2335
1.25483
1.32932
1.57613
1.81997
1.93095
1.99925
2.04879
2.092
2.12792
2.14221
2.11712
2.04853
1.95422
1.85643
1.77055
1.69669
1.64292
1.59866
1.56126
1.52927
1.50085
1.4749
1.45069
1.42768
1.40553
1.38395
1.36278
1.3419
1.32118
1.30054
1.27986
1.25904
1.23795
1.21649
1.19452
1.17189
1.14855
1.124
1.0998
1.06486
0.617758
0.622616
0.625898
0.637625
0.650116
0.664349
0.677295
0.68871
0.695189
0.699098
0.703523
0.706837
0.709718
0.711135
0.710501
0.710887
0.713597
0.712859
0.710524
0.711539
0.715295
0.711841
0.709818
0.710803
0.698134
0.710319
0.879123
1.1871
1.33479
1.33268
1.33743
1.33516
1.32663
1.31095
1.28583
1.26452
1.27423
1.33601
1.54352
1.80906
1.93255
2.00192
2.05049
2.09277
2.12907
2.14409
2.12047
2.05355
1.96128
1.86371
1.77671
1.70238
1.64849
1.60643
1.57055
1.53965
1.5124
1.48751
1.46416
1.44187
1.4203
1.3992
1.37841
1.35781
1.33732
1.31686
1.29635
1.27568
1.25475
1.23345
1.21164
1.18921
1.16599
1.14194
1.11659
1.09161
1.05577
0.617938
0.631356
0.629185
0.637992
0.652088
0.665881
0.677444
0.689484
0.694932
0.698724
0.704141
0.707473
0.70917
0.710881
0.711416
0.710669
0.712266
0.713274
0.711202
0.710504
0.715382
0.713372
0.708955
0.711348
0.706643
0.707882
0.813192
1.12973
1.35567
1.37778
1.38487
1.38136
1.37066
1.35299
1.32419
1.29677
1.29627
1.34521
1.51259
1.79203
1.92938
2.0024
2.05108
2.09289
2.12907
2.14438
2.12151
2.05536
1.96472
1.86977
1.77985
1.70688
1.65192
1.61111
1.5779
1.54846
1.52247
1.49885
1.47663
1.45525
1.43442
1.41393
1.39364
1.37343
1.35325
1.33303
1.31272
1.29223
1.27148
1.25036
1.22875
1.20652
1.18353
1.15963
1.1348
1.10863
1.08289
1.04625
0.628912
0.636794
0.638284
0.640462
0.652404
0.667782
0.678079
0.688795
0.694712
0.698866
0.704349
0.708272
0.709177
0.709991
0.711683
0.711366
0.710931
0.712855
0.712993
0.710326
0.713325
0.71413
0.708767
0.711133
0.715537
0.707986
0.776664
1.052
1.35875
1.42613
1.43579
1.43041
1.41699
1.39643
1.36376
1.33018
1.32034
1.35702
1.4844
1.76633
1.92092
1.99694
2.04746
2.08782
2.12304
2.13967
2.11849
2.0556
1.9652
1.87269
1.78262
1.70725
1.65691
1.61217
1.58225
1.55534
1.53099
1.50871
1.48783
1.46762
1.44774
1.42802
1.40835
1.38866
1.36888
1.34899
1.32894
1.30867
1.28813
1.26721
1.24581
1.2238
1.20104
1.1774
1.15275
1.12711
1.10012
1.07369
1.03636
1.26034
0.730455
0.643541
0.650382
0.653439
0.668093
0.679653
0.687903
0.693456
0.699563
0.704435
0.708424
0.709759
0.709608
0.711091
0.71237
0.710714
0.711801
0.714412
0.711105
0.71092
0.714333
0.71207
0.710837
0.723876
0.713837
0.763129
0.975822
1.33006
1.47798
1.49014
1.48238
1.46565
1.44123
1.40445
1.36471
1.34579
1.3698
1.46077
1.73341
1.90727
1.9884
2.04087
2.08141
2.11617
2.1335
2.11395
2.05204
1.96356
1.87082
1.78483
1.70727
1.65453
1.61764
1.58162
1.55959
1.53756
1.51701
1.49756
1.47874
1.46006
1.44131
1.42243
1.40338
1.38413
1.36465
1.34494
1.32496
1.30465
1.28397
1.2628
1.24102
1.21852
1.19515
1.17078
1.14532
1.11886
1.09111
1.06409
1.02621
1.24202
1.27162
0.771149
0.658965
0.664106
0.667164
0.680497
0.688429
0.692159
0.69992
0.705077
0.70775
0.709938
0.710119
0.710122
0.712541
0.711897
0.710687
0.714643
0.71252
0.709085
0.713445
0.715989
0.712939
0.731116
0.726122
0.761608
0.918328
1.29145
1.52423
1.5467
1.53725
1.51667
1.48733
1.4464
1.40025
1.37187
1.38201
1.44188
1.69433
1.88823
1.97603
2.03165
2.07343
2.10789
2.12581
2.10815
2.04746
1.96006
1.86825
1.7803
1.71098
1.65248
1.61409
1.58748
1.5583
1.54167
1.5234
1.50571
1.48839
1.47113
1.4536
1.43571
1.41746
1.39887
1.37993
1.36065
1.34103
1.32103
1.3006
1.27969
1.25819
1.23595
1.21286
1.18879
1.16363
1.13734
1.1101
1.08166
1.05418
1.01588
1.24032
1.24951
1.29061
0.835235
0.67867
0.67843
0.678095
0.689529
0.694359
0.699273
0.705655
0.70776
0.708953
0.71111
0.710021
0.711732
0.713363
0.710642
0.712241
0.713942
0.708569
0.712082
0.721338
0.716067
0.73863
0.742007
0.772194
0.890198
1.24004
1.55416
1.60411
1.59495
1.57024
1.5347
1.48929
1.43626
1.39758
1.3922
1.42749
1.65086
1.86371
1.96059
2.02031
2.06444
2.09897
2.11725
2.1012
2.04165
1.95584
1.86383
1.77601
1.70532
1.65512
1.61101
1.58324
1.56389
1.54021
1.52742
1.51199
1.49645
1.48074
1.46465
1.448
1.43075
1.41297
1.3947
1.37598
1.3568
1.33718
1.31708
1.29646
1.27524
1.2533
1.23052
1.20676
1.18191
1.15593
1.12883
1.10087
1.07188
1.04403
1.00544
1.23969
1.24782
1.2657
1.30839
0.906236
0.709517
0.692205
0.686507
0.697373
0.70099
0.704782
0.708802
0.70848
0.71126
0.711766
0.710644
0.713658
0.712301
0.70983
0.714109
0.712391
0.71136
0.727176
0.722332
0.747933
0.761882
0.792192
0.884748
1.17629
1.56258
1.6624
1.65544
1.62668
1.58318
1.53272
1.47182
1.42146
1.39946
1.41722
1.60555
1.83411
1.94237
2.00666
2.05445
2.08957
2.10793
2.09314
2.03538
1.95086
1.85864
1.77051
1.69977
1.6481
1.61344
1.57951
1.55958
1.54542
1.52604
1.51596
1.50268
1.48875
1.47425
1.45906
1.44306
1.42629
1.40885
1.3908
1.37219
1.35303
1.33333
1.31306
1.29216
1.27055
1.24809
1.22467
1.20016
1.1745
1.14769
1.11985
1.09127
1.06183
1.03374
0.994963
1.23878
1.24729
1.26461
1.28812
1.33201
0.977228
0.751753
0.706893
0.696789
0.705442
0.704059
0.709227
0.710118
0.709836
0.712834
0.710906
0.711878
0.713885
0.709113
0.712349
0.717948
0.712238
0.732636
0.732492
0.761376
0.78573
0.820221
0.896781
1.11972
1.54499
1.72057
1.71824
1.68615
1.63263
1.57577
1.50599
1.44251
1.40413
1.41065
1.5611
1.7999
1.92198
1.99106
2.04333
2.07973
2.09802
2.08415
2.02835
1.94493
1.85273
1.76471
1.69306
1.64136
1.60588
1.58154
1.55545
1.5412
1.53078
1.51474
1.50661
1.49496