/*--------------------------------*- C++ -*----------------------------------*\
| =========                 |                                                 |
| \\      /  F ield         | OpenFOAM: The Open Source CFD Toolbox           |
|  \\    /   O peration     | Version:  v2012                                 |
|   \\  /    A nd           | Website:  www.openfoam.com                      |
|    \\/     M anipulation  |                                                 |
\*---------------------------------------------------------------------------*/
FoamFile
{
    version     2.0;
    format      ascii;
    class       volScalarField::Internal;
    location    "0";
    object      Rstream;
}
// * * * * * * * * * * * * * * * * * * * * * * * * * * * * * * * * * * * * * //

dimensions      [0 0 -1 0 0 0 0];


value           nonuniform List<scalar> 
27324
(
-2.40713e-09
-7.70841e-10
-2.1159e-09
-1.52908e-09
6.39006e-10
9.12745e-10
-8.06619e-10
-2.32578e-11
-7.34413e-11
7.97362e-10
-1.71958e-09
1.35742e-09
-5.65598e-10
-6.02209e-10
-1.42443e-09
-9.54586e-10
1.8123e-11
-6.42161e-10
4.92287e-10
-4.86905e-10
6.26595e-10
-1.9186e-09
7.80835e-10
-6.24025e-10
-5.78487e-10
9.32696e-10
3.73713e-10
1.09672e-09
-9.57155e-10
9.45579e-13
-6.04433e-11
5.95679e-10
-4.33016e-10
4.26992e-10
-3.7816e-10
-4.37317e-10
-1.68396e-09
7.64662e-10
-6.50091e-10
-5.9406e-10
5.6845e-10
3.90781e-10
1.66484e-12
3.34316e-10
3.65398e-10
-1.46875e-09
-1.12024e-12
-2.4965e-11
7.0273e-10
-5.06309e-10
6.13485e-11
-3.85532e-10
-2.72701e-10
4.72819e-10
-2.30553e-10
-6.7537e-10
2.34227e-11
-6.32787e-10
-5.83373e-10
5.8164e-10
4.19397e-10
-1.16996e-11
3.33805e-10
2.34112e-10
2.53553e-10
-2.65379e-10
-1.41698e-09
6.08796e-10
-6.13185e-10
5.84626e-10
-4.74514e-10
-1.67679e-12
-4.16189e-10
-2.99574e-10
4.72206e-10
2.7203e-10
-2.26545e-10
1.34788e-12
-8.17448e-10
-2.8518e-12
-9.05318e-11
4.89598e-10
1.01408e-09
3.59011e-10
1.24088e-12
3.357e-10
2.42973e-10
1.97851e-10
-1.467e-10
-2.97914e-11
2.78999e-10
-1.69426e-09
7.1062e-10
-5.90583e-10
-5.8298e-10
4.52073e-10
4.49622e-10
-4.11186e-10
-3.00934e-10
4.92099e-10
2.6111e-10
-1.8805e-10
4.7041e-11
-6.53985e-11
-2.85263e-10
-9.19528e-10
5.70318e-11
-2.7729e-11
5.58733e-10
-4.80753e-10
4.9302e-11
1.19864e-11
3.50706e-10
2.19562e-10
2.09471e-10
-1.89199e-10
3.69067e-13
-1.27919e-10
1.89441e-10
-1.49374e-10
-1.85451e-09
1.61087e-09
-6.4064e-10
-6.14301e-10
1.0265e-09
3.91866e-10
5.19705e-13
-2.89339e-10
4.67426e-10
2.67581e-10
-2.35951e-10
5.07115e-11
-3.57725e-11
-2.58111e-10
3.17596e-11
1.32276e-10
-9.11548e-10
6.02783e-13
-7.37652e-10
6.13913e-10
-4.99481e-10
4.30524e-10
-3.87801e-10
-2.88726e-10
2.4727e-10
2.0612e-10
-1.77054e-10
-2.40021e-11
-1.27812e-10
1.62365e-10
-8.14954e-11
1.81126e-10
1.31308e-10
-1.69663e-09
7.22088e-10
-6.80555e-10
-6.36756e-10
1.09924e-09
3.92719e-10
-1.49905e-11
3.55674e-10
2.15717e-10
2.7146e-10
-2.3581e-10
-4.0182e-12
-6.34986e-11
-2.5998e-10
-1.47102e-10
-1.26053e-10
-1.47633e-10
1.1533e-10
-1.80011e-09
2.65916e-11
-7.97621e-11
5.88785e-10
-4.67362e-10
4.72523e-10
-4.16613e-10
-2.84398e-10
4.78117e-10
3.06782e-10
-1.78082e-10
-2.53589e-11
-1.26954e-10
1.56373e-10
-9.68591e-11
2.24938e-10
1.34426e-10
2.75518e-11
-1.54479e-11
1.00232e-09
2.91508e-11
-6.57014e-10
-5.83125e-10
5.48307e-10
3.96571e-10
6.42494e-12
3.65742e-10
2.39452e-10
2.73669e-10
-1.75285e-10
5.48192e-11
-1.97576e-11
-2.61413e-10
3.24695e-11
-1.30726e-10
-1.03295e-10
-9.55206e-11
-5.248e-11
2.01744e-10
-2.02919e-09
2.98162e-11
-7.00638e-10
6.13559e-10
-4.84074e-10
4.83983e-11
-3.77245e-10
-3.08278e-10
4.99502e-10
3.04997e-10
-2.32017e-10
3.37802e-11
-9.82746e-11
1.58514e-10
-8.62946e-11
1.87324e-10
8.51071e-11
3.37049e-11
2.45249e-11
5.52226e-13
5.49877e-11
-9.31285e-10
-2.88522e-11
3.21951e-11
6.1763e-10
5.75033e-10
4.0305e-10
3.03246e-13
3.42802e-10
2.54603e-10
2.1183e-10
-1.61219e-10
-2.61607e-11
-1.26235e-10
-2.61082e-10
3.5223e-11
-8.32894e-11
-1.47855e-10
7.69614e-11
3.93666e-11
3.127e-11
9.80319e-11
8.85529e-11
-1.64986e-09
8.11012e-10
-7.87316e-10
6.45693e-11
5.65159e-10
2.85613e-11
-3.92829e-10
-2.76218e-10
4.74527e-10
2.6811e-10
-2.32649e-10
6.54517e-11
-4.85998e-11
-2.4462e-10
-8.45731e-11
2.16605e-10
1.07067e-10
-1.96861e-10
-2.79916e-11
-1.11557e-12
2.92541e-11
4.61102e-11
8.79414e-11
-9.5293e-10
5.29203e-11
-8.53048e-11
7.50442e-10
6.55076e-11
-3.42471e-11
-2.64971e-11
3.37357e-10
2.29257e-10
2.13854e-10
-1.8307e-10
3.76474e-12
-1.11558e-10
1.93585e-10
-6.27773e-11
-1.00023e-10
-7.6275e-11
-4.91006e-11
-3.9155e-11
9.09947e-13
8.27144e-11
-6.66275e-12
-5.99675e-12
-1.43055e-11
-2.24733e-09
1.75568e-09
-6.52662e-10
-5.89358e-10
1.17935e-09
1.01424e-09
3.17437e-12
-3.59847e-10
4.87731e-10
2.5547e-10
-2.27547e-10
5.54409e-11
-5.28977e-11
-2.61071e-10
-1.75152e-10
-1.21387e-10
1.33933e-10
-1.84243e-10
-4.88964e-11
-4.07565e-12
3.35922e-11
8.29565e-11
-2.16429e-11
2.23951e-11
-1.40517e-11
-1.18046e-09
6.32503e-11
-8.07313e-10
6.97944e-10
-5.04854e-10
5.14613e-10
-3.88657e-10
-3.72851e-10
2.76431e-10
2.13949e-10
-1.80202e-10
-2.67034e-12
-1.14756e-10
1.44854e-10
-9.12704e-11
1.74025e-10
8.04979e-11
-1.0462e-11
-2.45972e-12
-9.69014e-12
9.94827e-11
-8.10922e-11
-2.53737e-11
-8.25678e-11
1.49268e-11
-3.17894e-11
-1.75016e-09
1.01461e-09
-8.48555e-10
-6.78927e-10
1.1401e-09
4.38421e-10
5.70517e-12
4.49431e-10
2.23274e-10
2.66819e-10
-2.32762e-10
5.42638e-11
-4.63693e-11
-2.40446e-10
2.67259e-11
-9.55109e-11
-1.51057e-10
-7.12011e-11
-1.32724e-11
-5.18433e-12
6.40267e-11
5.35295e-11
4.9568e-11
2.55732e-11
-3.04995e-11
6.73907e-12
-2.70784e-11
-1.51479e-09
-1.00893e-12
-7.5149e-11
8.27312e-10
-5.54763e-10
5.2426e-10
-4.27788e-10
-3.22253e-10
2.77578e-10
2.73189e-10
-2.03715e-10
-4.17812e-12
-1.40884e-10
1.75084e-10
-8.48006e-11
2.15767e-10
1.02546e-10
2.99215e-11
-1.4397e-11
3.42237e-11
1.5782e-11
-7.91409e-11
7.38091e-12
-9.43589e-11
-3.50632e-12
1.11984e-11
-4.80036e-11
2.6379e-11
-7.80399e-10
-1.97969e-12
-7.17913e-10
-8.77628e-10
7.73501e-10
5.30237e-10
-1.14637e-11
3.87098e-10
2.62883e-10
-4.54395e-10
-1.57246e-10
6.79295e-11
-5.62236e-11
-2.86794e-10
-1.3366e-10
-9.9123e-11
-1.47811e-10
-9.8797e-11
-4.47989e-11
2.22389e-11
4.22368e-11
3.46048e-11
1.25564e-11
2.39675e-11
-2.54085e-11
-1.70938e-11
-5.00246e-11
-5.23116e-11
5.4574e-11
8.73118e-11
6.34293e-10
-5.62077e-10
6.40057e-10
-7.14752e-10
3.58595e-11
-4.84204e-10
-3.26956e-10
5.55727e-10
3.01515e-10
-1.55037e-10
5.02283e-11
-1.28419e-10
1.88401e-10
-9.22643e-11
2.2399e-10
1.24021e-10
7.65154e-12
-9.03964e-11
1.61273e-11
4.94384e-11
-4.31455e-11
-2.6414e-11
-9.18301e-11
2.59224e-11
9.66028e-12
-1.03636e-11
-2.81051e-11
-8.19895e-11
6.75324e-11
1.33297e-09
-9.56661e-11
-1.02734e-10
5.35631e-10
5.82118e-10
5.28118e-10
-1.71753e-11
4.09401e-10
2.8983e-10
2.25721e-10
-1.95719e-10
2.15146e-10
-1.38397e-10
-3.11478e-10
4.72912e-11
-1.32991e-10
-1.46271e-10
-8.29906e-11
-5.38159e-11
3.17022e-11
3.89519e-11
-7.16311e-11
-2.64249e-11
1.27506e-11
-5.23597e-11
1.45767e-11
-3.84265e-11
-5.19416e-11
-2.86256e-11
9.97683e-11
7.56584e-11
2.28843e-08
-6.98197e-10
-5.05106e-11
-6.04325e-10
4.73259e-10
6.8281e-11
-5.61875e-10
-3.82456e-10
6.08201e-10
3.52801e-10
-2.6413e-10
5.65731e-11
8.9845e-12
-3.02942e-10
-6.5685e-11
1.90643e-10
1.27632e-10
6.62664e-11
-9.96104e-11
-1.07991e-11
3.61581e-11
6.46875e-11
-1.27904e-12
-8.89449e-11
2.31343e-11
1.8014e-11
-3.49098e-12
2.67803e-11
-6.46982e-11
1.24628e-10
-8.32379e-11
-1.19933e-10
2.63048e-08
-3.34984e-10
-2.93772e-10
-2.04667e-10
-4.16989e-10
2.8749e-11
-2.06239e-12
4.83079e-10
3.15927e-10
2.69824e-10
-2.19291e-10
5.58344e-12
-1.33436e-10
2.51681e-10
-6.4048e-11
-1.31909e-10
-1.16755e-10
-4.21437e-11
-3.79123e-11
4.26113e-11
1.04378e-10
-3.10184e-11
-4.09371e-11
-9.68715e-11
-7.00433e-11
-3.65107e-11
-2.89008e-11
-4.40412e-11
-2.21641e-10
-5.88919e-11
8.42042e-11
-1.21951e-11
-6.48275e-13
3.07724e-08
-2.23246e-08
8.54591e-09
2.20455e-09
-9.73248e-11
3.41168e-10
2.71578e-11
-4.25872e-10
6.58107e-10
3.26941e-10
-3.25128e-10
6.79465e-11
-6.42099e-11
-2.9589e-10
2.19455e-11
-1.19138e-10
9.35746e-11
-1.87507e-10
5.52833e-12
-7.30521e-13
4.8419e-11
8.51156e-11
-1.7797e-11
2.12612e-11
-7.12359e-11
1.87639e-12
-1.50532e-11
1.96506e-11
-6.0886e-11
2.05811e-10
1.34003e-12
-6.94901e-12
-8.04656e-12
1.36509e-12
2.22826e-09
-9.33769e-10
1.54357e-09
-8.68466e-09
2.59633e-09
-3.27553e-10
-3.12679e-10
-3.07271e-10
2.86994e-10
2.85888e-10
-2.10997e-10
-2.92895e-11
-1.70142e-10
1.91382e-10
-1.17271e-10
1.13811e-10
7.30305e-11
-4.87844e-11
-3.87982e-11
-4.32008e-12
1.18679e-10
-1.11922e-11
-3.98266e-11
-1.01999e-10
3.24992e-11
1.74877e-11
1.23542e-11
8.96202e-12
-1.3998e-10
-5.62971e-11
5.39969e-11
-2.65901e-12
1.58086e-11
-4.17123e-12
3.10386e-12
6.71726e-10
-1.94605e-09
1.09378e-08
1.52316e-08
-1.38088e-08
-5.35491e-10
1.95798e-10
1.11583e-10
1.69239e-10
3.51821e-10
-2.55163e-10
4.45141e-11
-4.42225e-11
-3.39252e-10
4.162e-11
-1.10119e-10
-1.13253e-10
-5.8719e-11
-1.9613e-11
-1.95323e-13
6.13034e-11
9.81728e-11
-1.04601e-11
1.1464e-11
-4.70898e-11
-1.08778e-11
4.37645e-11
-3.62411e-11
-9.78069e-11
3.80147e-11
-2.18329e-11
5.55495e-12
-9.83701e-12
-3.83543e-12
-5.47205e-12
-1.04944e-11
-2.68146e-10
-5.19536e-11
1.76122e-10
-1.12132e-08
1.3956e-08
-9.77426e-09
2.55757e-09
4.99772e-10
1.31826e-10
2.48941e-10
-2.35489e-10
-6.51578e-12
-1.22551e-10
2.04269e-10
1.33319e-10
2.55223e-10
1.50827e-10
-1.82381e-10
-5.64383e-11
2.20567e-12
1.20991e-10
-5.33776e-11
-3.54446e-11
-8.4712e-11
6.88792e-12
-3.43996e-11
-1.08237e-10
-3.48429e-11
-3.39387e-10
1.06208e-10
4.00655e-11
-6.44314e-12
1.28113e-11
1.5317e-11
2.19786e-11
1.33527e-11
-1.50813e-11
-3.56981e-10
-6.02945e-14
-3.18752e-13
2.76826e-09
-9.74703e-09
-1.01206e-08
3.35136e-10
1.65221e-11
-4.189e-10
1.14058e-10
-1.36268e-10
3.57604e-11
-5.36132e-11
-2.99459e-10
-2.16909e-10
-1.4024e-10
-1.59107e-10
-2.14833e-11
-1.17117e-11
1.01139e-11
3.7236e-11
1.05083e-10
2.92059e-11
1.58552e-11
1.48557e-11
1.79336e-10
3.15966e-10
-2.03064e-10
-4.20713e-11
3.6598e-11
-9.90283e-12
-2.15791e-11
-4.0284e-12
1.82626e-12
-8.78022e-12
-1.79225e-11
-1.73825e-11
2.11871e-11
-1.11158e-09
2.75556e-10
-1.88375e-10
-3.26854e-11
2.1395e-09
-8.5368e-10
9.26746e-09
5.11722e-09
-3.78758e-09
-4.43278e-10
1.27092e-10
-3.94262e-11
-1.80834e-10
1.89154e-10
-9.56723e-11
3.00395e-10
1.82043e-10
-2.46174e-10
-3.52449e-12
-3.83333e-11
8.46969e-12
-6.08713e-11
-1.79136e-11
7.45098e-11
7.28767e-11
-1.76747e-10
1.46829e-10
-1.13758e-10
-5.50017e-11
6.36965e-11
1.08643e-11
-1.48953e-11
5.84334e-12
1.00064e-12
-9.37061e-12
-1.1493e-11
-2.33555e-11
-7.19025e-12
3.20823e-12
-6.29701e-10
1.92288e-13
-3.11762e-11
1.34631e-10
-2.17095e-10
-1.26633e-09
1.18293e-10
-6.77018e-09
-6.87174e-09
-1.12511e-09
5.96171e-10
2.08173e-10
-7.77837e-11
-1.79076e-10
3.27766e-11
-1.5071e-10
-1.29847e-10
-1.12246e-11
-3.40288e-11
3.05903e-11
2.58965e-11
-2.74123e-11
-1.77165e-11
-4.93307e-11
8.73726e-11
2.62243e-10
1.47308e-10
-1.58357e-11
-2.65357e-11
2.35776e-11
6.65618e-11
1.91372e-11
4.61864e-12
-2.84311e-12
-6.70863e-12
-6.35422e-12
-4.72325e-12
5.08883e-12
-2.33388e-12
-9.15737e-12
-1.22675e-09
3.82859e-10
-2.85699e-10
-1.85536e-10
1.02347e-10
-1.35456e-10
1.40467e-09
3.47618e-09
-7.85446e-09
-6.83019e-09
3.9153e-09
-2.14846e-10
-7.04779e-10
2.63519e-10
-3.51548e-11
-1.79776e-11
3.39271e-11
-1.80697e-10
-5.34196e-11
3.27316e-12
-8.05977e-12
-1.26386e-10
-2.00187e-10
7.4496e-10
-2.81883e-10
-3.113e-10
4.51297e-11
-1.69806e-11
3.4686e-12
5.71705e-12
-6.30505e-11
4.22542e-11
6.04308e-12
-9.17418e-12
9.68734e-12
-1.13625e-11
-1.43107e-11
1.06095e-11
1.09489e-11
-8.13814e-12
3.1232e-12
-4.90216e-10
-1.67842e-11
-4.73242e-11
2.14371e-10
-1.7064e-10
-3.28364e-11
6.32739e-13
-5.76347e-10
-3.32802e-09
-1.96298e-09
2.48715e-09
-1.89242e-09
-1.72691e-10
-2.25676e-09
-3.52843e-10
3.84751e-10
2.20444e-10
4.56363e-11
1.0598e-10
-1.11209e-10
-1.42968e-10
1.01418e-10
1.69993e-10
2.17481e-10
5.8994e-10
-5.15974e-11
8.11066e-11
-1.56367e-11
-2.12213e-12
8.88657e-13
-1.1922e-12
1.68718e-11
-2.64978e-12
1.18702e-11
-1.13846e-11
-2.95331e-11
-1.04447e-12
4.11177e-12
-6.94138e-12
1.59932e-12
6.57129e-12
-1.00627e-11
-7.63335e-10
3.27565e-10
-3.04566e-10
-2.32004e-10
1.97772e-10
1.34731e-10
-1.09206e-11
5.74145e-10
-2.44174e-09
-1.46381e-09
1.00998e-09
-2.00998e-10
2.84143e-09
5.72291e-09
2.74647e-10
1.33418e-09
-9.21295e-10
1.2539e-09
5.20006e-10
3.14463e-10
4.91199e-10
-5.711e-10
-3.1731e-10
1.32478e-10
4.68491e-10
5.28854e-11
-1.28433e-11
-1.31698e-11
3.01108e-12
-3.98074e-12
-2.77447e-11
-2.26693e-11
-2.48531e-11
2.63762e-12
8.76762e-12
9.49347e-12
-2.04281e-11
7.93835e-12
3.24002e-12
5.81583e-13
6.71044e-13
-1.40388e-12
3.91091e-12
-3.66475e-10
-7.48389e-12
-3.99499e-11
2.01672e-10
-1.44801e-10
-4.95878e-14
-1.54217e-10
-9.4422e-11
6.59719e-11
-3.53685e-09
2.1989e-09
2.38443e-10
4.54564e-10
-2.28983e-09
1.20947e-09
-3.19145e-09
-2.1275e-09
5.15099e-10
6.95053e-10
8.81249e-11
-7.30042e-10
6.401e-10
3.86356e-10
4.95754e-10
-7.73205e-11
-3.84872e-11
7.12772e-12
3.95119e-13
-4.93647e-12
-4.12451e-12
2.4698e-12
-1.17024e-10
3.38761e-11
2.02484e-11
1.48491e-11
-2.92274e-11
-1.11003e-11
-8.02372e-12
-6.44117e-12
-1.40159e-11
-5.93635e-13
-1.95025e-12
3.34358e-12
9.21351e-12
5.16431e-11
8.35102e-12
-2.07047e-10
-1.72614e-10
2.3679e-10
7.76478e-11
-2.78578e-13
1.37165e-10
3.42005e-11
-4.19969e-10
2.4102e-09
-2.35975e-10
8.24223e-11
1.71162e-10
-2.26993e-11
1.09692e-09
1.08746e-09
6.73049e-10
9.61681e-11
-4.24565e-10
-2.68746e-10
-4.43234e-10
-1.31231e-10
3.98467e-11
1.80381e-11
2.5194e-11
-1.93477e-12
1.96485e-11
4.83531e-12
-5.60244e-12
5.99107e-12
-1.08553e-11
-2.65186e-11
-3.48231e-12
-8.354e-12
-1.87721e-11
-1.81741e-11
-1.25593e-11
3.52463e-11
-2.00675e-11
-3.94989e-12
2.09354e-12
2.34633e-12
-1.77576e-12
-1.553e-11
4.25479e-10
2.75264e-12
-9.72701e-11
1.30845e-10
-1.20668e-10
7.45373e-11
-6.53676e-11
-8.52522e-11
1.56232e-10
1.91728e-11
3.97144e-10
-1.45156e-10
6.11005e-10
3.67205e-10
-3.43628e-11
-1.19125e-10
-4.08134e-11
-1.89995e-11
-1.20252e-10
1.65375e-12
-1.47051e-10
9.57235e-11
3.49707e-11
-1.04385e-11
2.25992e-11
-3.61673e-12
-5.08481e-12
8.18699e-12
2.63783e-11
7.05567e-12
2.44285e-12
-2.13259e-11
2.88948e-11
-1.62936e-11
1.43892e-11
-8.67204e-12
-1.37241e-11
1.17665e-11
-4.78464e-12
-2.61535e-11
9.02856e-12
-1.1474e-11
1.35153e-11
-4.04513e-12
9.24098e-12
2.76958e-12
3.30382e-10
5.23541e-12
2.23514e-12
6.21493e-11
1.54939e-10
6.81272e-11
-6.19646e-12
6.01372e-11
5.95413e-11
6.59606e-11
-9.72149e-12
-2.59251e-10
8.72989e-10
-7.55791e-12
-2.54129e-10
-1.16569e-10
-3.26937e-11
-3.99045e-11
-1.58311e-10
1.91639e-11
4.04531e-11
3.64075e-11
7.68062e-12
3.22029e-12
5.62714e-12
-7.59686e-12
-1.75551e-11
-1.77056e-11
9.10402e-12
5.69016e-12
2.43861e-12
2.64742e-11
-2.0962e-11
-1.36786e-11
-2.7686e-12
-2.32717e-11
-8.24198e-12
-9.51115e-12
1.40883e-11
3.25976e-12
1.10853e-12
-7.55038e-13
-1.10261e-11
-1.072e-11
-9.97241e-12
1.61519e-11
-2.74879e-13
-3.20892e-10
-2.08834e-10
1.08902e-10
3.53305e-11
5.83095e-11
3.02717e-11
-3.21391e-11
-2.64418e-11
7.62974e-11
5.59139e-11
-2.37462e-11
-1.88435e-11
2.25603e-09
-1.61327e-10
1.21507e-10
4.49853e-11
1.14073e-10
-1.88386e-10
2.41487e-11
-9.94493e-11
4.82667e-11
-5.05031e-12
-1.19807e-11
-4.67631e-11
1.57805e-11
1.65384e-11
-6.55286e-12
-2.22293e-12
-7.11634e-12
-2.18503e-13
-5.41166e-13
5.34401e-12
-5.15507e-11
4.07839e-12
6.53334e-12
2.40018e-12
-9.42584e-12
-7.45132e-12
1.75601e-11
-1.70399e-11
3.51133e-12
-8.02126e-12
5.54101e-12
-1.13245e-11
5.31747e-12
-9.96275e-12
6.34793e-12
-7.66602e-12
2.1023e-10
4.839e-13
1.91954e-11
-8.65713e-11
1.6122e-11
2.59588e-11
1.15522e-12
1.80618e-11
1.74152e-11
3.56877e-11
-3.35975e-11
-3.42073e-12
4.12169e-10
2.25817e-09
-1.38922e-09
4.1781e-11
1.81847e-11
3.06198e-11
5.84791e-11
-5.08646e-12
3.70468e-11
-5.10812e-11
-4.11727e-11
1.08958e-11
-3.06713e-11
-1.08278e-11
8.7037e-12
-8.8089e-13
9.77615e-13
-2.00776e-12
-5.61418e-12
-4.02201e-12
-3.79383e-11
-1.29693e-11
2.31396e-12
-2.12516e-11
-1.81189e-13
2.35099e-11
1.18469e-11
-9.45524e-12
6.89908e-12
1.04796e-11
-1.33206e-11
7.66608e-12
-1.30639e-11
1.17562e-11
-1.07162e-11
-1.92772e-11
-5.35304e-12
3.1698e-11
1.97229e-12
1.48752e-10
1.27813e-10
-1.32478e-10
-2.24362e-11
9.72866e-14
-1.95508e-11
9.681e-12
1.18908e-11
-3.25508e-11
1.09106e-11
-3.26452e-12
5.95816e-10
1.34984e-09
-6.37988e-10
-9.29668e-12
4.64418e-12
3.88218e-12
-1.68179e-11
2.58421e-12
3.20227e-12
-2.63519e-11
-4.51266e-11
1.56275e-11
2.5666e-12
-1.63695e-11
-1.24663e-11
1.41882e-11
2.89445e-12
6.80887e-13
1.69138e-12
-2.17718e-11
2.88949e-11
1.19849e-12
-1.35198e-12
-2.72467e-11
-1.43782e-11
3.76476e-12
-1.73871e-13
-2.62966e-12
-7.61824e-12
-7.52555e-12
2.5439e-12
6.01045e-12
-5.0367e-12
3.5303e-13
-1.09828e-11
-3.77949e-12
-6.34174e-13
3.81805e-14
-7.543e-13
1.63424e-10
-1.09495e-10
8.39688e-11
-4.82648e-11
2.21075e-11
-1.68781e-11
-1.82081e-11
-4.85079e-12
-1.03902e-11
1.53192e-12
-1.2396e-11
4.71378e-11
-2.36939e-10
-6.46645e-11
1.73605e-11
3.08474e-12
-5.50104e-11
4.91622e-11
3.48166e-12
-3.43479e-11
-2.87308e-11
-1.55986e-12
-7.27482e-12
-2.15988e-11
-4.63526e-12
2.85948e-12
9.01726e-12
-1.95401e-11
7.54834e-13
-1.01561e-12
4.08022e-11
-3.86904e-11
-4.90732e-12
6.19992e-12
-1.39284e-11
1.26333e-12
6.50566e-12
-1.52535e-11
1.70836e-11
-6.64969e-13
9.93635e-12
-1.55505e-12
2.24328e-12
5.95283e-12
-1.99978e-11
-6.06866e-12
4.34283e-12
-1.58119e-12
-1.72546e-11
-2.12342e-10
-4.08007e-12
-1.88533e-11
-1.32755e-11
9.1353e-12
-4.2835e-11
-3.43331e-13
-4.47053e-12
-1.04877e-11
-7.515e-12
-1.07911e-12
-1.04772e-11
-7.54852e-12
-8.10919e-13
-2.17948e-10
5.66354e-10
-3.6143e-10
-5.98849e-11
-3.04883e-11
-4.01381e-12
8.2242e-11
1.8733e-11
-7.21536e-12
-1.83316e-11
-1.22443e-11
-2.27878e-12
2.19699e-12
-1.86488e-11
5.12286e-12
-2.26799e-12
-8.05715e-12
2.6821e-12
1.53134e-11
-3.1166e-12
7.48511e-12
-4.89092e-12
-2.16214e-11
-4.64923e-12
7.25644e-12
-4.72617e-13
7.49699e-12
-9.74839e-12
-1.10255e-11
-6.28886e-12
-5.22592e-12
2.50121e-12
5.03783e-12
3.32242e-12
-1.10486e-12
2.28911e-12
2.11079e-11
-7.57161e-12
-2.21385e-10
3.25049e-10
-9.10348e-11
-8.32652e-13
-3.35094e-11
-3.8824e-11
2.01939e-11
-1.25455e-11
1.31858e-11
6.03909e-12
4.52042e-12
-6.45391e-12
-2.51833e-13
1.98696e-11
-2.26763e-12
-1.85065e-10
-3.87005e-10
-1.6407e-10
-2.89227e-11
5.29767e-12
-1.32309e-11
2.98123e-11
-9.38109e-13
-4.51864e-11
2.68608e-11
-2.06319e-11
-3.17048e-12
6.31805e-12
6.9394e-12
-1.98115e-11
3.07054e-12
3.43906e-12
-6.1669e-12
-4.08038e-12
8.94598e-12
-2.09175e-11
6.66844e-12
2.37481e-11
-2.36449e-12
-2.1666e-11
1.28602e-11
-1.07844e-11
1.28643e-12
5.48087e-12
-1.04666e-11
6.42378e-12
-9.99546e-12
-1.14233e-11
-2.00879e-12
2.44154e-12
-3.39428e-12
1.16905e-11
2.12864e-12
-6.4589e-14
9.46627e-11
-1.3744e-10
6.59287e-11
-8.99693e-13
-1.19678e-11
4.94355e-13
3.81364e-12
2.31305e-12
1.29442e-11
-4.99338e-12
-7.38967e-12
-1.93715e-12
-2.36269e-11
4.12343e-13
2.18586e-11
5.90403e-10
8.27085e-10
5.82109e-11
-5.48908e-12
5.29581e-11
4.05142e-11
-3.43065e-11
1.039e-11
1.20252e-11
2.92495e-12
-1.36747e-11
-3.01032e-12
7.56922e-12
-5.9608e-12
1.50502e-12
7.92784e-12
-1.20285e-11
-4.1897e-11
-1.93013e-11
-2.46835e-11
-1.81377e-11
-1.11086e-12
1.36645e-11
-2.04385e-12
1.90659e-12
-2.9576e-12
7.34485e-12
3.06242e-12
-6.57721e-12
-1.8286e-12
-3.36113e-12
3.64571e-12
-5.79787e-12
8.08827e-13
7.71882e-12
-7.16285e-12
-6.44832e-12
-9.94937e-12
2.36729e-10
2.01052e-12
-6.84019e-11
-4.23162e-12
4.18923e-11
9.30462e-12
-6.75135e-12
-1.14386e-12
1.83237e-11
2.05006e-11
-1.66499e-11
4.69309e-13
-4.42325e-12
2.15565e-12
-1.12586e-11
-6.09708e-12
-3.04058e-11
8.80105e-10
2.60756e-10
6.92612e-12
6.59445e-12
-5.64778e-11
6.90548e-12
-2.80695e-11
2.83752e-11
-3.38296e-12
-1.15264e-11
-4.8864e-12
1.2351e-12
-2.86087e-11
-1.1565e-11
9.20753e-12
5.86609e-12
2.54683e-11
3.78622e-11
-1.40653e-11
-2.91149e-11
8.4895e-12
1.12805e-11
-1.98578e-11
1.32026e-11
-8.60467e-12
1.39423e-12
1.15557e-12
1.31606e-11
-1.99531e-11
-6.83031e-12
2.78318e-12
-1.38384e-11
1.9344e-12
-9.03313e-12
4.32352e-12
-1.23123e-11
-1.87562e-11
1.17186e-11
-3.52326e-15
-8.56051e-11
-7.97801e-12
-1.78434e-12
-7.82705e-12
4.46026e-11
-2.02387e-11
-3.86808e-12
-9.53337e-12
1.5334e-11
-1.91234e-11
5.85921e-13
6.29603e-13
-7.09558e-12
8.93666e-12
-8.16238e-12
2.43626e-11
-6.02702e-10
-1.53633e-10
-4.19919e-11
-2.03107e-11
3.76559e-11
-1.66476e-11
2.02996e-11
-2.29859e-11
1.7194e-11
1.9601e-12
8.00115e-12
-3.50945e-12
-5.75016e-12
1.06161e-11
3.59611e-12
5.17061e-12
-1.34797e-11
-3.56504e-11
-2.90901e-11
-1.8623e-11
1.18822e-11
-9.71172e-13
1.20856e-11
-1.02122e-11
-4.61373e-12
-1.27633e-11
5.92927e-12
-1.07182e-11
1.54588e-11
-1.68777e-11
-3.61343e-12
2.51234e-12
-7.1216e-12
2.63898e-11
-3.86511e-12
6.11515e-13
-4.16819e-12
-5.35724e-13
4.25295e-13
2.42433e-10
-4.30806e-12
7.77857e-11
-5.49314e-12
4.64495e-12
2.53322e-11
-2.39436e-11
-1.43699e-11
2.67404e-12
4.44807e-12
-2.35469e-11
6.42369e-12
-1.99423e-12
-1.12826e-11
-5.70179e-12
3.13309e-11
3.0968e-12
2.11102e-10
5.34961e-10
1.39046e-10
-1.06452e-12
-2.49867e-11
6.98486e-12
-4.36308e-11
1.39821e-11
-3.50331e-12
-1.64255e-11
-1.32323e-11
9.75643e-12
1.13379e-12
-1.15809e-11
-1.57506e-11
-1.38789e-11
9.62932e-12
-3.49368e-11
1.21681e-11
-1.50014e-11
-9.13673e-12
1.24678e-11
-5.08185e-12
1.47828e-11
-5.27975e-12
1.40841e-11
1.60286e-11
1.04191e-11
2.11234e-12
1.8458e-12
-2.33086e-12
5.19411e-12
-5.16089e-12
2.20981e-12
1.13366e-11
-1.37353e-11
-2.71574e-12
-1.70051e-12
1.02191e-11
2.18314e-12
-9.26958e-12
-8.6746e-11
1.99719e-10
3.90934e-12
-1.8162e-11
2.39263e-11
-2.11669e-11
-5.57502e-12
5.43452e-13
-8.50649e-12
1.44666e-11
1.2085e-13
-1.55699e-11
1.25453e-11
-6.18938e-12
-8.78724e-12
-2.47254e-11
1.87836e-11
2.18653e-10
-2.82132e-10
-9.87545e-12
-1.2428e-11
-2.37709e-11
1.80138e-11
-4.19707e-12
4.46231e-12
-1.40628e-11
-1.95578e-12
1.80831e-11
-1.4891e-11
1.43239e-11
1.61415e-11
1.40748e-11
-2.16787e-12
-1.61067e-11
-9.88683e-12
8.98832e-12
4.97377e-12
-1.31777e-12
-3.43785e-12
6.40287e-12
7.19669e-12
-1.84415e-11
6.92593e-12
-2.12606e-11
1.51531e-12
-2.06628e-11
-1.79585e-12
7.22538e-12
1.25409e-11
1.75324e-11
-9.94157e-12
-2.61619e-12
5.81462e-13
-4.92876e-12
1.06177e-12
-1.54364e-12
-7.48052e-12
1.42264e-12
1.90712e-11
4.60825e-11
-1.01088e-11
-1.21682e-12
-1.84268e-11
-2.6312e-11
4.16428e-12
5.15012e-12
-4.34258e-12
2.79563e-13
-2.59488e-11
-6.33644e-12
-2.8254e-11
2.79054e-12
-9.53778e-12
2.22673e-11
-8.56342e-12
1.15628e-10
2.43384e-10
-1.7245e-10
-5.10779e-11
-2.8737e-11
-3.80488e-11
1.41024e-11
-7.51914e-12
3.26392e-12
5.80843e-13
4.55403e-12
-1.7718e-11
6.23346e-12
1.51564e-11
-3.17859e-12
2.77712e-12
2.08628e-11
-2.58577e-11
-2.38244e-11
-6.04717e-13
1.78288e-11
-8.55669e-14
8.00153e-13
-1.84423e-11
1.49559e-11
1.14377e-11
1.24049e-11
-1.08134e-12
-3.87626e-12
1.50762e-11
-2.8723e-12
-2.54746e-12
3.75598e-12
2.47197e-11
-9.91533e-12
-7.6629e-12
-1.14197e-11
-5.23468e-12
1.43079e-11
3.51843e-12
-7.39547e-12
-8.30375e-11
-1.77755e-12
2.71777e-12
-1.08229e-11
-5.1073e-11
-2.88681e-11
-1.5359e-12
1.55263e-12
-7.96744e-12
7.0875e-12
-9.90273e-12
8.71515e-13
-1.00883e-11
1.7538e-11
-7.01971e-12
1.19363e-11
9.35532e-12
-1.69642e-11
1.0721e-12
-2.05971e-10
-5.68201e-10
2.03496e-11
-3.12085e-11
-7.93609e-11
-3.59737e-11
-2.10177e-11
5.42701e-12
8.7324e-12
1.37648e-11
-1.97905e-11
-2.64859e-12
8.71227e-13
-1.0908e-11
1.46418e-11
-4.4355e-12
-3.46967e-11
-1.24299e-11
3.15599e-12
-2.56827e-12
-1.26094e-11
1.63099e-11
-5.60491e-12
-1.12312e-11
-2.16875e-11
-4.01577e-12
1.10605e-11
-1.42433e-11
-7.84877e-12
4.40226e-12
1.25161e-11
1.38828e-11
-1.75071e-11
1.88135e-11
-5.05972e-12
-1.10267e-11
4.06154e-12
-1.76841e-11
-2.93473e-13
1.74342e-13
4.5075e-12
4.28755e-11
2.83612e-11
-8.41534e-11
1.77253e-13
-7.03902e-12
-3.26671e-11
2.04483e-11
-3.84589e-12
7.22614e-12
-1.69063e-11
-3.68038e-12
2.61732e-11
-3.11308e-13
-9.3411e-12
1.33481e-12
-1.01552e-11
-6.88466e-12
9.28679e-12
1.45263e-12
2.48845e-11
-6.01976e-10
-2.242e-10
2.35319e-12
-1.06592e-12
-7.3035e-12
-1.56663e-11
-7.45192e-12
4.41452e-12
1.16067e-11
-5.78185e-12
3.0295e-12
3.57459e-11
1.94287e-11
1.54674e-11
-1.10762e-11
5.30177e-11
-2.7727e-11
-1.90258e-11
6.04863e-12
1.27523e-11
-1.61599e-11
-4.47377e-12
-1.70311e-11
7.12888e-12
3.05587e-11
1.73319e-12
-5.73517e-13
-6.4607e-12
2.12428e-12
1.37945e-11
1.85188e-11
4.63956e-12
-3.89127e-12
-1.77355e-11
1.41496e-12
-3.12577e-12
-4.75812e-12
6.11017e-12
-5.24318e-12
-8.13004e-12
-6.64883e-12
1.1903e-10
-1.19476e-12
-1.04067e-11
9.87265e-13
-7.52821e-12
-1.63171e-11
1.60434e-11
-4.6571e-12
3.75997e-13
-7.56397e-12
2.13145e-11
-1.15537e-12
-2.05494e-13
-8.96268e-13
3.5578e-12
-1.55048e-14
1.75796e-12
7.65012e-12
-1.75936e-11
-1.2267e-11
3.43583e-11
-4.18049e-10
2.47256e-11
1.61115e-11
1.05689e-11
6.21571e-12
-2.87304e-11
2.15732e-11
1.25283e-11
-2.37442e-11
2.34495e-12
-8.43347e-12
-1.32807e-11
2.37848e-11
3.86215e-11
-9.55291e-13
1.95882e-12
-1.66743e-12
-1.05598e-11
-3.28888e-11
1.31521e-11
-2.52361e-11
-2.52363e-12
1.05523e-11
-2.92242e-11
2.23476e-11
-1.80703e-11
-4.19459e-12
-4.41284e-12
8.69457e-12
-1.05593e-11
1.38811e-11
6.37338e-12
-1.17741e-11
4.33407e-12
7.5567e-12
-2.45377e-11
1.37817e-11
-2.49252e-12
-2.36328e-12
1.5822e-12
-1.23783e-12
4.60363e-11
-4.97982e-11
2.00936e-11
-1.67634e-12
2.63074e-11
1.45242e-11
1.22299e-11
-2.24099e-12
-3.83471e-12
2.5152e-12
-7.41151e-12
2.32349e-11
-3.51265e-11
-4.95946e-12
-2.56201e-12
1.19456e-12
2.89442e-13
-1.78805e-12
-9.45144e-12
2.89843e-12
-1.30503e-10
-4.94019e-10
5.61154e-11
7.46573e-12
7.9466e-12
-1.25582e-11
2.79391e-12
1.13319e-11
1.48769e-11
-1.83316e-11
1.57539e-11
1.83483e-11
2.12604e-11
2.09106e-11
3.08272e-11
-1.65389e-11
-1.1114e-11
3.39338e-12
1.99404e-11
-4.51589e-12
3.76432e-12
7.91933e-12
-1.08249e-12
-3.89973e-12
-1.14561e-11
-1.96523e-11
1.34365e-11
8.00771e-12
6.90028e-12
-1.00547e-12
1.21361e-11
-5.98584e-12
-6.61128e-12
-6.19112e-12
1.80354e-11
4.94895e-12
1.18864e-11
-1.82958e-12
-1.372e-11
3.272e-12
1.05742e-11
-1.83557e-12
-1.20905e-11
-6.54025e-11
-2.31114e-11
4.67959e-11
-1.40492e-11
2.30535e-14
2.12062e-11
-3.63256e-12
-2.03607e-11
1.1996e-12
2.02722e-12
2.69639e-13
1.79728e-11
-4.4737e-11
2.10275e-11
-2.99983e-12
2.42865e-12
8.47471e-13
7.79325e-13
-7.06873e-12
1.51112e-12
-3.18083e-11
-1.58695e-10
6.94914e-11
1.54792e-11
-4.31581e-12
9.74907e-12
-2.2384e-12
1.3968e-11
5.77871e-11
8.62419e-12
-2.72422e-11
-3.6122e-12
-4.3976e-12
2.24438e-11
1.70898e-11
-1.15073e-11
1.23687e-11
8.9231e-12
-2.45538e-13
-1.75535e-11
2.12751e-11
-2.64631e-11
-2.8164e-12
2.41412e-12
5.21158e-12
-8.51741e-12
-3.72663e-11
2.29732e-12
2.85918e-12
8.87469e-12
-4.33466e-12
-2.52799e-12
-9.63427e-12
-9.25576e-12
1.19685e-11
1.6527e-11
-1.06607e-11
1.14383e-11
-1.37223e-11
-1.24618e-11
-7.4836e-12
1.09615e-11
-7.97736e-12
-2.3331e-12
-3.74523e-12
3.01269e-11
2.95195e-11
-1.59137e-12
9.83304e-12
3.60566e-11
-1.04881e-11
-2.56562e-11
1.40123e-12
-9.35399e-12
6.24577e-12
-2.85089e-14
-1.46095e-12
-5.02525e-14
2.6438e-12
-3.95572e-12
1.54816e-12
-1.43084e-12
4.49048e-12
6.87671e-12
2.14407e-12
-1.88432e-11
2.90426e-11
-9.65479e-11
7.40417e-13
2.67564e-11
1.21624e-11
3.37646e-12
1.66944e-11
-2.40292e-11
2.38153e-11
-3.93543e-12
1.65094e-11
1.52953e-11
-1.64328e-11
-5.49942e-11
1.36925e-11
1.84942e-11
2.20717e-11
2.13065e-11
-1.29631e-11
3.00949e-12
-3.07288e-11
-6.24648e-12
-4.45769e-12
1.62575e-11
-3.28191e-11
-5.56194e-12
8.40885e-13
1.34088e-11
1.66455e-11
-6.73146e-12
-9.83667e-12
-4.4103e-12
-1.84822e-12
8.70832e-12
1.35227e-11
6.50874e-12
-1.63386e-12
-1.01695e-11
-1.24672e-11
1.11666e-11
1.21585e-12
-1.32723e-11
1.05154e-11
1.37677e-10
1.01395e-12
-1.32168e-11
-1.8091e-11
-3.14366e-13
1.06817e-11
-3.20582e-11
-7.40259e-13
-1.20455e-11
-2.74493e-12
1.1413e-13
-3.49768e-11
9.2237e-12
-4.1345e-12
4.66135e-12
-3.02641e-12
6.06912e-13
-3.9437e-12
-7.11139e-13
-2.2749e-12
1.08621e-12
-4.8361e-11
-1.57367e-10
2.75094e-10
-1.19138e-11
-1.43184e-11
-6.94415e-12
-1.18045e-12
7.15816e-12
-2.36819e-11
-2.15746e-11
3.05469e-12
-2.43325e-11
2.32407e-11
1.28284e-11
-9.37096e-12
1.68874e-11
2.44234e-11
3.0182e-11
-1.51759e-11
2.15578e-11
-1.44801e-11
9.52573e-12
1.40555e-12
-2.14088e-12
-1.80087e-11
-3.0427e-11
1.9656e-11
-2.72768e-12
8.11096e-12
-7.3808e-12
7.35196e-12
1.26799e-12
-6.64123e-12
-7.84754e-12
-8.72064e-12
3.11513e-11
1.40403e-12
3.21636e-13
-1.64023e-12
-6.45399e-12
-3.54213e-12
1.24196e-11
-7.67803e-12
-5.20634e-12
-6.904e-13
1.357e-10
-2.85399e-11
-1.79854e-11
2.47905e-13
-1.13743e-12
-1.31304e-11
5.84273e-12
3.31019e-13
-5.51575e-12
-1.54209e-11
-8.88498e-13
-3.00871e-12
1.18292e-12
-5.25311e-12
-3.70833e-12
9.55766e-13
4.12618e-12
6.78886e-12
-2.99165e-12
-1.57855e-12
5.8118e-12
-1.48444e-12
3.56504e-11
3.5883e-10
6.71886e-11
-2.3346e-12
1.69545e-11
1.82315e-11
3.87174e-11
1.18964e-11
-3.3233e-11
1.89227e-11
2.86925e-11
2.33006e-11
-8.7781e-12
-1.55342e-11
-4.07742e-12
1.47374e-11
3.38899e-11
-8.50429e-12
-2.62637e-11
9.09579e-12
-1.87117e-11
-8.24984e-12
-1.64306e-11
-6.02504e-12
-1.42023e-11
-6.50816e-12
4.91684e-12
3.94793e-12
3.89995e-11
-2.78296e-11
-4.37004e-12
-3.37621e-12
1.13198e-11
6.10799e-12
-6.15428e-12
-1.09839e-11
-6.94638e-12
6.00989e-12
9.08859e-12
-2.18238e-12
-1.09119e-11
-1.80858e-11
8.32368e-12
5.3941e-12
2.80284e-12
5.34043e-11
-2.66959e-11
5.79936e-12
2.60696e-11
-3.24685e-14
1.96925e-12
3.06148e-11
1.65884e-12
2.78146e-12
6.51519e-12
1.92647e-11
2.81057e-12
2.21993e-11
6.94186e-12
2.75515e-13
3.18349e-12
-7.45039e-13
-2.47747e-12
2.78609e-13
2.1948e-14
1.55968e-12
7.46899e-12
2.84958e-11
-2.17422e-10
4.15381e-11
-6.41054e-12
1.13659e-11
1.36799e-11
9.47122e-12
-4.46183e-11
1.6919e-11
1.94608e-11
-4.26529e-12
3.23191e-11
1.65752e-11
-4.22229e-12
-8.66591e-12
-1.92617e-11
2.25196e-11
-7.12761e-12
1.10752e-11
-1.73579e-11
8.40966e-12
8.72991e-12
2.41541e-11
-1.86062e-11
-1.54735e-11
3.38056e-12
-1.31866e-11
8.25979e-12
-2.4082e-11
2.33264e-11
-1.2248e-12
-8.33451e-12
-9.1983e-12
-1.92883e-12
1.30087e-11
1.50931e-11
-1.24495e-11
-7.7478e-12
-6.25793e-12
5.83424e-12
-7.07092e-12
-4.5752e-12
8.51136e-12
-6.98844e-12
1.30924e-11
1.06019e-11