/*--------------------------------*- C++ -*----------------------------------*\
| =========                 |                                                 |
| \\      /  F ield         | OpenFOAM: The Open Source CFD Toolbox           |
|  \\    /   O peration     | Version:  v2012                                 |
|   \\  /    A nd           | Website:  www.openfoam.com                      |
|    \\/     M anipulation  |                                                 |
\*---------------------------------------------------------------------------*/
FoamFile
{
    version     2.0;
    format      ascii;
    class       volSymmTensorField;
    location    "0";
    object      Sp;
}
// * * * * * * * * * * * * * * * * * * * * * * * * * * * * * * * * * * * * * //

dimensions      [0 0 -1 0 0 0 0];


internalField   nonuniform List<symmTensor> 
27324
(
(-263.892 -8083.06 -1.27714e-08 953.127 1.20554e-09 -689.236)
(-95.2441 -8695.75 -5.06134e-09 854.1 3.86194e-10 -758.856)
(-323.628 -19112.9 -2.49419e-08 1030.57 1.0705e-09 -706.943)
(-207.153 -8978.64 -7.91715e-09 928.131 7.65795e-10 -720.978)
(-166.376 -20168.3 7.47423e-09 934.902 -3.23212e-10 -768.525)
(-386.182 -22252.5 1.07523e-08 1120.13 -4.66367e-10 -733.947)
(-206.171 -9259.38 -5.00586e-09 974.357 4.04157e-10 -768.187)
(-254.404 -20660.8 -1.50612e-09 983.923 1.23919e-11 -729.519)
(-237.687 -22993 -8.69477e-10 1025.07 3.75167e-11 -787.379)
(-437.089 -20384.4 1.03217e-08 1193.98 -4.13649e-10 -756.886)
(-225.67 -9528.95 -8.78117e-09 1054.28 8.61405e-10 -828.609)
(-245.429 -21192.6 1.59162e-08 1015.11 -6.87237e-10 -769.682)
(-309.927 -23349.3 -8.39646e-09 1057.84 2.90584e-10 -747.911)
(-293.275 -20708.1 -6.49925e-09 1094.37 3.10365e-10 -801.096)
(-456.231 -15115.2 -1.14302e-08 1229.42 7.35908e-10 -773.185)
(-231.371 -9849.47 -4.46744e-09 1113.4 4.78167e-10 -882.027)
(-262.548 -21735.5 1.42973e-09 1087.59 -9.89075e-12 -825.038)
(-299.989 -23757 -8.51287e-09 1082.04 3.29351e-10 -782.056)
(-352.808 -20835.3 7.05222e-09 1114.84 -2.5625e-10 -762.035)
(-308.579 -15083.4 -3.22507e-09 1124.03 2.49997e-10 -815.452)
(-459.923 -9455.26 4.78269e-09 1244.23 -3.26724e-10 -784.303)
(-242.207 -10228.1 -9.40599e-09 1155.45 9.61222e-10 -913.245)
(-272.85 -22403.1 9.73523e-09 1148.48 -3.96426e-10 -875.631)
(-318.942 -24218.4 -8.31642e-09 1150.6 3.20711e-10 -831.661)
(-343.589 -20989.5 -6.07179e-09 1136.7 2.98314e-10 -793.108)
(-365.44 -15053.5 8.16726e-09 1142 -4.82942e-10 -776.563)
(-311.787 -9361.09 2.12913e-09 1138.82 -1.92699e-10 -827.034)
(-464.002 -5553.91 4.45792e-09 1257.91 -5.64735e-10 -793.912)
(-227.73 -10630.2 -5.43514e-09 1116.07 4.79645e-10 -888.34)
(-286.049 -23206.3 1.49157e-10 1189.73 -5.68434e-13 -903.682)
(-336.551 -24813.6 -2.21917e-10 1214.1 3.04681e-11 -877.553)
(-366.083 -21228.3 6.40284e-09 1203.96 -3.08091e-10 -837.88)
(-356.866 -15062.4 -2.94131e-09 1157.56 2.22713e-10 -800.696)
(-375.104 -9332.26 2.03545e-09 1160.38 -2.19075e-10 -785.279)
(-313.631 -5544.89 -1.54796e-09 1150.25 1.94632e-10 -836.62)
(-474.287 -3294.94 -6.78014e-10 1273.74 2.21845e-10 -799.457)
(-181.51 -10960.2 -1.01409e-08 999.091 8.43784e-10 -817.58)
(-278.116 -24069 9.24774e-09 1166.76 -3.88127e-10 -888.639)
(-357.165 -25513.1 -8.46194e-09 1261.18 3.34808e-10 -904.013)
(-390.471 -21573.9 -5.64614e-09 1273.12 3.06613e-10 -882.65)
(-384.383 -15129 4.48927e-09 1224.29 -2.94335e-10 -839.905)
(-365.095 -9338.08 1.45883e-09 1169.91 -1.9952e-10 -804.816)
(-380.206 -5541.54 -2.32831e-10 1172.96 0 -792.751)
(-326.443 -3278.42 5.125e-10 1167.66 -1.69507e-10 -841.216)
(-469.706 -1961.54 9.96806e-10 1273.75 -1.88585e-10 -804.04)
(-116.331 -11183.5 -1.04374e-08 863.202 7.36009e-10 -746.871)
(-225.53 -24827.5 -1.45519e-11 1049.21 5.68434e-13 -823.682)
(-351.653 -26221.7 8.84029e-10 1242.73 1.14824e-11 -891.074)
(-406.448 -21955.2 7.18501e-09 1311.24 -3.64025e-10 -904.788)
(-410.226 -15223 -3.86899e-09 1290.67 2.62389e-10 -880.442)
(-387.31 -9367.65 7.99446e-10 1228.56 -3.30829e-11 -841.253)
(-371.628 -5543.23 -8.4674e-10 1180.77 1.95882e-10 -809.138)
(-391.515 -3253.89 9.09495e-12 1189.89 1.36311e-10 -798.373)
(-318.937 -1870.14 7.40556e-10 1168.76 -2.40675e-10 -849.826)
(-460.559 -938.19 -1.56405e-10 1266.99 1.16422e-10 -806.427)
(-45.9202 -11382.8 -5.3933e-09 751.344 3.38446e-10 -705.424)
(-164.149 -25440.4 -8.94943e-10 929.767 -1.1255e-11 -765.619)
(-295.869 -26842.2 -8.58563e-09 1124.32 3.25258e-10 -828.455)
(-396.941 -22281.3 -6.90125e-09 1292.54 3.03658e-10 -895.598)
(-419.307 -15296.8 3.86535e-09 1317.52 -3.00361e-10 -898.214)
(-401.789 -9396.92 2.15823e-09 1279.17 -2.16573e-10 -877.378)
(-391.841 -5553.78 2.46473e-10 1230.67 4.88853e-12 -838.831)
(-376.076 -3219.01 6.78028e-10 1187.61 -1.70076e-10 -811.532)
(-384.871 -1793.72 4.66116e-11 1190.82 -1.17325e-10 -805.949)
(-308.713 -896.31 -6.65068e-11 1167.12 -1.26306e-10 -858.405)
(-461.86 -311.726 -4.78906e-12 1268.48 1.32738e-10 -806.622)
(-35.3401 -11701.8 -1.14942e-08 782.799 7.10202e-10 -747.459)
(-107.864 -26031.1 1.06411e-08 839.524 -3.09342e-10 -731.66)
(-242.785 -27400.7 -9.52059e-09 1024.16 3.15481e-10 -781.375)
(-341.683 -22500.3 6.35555e-09 1182.14 -3.02407e-10 -840.458)
(-403.6 -15336.1 -3.6016e-09 1295.11 2.46018e-10 -891.512)
(-405.879 -9409.25 3.93811e-10 1301.25 -4.54747e-13 -895.372)
(-403.929 -5572.65 -1.15051e-09 1272.86 2.12822e-10 -868.931)
(-387.708 -3182.59 -4.24734e-10 1225.41 1.51886e-10 -837.7)
(-366.655 -1713.85 8.59018e-10 1182.2 -2.4113e-10 -815.541)
(-378.005 -864.667 4.58499e-10 1191.62 -1.39266e-10 -813.618)
(-317.38 -324.611 3.17215e-10 1179.87 1.10504e-10 -862.49)
(-463.522 -93.6598 6.4766e-11 1269.91 -1.37779e-12 -806.388)
(-70.9481 -12275.2 -5.326e-09 888.46 4.09614e-10 -817.512)
(-120.357 -26813.8 -3.38332e-10 891.527 1.59162e-12 -771.17)
(-200.998 -28005.4 -2.47746e-09 956.744 4.74074e-11 -755.746)
(-296.735 -22683.8 6.62476e-09 1095.72 -2.54431e-10 -798.986)
(-353.908 -15356.3 8.22547e-09 1202.17 -5.25461e-10 -848.259)
(-395.749 -9426.29 1.86083e-09 1286.52 -1.85537e-10 -890.771)
(-408.127 -5592.86 -3.08319e-10 1292.47 6.82121e-13 -884.347)
(-392.42 -3151.74 8.89941e-10 1258.06 -1.72463e-10 -865.639)
(-376.735 -1659.13 3.58568e-10 1213.73 -1.23691e-10 -836.998)
(-361.478 -834.572 2.3374e-10 1183.38 -1.00613e-10 -821.898)
(-392.263 -308.932 1.59162e-11 1212.08 7.32143e-11 -819.818)
(-319.825 -80.5589 4.06151e-10 1187.13 1.05729e-11 -867.305)
(-455.138 55.3521 4.95561e-10 1261.52 -1.46005e-10 -806.379)
(-130.072 -13061 -1.26347e-08 992.172 8.49468e-10 -862.1)
(-180.331 -27953.6 1.15433e-08 1014 -3.61638e-10 -833.672)
(-233.507 -28764.6 -1.0481e-08 1034.88 3.04908e-10 -801.369)
(-275.168 -22933.3 -7.6725e-09 1056.58 3.01952e-10 -781.409)
(-318.779 -15436.8 3.17414e-09 1133.49 -2.32603e-10 -814.711)
(-366.994 -9462.96 1.91085e-09 1220.76 -2.30557e-10 -853.763)
(-402.438 -5621.67 -3.14685e-10 1286.63 2.0691e-10 -884.188)
(-391.449 -3123.41 -3.73348e-10 1270.81 1.52454e-10 -879.362)
(-381.203 -1647.35 7.5579e-10 1241.79 -2.50907e-10 -860.583)
(-372.525 -824.972 -3.62661e-11 1209.1 -1.30285e-10 -836.579)
(-373.711 -280.88 1.68626e-10 1198.68 9.25411e-11 -824.967)
(-389.885 -29.3589 3.22949e-10 1220.28 -2.69438e-11 -830.396)
(-311.243 98.6706 3.59009e-10 1186.87 2.80806e-11 -875.629)
(-443.672 114.849 1.06155e-11 1249.33 1.42482e-10 -805.657)
(-202.898 -13808 -7.2796e-09 1095.79 4.61228e-10 -892.896)
(-240.08 -29287.2 4.1473e-10 1107.12 -2.87628e-11 -867.036)
(-290.625 -29645.3 -3.38332e-10 1145.16 1.42109e-11 -854.537)
(-318.022 -23303.8 6.45014e-09 1146.24 -2.88765e-10 -828.213)
(-315.553 -15595.9 -4.36194e-09 1123.92 2.48974e-10 -808.363)
(-356.319 -9542.66 1.28239e-10 1182.98 -2.50111e-11 -826.656)
(-379.344 -5625.58 3.72893e-11 1236.93 -6.13909e-12 -857.581)
(-387.066 -3105.16 7.01675e-10 1269.79 -1.79057e-10 -882.721)
(-381.206 -1669.42 3.34467e-10 1252.54 -1.11982e-10 -871.33)
(-378.679 -844.94 1.69393e-10 1231.84 -1.0607e-10 -853.162)
(-376.569 -253.551 -1.34463e-10 1209.61 9.5838e-11 -833.039)
(-364.703 42.0383 1.41931e-10 1200.57 -1.7053e-12 -835.868)
(-382.123 153.163 1.56348e-10 1223.24 6.19593e-11 -841.121)
(-302.416 144.429 -9.01252e-11 1187.07 -9.33369e-11 -884.657)
(-440.218 104.198 -2.91827e-10 1246.53 8.01472e-11 -806.311)
(-213.355 -14304.4 -1.36115e-08 1107.39 9.30072e-10 -894.032)
(-279.483 -30427.2 2.40761e-08 1163.8 -8.20819e-10 -884.318)
(-338.358 -30400.2 -8.90941e-09 1228.3 3.30147e-10 -889.946)
(-361.696 -23697 -7.18501e-09 1238.48 3.18664e-10 -876.786)
(-356.934 -15788.4 8.4292e-09 1206.52 -5.31031e-10 -849.587)
(-363.589 -9626.32 1.65801e-09 1187.28 -2.0043e-10 -823.693)
(-368.61 -5581.63 5.27507e-11 1209.61 -4.54747e-13 -841.001)
(-370.772 -3066.1 -8.09905e-10 1236.69 1.48702e-10 -865.914)
(-381.687 -1707.82 2.64208e-10 1259.98 -2.35445e-10 -878.29)
(-379.243 -870.46 1.5757e-10 1239.61 -1.3506e-10 -860.362)
(-370.392 -243.524 2.71797e-10 1214.32 1.15392e-10 -843.926)
(-357.925 108.36 -1.0715e-11 1192.86 -2.52385e-11 -834.936)
(-355.1 212.21 -4.97096e-11 1199.53 1.8531e-11 -844.435)
(-378.905 178.131 -1.52212e-10 1230.71 1.31422e-10 -851.807)
(-302.831 113.962 3.25286e-11 1193.91 -1.64846e-11 -891.076)
(-443.237 74.7729 8.64731e-11 1254.78 -6.80678e-11 -811.542)
(-140.062 -14526.1 -6.93399e-09 1024.95 4.57135e-10 -884.888)
(-243.136 -31157.6 6.18456e-11 1117.81 -3.41061e-13 -874.674)
(-329.523 -30848 -1.09103e-08 1213.79 3.81419e-10 -884.271)
(-380.336 -23938.6 6.43195e-09 1288.09 -3.17982e-10 -907.749)
(-395.019 -15897.3 -3.56704e-09 1292.96 2.57955e-10 -897.942)
(-392.393 -9642.65 1.94541e-09 1257.69 -2.20894e-10 -865.296)
(-366.423 -5469.96 -1.27511e-09 1211.59 1.98497e-10 -845.171)
(-363.212 -2991.31 -4.82942e-10 1219.04 1.46656e-10 -855.826)
(-373.588 -1722.44 1.73031e-10 1245.64 -1.24714e-10 -872.047)
(-382.276 -873.606 2.33285e-10 1254.2 -1.04933e-10 -871.927)
(-360.422 -230.524 -7.34701e-11 1214.29 8.92442e-11 -853.865)
(-347.944 141.025 -1.0364e-10 1185.22 1.31877e-11 -837.279)
(-345.209 253.266 1.81075e-10 1180.07 6.15046e-11 -834.86)
(-356.139 209.56 8.65725e-11 1212.51 -8.25366e-11 -856.376)
(-384.155 130.065 -1.62885e-10 1243.58 4.37694e-11 -859.428)
(-306.689 80.338 -1.53591e-10 1203.99 -8.71978e-11 -897.303)
(-451.228 28.4315 1.61428e-10 1272.34 -6.99022e-11 -821.113)
(-56.4304 -14737.3 -1.27075e-08 957.947 8.50719e-10 -901.517)
(-168.03 -31591.9 1.18343e-08 1051.18 -3.68345e-10 -883.151)
(-273.905 -31080.3 -1.04992e-08 1143.64 3.52202e-10 -869.734)
(-333.794 -23991.2 -7.64703e-09 1217.75 3.31738e-10 -883.96)
(-388.419 -15847.6 8.43829e-09 1301.41 -5.70139e-10 -912.989)
(-398.002 -9542.91 1.69621e-09 1306.67 -2.0168e-10 -908.667)
(-380.201 -5299.01 3.2378e-10 1267.12 6.25278e-12 -886.917)
(-362.514 -2894.28 9.04947e-11 1225.58 -1.78261e-10 -863.067)
(-370.485 -1687.53 1.94632e-10 1238.8 -1.09026e-10 -868.313)
(-377.265 -833.976 -1.76101e-10 1253.46 -1.34378e-10 -876.198)
(-353.997 -200.127 2.47383e-10 1224.35 1.15506e-10 -870.35)
(-343.6 150.469 3.09328e-10 1191.7 -1.59162e-12 -848.103)
(-335.039 257.311 2.35872e-10 1164.94 2.85354e-11 -829.904)
(-345.608 226.742 1.82752e-11 1184.03 1.29717e-10 -838.419)
(-369.07 142.042 -3.62093e-11 1237.74 7.42375e-11 -868.675)
(-391.007 90.1546 -5.3916e-11 1257.92 6.42331e-11 -866.911)
(-311.819 32.2342 -1.36708e-10 1215.68 7.74207e-11 -903.856)
(-462.753 -1.74297 2.31097e-10 1295.23 -6.48364e-11 -832.479)
(-55.7614 -15271 -1.31658e-08 1013.49 9.02673e-10 -957.729)
(-121.308 -32244.2 1.96451e-10 1036.52 -1.3415e-11 -915.208)
(-218.5 -31430 -1.56797e-09 1099.51 4.16094e-11 -881.006)
(-287.979 -24022.3 7.55608e-09 1159.15 -3.07296e-10 -871.168)
(-329.992 -15688.6 -3.02316e-09 1207.31 2.41016e-10 -877.314)
(-365.451 -9343.64 2.60388e-09 1287.7 -2.44768e-10 -922.253)
(-371.377 -5132.36 -1.26465e-09 1291.5 2.13504e-10 -920.121)
(-373.346 -2809.8 -4.18368e-10 1271.26 1.44269e-10 -897.916)
(-371.09 -1620.53 4.83624e-10 1246.68 -2.41926e-10 -875.593)
(-371.555 -731.983 -1.4137e-10 1250.89 -1.5234e-10 -879.336)
(-350.153 -145.431 -4.52616e-11 1237.63 8.94715e-11 -887.478)
(-341.232 142.887 -2.39595e-11 1205.3 1.29603e-11 -864.064)
(-336.782 237.85 3.14799e-10 1178.23 5.91172e-11 -841.443)
(-337.57 215.457 7.85718e-11 1164.16 -7.94671e-11 -826.589)
(-357.282 148.27 1.63269e-10 1202.79 4.5361e-11 -845.511)
(-374.751 94.806 8.42846e-11 1250.06 -1.14369e-10 -875.304)
(-395.091 37.8014 8.03819e-11 1265.46 -6.9349e-11 -870.364)
(-318.264 4.95231 -1.14618e-10 1227.77 -1.02318e-11 -909.51)
(-473.081 -0.0439493 1.44077e-10 1320 2.4778e-12 -846.916)
(-99.9314 -16100.4 8.84938e-09 1100.32 -5.03064e-10 -1000.39)
(-163.972 -33473.5 -2.11003e-10 1136.38 -1.44382e-11 -972.408)
(-230.855 -32255.4 -9.78253e-09 1164.14 3.39355e-10 -933.28)
(-265.84 -24272.7 -7.3087e-09 1144.89 3.03771e-10 -879.049)
(-291.792 -15591 4.87307e-09 1150.5 -2.85695e-10 -858.706)
(-295.657 -9143.37 1.90721e-09 1176.08 -2.04409e-10 -880.426)
(-349.02 -5036.06 -7.04404e-10 1280.44 -2.27374e-13 -931.418)
(-369.641 -2804.21 8.11269e-10 1293.4 -1.87129e-10 -923.757)
(-380.367 -1551.31 7.79664e-10 1280.88 -1.24601e-10 -900.512)
(-364.764 -604.046 -2.09297e-10 1252.2 -1.35287e-10 -887.437)
(-347.404 -47.3217 -2.10678e-10 1244.77 8.95852e-11 -897.369)
(-348.96 134.434 -8.06324e-11 1239.83 -2.6489e-11 -890.866)
(-337.601 202.41 -2.85866e-10 1195.5 1.38698e-11 -857.904)
(-339.557 184.221 1.65002e-10 1171.77 1.28011e-10 -832.21)
(-345.818 145.393 -7.62839e-11 1171.02 -1.47793e-11 -825.199)
(-366.047 96.8789 1.37632e-10 1222.22 6.23004e-11 -856.172)
(-376.415 33.418 -1.65969e-10 1252.28 5.60476e-11 -875.862)
(-396.806 7.43911 -6.46527e-11 1266.04 4.97948e-11 -869.235)
(-320.253 10.3659 -9.34577e-11 1235.54 2.96723e-11 -915.291)
(-485.122 1.57995 2.92886e-11 1348.98 -1.02222e-10 -863.855)
(-140.707 -16961.2 -1.5727e-08 1165.76 1.01818e-09 -1025.05)
(-219.964 -35012.2 4.69299e-10 1224.57 -1.5234e-11 -1004.61)
(-290.327 -33427.6 -1.17288e-08 1276.28 3.64366e-10 -985.958)
(-326.206 -24802.5 7.19592e-09 1273.63 -3.19233e-10 -947.424)
(-292.04 -15649.2 -3.94175e-09 1168.06 2.51248e-10 -876.018)
(-264.532 -9046.8 3.32875e-10 1119.21 -2.52385e-11 -854.673)
(-289.932 -5059.28 -1.35105e-09 1166.53 1.94177e-10 -876.596)
(-356.744 -2886.72 -7.84894e-10 1283.56 1.58366e-10 -926.819)
(-377.94 -1543.51 4.34056e-10 1293.72 -2.52612e-10 -915.782)
(-359.584 -497.736 2.13106e-10 1260.96 -1.54159e-10 -901.375)
(-347.075 58.4796 -3.41629e-10 1249.06 1.19144e-10 -901.981)
(-350.848 157.644 8.51372e-11 1256.87 -1.78488e-11 -906.026)
(-351.801 175.67 -2.03784e-10 1245.98 5.19549e-11 -894.181)
(-343.532 140.876 1.21744e-10 1194.73 -8.12861e-11 -851.195)
(-344.151 133.028 -1.48873e-10 1167.53 4.60432e-11 -823.374)
(-351.791 107.659 7.53246e-11 1185.65 -9.53833e-11 -833.858)
(-370.382 29.8161 -1.87228e-12 1232.63 -4.25189e-11 -862.245)
(-377.495 -1.657 -8.48732e-11 1251.44 -1.42109e-11 -873.94)
(-397.924 12.3652 -4.63158e-11 1266.22 -1.05729e-11 -868.298)
(-322.899 8.21616 -9.08074e-12 1245.42 1.13687e-13 -922.52)
(-496.123 -20.2165 1.343e-10 1375.25 -3.43108e-11 -879.122)
(-63.9942 -17711.2 -8.28732e-09 1037.77 4.67367e-10 -973.775)
(-238.332 -36422.6 -8.00355e-10 1250.72 1.50067e-11 -1012.39)
(-337.52 -34466.8 5.71163e-10 1358.88 -1.68257e-11 -1021.36)
(-377.623 -25317.4 7.35236e-09 1375.2 -3.2253e-10 -997.577)
(-352.576 -15786.2 3.63252e-09 1305.67 -2.96495e-10 -953.097)
(-288.046 -9062.72 2.05546e-09 1167.02 -2.07933e-10 -878.976)
(-275.425 -5161.18 -4.93856e-10 1123.77 1.81899e-12 -848.343)
(-315.565 -3001.7 -1.46883e-10 1194.25 -1.70644e-10 -878.687)
(-366.7 -1571.08 3.59705e-10 1284.36 -1.29717e-10 -917.656)
(-348.234 -455.766 -5.13865e-11 1256.75 -1.05501e-10 -908.512)
(-338.633 123.184 -9.44311e-11 1233.12 8.15135e-11 -894.487)
(-346.802 198.562 4.11546e-11 1252.78 1.26192e-11 -905.974)
(-355.121 175.658 -1.06198e-10 1271.58 6.45741e-11 -916.462)
(-358.236 109.715 -5.90035e-11 1248.74 1.31536e-10 -890.505)
(-350.104 110.501 1.77209e-11 1195.55 -1.79625e-11 -845.443)
(-343.551 122.995 5.18696e-11 1166.96 4.04725e-11 -823.405)
(-360.931 39.7742 -5.77263e-11 1211.04 7.54881e-11 -850.108)
(-372.899 -5.86113 -4.96205e-11 1238.77 -3.69482e-11 -865.868)
(-377.435 5.56077 8.58185e-11 1248.79 -2.28511e-11 -871.352)
(-400.307 13.0722 -1.7284e-12 1270.36 -1.55751e-11 -870.049)
(-329.57 -24.0451 -1.51132e-11 1264.13 -4.83169e-11 -934.563)
(-496.779 -49.6091 -3.40989e-11 1375.45 -4.23341e-11 -878.672)
(47.9673 -18368.6 -1.66419e-08 895.375 8.28095e-10 -943.343)
(-160.228 -37584 1.50758e-08 1133.7 -4.15639e-10 -973.468)
(-315.925 -35150.2 -1.23e-08 1329.12 4.09727e-10 -1013.19)
(-394.197 -25550.1 4.03816e-10 1429.25 -3.30829e-11 -1035.06)
(-387.333 -15796.8 3.86717e-09 1401.42 -2.92857e-10 -1014.08)
(-350.084 -9094.9 7.28505e-10 1304.8 -1.6712e-11 -954.712)
(-298.214 -5272.44 -6.01631e-10 1168.56 1.98838e-10 -870.342)
(-296.825 -3046.77 -3.88809e-10 1144.92 1.40062e-10 -848.096)
(-327.409 -1556.46 1.13027e-09 1212.73 -2.4454e-10 -885.317)
(-334.172 -444.722 2.45052e-10 1247.9 -1.36083e-10 -913.727)
(-328.067 108.939 -1.1218e-10 1215.78 1.17439e-10 -887.713)
(-326.092 220.679 -8.73399e-11 1206.14 -3.17186e-11 -880.049)
(-347.052 200.011 -1.35458e-10 1258.33 2.6148e-11 -911.28)
(-365.519 88.6133 -2.68777e-10 1286.69 1.26761e-10 -921.172)
(-361.118 90.2992 -8.62457e-11 1244.71 4.39968e-11 -883.591)
(-347.288 125.316 3.98614e-11 1187.23 -1.09253e-10 -839.941)
(-347.104 66.3364 2.52598e-11 1181.17 -5.42286e-11 -834.068)
(-365.572 1.88251 9.52083e-11 1227.75 9.54969e-11 -862.175)
(-375.304 2.18386 -1.48619e-11 1245.31 1.45519e-11 -870.011)
(-377.39 12.3586 -6.6203e-11 1248.54 3.41061e-12 -871.149)
(-406.869 -12.7066 -3.57367e-11 1285.69 -1.28466e-11 -878.824)
(-341.75 -66.5814 3.82983e-11 1288.49 -2.53522e-11 -946.743)
(-460.169 -32.2046 6.20588e-11 1296.7 -4.8356e-11 -836.531)
(49.2313 -19129.1 -9.04947e-09 1000.92 4.78394e-10 -1050.15)
(-57.6897 -38669.3 1.69894e-09 1009.2 -2.75122e-11 -951.512)
(-235.986 -35609.5 -1.57161e-09 1217.75 4.45652e-11 -981.759)
(-337.791 -25548.3 8.26185e-09 1356.42 -3.91651e-10 -1018.63)
(-377.53 -15651.8 4.83851e-10 1422.46 -3.41061e-11 -1044.93)
(-383.355 -9050.61 3.04681e-10 1403.89 1.60298e-11 -1020.53)
(-352.133 -5280.66 1.18689e-10 1304.78 1.27329e-11 -952.652)
(-296.691 -3003.24 3.63798e-10 1161.24 -1.7053e-10 -864.553)
(-293.319 -1426.13 6.33122e-10 1155.45 -1.18575e-10 -862.129)
(-301.515 -401.337 3.07665e-10 1201.39 -1.09367e-10 -899.872)
(-317.305 51.9847 1.35358e-11 1208.48 9.14042e-11 -891.172)
(-312.388 194.266 -5.32339e-11 1174.94 -1.25056e-12 -862.554)
(-315.244 209.448 -5.99982e-11 1182.71 5.6616e-11 -867.464)
(-351.683 86.9559 1.02887e-11 1264.12 -9.69749e-11 -912.435)
(-365.386 64.4335 -3.35731e-11 1279.63 3.20597e-11 -914.246)
(-353.708 111.972 -1.31074e-10 1223.88 5.30918e-11 -870.177)
(-341.341 87.1673 -1.84954e-11 1175.49 3.86535e-11 -834.152)
(-353.412 24.6036 1.10472e-11 1206.59 2.42153e-11 -853.175)
(-367.234 8.36927 -1.13554e-11 1238.02 2.00089e-11 -870.789)
(-375.172 12.8082 2.10694e-11 1246.47 -1.36424e-12 -871.301)
(-382.623 -8.40717 7.84857e-11 1260.74 -4.5361e-11 -878.12)
(-419.275 -51.026 -1.09175e-11 1312.72 3.97904e-12 -893.442)
(-341.981 -71.3825 -6.78719e-11 1285.16 7.67386e-12 -943.181)
(-339.45 109.182 1.74367e-11 1023.19 5.79803e-12 -683.738)
(-1.79724 -20060.6 -1.83481e-08 1216.11 1.12834e-09 -1214.31)
(-83.9669 -40007.7 3.27564e-08 1151.19 -9.00627e-10 -1067.22)
(-156.878 -36176.1 -1.14778e-08 1126.21 3.39355e-10 -969.328)
(-265.249 -25562.3 -6.58474e-09 1258.42 3.06954e-10 -993.168)
(-324.02 -15509.4 8.44739e-09 1348.31 -6.13113e-10 -1024.29)
(-368.943 -8968.12 3.38059e-09 1413.82 -5.19776e-10 -1044.88)
(-370.876 -5183.32 -3.1514e-10 1388.09 -1.13687e-13 -1017.22)
(-330.058 -2849.77 -8.95852e-11 1280.07 1.80421e-10 -950.009)
(-268.667 -1230.26 4.30532e-10 1142.64 -2.46587e-10 -873.976)
(-275.51 -274.487 -8.896e-12 1166.12 -1.2767e-10 -890.615)
(-308.696 10.248 1.50695e-10 1215.59 1.12323e-10 -906.894)
(-308.43 134.78 2.03499e-11 1180.14 -2.7967e-11 -871.71)
(-298.302 192.522 2.95302e-10 1137.92 2.22826e-11 -839.62)
(-316.048 91.7176 1.12692e-10 1178.79 1.28694e-10 -862.738)
(-350.103 42.8844 2.7498e-12 1259.69 8.75389e-11 -909.591)
(-352.377 79.3053 -1.01245e-10 1244.13 6.30962e-11 -891.757)
(-339.671 78.1847 2.79762e-10 1187.12 -7.46923e-11 -847.452)
(-336.072 51.8494 -3.32641e-11 1172.38 9.32232e-11 -836.309)
(-358.08 19.409 1.6005e-11 1225.24 2.38742e-11 -867.165)
(-368.004 12.6755 1.5639e-11 1242.41 1.36424e-12 -874.403)
(-377.967 -4.67721 1.63869e-13 1251.59 -1.68257e-11 -873.622)
(-395.973 -42.7926 7.07221e-11 1289.02 -4.57021e-11 -893.05)
(-424.84 -63.3651 4.82459e-12 1329.22 1.0516e-11 -904.379)
(-313.438 13.2115 -4.18297e-11 1195.69 -7.90124e-12 -882.249)
(-109.899 421.808 3.64508e-12 433.575 6.73595e-12 -323.676)
(25.4468 -21149.8 -1.06229e-08 1227.19 5.92991e-10 -1252.64)
(-147.993 -41641.3 1.34605e-09 1370.25 -3.27418e-11 -1222.25)
(-211.913 -37038.2 -1.27402e-08 1304.06 4.20073e-10 -1092.15)
(-221.711 -25800.4 8.86575e-09 1214.95 -3.64594e-10 -993.238)
(-277.264 -15517.1 -3.15595e-09 1274.55 2.60684e-10 -997.283)
(-327.674 -8933.73 2.20643e-09 1352.14 -2.65459e-10 -1024.47)
(-355.585 -5045.63 -1.37516e-09 1398.64 2.00998e-10 -1043.05)
(-333.545 -2671.08 -2.33058e-10 1348.03 1.87811e-10 -1014.49)
(-283.89 -1037.64 3.52429e-12 1232.29 -1.38243e-10 -948.395)
(-252.875 -127.209 2.0556e-10 1148.5 -1.08571e-10 -895.63)
(-295.29 47.8718 -1.139e-10 1212.64 9.11768e-11 -917.347)
(-321.183 95.0486 6.53415e-11 1238.98 5.68434e-13 -917.802)
(-295.699 148.47 5.98277e-12 1144.72 5.72982e-11 -849.025)
(-291.522 95.9952 1.55893e-10 1115.83 -7.50333e-11 -824.307)
(-318.851 50.0706 6.67129e-11 1188.03 4.43379e-11 -869.175)
(-347.568 37.9719 3.11076e-11 1250.04 -8.77662e-11 -902.474)
(-337.801 44.475 4.84341e-11 1199.82 -4.16094e-11 -862.014)
(-324.99 54.5887 -3.87956e-11 1152.55 6.48015e-12 -827.557)
(-341.002 34.7441 5.60085e-12 1189.67 1.02318e-12 -848.665)
(-360.726 11.8336 6.74589e-11 1234.33 1.93268e-12 -873.603)
(-371.436 -5.72422 5.83738e-11 1246.11 -5.27507e-11 -874.675)
(-390.537 -32.2296 -1.42997e-12 1276.41 4.06999e-11 -885.876)
(-408.16 -54.767 -2.39808e-13 1322.72 1.27329e-11 -914.559)
(-399.298 -24.0063 -4.09921e-11 1278.61 4.46789e-11 -879.311)
(-231.823 327.716 3.65361e-11 878.561 -1.08002e-11 -646.738)
(504.15 1114.82 -6.97753e-12 -896.118 1.65699e-11 391.968)
(140.205 -22438.7 -2.01617e-08 876.09 8.79027e-10 -1016.29)
(-148.386 -43467 1.69675e-08 1412.11 -5.21823e-10 -1263.73)
(-280.118 -38067.8 -1.25874e-08 1519.79 4.43379e-10 -1239.67)
(-288.404 -26206.7 -7.24685e-09 1399.21 3.54021e-10 -1110.81)
(-263.793 -15653.9 7.89623e-09 1272.73 -5.89921e-10 -1008.93)
(-292.895 -8940.91 1.84173e-09 1294.27 -2.25668e-10 -1001.38)
(-315.639 -4934 -1.21418e-10 1338.5 -2.27374e-12 -1022.86)
(-314.812 -2521.42 8.96989e-10 1353.12 -2.30216e-10 -1038.31)
(-292.976 -950.546 1.545e-10 1300.23 -1.12777e-10 -1007.25)
(-264.29 -50.9125 -2.06057e-11 1207.31 -1.33241e-10 -943.016)
(-278.58 126.604 -2.06896e-10 1202.13 1.18348e-10 -923.547)
(-318.236 124.019 -8.55351e-11 1269.11 -2.6148e-11 -950.879)
(-326.08 117.113 -1.76698e-10 1246.57 2.56932e-11 -920.487)
(-294.383 91.776 -2.38522e-10 1132.61 1.2426e-10 -838.229)
(-293.078 86.7274 1.24565e-10 1125.74 -1.58025e-11 -832.658)
(-326.985 33.5917 -2.85709e-11 1213.46 4.84306e-11 -886.473)
(-343.178 3.017 6.59384e-12 1229.57 7.53744e-11 -886.392)
(-321.825 34.3744 -7.2518e-11 1157.59 3.79714e-11 -835.768)
(-323.734 51.3801 -3.53033e-11 1150.04 7.95808e-12 -826.301)
(-351.127 15.8318 -1.09726e-11 1218.45 3.06954e-12 -867.322)
(-367.633 -8.83754 2.71054e-11 1246.56 -3.34239e-11 -878.93)
(-383.685 -22.7258 -3.54294e-12 1269.19 -2.66027e-11 -885.502)
(-405.859 -39.362 2.74145e-11 1319.54 -2.67164e-11 -913.68)
(-398.828 -26.6269 -5.89802e-11 1310.06 -8.12861e-12 -911.231)
(-306.412 140.261 -2.28226e-11 1061.71 1.73941e-11 -755.298)
(48.2697 945.904 -1.93268e-11 135.409 -1.49925e-12 -183.678)
(1281.16 2612.91 4.56737e-11 -3080.73 1.03544e-11 1799.57)
(46.4301 -23677.9 -2.2832e-08 796.457 7.61361e-10 -842.887)
(-43.8101 -45426.4 5.89353e-10 1070.65 1.13687e-13 -1026.84)
(-281.094 -39090.5 -1.1205e-09 1565.51 3.93356e-11 -1284.41)
(-353.908 -26594.3 7.81802e-09 1611.28 -4.3201e-10 -1257.37)
(-321.389 -15731 -3.73439e-09 1444.48 2.88082e-10 -1123.1)
(-279.288 -8897.74 1.93631e-09 1301.66 -2.68756e-10 -1022.37)
(-287.095 -4826.47 -1.11277e-09 1297.84 2.18961e-10 -1010.75)
(-285.533 -2432.91 2.47837e-11 1307.2 1.60981e-10 -1021.67)
(-286.593 -964.395 2.4238e-10 1311.38 -1.40631e-10 -1024.78)
(-284.329 -114.387 1.83604e-11 1271.24 -1.36765e-10 -986.912)
(-271.6 148.647 1.11186e-10 1208.02 1.00727e-10 -936.423)
(-306.242 201.454 1.99577e-10 1266.3 -2.27374e-13 -960.058)
(-340.738 129.013 -3.49161e-11 1321.86 7.09406e-11 -981.123)
(-334.796 82.4434 -1.43032e-11 1259.42 -8.73115e-11 -924.62)
(-290.38 137.966 4.60005e-11 1129.82 4.14957e-11 -839.44)
(-309.831 79.9686 1.02602e-10 1180.1 -1.10276e-10 -870.267)
(-345.16 -7.9622 9.44631e-11 1253.76 -5.38876e-11 -908.598)
(-329.846 11.4703 5.34843e-11 1197.85 -1.6712e-11 -868.003)
(-319.658 60.9618 -8.04405e-11 1149.15 1.02318e-11 -829.494)
(-339.026 41.1031 1.40012e-11 1195.16 -1.77351e-11 -856.129)
(-365.188 -6.98702 4.60698e-11 1254.16 -1.02318e-11 -888.967)
(-379.729 -10.6701 -5.46807e-11 1270.6 4.28599e-11 -890.868)
(-399.517 -19.3905 -2.91296e-11 1316.34 -1.7053e-12 -916.818)
(-410.919 -21.5379 -3.80722e-11 1344.51 5.03633e-11 -933.592)
(-345.674 88.7128 3.15623e-11 1191.11 -1.13687e-12 -845.437)
(-111.033 532.051 2.52953e-12 497.78 -5.88329e-12 -386.748)
(481.118 2415.37 1.80194e-11 -1525.2 2.23963e-11 1044.08)
(1000.03 4035.36 2.60485e-11 -3238.79 -1.36424e-11 2238.77)
(-123.005 -24544.4 -1.09212e-08 888.291 3.9222e-10 -765.286)
(-94.2672 -47053 -1.04774e-09 933.766 1.59162e-12 -839.499)
(-151.812 -39936.4 -1.34423e-08 1201.65 3.75508e-10 -1049.84)
(-343.247 -26889.9 -8.70205e-09 1648.26 4.59977e-10 -1305.01)
(-364.233 -15705.6 3.69437e-09 1626.87 -3.99041e-10 -1262.64)
(-316.887 -8706.72 1.49248e-09 1451.44 -2.70916e-10 -1134.55)
(-267.301 -4696.62 -3.18778e-10 1307.39 7.16227e-12 -1040.09)
(-281.218 -2350.38 1.08002e-10 1304.26 -1.94177e-10 -1023.04)
(-281.553 -1036 5.16252e-10 1303.35 -1.35287e-10 -1021.8)
(-293.777 -241.526 -3.61865e-10 1298.57 2.30557e-10 -1004.79)
(-285.236 60.8885 -2.128e-10 1246.67 8.0945e-11 -961.435)
(-276.852 233.703 -1.45633e-10 1211.42 -3.21734e-11 -934.567)
(-335.733 178.751 1.46599e-10 1332.23 2.60343e-11 -996.5)
(-358.752 81.5496 -2.01908e-10 1359.79 1.46883e-10 -1001.03)
(-327.884 156.837 -1.00712e-10 1247.01 6.88942e-11 -919.131)
(-293.101 156.634 -5.82645e-11 1154.54 5.09317e-11 -861.437)
(-341.982 37.1533 -1.3603e-10 1261.47 7.76481e-11 -919.483)
(-348.727 3.09785 2.70388e-11 1272.9 4.85443e-11 -924.173)
(-326.849 68.358 -2.93952e-11 1189.96 2.35332e-11 -863.11)
(-331.405 83.9928 -4.13429e-11 1187.18 -9.32232e-12 -855.776)
(-362.433 13.0044 -7.62492e-11 1263.77 -1.72804e-11 -901.338)
(-381.435 2.18694 1.83407e-11 1291.07 -1.84173e-11 -909.639)
(-392.723 7.65906 -1.30107e-11 1313.18 -5.40012e-12 -920.453)
(-409.113 -13.4765 -3.80833e-11 1354.49 -8.98126e-12 -945.375)
(-374.97 51.7954 -6.42935e-11 1258.87 1.87015e-11 -883.897)
(-211.617 394.302 -1.82752e-11 780.794 1.04876e-11 -569.177)
(526.887 1384.65 -1.96678e-11 -935.113 2.71712e-11 408.226)
(560.157 4731.55 1.02318e-11 -2830.06 2.55795e-11 2269.91)
(664.781 2676.97 1.39835e-11 -2430.05 -2.70575e-11 1765.27)
(174.774 -25007.1 -2.29447e-08 -136.718 -4.45155e-11 -38.0557)
(-206.098 -48006.7 1.75642e-08 964.574 -3.27191e-10 -758.476)
(-148.014 -40357.6 -1.3064e-08 1003.66 2.9479e-10 -855.646)
(-198.145 -27071.8 7.94898e-09 1274.41 -3.35262e-10 -1076.26)
(-355.234 -15662.9 -3.51429e-09 1673.65 3.69482e-10 -1318.42)
(-341.589 -8513.06 3.12866e-10 1603.39 -1.93268e-11 -1261.8)
(-288.606 -4528.99 -9.74069e-10 1431.85 2.47041e-10 -1143.24)
(-278.331 -2284.66 -2.76941e-10 1335.93 1.65073e-10 -1057.6)
(-289.968 -1061.29 5.93786e-10 1322.55 -2.82171e-10 -1032.58)
(-303.522 -364.483 -3.89377e-11 1321.85 -1.50408e-10 -1018.33)
(-298.93 -52.6257 -2.04118e-10 1283.91 7.98082e-11 -984.979)
(-272.901 176.032 1.81046e-11 1203.36 -2.53522e-11 -930.457)
(-290.864 201.548 2.14428e-10 1233.76 6.10498e-11 -942.891)
(-357.133 97.4216 1.49569e-11 1376.61 -9.44738e-11 -1019.48)
(-355.05 132.951 -1.70303e-10 1353.64 4.96811e-11 -998.595)
(-310.273 197.246 -1.13403e-11 1211.48 -1.11754e-10 -901.204)
(-326.169 119.58 -3.16618e-11 1235.69 -6.11635e-11 -909.516)
(-356.878 27.3898 -1.1061e-10 1321.91 -2.27374e-13 -965.031)
(-344.789 64.8646 -2.11138e-11 1266.76 4.60432e-11 -921.974)
(-329.852 117.347 -5.12301e-12 1201.34 -7.84439e-12 -871.486)
(-354.073 50.4298 -8.84999e-11 1259.38 -2.02363e-11 -905.302)
(-380.624 15.2823 -1.04999e-10 1309.63 2.78533e-11 -929.008)
(-386.861 28.3876 -7.82667e-11 1314.09 1.86446e-11 -927.231)
(-405.854 -2.1578 -1.89373e-11 1354.61 4.75779e-11 -948.752)
(-393.079 24.6286 -4.28457e-12 1307.57 -1.26192e-11 -914.489)
(-270.559 288.49 1.97957e-11 984.315 -6.9349e-12 -713.757)
(271.618 1058.79 -1.12834e-11 -210.165 6.45173e-12 -61.4525)
(915.151 3435.9 3.17186e-11 -2672.3 1.14824e-11 1757.15)
(1081.34 3483.86 -4.00746e-11 -4145.77 4.16094e-11 3064.43)
(1123.9 -968.839 -4.70664e-11 -3380.2 -3.6664e-11 2256.3)
(-1018.71 -26974.4 -1.24965e-08 -987.222 -6.70752e-10 2005.94)
(4.38446 -48595.6 -1.56433e-09 43.688 4.78266e-11 -48.0725)
(-262.729 -40462.5 -1.10958e-09 1063.62 5.25233e-11 -800.887)
(-168.871 -27044.7 8.2e-09 1041.74 -2.81034e-10 -872.87)
(-214.296 -15643.8 4.23643e-09 1312.4 -3.02634e-10 -1098.1)
(-342.65 -8437.47 1.64891e-09 1663.5 -2.71712e-10 -1320.85)
(-309.512 -4500.76 -8.77662e-11 1564.99 9.09495e-12 -1255.47)
(-298.73 -2251.63 4.12456e-10 1440.41 -2.07365e-10 -1141.68)
(-301.552 -1011.61 1.76442e-10 1380.32 -1.46201e-10 -1078.77)
(-307.131 -389.783 5.73266e-10 1350.4 -1.18007e-10 -1043.27)
(-313.399 -135.505 -1.44723e-10 1332.12 9.9476e-11 -1018.72)
(-295.086 91.4821 4.82601e-11 1256.94 -1.0823e-10 -961.858)
(-262.664 174.503 3.74072e-10 1166.61 6.34373e-11 -903.947)