/*--------------------------------*- C++ -*----------------------------------*\
| =========                 |                                                 |
| \\      /  F ield         | OpenFOAM: The Open Source CFD Toolbox           |
|  \\    /   O peration     | Version:  v2012                                 |
|   \\  /    A nd           | Website:  www.openfoam.com                      |
|    \\/     M anipulation  |                                                 |
\*---------------------------------------------------------------------------*/
FoamFile
{
    version     2.0;
    format      ascii;
    class       volScalarField;
    location    "600";
    object      T;
}
// * * * * * * * * * * * * * * * * * * * * * * * * * * * * * * * * * * * * * //

dimensions      [0 0 0 1 0 0 0];


internalField   nonuniform List<scalar> 
27324
(
157.435
158.873
155.788
159.717
157.146
153.026
160.664
157.924
154.252
149.55
161.614
158.795
154.945
150.664
146.115
162.636
159.677
155.732
151.302
147.203
143.4
163.705
160.631
156.535
152.035
147.842
144.508
141.465
164.787
161.626
157.394
152.778
148.571
145.149
142.6
140.15
165.856
162.639
158.282
153.569
149.297
145.875
143.259
141.294
139.241
166.9
163.64
159.183
154.391
150.069
146.609
144.009
141.95
140.409
138.591
167.919
164.604
160.07
155.227
150.865
147.396
144.755
142.699
141.087
139.796
138.317
168.964
165.551
160.935
156.058
151.679
148.215
145.541
143.447
141.852
140.494
139.524
138.214
170.083
166.519
161.787
156.87
152.503
149.051
146.353
144.241
142.615
141.29
140.227
139.431
138.212
171.229
167.539
162.66
157.665
153.307
149.885
147.175
145.064
143.42
142.075
141.026
140.15
139.441
138.258
172.404
168.568
163.567
158.478
154.111
150.686
147.996
145.902
144.252
142.886
141.815
140.97
140.177
139.502
138.286
173.55
169.645
164.517
159.323
154.919
151.465
148.797
146.748
145.095
143.713
142.629
141.783
141.014
140.246
139.535
138.316
174.707
170.68
165.476
160.236
155.776
152.261
149.601
147.583
145.953
144.561
143.465
142.61
141.835
141.101
140.292
139.592
138.369
175.939
171.735
166.399
161.145
156.671
153.111
150.433
148.425
146.805
145.419
144.328
143.448
142.662
141.933
141.157
140.362
139.654
138.354
177.279
172.855
167.372
162.051
157.567
154.01
151.323
149.293
147.667
146.28
145.222
144.309
143.495
142.76
142.002
141.24
140.424
139.644
138.294
178.649
174.079
168.39
162.964
158.454
154.957
152.273
150.21
148.544
147.153
146.137
145.192
144.352
143.585
142.832
142.096
141.299
140.413
139.595
138.218
180.051
175.297
169.48
163.921
159.336
155.871
153.237
151.163
149.446
148.052
147.054
146.106
145.238
144.431
143.652
142.938
142.153
141.283
140.362
139.535
138.123
181.403
176.54
170.572
164.91
160.272
156.808
154.176
152.119
150.368
148.974
147.974
147.033
146.171
145.312
144.489
143.765
143.002
142.132
141.225
140.301
139.461
137.925
182.8
177.742
171.689
165.941
161.27
157.773
155.111
153.04
151.29
149.917
148.895
147.964
147.123
146.244
145.363
144.599
143.844
142.985
142.071
141.162
140.235
139.267
137.654
184.275
178.996
172.796
167.005
162.341
158.824
156.084
153.952
152.209
150.888
149.832
148.876
148.067
147.203
146.285
145.468
144.68
143.84
142.932
142.006
141.101
140.046
138.975
137.454
185.954
180.328
173.945
168.1
163.456
159.928
157.143
154.92
153.149
151.876
150.8
149.797
148.976
148.145
147.241
146.379
145.534
144.694
143.801
142.869
141.949
140.919
139.763
138.644
137.857
187.837
181.848
175.187
169.229
164.582
161.055
158.237
155.979
154.154
152.886
151.809
150.757
149.882
149.046
148.187
147.317
146.415
145.536
144.672
143.742
142.809
141.769
140.65
139.428
138.505
139.18
189.701
183.533
176.582
170.442
165.726
162.16
159.351
157.091
155.246
153.936
152.842
151.786
150.83
149.932
149.097
148.268
147.319
146.385
145.526
144.622
143.677
142.627
141.523
140.316
139.191
139.305
143.881
191.116
185.168
178.142
171.802
166.919
163.267
160.422
158.206
156.379
155.035
153.898
152.852
151.875
150.867
149.992
149.207
148.258
147.259
146.372
145.502
144.561
143.493
142.407
141.208
140.039
139.622
141.494
153.43
192.229
186.382
179.663
173.294
168.244
164.439
161.534
159.324
157.554
156.174
154.973
153.93
152.973
151.916
150.925
150.143
149.223
148.189
147.244
146.379
145.467
144.377
143.303
142.126
140.9
140.086
141.108
148.813
164.203
193.014
187.351
180.817
174.76
169.69
165.749
162.759
160.513
158.75
157.336
156.08
154.988
154.071
153.028
151.967
151.093
150.203
149.191
148.174
147.275
146.395
145.295
144.21
143.055
141.782
140.75
141.463
146.78
160.683
166.032
192.832
188.034
181.725
175.83
171.074
167.194
164.16
161.804
159.99
158.521
157.212
156.065
155.114
154.131
153.082
152.105
151.174
150.229
149.182
148.201
147.331
146.241
145.139
143.985
142.689
141.553
141.876
144.98
157.7
162.271
156.09
184.368
187.395
182.264
176.685
172.225
168.697
165.72
163.227
161.308
159.774
158.406
157.166
156.15
155.177
154.206
153.18
152.152
151.25
150.247
149.172
148.261
147.202
146.08
144.896
143.652
142.412
142.494
143.741
153.779
158.419
150.654
145.984
160.568
180.139
182.053
177.384
173.207
169.958
167.297
164.769
162.683
161.125
159.68
158.35
157.235
156.194
155.29
154.289
153.159
152.212
151.314
150.192
149.18
148.165
147.013
145.825
144.647
143.441
143.283
143.009
149.215
153.12
147.785
143.703
143.841
138.239
157.519
174.713
177.508
174.017
171.012
168.622
166.31
164.139
162.513
161.046
159.633
158.433
157.277
156.342
155.403
154.237
153.169
152.317
151.254
150.115
149.097
147.961
146.816
145.65
144.763
143.862
142.245
143.69
147.059
144.815
142.954
143.504
144.142
131.043
136.55
153.885
169.079
173.955
171.769
169.613
167.606
165.635
163.951
162.411
160.983
159.754
158.507
157.458
156.491
155.394
154.203
153.28
152.34
151.112
149.993
148.998
147.815
146.849
146.001
144.044
141.082
137.696
140.261
142.228
142.391
143.346
144.107
144.54
130.456
129.517
134.545
150.04
164.695
171.437
170.253
168.519
166.976
165.431
163.788
162.304
161.146
159.852
158.706
157.609
156.575
155.373
154.255
153.406
152.199
150.92
150.104
148.904
148.26
146.709
143.874
138.502
131.289
133.355
139.878
142.011
143.175
144.054
144.689
145.462
130.512
128.961
127.792
132.192
146.605
161.442
169.04
169.032
167.894
166.822
165.221
163.593
162.505
161.265
160.071
158.815
157.74
156.631
155.398
154.429
153.396
151.988
151.221
150.332
149.239
146.977
142.142
134
125.403
127.53
137.716
141.543
143.012
143.95
144.771
145.76
146.765
130.929
128.967
127.242
125.726
129.787
143.867
158.603
166.979
168.263
167.693
166.579
164.929
163.779
162.632
161.476
160.128
158.92
157.885
156.729
155.477
154.681
153.144
152.558
151.528
149.449
145.796
138.635
128.544
121.363
123.141
135.217
141.113
142.817
143.838
144.724
145.928
147.254
148.23
131.226
129.378
127.227
125.103
123.336
127.971
141.798
155.428
165.047
167.748
167.351
166.253
165.058
163.854
162.887
161.512
160.159
159.102
158.146
156.74
155.842
154.636
153.704
151.842
148.774
143.074
133.002
123.887
119.468
120.41
132.17
140.342
142.553
143.706
144.714
146.11
147.534
148.902
149.656
131.435
129.654
127.69
125.104
122.61
120.881
126.983
140.289
151.788
162.443
166.52
166.847
166.24
164.993
164.155
162.949
161.504
160.344
159.496
158.121
156.949
155.953
153.935
151.405
146.177
137.194
127.553
121.442
118.846
119.065
128.637
139.23
142.204
143.566
144.664
146.275
147.849
149.281
150.486
150.95
131.525
129.823
127.958
125.595
122.669
119.986
119.006
127.177
139.111
147.859
158.313
164.43
166.169
165.87
164.985
164.097
162.779
161.531
160.519
159.464
157.643
156.214
153.136
148.552
140.079
130.937
124.323
120.704
118.73
118.581
125.044
137.562
141.742
143.417
144.612
146.429
148.152
149.701
150.955
151.918
152.026
131.582
129.861
128.102
125.833
123.072
120.129
117.779
117.91
128.258
138.264
143.974
152.22
160.456
163.902
164.818
164.21
163.522
162.324
161.072
159.848
157.29
154.669
149.57
141.497
133.101
126.82
123.267
120.828
118.895
118.488
122.001
135.215
141.107
143.248
144.565
146.582
148.449
150.106
151.474
152.471
153.115
152.841
131.615
129.887
128.164
125.983
123.278
120.438
117.907
116.237
117.572
130.169
137.843
140.814
145.512
152.64
158.413
160.264
160.875
161.224
158.677
157.554
153.581
148.068
141.034
134.023
128.618
125.355
123.06
121.115
119.277
118.521
119.923
132.195
140.23
143.04
144.551
146.621
148.733
150.509
151.972
153.081
153.747
154.01
153.543
131.672
129.904
128.213
126.04
123.395
120.63
118.13
116.121
115.15
118.243
132.575
137.819
139.026
140.677
144.044
147.694
150.09
151.114
149.671
147.596
143.343
138.661
133.799
129.845
127.019
125.073
123.528
121.681
119.816
118.593
118.822
128.729
139.017
142.76
144.584
146.691
148.997
150.909
152.468
153.665
154.445
154.7
154.736
154.578
131.677
129.918
128.248
126.135
123.453
120.727
118.304
116.381
115.003
114.486
120.097
135.183
138.034
138.554
138.831
139.151
139.673
139.846
139.386
137.89
135.603
133.051
130.692
128.639
127.165
125.57
123.954
122.318
120.354
118.701
118.371
125.249
137.372
142.369
144.626
146.708
149.238
151.306
152.961
154.244
155.116
155.466
155.453
155.679
157.338
131.696
129.889
128.23
126.119
123.537
120.794
118.408
116.553
115.239
114.119
114.332
123.189
137.625
138.393
138.844
138.706
137.646
136.58
135.602
134.512
133.186
131.706
130.189
129.046
127.441
126.021
124.582
122.909
120.902
118.94
118.239
122.26
135.217
141.807
144.697
146.727
149.453
151.697
153.452
154.813
155.78
156.209
156.248
156.372
158.202
162.209
131.712
129.9
128.222
126.079
123.473
120.83
118.443
116.655
115.382
114.339
113.608
114.708
127.403
139.363
139.28
139.206
138.687
137.385
136.137
134.903
133.643
132.302
130.895
129.427
128.065
126.666
125.146
123.452
121.439
119.269
118.206
120.124
132.535
141.03
144.736
146.751
149.653
152.078
153.942
155.376
156.43
156.949
157.027
157.141
158.757
162.884
168.628
131.681
129.901
128.228
126.058
123.449
120.767
118.462
116.734
115.459
114.517
113.719
113.199
116.45
131.603
139.974
139.827
139.509
138.449
137.059
135.592
134.234
132.907
131.532
130.15
128.71
127.228
125.679
123.964
121.961
119.705
118.208
118.884
129.468
140.007
144.665
146.813
149.794
152.445
154.428
155.935
157.07
157.679
157.808
157.904
159.376
163.327
169.282
175.407
131.643
129.854
128.221
126.05
123.444
120.76
118.419
116.818
115.496
114.657
113.82
113.16
113.211
120.073
134.842
139.963
139.795
139.189
138.006
136.502
135.045
133.651
132.21
130.752
129.282
127.773
126.188
124.468
122.48
120.192
118.36
118.314
126.359
138.602
144.395
146.937
149.942
152.789
154.909
156.493
157.699
158.399
158.585
158.677
160.001
163.812
169.714
176.171
181.873
131.634
129.835
128.207
126.038
123.402
120.757
118.407
116.786
115.509
114.727
113.895
113.273
112.898
113.771
125.683
136.881
139.74
139.565
138.772
137.327
135.745
134.301
132.834
131.344
129.832
128.298
126.701
124.974
122.996
120.711
118.627
118.111
123.606
136.773
144.013
147.136
150.078
153.107
155.38
157.051
158.321
159.107
159.358
159.452
160.643
164.302
170.17
176.688
182.792
187.756
131.62
129.804
128.203
126.055
123.426
120.718
118.406
116.772
115.475
114.793
113.942
113.37
112.95
112.803
115.61
131.811
138.476
139.663
139.389
138.239
136.512
134.955
133.446
131.937
130.4
128.841
127.225
125.49
123.515
121.242
119.022
118.046
121.544
134.534
143.423
147.374
150.214
153.395
155.837
157.608
158.938
159.802
160.123
160.229
161.296
164.804
170.624
177.225
183.435
188.842
192.947
131.639
129.778
128.182
126.048
123.46
120.766
118.434
116.761
115.484
114.805
113.936
113.465
112.999
112.759
112.865
120.079
136.537
139.643
139.793
139.117
137.374
135.666
134.084
132.55
130.986
129.399
127.763
126.014
124.036
121.78
119.498
118.038
120.304
131.966
142.573
147.68
150.354
153.656
156.279
158.161
159.554
160.485
160.881
161.006
161.959
165.317
171.08
177.756
184.097
189.618
194.193
197.419
131.715
129.763
128.162
126.032
123.462
120.772
118.52
116.757
115.512
114.792
113.908
113.509
113.069
112.791
112.578
113.699
127.052
139.05
139.945
139.708
138.273
136.444
134.751
133.184
131.593
129.971
128.31
126.546
124.563
122.324
120.029
118.356
119.749
129.294
141.494
147.591
150.516
153.9
156.703
158.706
160.17
161.158
161.627
161.779
162.631
165.841
171.538
178.285
184.755
190.417
195.099
198.811
201.211
131.781
129.744
128.132
126.003
123.457
120.747
118.56
116.741
115.623
114.787
113.914
113.458
113.091
112.861
112.564
112.534
116.803
133.497
139.836
139.881
139.08
137.309
135.462
133.833
132.214
130.557
128.866
127.086
125.096
122.875
120.605
118.765
119.578
126.844
140.047
147.506
150.706
154.14
157.108
159.238
160.786
161.825
162.361
162.545
163.31
166.375
171.998
178.812
185.412
191.215
196.029
199.832
202.73
204.4
131.823
129.748
128.113
125.956
123.441
120.724
118.569
116.733
115.75
114.797
113.934
113.427
113.082
112.911
112.594
112.435
112.939
123.681
137.336
139.852
139.64
138.25
136.244
134.502
132.847
131.157
129.432
127.637
125.64
123.437
121.213
119.352
119.555
124.94
138.198
147.072
151.042
154.387
157.492
159.753
161.397
162.49
163.083
163.303
163.995
166.918
172.46
179.335
186.067
192.015
196.963
200.88
203.847
206.027
207.077
131.846
129.743
128.119
125.944
123.443
120.682
118.575
116.738
115.832
114.812
113.992
113.412
113.076
112.923
112.676
112.431
112.387
115.168
132.054
139.197
139.901
139.154
137.115
135.203
133.49
131.772
130.012
128.197
126.196
124.012
121.845
120.03
119.707
123.748
136.02
146.527
151.393
154.645
157.856
160.247
162
163.155
163.796
164.047
164.687
167.47
172.924
179.855
186.719
192.816
197.903
201.936
204.996
207.222
208.796
209.332
131.842
129.711
128.087
125.922
123.451
120.684
118.5
116.748
115.87
114.815
114.107
113.422
113.108
112.93
112.728
112.513
112.352
112.617
121.763
137.565
139.983
139.781
138.056
135.956
134.145
132.403
130.606
128.769
126.767
124.606
122.503
120.762
119.996
123.202
133.684
145.744
151.711
154.91
158.201
160.722
162.59
163.819
164.503
164.779
165.384
168.027
173.387
180.368
187.367
193.618
198.848
203.002
206.156
208.454
210.051
211.128
211.247
131.818
129.673
128.062
125.86
123.433
120.706
118.419
116.758
115.888
114.815
114.176
113.479
113.194
112.959
112.766
112.609
112.414
112.315
114.551
130.873
139.659
140
138.964
136.788
134.822
133.049
131.219
129.353
127.355
125.225
123.192
121.554
120.614
123.065
131.462
144.728
151.986
155.192
158.538
161.181
163.161
164.48
165.209
165.499
166.081
168.586
173.85
180.874
188.008
194.418
199.797
204.076
207.327
209.697
211.348
212.428
213.107
212.893
131.844
129.634
128.038
125.869
123.452
120.748
118.409
116.775
115.818
114.765
114.215
113.511
113.282
113.006
112.806
112.674
112.538
112.343
112.58
121.245
137.154
140.008
139.647
137.708
135.54
133.71
131.853
129.952
127.962
125.871
123.92
122.394
121.385
123.047
129.677
143.398
151.69
155.522
158.88
161.627
163.712
165.13
165.914
166.211
166.768
169.147
174.31
181.37
188.64
195.215
200.749
205.157
208.511
210.956
212.659
213.777
214.44
214.806
214.328
131.88
129.657
128.003
125.878
123.454
120.777
118.431
116.787
115.734
114.748
114.17
113.529
113.357
113.06
112.852
112.717
112.647
112.425
112.367
114.483
131.261
139.574
139.957
138.658
136.331
134.386
132.506
130.569
128.59
126.548
124.693
123.279
122.283
123.301
128.546
141.675
151.373
155.931
159.236
162.061
164.241
165.763
166.618
166.916
167.445
169.709
174.768
181.855
189.262
196.007
201.703
206.246
209.705
212.228
213.986
215.14
215.829
216.161
216.283
215.601
131.911
129.673
128.049
125.883
123.442
120.793
118.458
116.819
115.671
114.75
114.054
113.523
113.394
113.102
112.897
112.749
112.705
112.569
112.36
112.557
121.91
137.826
140.008
139.458
137.22
135.089
133.176
131.208
129.239
127.264
125.514
124.208
123.253
123.664
128.026
139.689
150.889
156.368
159.604
162.482
164.751
166.372
167.315
167.621
168.11
170.268
175.226
182.33
189.871
196.793
202.657
207.341
210.909
213.514
215.329
216.52
217.232
217.581
217.654
217.587
216.75
131.903
129.717
128.083
125.957
123.421
120.795
118.46
116.8
115.638
114.752
113.96
113.492
113.397
113.121
112.935
112.774
112.724
112.656
112.385
112.346
114.921
132.441
139.797
139.889
138.192
135.841
133.856
131.875
129.911
128.023
126.384
125.183
124.289
124.345
127.85
137.628
150.257
156.732
159.973
162.894
165.246
166.957
167.997
168.324
168.766
170.82
175.682
182.794
190.468
197.573
203.612
208.443
212.124
214.812
216.687
217.918
218.653
219.013
219.095
218.968
218.759
217.81
131.893
129.683
128.19
126.052
123.454
120.747
118.398
116.753
115.662
114.796
113.866
113.458
113.322
113.073
112.96
112.794
112.712
112.692
112.521
112.346
112.575
123.849
138.416
139.983
139.126
136.674
134.546
132.572
130.613
128.827
127.304
126.202
125.378
125.202
128.049
135.859
149.45
156.989
160.35
163.304
165.73
167.515
168.657
169.025
169.42
171.364
176.135
183.251
191.051
198.344
204.567
209.55
213.349
216.124
218.059
219.332
220.092
220.465
220.549
220.424
220.144
219.833
218.806
131.895
129.662
128.217
126.148
123.464
120.712
118.293
116.697
115.684
114.838
113.818
113.43
113.226
113.024
112.963
112.824
112.707
112.703
112.596
112.385
112.203
116.244
134.351
139.986
139.788
137.612
135.257
133.293
131.36
129.675
128.286
127.269
126.513
126.242
128.286
134.629
148.249
156.757
160.764
163.725
166.207
168.049
169.287
169.715
170.076
171.903
176.583
183.702
191.62
199.106
205.521
210.662
214.584
217.449
219.448
220.762
221.549
221.935
222.023
221.892
221.61
221.217
220.835
219.763
131.946
129.64
128.227
126.145
123.461
120.643
118.229
116.654
115.718
114.853
113.843
113.507
113.153
112.963
112.943
112.851
112.713
112.71
112.634
112.502
112.172
112.961
126.898
139.179
140.037
138.619
136.016
134.029
132.165
130.567
129.326
128.38
127.701
127.369
128.656
133.941
146.701
156.572
161.247
164.158
166.674
168.559
169.885
170.386
170.735
172.444
177.023
184.149
192.178
199.859
206.473
211.78
215.829
218.786
220.851
222.209
223.023
223.424
223.516
223.381
223.087
222.688
222.215
221.79
220.702
131.979
129.649
128.219
126.129
123.391
120.549
118.186
116.624
115.729
114.766
113.888
113.553
113.126
112.913
112.926
112.864
112.782
112.734
112.647
112.611
112.221
112.292
118.685
136.508
140.073
139.527
136.86
134.781
133.029
131.516
130.419
129.544
128.942
128.585
129.322
133.605
144.951
156.266
161.7
164.594
167.127
169.049
170.451
171.031
171.392
172.995
177.456
184.588
192.725
200.601
207.424
212.903
217.084
220.137
222.268
223.672
224.515
224.931
225.028
224.89
224.586
224.168
223.685
223.162
222.718
221.64
131.973
129.637
128.207
126.058
123.283
120.427
118.153
116.665
115.716
114.656
113.907
113.603
113.117
112.903
112.873
112.879
112.832
112.779
112.66
112.671
112.347
112.247
113.81
130.79
139.724
140.082
137.825
135.559
133.947
132.54
131.556
130.77
130.238
129.877
130.193
133.922
143.245
155.852
162.042
165.013
167.566
169.523
170.99
171.644
172.039
173.559
177.888
185.013
193.26
201.334
208.373
214.029
218.344
221.498
223.701
225.153
226.025
226.457
226.559
226.419
226.104
225.671
225.165
224.627
224.078
223.637
222.598
131.942
129.563
128.15
126.009
123.155
120.352
118.161
116.774
115.711
114.538
113.902
113.604
113.152
112.927
112.827
112.849
112.862
112.837
112.679
112.699
112.488
112.259
112.275
122.935
138.238
140.242
138.889
136.39
134.913
133.645
132.738
132.063
131.592
131.231
131.253
134.206
141.83
155.218
162.224
165.424
167.999
169.984
171.506
172.225
172.665
174.132
178.329
185.421
193.777
202.055
209.316
215.153
219.61
222.87
225.15
226.652
227.554
228.002
228.11
227.967
227.643
227.195
226.668
226.101
225.534
224.982
224.566
223.591
131.956
129.425
128.064
125.955
123.111
120.325
118.21
116.85
115.687
114.461
113.865
113.562
113.183
112.965
112.809
112.788
112.871
112.874
112.72
112.716
112.557
112.372
112.015
116.339
134.396
140.264
139.89
137.318
135.924
134.825
133.973
133.424
133.002
132.639
132.475
134.664
140.753
154.175
162.169
165.852
168.436
170.437
172.002
172.775
173.258
174.699
178.779
185.818
194.274
202.761
210.25
216.272
220.879
224.254
226.613
228.161
229.094
229.561
229.677
229.533
229.202
228.739
228.192
227.6
226.999
226.424
225.891
225.522
224.638
132.017
129.355
127.971
125.859
123.145
120.379
118.264
116.911
115.654
114.406
113.895
113.483
113.173
112.997
112.802
112.74
112.822
112.883
112.785
112.728
112.573
112.517
111.994
113.113
128.098
139.513
140.549
138.374
136.984
136.072
135.28
134.856
134.471
134.101
133.782
135.188
140.004
152.901
162.121
166.296
168.872
170.88
172.478
173.294
173.808
175.244
179.23
186.212
194.746
203.443
211.174
217.388
222.152
225.645
228.074
229.679
230.65
231.137
231.262
231.118
230.779
230.303
229.737
229.121
228.49
227.876
227.316
226.823
226.522
225.756
132.072
129.39
127.996
125.857
123.25
120.523
118.402
116.941
115.558
114.418
113.951
113.439
113.158
113.003
112.844
112.719
112.75
112.84
112.839
112.752
112.57
112.623
112.037
112.193
120.93
137.356
140.796
139.569
138.116
137.379
136.681
136.354
135.998
135.616
135.165
135.941
140.165
151.455
162.013
166.658
169.293
171.309
172.932
173.779
174.308
175.742
179.661
186.598
195.192
204.077
212.079
218.5
223.428
227.022
229.537
231.208
232.219
232.73
232.865
232.721
232.375
231.886
231.302
230.662
230.002
229.354
228.75
228.224
227.794
227.582
226.965
132.257
129.498
128.137
125.974
123.411
120.657
118.55
116.962
115.47
114.432
114.01
113.435
113.122
112.962
112.875
112.726
112.701
112.792
112.857
112.801
112.557
112.668
112.239
112.068
115.478
132.988
140.833
140.853
139.335
138.747
138.175
137.924
137.584
137.183
136.618
136.884
140.321
150.019
161.811
166.884
169.683
171.726
173.36
174.22
174.748
176.169
180.05
186.959
195.618
204.657
212.947
219.608
224.682
228.387
231.003
232.739
233.796
234.334
234.484
234.343
233.991
233.49
232.887
232.224
231.536
230.855
230.211
229.635
229.165
228.82
228.72
228.28
132.48
129.704
128.333
126.164
123.581
120.781
118.648
116.968
115.403
114.469
114.052
113.471
113.111
112.903
112.876
112.802
112.682
112.73
112.859
112.868
112.565
112.684
112.434
112.062
112.749
127.223
139.669
142.004
140.65
140.184
139.771
139.562
139.226
138.804
138.13
137.982
140.804
148.702
161.191
166.952
170.06
172.13
173.751
174.598
175.115
176.509
180.37
187.277
196.013
205.186
213.751
220.699
225.911
229.749
232.461
234.269
235.376
235.948
236.115
235.981
235.625
235.113
234.493
233.807
233.092
232.377
231.695
231.074
230.548
230.155
229.919
229.954
229.719
132.602
129.875
128.521
126.335
123.729
120.876
118.703
116.938
115.366
114.507
114.09
113.517
113.11
112.86
112.861
112.842
112.726
112.7
112.808
112.903
112.626
112.696
112.546
112.173
111.85
120.973
137.352
142.759
142.047
141.717
141.47
141.273
140.924
140.479
139.69
139.218
141.374
147.64
160.341
167.026
170.438
172.511
174.089
174.893
175.392
176.758
180.598
187.541
196.353
205.681
214.472
221.71
227.105
231.09
233.906
235.791
236.954
237.564
237.755
237.631
237.276
236.754
236.119
235.412
234.669
233.923
233.203
232.538
231.961
231.504
231.21
231.106
231.3
231.295
132.392
129.878
128.622
126.397
123.745
120.898
118.683
116.809
115.352
114.626
114.073
113.493
113.136
112.861
112.804
112.857
112.788
112.702
112.723
112.907
112.727
112.699
112.575
112.384
111.674
116.278
133.164
142.923
143.567
143.38
143.266
143.06
142.676
142.208
141.289
140.564
142.012
146.863
159.253
167.054
170.746
172.83
174.345
175.085
175.572
176.917
180.728
187.729
196.635
206.132
215.137
222.628
228.265
232.396
235.326
237.299
238.525
239.179
239.397
239.29
238.939
238.413
237.764
237.037
236.268
235.491
234.733
234.026
233.399
232.885
232.52
232.348
232.4
232.773
233.016
132.279
129.642
128.579
126.368
123.67
120.825
118.627
116.672
115.34
114.708
114.058
113.435
113.097
112.895
112.769
112.822
112.815
112.748
112.664
112.864
112.825
112.728
112.555
112.615
111.64
113.654
128.188
141.966
145.257
145.195
145.159
144.922
144.483
143.985
142.93
141.937
142.68
146.253
158.051
166.993
170.928
173.039
174.496
175.175
175.658
176.995
180.785
187.828
196.869
206.508
215.784
223.457
229.356
233.66
236.707
238.779
240.079
240.784
241.038
240.952
240.611
240.084
239.426
238.682
237.889
237.081
236.288
235.539
234.863
234.292
233.861
233.61
233.583
233.814
234.383
234.887
132.466
129.545
128.315
126.232
123.54
120.693
118.512
116.546
115.331
114.753
114.023
113.372
113.046
112.931
112.804
112.753
112.804
112.813
112.649
112.778
112.868
112.787
112.485
112.73
111.725
112.705
123.004
139.879
146.905
147.094
147.147
146.861
146.346
145.807
144.606
143.343
143.546
146.722
156.805
166.694
170.957
173.114
174.542
175.181
175.673
177.014
180.805
187.882
197.025
206.836
216.349
224.269
230.329
234.866
238.048
240.218
241.602
242.372
242.669
242.611
242.286
241.765
241.102
240.344
239.529
238.693
237.865
237.076
236.352
235.726
235.231
234.905
234.79
234.932
235.361
236.137
236.904
133.246
129.596
128.152
125.968
123.446
120.567
118.362
116.449
115.431
114.759
113.964
113.337
113.003
112.937
112.867
112.734
112.717
112.84
112.7
112.712
112.876
112.884
112.43
112.765
112.281
112.529
118.956
136.737
147.989
149.061
149.226
148.877
148.268
147.663
146.313
144.779
144.533
146.997
155.583
166.071
170.898
173.093
174.535
175.161
175.625
176.914
180.638
187.683
197.077
207.122
216.789
225.078
231.223
235.955
239.335
241.614
243.083
243.928
244.282
244.261
243.959
243.448
242.786
242.02
241.188
240.327
239.466
238.637
237.867
237.187
236.63
236.232
236.033
236.077
236.407
237.049
238.035
239.057
134.545
129.739
128.139
125.803
123.334
120.593
118.335
116.401
115.571
114.765
113.858
113.33
113.008
112.909
112.894
112.754
112.632
112.811
112.811
112.699
112.749
112.931
112.42
112.75
112.843
112.583
116.635
132.656
147.679
151.142
151.412
150.973
150.25
149.544
148.046
146.241
145.607
147.511
154.343
165.192
170.54
173.008
174.47
174.973
175.43
176.754
180.468
187.538
196.916
207.269
217.234
225.627
232.302
236.878
240.524
242.953
244.52
245.439
245.86
245.89
245.621
245.129
244.474
243.705
242.861
241.979
241.089
240.222
239.408
238.676
238.058
237.589
237.309
237.26
237.484
238.018
238.879
240.07
241.334
153.154
136.414
128.707
125.73
123.194
120.595
118.506
116.58
115.698
114.786
113.812
113.301
113.088
112.879
112.898
112.793
112.622
112.75
112.902
112.745
112.599
112.942
112.63
112.73
113.371
112.854
115.755
128.417
146.751
153.381
153.698
153.146
152.29
151.45
149.797
147.725
146.739
148.089
153.226
164.035
170.07
172.577
174.154
174.735
175.163
176.485
180.207
187.296
196.766
207.256
217.635
226.222
232.928
238.122
241.464
244.21
245.895
246.902
247.393
247.485
247.262
246.799
246.16
245.394
244.544
243.646
242.731
241.83
240.973
240.191
239.514
238.977
238.618
238.478
238.6
239.021
239.769
240.848
242.232
243.718
155.085
151.362
136.037
127.185
123.084
120.51
118.641
116.999
115.838
114.782
113.819
113.278
113.115
112.952
112.806
112.787
112.708
112.676
112.916
112.835
112.485
112.885
112.878
112.863
113.826
113.669
115.586
125.027
144.651
155.373
156.024
155.389
154.385
153.377
151.563
149.224
147.896
148.663
152.252
162.634
169.387
172.163
173.846
174.445
174.86
176.187
179.922
186.997
196.526
207.169
217.742
226.991
233.664
238.812
242.81
245.174
247.192
248.302
248.875
249.032
248.868
248.448
247.834
247.081
246.231
245.323
244.389
243.459
242.563
241.733
240.999
240.396
239.959
239.731
239.752
240.064
240.695
241.658
242.946
244.506
246.194
155.027
154.141
150.362
135.575
125.657
120.603
118.498
117.277
115.921
114.715
113.896
113.32
113.097
113.021
112.786
112.733
112.814
112.674
112.765
112.922
112.452
112.799
113.216
113.056
114.3
114.63
116.311
123.214
142.093
156.716
158.331
157.697
156.539
155.323
153.325
150.722
149.033
149.15
151.448
161.035
168.523
171.587
173.433
174.116
174.527
175.858
179.609
186.676
196.263
207.037
217.805
227.299
234.652
239.626
243.549
246.565
248.181
249.623
250.291
250.526
250.425
250.06
249.487
248.756
247.916
247.005
246.058
245.105
244.175
243.301
242.512
241.845
241.333
241.018
240.942
241.145
241.66
242.505
243.679
245.161
246.878
248.746
155.048
154.102
152.167
147.811
134.707
124.401
118.507
117.149
116.021
114.696
113.907
113.502
113.123
113.031
112.857
112.669
112.837
112.773
112.612
112.935
112.696
112.753
113.583
113.442
114.884
115.846
117.475
122.605
138.832
157.332
160.626
160.063
158.764
157.272
155.061
152.19
150.079
149.505
150.83
159.314
167.48
170.926
172.947
173.752
174.176
175.507
179.268
186.341
195.984
206.867
217.833
227.583
235.151
240.73
244.411
247.349
249.585
250.633
251.624
251.953
251.925
251.623
251.102
250.41
249.59
248.686
247.732
246.762
245.805
244.892
244.053
243.324
242.74
242.341
242.169
242.264
242.665
243.391
244.448
245.82
247.477
249.333
251.363
155.011
154.104
152.061
149.51
146.309
134.446
123.416
117.232
115.807
114.898
113.909
113.566
113.203
112.939
112.888
112.709
112.73
112.874
112.552
112.824
113.048
112.81
113.928
114.066
115.719
117.269
119.165
123.459
135.831
156.36
162.884
162.466
161.062
159.212
156.746
153.581
150.98
149.741
150.4
157.564
166.275
170.179
172.386
173.346
173.809
175.138
178.904
185.994
195.684
206.674
217.844
227.834
235.632
241.35
245.575
248.242
250.408
252.034
252.652
253.292
253.359
253.126
252.668
252.026
251.242
250.356
249.406
248.425
247.448
246.502
245.619
244.833
244.18
243.699
243.433
243.423
243.709
244.316
245.255
246.515
248.068
249.881
251.859
254.037
154.988
154.076
152.1
149.417
146.958
145.497
134.917
123.651
116.515
114.885
114.332
113.423
113.321
112.916
112.84
112.878
112.616
112.912
112.786
112.762
113.435
113.133
114.37
115.017
116.883
118.915
121.105
124.292
133.859
155.347
164.706
164.879
163.424
161.122
158.35
154.9
151.78
149.912
150.139
155.878
164.918
169.364
171.756
172.89
173.422
174.753
178.52
185.618
195.349
206.458
217.82
228.056
236.087
241.951
246.268
249.431
251.32
252.889
254.043
254.333
254.698
254.563
254.172
253.592
252.857
252.004
251.069
250.09
249.098
248.127
247.206
246.368
245.651
245.092
244.734
244.622
244.793
245.282
246.1
247.245
248.692
250.408
252.36
254.449
256.764
155.038
154.039
152.082
149.479
146.777
145.293
145.69
136.066
125.16
117.668
114.942
114.014
113.268
113.097
112.745
112.975
112.77
112.841
113.121
112.769
113.775
113.747
115.136
116.362
118.435
120.791
123.214
125.785
132.682
153.463
165.679
167.271
165.815
162.969
159.84
156.019
152.476
150.048
149.993
154.334