/*--------------------------------*- C++ -*----------------------------------*\
| =========                 |                                                 |
| \\      /  F ield         | OpenFOAM: The Open Source CFD Toolbox           |
|  \\    /   O peration     | Version:  v2012                                 |
|   \\  /    A nd           | Website:  www.openfoam.com                      |
|    \\/     M anipulation  |                                                 |
\*---------------------------------------------------------------------------*/
FoamFile
{
    version     2.0;
    format      ascii;
    class       volScalarField;
    location    "0";
    object      TuM;
}
// * * * * * * * * * * * * * * * * * * * * * * * * * * * * * * * * * * * * * //

dimensions      [0 0 0 0 0 0 0];


internalField   nonuniform List<scalar> 
27324
(
0.00574302
0.00556569
0.0111838
0.00540978
0.0110778
0.0120721
0.0052489
0.0109782
0.0118442
0.00949139
0.00509264
0.0108542
0.0116299
0.00920075
0.00605783
0.00493887
0.0107262
0.0113927
0.00893386
0.00580916
0.00345454
0.00478755
0.0105946
0.0111548
0.00865173
0.00558655
0.0032877
0.0018783
0.00463772
0.0104604
0.0109172
0.00837339
0.00536009
0.00314071
0.00177831
0.00100694
0.00448914
0.01032
0.0106816
0.00809625
0.00513999
0.00299429
0.00169034
0.000949139
0.00054283
0.00434317
0.0101681
0.010444
0.00782017
0.00491941
0.00285263
0.0016035
0.000898403
0.000510099
0.000299345
0.00420367
0.0100031
0.0101985
0.00754092
0.00469802
0.00271019
0.00151983
0.000848712
0.000481609
0.000281663
0.000174587
0.00407376
0.00983224
0.00994205
0.00725714
0.00447481
0.00256702
0.0014358
0.000800999
0.000454038
0.00026655
0.000165421
0.000110666
0.0039547
0.00966484
0.00967718
0.00697293
0.00425365
0.00242374
0.00135151
0.000753205
0.000427863
0.000252064
0.000157744
0.000105972
7.64201e-05
0.00384442
0.00950726
0.00940744
0.00669151
0.00404266
0.00228448
0.0012676
0.000705509
0.000401967
0.000238475
0.000150425
0.000102134
7.39024e-05
5.62047e-05
0.00373637
0.00935328
0.00913248
0.00641653
0.00384263
0.0021553
0.0011866
0.000658564
0.00037648
0.000225194
0.000143628
9.8443e-05
7.18871e-05
5.46947e-05
4.28646e-05
0.00362455
0.00917923
0.00884256
0.00614266
0.00365388
0.00203531
0.00111209
0.000613904
0.000351834
0.00021228
0.000137047
9.50249e-05
6.98979e-05
5.34994e-05
4.18438e-05
3.33038e-05
0.00350665
0.00896758
0.00852725
0.00586179
0.00346543
0.00192252
0.00104325
0.000573591
0.000328766
0.000199964
0.000130713
9.17249e-05
6.80398e-05
5.22759e-05
4.10343e-05
3.25507e-05
2.61727e-05
0.00338587
0.0087158
0.00818698
0.00557247
0.00327227
0.00180836
0.000979038
0.000537084
0.000308261
0.000188581
0.000124737
8.85542e-05
6.62309e-05
5.11157e-05
4.01826e-05
3.19515e-05
2.55955e-05
2.07934e-05
0.00326852
0.00844283
0.00783337
0.00528009
0.00307433
0.00169065
0.00091474
0.000503578
0.000289915
0.000178547
0.000119238
8.55543e-05
6.44746e-05
4.99744e-05
3.93649e-05
3.13112e-05
2.51361e-05
2.0347e-05
1.67605e-05
0.00315835
0.00817118
0.00748711
0.00499319
0.00287971
0.00157109
0.00084977
0.000470467
0.000273191
0.00016964
0.000114378
8.27699e-05
6.27819e-05
4.88526e-05
3.85573e-05
3.06926e-05
2.46413e-05
1.99942e-05
1.64178e-05
1.37884e-05
0.00305268
0.00790605
0.00715365
0.00471472
0.00269276
0.0014581
0.000786075
0.000437606
0.000256826
0.000161553
0.000110059
8.02572e-05
6.11746e-05
4.77511e-05
3.77594e-05
3.00822e-05
2.41633e-05
1.96135e-05
1.61525e-05
1.35304e-05
1.16602e-05
0.00294821
0.00762904
0.00682017
0.00444014
0.00251245
0.00135325
0.000728372
0.000406054
0.000240811
0.000153734
0.000106121
7.79754e-05
5.96712e-05
4.66801e-05
3.69678e-05
2.94813e-05
2.3693e-05
1.9247e-05
1.58654e-05
1.33389e-05
1.14707e-05
1.01948e-05
0.0028419
0.00732443
0.00646814
0.0041584
0.00233335
0.0012553
0.000676642
0.000378194
0.000225686
0.0001462
0.000102333
7.58528e-05
5.82656e-05
4.56474e-05
3.61864e-05
2.88857e-05
2.32331e-05
1.88885e-05
1.5591e-05
1.31301e-05
1.13393e-05
1.00609e-05
9.22654e-06
0.00273456
0.00698419
0.00609171
0.00386716
0.00215205
0.00115873
0.000628894
0.000353599
0.000212539
0.000139183
9.86982e-05
7.38018e-05
5.69322e-05
4.46562e-05
3.54199e-05
2.82942e-05
2.27815e-05
1.85396e-05
1.53236e-05
1.29325e-05
1.11934e-05
9.97753e-06
9.13612e-06
8.60328e-06
0.00262772
0.00661364
0.00569656
0.00357306
0.00197212
0.00106267
0.000581459
0.000330959
0.000201072
0.000133136
9.53028e-05
7.18124e-05
5.56375e-05
4.3705e-05
3.46719e-05
2.77095e-05
2.23346e-05
1.81998e-05
1.5065e-05
1.2741e-05
1.10572e-05
9.88124e-06
9.08818e-06
8.54786e-06
8.21456e-06
0.0025209
0.00622
0.00528991
0.00328486
0.00180222
0.00096964
0.000534381
0.000308436
0.000190589
0.000127871
9.23134e-05
6.99129e-05
5.43682e-05
4.2782e-05
3.39504e-05
2.71359e-05
2.18925e-05
1.78677e-05
1.48148e-05
1.25572e-05
1.09262e-05
9.79316e-06
9.02792e-06
8.52416e-06
8.18636e-06
8.01487e-06
0.00241331
0.00579696
0.00486707
0.00300286
0.0016447
0.000885048
0.00048934
0.000286288
0.000180227
0.000123015
8.96392e-05
6.81625e-05
5.31276e-05
4.18761e-05
3.32546e-05
2.65801e-05
2.14591e-05
1.75409e-05
1.45729e-05
1.23805e-05
1.08013e-05
9.7091e-06
8.97404e-06
8.48983e-06
8.17109e-06
7.98189e-06
8.17044e-06
0.00230204
0.00533453
0.0044197
0.00271012
0.00149563
0.000808608
0.000449511
0.000265578
0.000170208
0.000118186
8.70984e-05
6.65303e-05
5.19337e-05
4.09769e-05
3.25761e-05
2.60469e-05
2.10381e-05
1.72207e-05
1.43375e-05
1.22111e-05
1.06817e-05
9.62959e-06
8.92293e-06
8.45959e-06
8.15505e-06
7.96613e-06
8.05168e-06
1.18768e-05
0.00218198
0.0048117
0.00394471
0.00240722
0.00133971
0.000737337
0.000414362
0.000247695
0.000160982
0.000113504
8.45306e-05
6.49337e-05
5.07812e-05
4.00839e-05
3.19011e-05
2.55312e-05
2.06346e-05
1.69087e-05
1.41073e-05
1.20485e-05
1.05673e-05
9.554e-06
8.87489e-06
8.43052e-06
8.14213e-06
7.95917e-06
7.91427e-06
8.66804e-06
9.46061e-05
0.00205314
0.00421751
0.00344916
0.00210398
0.00118124
0.000663223
0.000382275
0.000232224
0.0001531
0.000109191
8.19989e-05
6.33076e-05
4.96428e-05
3.92038e-05
3.12187e-05
2.50223e-05
2.02469e-05
1.66067e-05
1.38822e-05
1.1891e-05
1.04581e-05
9.48175e-06
8.82985e-06
8.40377e-06
8.12967e-06
7.95224e-06
7.87254e-06
8.4359e-06
6.94162e-05
0.000393148
0.0019141
0.00356092
0.00293306
0.00182906
0.00103144
0.000589767
0.000349461
0.000218264
0.000146257
0.000105444
7.96187e-05
6.16818e-05
4.85003e-05
3.83363e-05
3.05378e-05
2.45067e-05
1.98691e-05
1.63163e-05
1.36624e-05
1.17377e-05
1.03537e-05
9.41303e-06
8.78728e-06
8.37911e-06
8.11767e-06
7.94774e-06
7.86297e-06
8.27459e-06
5.09932e-05
0.00036657
0.00073234
0.00169509
0.00283973
0.00240249
0.00157409
0.000911164
0.00052334
0.000317516
0.00020416
0.00013995
0.000102088
7.74641e-05
6.01236e-05
4.7363e-05
3.74826e-05
2.98695e-05
2.39889e-05
1.94903e-05
1.60365e-05
1.34493e-05
1.15879e-05
1.02534e-05
9.34783e-06
8.74726e-06
8.35686e-06
8.10555e-06
7.94396e-06
7.86307e-06
8.1319e-06
3.8966e-05
0.000328315
0.00066676
0.00113611
0.00142695
0.00200606
0.00187668
0.00132958
0.000811835
0.000475452
0.000289266
0.000190453
0.000133543
9.88806e-05
7.54549e-05
5.86589e-05
4.62612e-05
3.66427e-05
2.92246e-05
2.34815e-05
1.91116e-05
1.57631e-05
1.32443e-05
1.14423e-05
1.01566e-05
9.28634e-06
8.70989e-06
8.33596e-06
8.09432e-06
7.93863e-06
7.86878e-06
8.0649e-06
3.2498e-05
0.000290123
0.000591117
0.00102569
0.00175163
0.000828314
0.00156319
0.00144331
0.0011323
0.000724162
0.000440141
0.000269624
0.000178198
0.00012723
9.5592e-05
7.34627e-05
5.72411e-05
4.52026e-05
3.58171e-05
2.8601e-05
2.29966e-05
1.87387e-05
1.54911e-05
1.30492e-05
1.13018e-05
1.0062e-05
9.22883e-06
8.67437e-06
8.31493e-06
8.08459e-06
7.93382e-06
7.88576e-06
8.04567e-06
2.858e-05
0.000250385
0.000523281
0.000920589
0.00160339
0.00269445
0.000588071
0.00120725
0.00125651
0.000981448
0.000672295
0.000410501
0.000255553
0.000169561
0.000121471
9.22901e-05
7.14105e-05
5.58031e-05
4.41531e-05
3.50039e-05
2.79841e-05
2.25365e-05
1.83799e-05
1.52214e-05
1.28594e-05
1.1168e-05
9.96962e-06
9.17436e-06
8.63862e-06
8.29594e-06
8.07365e-06
7.93722e-06
7.91166e-06
8.00177e-06
2.69482e-05
0.000209847
0.000459125
0.000827385
0.00146321
0.00249109
0.00406656
0.000555098
0.00105709
0.00115641
0.000995235
0.000632579
0.000398015
0.000243147
0.000163434
0.000117349
8.91917e-05
6.9311e-05
5.43278e-05
4.30808e-05
3.41834e-05
2.73665e-05
2.20834e-05
1.80403e-05
1.49572e-05
1.26718e-05
1.10417e-05
9.87963e-06
9.12062e-06
8.60471e-06
8.27671e-06
8.06558e-06
7.95589e-06
7.92444e-06
7.87841e-06
2.30549e-05
0.00016723
0.000400341
0.000742104
0.00133226
0.00229755
0.00379
0.00602718
0.000546982
0.00102498
0.00101144
0.00111159
0.000706239
0.000388642
0.000239495
0.000157984
0.000114572
8.68472e-05
6.72421e-05
5.28195e-05
4.19953e-05
3.33386e-05
2.67374e-05
2.16239e-05
1.77117e-05
1.47026e-05
1.24816e-05
1.09211e-05
9.79223e-06
9.06537e-06
8.57338e-06
8.25706e-06
8.07309e-06
7.97535e-06
7.85495e-06
7.71273e-06
1.76858e-05
0.000124968
0.000344861
0.000664127
0.00120972
0.00211361
0.0035276
0.00565432
0.0088106
0.000539615
0.00101124
0.000972491
0.00108696
0.000890229
0.000457936
0.000239584
0.000156774
0.000112271
8.52557e-05
6.54955e-05
5.1313e-05
4.09084e-05
3.24911e-05
2.60969e-05
2.1153e-05
1.73784e-05
1.44561e-05
1.22913e-05
1.07996e-05
9.70802e-06
9.01133e-06
8.54201e-06
8.24914e-06
8.09351e-06
7.9518e-06
7.70588e-06
7.47901e-06
1.26797e-05
8.6489e-05
0.000290452
0.000592156
0.00109542
0.00193917
0.00327679
0.00530329
0.00831291
0.0127368
0.000532289
0.0009974
0.000954845
0.00105993
0.000942844
0.000616805
0.000285427
0.000159694
0.000111956
8.40528e-05
6.42189e-05
4.99571e-05
3.98277e-05
3.16555e-05
2.54593e-05
2.0674e-05
1.70351e-05
1.42075e-05
1.2105e-05
1.06723e-05
9.63005e-06
8.95766e-06
8.52003e-06
8.26105e-06
8.0807e-06
7.80733e-06
7.49441e-06
7.2056e-06
9.35285e-06
5.50991e-05
0.000237656
0.000525434
0.000989101
0.00177439
0.00303631
0.00496437
0.00784828
0.0120821
0.0182282
0.000524579
0.000982919
0.000935179
0.001041
0.000930046
0.000685771
0.000384783
0.000188268
0.000116136
8.2889e-05
6.33815e-05
4.90272e-05
3.88111e-05
3.08226e-05
2.48435e-05
2.0196e-05
1.66828e-05
1.39517e-05
1.19228e-05
1.05485e-05
9.55344e-06
8.91451e-06
8.51691e-06
8.24386e-06
7.93624e-06
7.60834e-06
7.22514e-06
6.98256e-06
7.73162e-06
3.30653e-05
0.000186309
0.000462309
0.000890173
0.00161936
0.0028069
0.00464084
0.00739633
0.0114767
0.0173787
0.0258324
0.000516498
0.00096714
0.000916411
0.00102333
0.000912741
0.000685667
0.000449596
0.000244967
0.000135933
8.75766e-05
6.29397e-05
4.82731e-05
3.81907e-05
3.00104e-05
2.42744e-05
1.97387e-05
1.63333e-05
1.36975e-05
1.1752e-05
1.04324e-05
9.48312e-06
8.89651e-06
8.47108e-06
8.08776e-06
7.73195e-06
7.32816e-06
7.00478e-06
6.83851e-06
7.13763e-06
2.0057e-05
0.000137643
0.000401084
0.000798205
0.00147391
0.00258858
0.00433156
0.00696436
0.0108824
0.0166014
0.0247432
0.0362497
0.000508373
0.000950649
0.000898825
0.00100952
0.00089755
0.000674829
0.000451339
0.00028968
0.000172984
0.000101284
6.76646e-05
4.88181e-05
3.72344e-05
2.93691e-05
2.37127e-05
1.93407e-05
1.59986e-05
1.34497e-05
1.15825e-05
1.0343e-05
9.41006e-06
8.76404e-06
8.28899e-06
7.85606e-06
7.44576e-06
7.09483e-06
6.858e-06
6.77177e-06
6.92936e-06
1.3089e-05
9.47609e-05
0.00033963
0.000712426
0.00133796
0.00238138
0.00403621
0.00655073
0.0103128
0.0158314
0.0237588
0.0348659
0.0503585
0.00050032
0.00093479
0.000883355
0.000997905
0.000885401
0.000663298
0.000444275
0.000288166
0.000209348
0.000125055
7.75903e-05
5.28754e-05
3.85677e-05
2.92787e-05
2.2983e-05
1.86262e-05
1.55597e-05
1.3083e-05
1.1292e-05
1.00574e-05
9.15918e-06
8.52537e-06
8.01777e-06
7.55251e-06
7.21282e-06
6.93537e-06
6.76519e-06
6.76414e-06
6.86396e-06
9.49214e-06
6.08403e-05
0.000278334
0.000631893
0.00121101
0.00218574
0.00375558
0.00615561
0.00976538
0.0150917
0.0227756
0.0336313
0.0486206
0.0692009
0.000492172
0.000920276
0.000870157
0.00098823
0.000874376
0.000652394
0.000434458
0.000286177
0.000206106
0.000151781
9.3763e-05
6.00637e-05
4.17941e-05
3.06578e-05
2.34461e-05
1.84508e-05
1.50104e-05
1.26097e-05
1.08297e-05
9.6926e-06
8.81891e-06
8.19074e-06
7.72073e-06
7.33477e-06
7.0519e-06
6.82204e-06
6.74865e-06
6.76412e-06
6.84716e-06
7.88831e-06
3.71372e-05
0.000218918
0.000555343
0.0010925
0.00200175
0.00348759
0.00577829
0.00924094
0.0143782
0.0218298
0.0323886
0.0470851
0.067073
0.0937308
0.000484088
0.00090732
0.000859323
0.000978903
0.000863524
0.000642189
0.00042464
0.000282041
0.000204971
0.000152049
0.000114218
7.10411e-05
4.72449e-05
3.31933e-05
2.45575e-05
1.88315e-05
1.50437e-05
1.24691e-05
1.06374e-05
9.41657e-06
8.56494e-06
7.94433e-06
7.51478e-06
7.1804e-06
6.93583e-06
6.80767e-06
6.75284e-06
6.76667e-06
6.84656e-06
7.26558e-06
2.26364e-05
0.00016282
0.000481067
0.00098167
0.00182981
0.00323316
0.00541847
0.00873884
0.0136926
0.020915
0.0311933
0.0455255
0.065203
0.0912769
0.123894
0.000475198
0.000894124
0.000849929
0.000969932
0.000851367
0.000632667
0.000415911
0.000278223
0.000203042
0.000150222
0.000118379
8.52801e-05
5.48056e-05
3.75638e-05
2.66704e-05
1.97582e-05
1.5355e-05
1.24886e-05
1.05265e-05
9.23634e-06
8.38722e-06
7.78188e-06
7.38718e-06
7.12108e-06
6.93983e-06
6.81751e-06
6.75687e-06
6.77171e-06
6.84892e-06
7.05116e-06
1.44497e-05
0.000112973
0.00040739
0.000877414
0.00166969
0.00299184
0.00507539
0.00825917
0.0130344
0.0200338
0.030036
0.0440237
0.0632773
0.089127
0.121407
0.157355
0.000465053
0.000878278
0.00083916
0.000958578
0.000838053
0.000622927
0.000409121
0.000275514
0.000200966
0.000148761
0.000115065
9.16864e-05
6.44522e-05
4.26069e-05
2.9763e-05
2.15246e-05
1.62398e-05
1.28318e-05
1.06241e-05
9.21706e-06
8.32445e-06
7.75999e-06
7.39198e-06
7.14155e-06
6.95521e-06
6.82701e-06
6.76502e-06
6.77605e-06
6.85187e-06
6.9845e-06
1.01008e-05
7.30113e-05
0.000333445
0.000778718
0.00152096
0.00276393
0.00474864
0.00780122
0.0124042
0.0191855
0.02892
0.0425673
0.0614133
0.086864
0.119252
0.155295
0.189558
0.000453888
0.000860197
0.000826898
0.000944093
0.00082202
0.000612516
0.00040328
0.000274215
0.00019914
0.000147237
0.000114254
8.8942e-05
7.18003e-05
4.8999e-05
3.32322e-05
2.36195e-05
1.74507e-05
1.35015e-05
1.09927e-05
9.41843e-06
8.43472e-06
7.82449e-06
7.4344e-06
7.16596e-06
6.97386e-06
6.84124e-06
6.7725e-06
6.7798e-06
6.85448e-06
6.96688e-06
8.11607e-06
4.42756e-05
0.000262353
0.000685157
0.00138217
0.00254942
0.00443884
0.00736476
0.0118012
0.018371
0.0278445
0.041162
0.0595952
0.0846481
0.116893
0.153612
0.188277
0.216178
0.000442389
0.000840459
0.000813949
0.000928689
0.000804926
0.000601315
0.000398023
0.00027349
0.000197811
0.000145936
0.000113579
8.81849e-05
7.06617e-05
5.55182e-05
3.75459e-05
2.60754e-05
1.88973e-05
1.42982e-05
1.14239e-05
9.65357e-06
8.56252e-06
7.89665e-06
7.47971e-06
7.19862e-06
6.99617e-06
6.85465e-06
6.7797e-06
6.78294e-06
6.85663e-06
6.9648e-06
7.37101e-06
2.61683e-05
0.000195543
0.000594332
0.001251
0.00234872
0.00414476
0.0069495
0.0112255
0.0175903
0.0268111
0.0398079
0.0578331
0.082461
0.114546
0.151636
0.187466
0.215805
0.235039
0.000431693
0.00082034
0.000800845
0.000913303
0.000788435
0.000590183
0.000393325
0.00027305
0.000196586
0.000145129
0.000113084
8.77294e-05
6.92868e-05
5.6588e-05
4.22619e-05
2.89832e-05
2.05652e-05
1.52376e-05
1.19193e-05
9.91792e-06
8.70784e-06
7.9784e-06
7.52902e-06
7.23052e-06
7.01793e-06
6.86833e-06
6.78659e-06
6.78586e-06
6.85858e-06
6.96676e-06
7.14476e-06
1.57673e-05
0.000135948
0.000504133
0.0011266
0.00216198
0.00386734
0.0065548
0.0106766
0.0168435
0.0258194
0.0385073
0.0561292
0.0803182
0.112185
0.149632
0.186322
0.216025
0.235518
0.246269
0.000422413
0.000802502
0.000788975
0.000898478
0.000772183
0.000579357
0.00038963
0.000272494
0.000195241
0.00014456
0.00011288
8.73922e-05
6.89929e-05
5.50383e-05
4.52108e-05
3.20151e-05
2.25279e-05
1.63397e-05
1.25006e-05
1.02121e-05
8.86448e-06
8.06504e-06
7.58073e-06
7.26402e-06
7.0402e-06
6.88221e-06
6.7937e-06
6.78869e-06
6.86027e-06
6.96954e-06
7.08708e-06
1.03144e-05
8.69804e-05
0.000413715
0.00100789
0.00198912
0.00360641
0.00618058
0.0101536
0.0161308
0.0248703
0.0372603
0.054489
0.0782243
0.109828
0.147567
0.185142
0.215906
0.236705
0.247372
0.251355
0.000414479
0.000787116
0.000778455
0.000884679
0.000757139
0.000568679
0.000386858
0.000271936
0.000193789
0.000144159
0.000112834
8.72422e-05
6.88194e-05
5.4738e-05
4.42882e-05
3.5246e-05
2.45656e-05
1.76067e-05
1.31882e-05
1.05528e-05
9.03698e-06
8.15849e-06
7.63578e-06
7.2994e-06
7.06395e-06
6.89706e-06
6.80112e-06
6.79154e-06
6.86182e-06
6.97212e-06
7.07825e-06
7.99627e-06
5.07793e-05
0.000325846
0.000893114
0.00182849
0.00336225
0.00582643
0.00965646
0.0154512
0.0239645
0.0360684
0.0529143
0.0761894
0.107484
0.145459
0.183883
0.215757
0.237574
0.24928
0.252875
0.251933
0.000407909
0.000774658
0.000767739
0.000870005
0.000743026
0.000559198
0.000385091
0.000271177
0.000192352
0.00014391
0.000112853
8.7221e-05
6.87781e-05
5.46523e-05
4.35251e-05
3.5609e-05
2.69647e-05
1.9036e-05
1.39846e-05
1.09596e-05
9.23032e-06
8.25991e-06
7.69519e-06
7.3373e-06
7.08928e-06
6.91295e-06
6.80905e-06
6.79437e-06
6.86313e-06
6.97429e-06
7.08105e-06
7.31045e-06
2.77649e-05
0.000242948
0.00078133
0.00168083
0.00313452
0.00549256
0.00918471
0.0148045
0.0231017
0.0349328
0.0514087
0.0742199
0.105164
0.143314
0.182563
0.215533
0.238435
0.250907
0.255257
0.253706
0.249388
0.000402146
0.00076425
0.000755899
0.000853371
0.000728776
0.000550702
0.00038442
0.000270152
0.000190912
0.000143836
0.000112886
8.72984e-05
6.88539e-05
5.46617e-05
4.34677e-05
3.4741e-05
2.85026e-05
2.05319e-05
1.48818e-05
1.14435e-05
9.45338e-06
8.36959e-06
7.75881e-06
7.37813e-06
7.11636e-06
6.92987e-06
6.81743e-06
6.7971e-06
6.86415e-06
6.9762e-06
7.08558e-06
7.17438e-06
1.50766e-05
0.000168196
0.000671216
0.00153978
0.00292336
0.00517893
0.00873871
0.0141899
0.022282
0.033854
0.0499752
0.0723238
0.102877
0.141143
0.181184
0.215248
0.239243
0.252553
0.257394
0.256367
0.251298
0.24479
0.000396408
0.00075414
0.000742108
0.000834086
0.00071391
0.000543125
0.000384384
0.00026882
0.000189577
0.000143909
0.000112959
8.74154e-05
6.89838e-05
5.47627e-05
4.34846e-05
3.45604e-05
2.81173e-05
2.20671e-05
1.58989e-05
1.19956e-05
9.72126e-06
8.48986e-06
7.82639e-06
7.42173e-06
7.14538e-06
6.94794e-06
6.82626e-06
6.79977e-06
6.86488e-06
6.97779e-06
7.08982e-06
7.15832e-06
9.22571e-06
0.000105352
0.000560012
0.00140472
0.00272741
0.00488601
0.00831839
0.0136073
0.0215044
0.0328335
0.0486156
0.0705078
0.100635
0.138955
0.179756
0.214897
0.240004
0.254177
0.259569
0.258816
0.254105
0.24676
0.238912
0.000390365
0.000744695
0.000727584
0.000812538
0.0006981
0.000536764
0.000384701
0.000267117
0.00018853
0.000144087
0.00011307
8.75665e-05
6.91458e-05
5.4914e-05
4.3554e-05
3.45665e-05
2.74995e-05
2.26892e-05
1.68781e-05
1.26283e-05
1.0041e-05
8.62823e-06
7.8977e-06
7.46801e-06
7.17643e-06
6.96721e-06
6.83558e-06
6.80241e-06
6.86528e-06
6.97906e-06
7.09359e-06
7.16427e-06
7.4525e-06
5.74141e-05
0.000448261
0.00127436
0.00254772
0.0046138
0.00792435
0.013056
0.0207683
0.0318709
0.0473331
0.0687768
0.0984541
0.13676
0.178285
0.214485
0.240716
0.255787
0.261746
0.26131
0.256718
0.249622
0.240893
0.232289
0.000383775
0.000736481
0.000713731
0.000790188
0.00068195
0.000531605
0.000384992
0.000265019
0.000187792
0.00014436
0.000113206
8.77628e-05
6.93195e-05
5.50858e-05
4.36706e-05
3.46056e-05
2.74446e-05
2.22271e-05
1.78416e-05
1.32837e-05
1.0405e-05
8.79688e-06
7.97353e-06
7.51639e-06
7.20959e-06
6.98784e-06
6.84549e-06
6.805e-06
6.86535e-06
6.97995e-06
7.09663e-06
7.17067e-06
7.18927e-06
2.58411e-05
0.00033974
0.00114818
0.00238255
0.0043624
0.00755648
0.012537
0.0200724
0.0309665
0.0461295
0.0671371
0.0963451
0.134575
0.176777
0.214013
0.241374
0.257381
0.26393
0.263821
0.259383
0.252301
0.243752
0.234252
0.22528
0.000376821
0.000729342
0.000700698
0.000767985
0.000666541
0.000527348
0.000384713
0.000262397
0.000187334
0.000144705
0.000113441
8.79709e-05
6.95078e-05
5.52645e-05
4.38048e-05
3.46807e-05
2.74573e-05
2.18081e-05
1.79758e-05
1.39477e-05
1.08154e-05
9.00037e-06
8.05836e-06
7.56615e-06
7.2447e-06
7.01013e-06
6.856e-06
6.80757e-06
6.86506e-06
6.98047e-06
7.09897e-06
7.17454e-06
7.18502e-06
1.00592e-05
0.000237399
0.00102606
0.00222903
0.00413127
0.00721495
0.0120506
0.0194167
0.0301188
0.0450073
0.0655946
0.0943228
0.132411
0.175229
0.213488
0.241977
0.258954
0.266121
0.266353
0.262073
0.255037
0.246439
0.237075
0.227208
0.218119
0.000369204
0.000721724
0.000688438
0.000746922
0.000652417
0.000524209
0.000383467
0.000259202
0.000187097
0.000145147
0.000113766
8.82161e-05
6.97355e-05
5.54488e-05
4.39372e-05
3.47747e-05
2.74882e-05
2.17911e-05
1.75744e-05
1.44595e-05
1.123e-05
9.22887e-06
8.16145e-06
7.61724e-06
7.28142e-06
7.03427e-06
6.86731e-06
6.81017e-06
6.86444e-06
6.98057e-06
7.10062e-06
7.17668e-06
7.19181e-06
7.20407e-06
0.000145531
0.00090699
0.00208685
0.00391947
0.00690004
0.0115979
0.0188009
0.0293269
0.0439663
0.0641552
0.0923955
0.130286
0.173653
0.212913
0.242526
0.260507
0.268314
0.268906
0.264791
0.2578
0.249181
0.23973
0.229975
0.220002
0.210956
0.000360547
0.000712123
0.00067617
0.000727496
0.000640676
0.000522131
0.000381609
0.000255775
0.000186869
0.000145582
0.000114193
8.85032e-05
6.99984e-05
5.56394e-05
4.40624e-05
3.48677e-05
2.75366e-05
2.18006e-05
1.73069e-05
1.44412e-05
1.15896e-05
9.48057e-06
8.28848e-06
7.6723e-06
7.31908e-06
7.06041e-06
6.87963e-06
6.81279e-06
6.86345e-06
6.9802e-06
7.10137e-06
7.17721e-06
7.1963e-06
7.19521e-06
6.79071e-05
0.000790315
0.00194849
0.00372669
0.00661169
0.0111801
0.0182262
0.0285892
0.0430068
0.0628234
0.0905743
0.128214
0.172059
0.212296
0.24303
0.262037
0.270511
0.271475
0.267536
0.260597
0.251953
0.24244
0.232575
0.222702
0.212789
0.203884
0.000351021
0.000699603
0.000662969
0.000709694
0.000631338
0.000520438
0.000379125
0.00025267
0.000186639
0.00014594
0.000114691
8.88253e-05
7.0297e-05
5.58476e-05
4.41795e-05
3.49529e-05
2.75917e-05
2.1818e-05
1.72929e-05
1.41121e-05
1.186e-05
9.72251e-06
8.43196e-06
7.7387e-06
7.35703e-06
7.08841e-06
6.89313e-06
6.81537e-06
6.86213e-06
6.97933e-06
7.10111e-06
7.17627e-06
7.19836e-06
7.19398e-06
9.11714e-06
0.000682111
0.00181682
0.00355227
0.00635019
0.0107975
0.0176943
0.0279053
0.0421267
0.061604
0.0888689
0.126214
0.170465
0.211642
0.243488
0.263541
0.272704
0.274058
0.270304
0.263423
0.254758
0.245179
0.235233
0.225238
0.215416
0.205663
0.196962
0.00034057
0.000683285
0.000648826
0.000693922
0.000624477
0.000518913
0.000376002
0.000250098
0.000186594
0.000146307
0.000115127
8.91705e-05
7.06327e-05
5.60749e-05
4.43026e-05
3.50302e-05
2.76427e-05
2.18466e-05
1.72929e-05
1.38794e-05
1.17665e-05
9.89894e-06
8.58724e-06
7.82312e-06
7.39618e-06
7.11785e-06
6.90805e-06
6.81792e-06
6.86044e-06
6.97777e-06
7.09976e-06
7.17412e-06
7.1974e-06
7.19193e-06
9.01601e-06
0.000589712
0.00169256
0.00339514
0.00611516
0.0104507
0.0172066
0.0272759
0.0413243
0.0604982
0.0872925
0.124299
0.168885
0.210963
0.2439
0.265013
0.274891
0.276652
0.273094
0.266275
0.257595
0.247953
0.237917
0.227827
0.21788
0.208215
0.198686
0.190227
0.000329346
0.00066419
0.000633937
0.000680944
0.000619788
0.000517035
0.000372198
0.000247915
0.000186732
0.000146769
0.000115512
8.95246e-05
7.10027e-05
5.63267e-05
4.44444e-05
3.51082e-05
2.76895e-05
2.18782e-05
1.72976e-05
1.38622e-05
1.14879e-05
9.98585e-06
8.74071e-06
7.92072e-06
7.44122e-06
7.14784e-06
6.92462e-06
6.8206e-06
6.85824e-06
6.9754e-06
7.09719e-06
7.17078e-06
7.194e-06
7.19275e-06
8.9635e-06
0.000524563
0.00157782
0.00325168
0.00590586
0.0101396
0.0167654
0.0267022
0.0405978
0.0595058
0.085855
0.122487
0.16734
0.21027
0.244265
0.266448
0.277067
0.279251
0.275901
0.269153
0.260459
0.250759
0.240636
0.230446
0.220398
0.210606
0.201162
0.191894
0.183705
0.000317672
0.000643082
0.000619546
0.000671508
0.000617347
0.000514152
0.000367334
0.000246069
0.000187126
0.000147374
0.000115858
8.98459e-05
7.13765e-05
5.6576e-05
4.45986e-05
3.51965e-05
2.77369e-05
2.19076e-05
1.73178e-05
1.38592e-05
1.12756e-05
9.85373e-06
8.79518e-06
8.02304e-06
7.49988e-06
7.17794e-06
6.94268e-06
6.82364e-06
6.85539e-06
6.97198e-06
7.09338e-06
7.16616e-06
7.18845e-06
7.19208e-06
8.94476e-06
0.000494846
0.00146944
0.0031206
0.00572108
0.00986442
0.0163721
0.0261869
0.0399464
0.0586251
0.0845661
0.120798
0.165844
0.209581
0.244586
0.267842
0.279223
0.281851
0.278718
0.272051
0.26335
0.253593
0.243386
0.233097
0.222943
0.213048
0.203475
0.194291
0.185312
0.177416
0.00030533
0.000620004
0.000605919
0.000665991
0.00061703
0.000510152
0.000361368
0.000244465
0.00018781
0.000148096
0.000116196
9.01419e-05
7.17237e-05
5.68196e-05
4.47617e-05
3.52959e-05
2.77923e-05
2.19368e-05
1.73433e-05
1.3862e-05
1.12577e-05
9.59232e-06
8.79178e-06
8.13046e-06
7.57295e-06
7.20998e-06
6.96153e-06
6.82731e-06
6.85175e-06
6.96729e-06
7.08845e-06
7.16029e-06
7.18075e-06
7.19021e-06
8.93978e-06
0.000490041
0.00136864
0.0029974
0.00556071
0.00962562
0.0160286
0.0257323
0.039371
0.0578524
0.0834314
0.119252
0.164415
0.208913
0.244869
0.269186
0.281357
0.284441
0.281542
0.274962
0.266263
0.256453
0.246163
0.235778
0.22552
0.215518
0.205842
0.196529
0.187629
0.178956
0.171376
0.000292678
0.000595501
0.000593467
0.000663282
0.000618021
0.000505159
0.000354597
0.00024302
0.000188779
0.000148932
0.000116519
9.05139e-05
7.20313e-05
5.70406e-05
4.49214e-05
3.54033e-05
2.78541e-05
2.19693e-05
1.73697e-05
1.38747e-05
1.12582e-05
9.39207e-06
8.64189e-06
8.13901e-06
7.65093e-06
7.2502e-06
6.98051e-06
6.83167e-06
6.84716e-06
6.96099e-06
7.08248e-06
7.15299e-06
7.17102e-06
7.18503e-06
8.94107e-06
0.000489255
0.00128898
0.00288674
0.00542489
0.00942373
0.0157355
0.0253415
0.0388737
0.0571863
0.0824511
0.117873
0.163074
0.208283
0.245121
0.270478
0.283454
0.287009
0.284361
0.277888
0.269196
0.259337
0.248968
0.238487
0.228126
0.218018
0.208235
0.198818
0.189787
0.18119
0.172844
0.165605
0.000280066
0.000570635
0.000582689
0.000663043
0.000619063
0.000498927
0.000347568
0.000241795
0.000189934
0.000149722
0.000116871
9.09361e-05
7.2325e-05
5.72186e-05
4.50718e-05
3.55075e-05
2.79197e-05
2.20062e-05
1.73959e-05
1.38923e-05
1.12642e-05
9.35103e-06
8.37789e-06
8.09437e-06
7.73365e-06
7.30545e-06
6.99921e-06
6.83654e-06
6.84151e-06
6.95302e-06
7.07534e-06
7.14407e-06
7.15936e-06
7.17703e-06
8.95031e-06
0.000491562
0.00124401
0.00279024
0.00531209
0.00925852
0.0154936
0.0250165
0.0384583
0.0566269
0.0816246
0.116677
0.161848
0.207698
0.245356
0.27169
0.285475
0.289535
0.287175
0.280824
0.272152
0.262247
0.251799
0.241222
0.230761
0.220547
0.210657
0.201133
0.192
0.183269
0.17499
0.16699
0.160128
0.000268018
0.000546377
0.000573949
0.000664171
0.000618761
0.000491166
0.000340901
0.000241059
0.000191237
0.00015037
0.000117234
9.14092e-05
7.26086e-05
5.73729e-05
4.51946e-05
3.5609e-05
2.799e-05
2.20465e-05
1.74227e-05
1.39096e-05
1.12777e-05
9.35017e-06
8.16552e-06
7.93808e-06
7.79214e-06
7.37256e-06
7.0199e-06
6.84144e-06
6.83488e-06
6.94344e-06
7.06694e-06
7.13332e-06
7.14588e-06
7.16668e-06
8.9632e-06
0.000497261
0.00123081
0.00270866
0.00521905
0.00912887
0.0153031
0.0247596
0.038128
0.0561778
0.08095
0.115674
0.160767
0.207171
0.245566
0.272761
0.287417
0.292039
0.289981
0.283765
0.275118
0.265175
0.254653
0.243985
0.23342
0.223103
0.213109
0.203478
0.194237
0.185401
0.176984
0.169042
0.161417
0.154976
0.000256392
0.000523324
0.000567109
0.000665545
0.000615888
0.000481768
0.000334916
0.000241217
0.000192739
0.000150765
0.000117613
9.19069e-05
7.28852e-05
5.75203e-05
4.52897e-05
3.56968e-05
2.8059e-05
2.20871e-05
1.74512e-05
1.39256e-05
1.12957e-05
9.34984e-06
8.04525e-06
7.66688e-06
7.74536e-06
7.44418e-06
7.04921e-06
6.84542e-06
6.82714e-06
6.93211e-06
7.05689e-06
7.12065e-06
7.13075e-06
7.15435e-06
8.97919e-06
0.00050506
0.00122329
0.00263989
0.00514417
0.00903425
0.0151651
0.024573
0.0378873
0.0558434
0.0804274
0.114868
0.159861
0.20674
0.245676
0.273695
0.289318
0.294522
0.29278
0.286703
0.27809
0.268116
0.257526
0.246767
0.236106
0.225684
0.215586
0.205852
0.196505
0.187559
0.179033
0.170946
0.163366
0.156152
0.150187
0.000244832
0.000501415
0.000561603
0.000665959
0.000609841
0.000471098
0.000329892
0.000242162
0.000194316
0.000151
0.000117909
9.23972e-05
7.31693e-05
5.7686e-05
4.53768e-05
3.57581e-05
2.81249e-05
2.21308e-05
1.74852e-05
1.39406e-05
1.1313e-05
9.35537e-06
8.03733e-06
7.40775e-06
7.62697e-06
7.52185e-06
7.09343e-06
6.84789e-06
6.81798e-06
6.91928e-06
7.04465e-06
7.10609e-06
7.11404e-06
7.14018e-06
8.99757e-06
0.000514702
0.00122232
0.00259683
0.00508915
0.00897539
0.0150812
0.024459
0.0377393
0.0556296
0.0800595
0.114255
0.159151
0.206277
0.245672
0.27459
0.291194
0.296994
0.295564
0.289637
0.281065
0.271065
0.260409
0.249567
0.238809
0.22829
0.218089
0.20825
0.198799
0.189747
0.18111
0.172908
0.165172
0.157986
0.151227
0.145809
0.000233136
0.000480811
0.000556827
0.000663835
0.000600431
0.00045985
0.000325724
0.00024378
0.000195855
0.000151134
0.000118193
9.28345e-05
7.34361e-05
5.78675e-05
4.54729e-05
3.58075e-05
2.81823e-05
2.21761e-05
1.75202e-05
1.39557e-05
1.13285e-05
9.36597e-06
8.04004e-06
7.2409e-06
7.39947e-06
7.53874e-06
7.14965e-06
6.85017e-06
6.80707e-06
6.9047e-06
7.02968e-06
7.08973e-06
7.09585e-06
7.12453e-06
9.01661e-06
0.000525488
0.00122733
0.00256512
0.00505803
0.00895403
0.0150529
0.0244202
0.0376871
0.0555414
0.0798515
0.11384
0.158489
0.205758
0.245711
0.275476
0.293048
0.299451
0.298336
0.292564
0.284036
0.274019
0.263305
0.252378
0.241528
0.230911
0.220614
0.210675
0.201119
0.191963
0.183217
0.174898
0.167039
0.159683
0.152932
0.146683
0.141892
0.000221371
0.000461583
0.00055293
0.000658847
0.00058828
0.000449202
0.000322868
0.000245843
0.000197122
0.00015123
0.000118542
9.31901e-05
7.36799e-05
5.8055e-05
4.55824e-05
3.58642e-05
2.82273e-05
2.22174e-05
1.75585e-05
1.39736e-05
1.13433e-05
9.37785e-06
8.04434e-06
7.18172e-06
7.11506e-06
7.47304e-06
7.21487e-06
6.85688e-06
6.7941e-06
6.88828e-06
7.01196e-06
7.07139e-06
7.07633e-06
7.10776e-06
9.03655e-06
0.000537527
0.00124235
0.00254471
0.00503848
0.00895721
0.0150697
0.0244472
0.0377261
0.055572
0.0797776
0.113484
0.157821
0.20531
0.245831
0.276386
0.294889