/*--------------------------------*- C++ -*----------------------------------*\
| =========                 |                                                 |
| \\      /  F ield         | OpenFOAM: The Open Source CFD Toolbox           |
|  \\    /   O peration     | Version:  v2012                                 |
|   \\  /    A nd           | Website:  www.openfoam.com                      |
|    \\/     M anipulation  |                                                 |
\*---------------------------------------------------------------------------*/
FoamFile
{
    version     2.0;
    format      ascii;
    class       volVectorField;
    location    "600";
    object      U;
}
// * * * * * * * * * * * * * * * * * * * * * * * * * * * * * * * * * * * * * //

dimensions      [0 1 -1 0 0 0 0];


internalField   nonuniform List<vector> 
27324
(
(518.45 -0.0801673 0)
(515.758 -0.0788175 0)
(521.958 -0.262597 0)
(514.25 -0.0815167 0)
(519.532 -0.257795 0)
(527.561 -0.49039 0)
(512.506 -0.0867282 0)
(518.147 -0.262482 0)
(525.36 -0.480971 0)
(534.227 -0.774694 0)
(510.693 -0.093999 0)
(516.525 -0.27666 0)
(524.082 -0.485875 0)
(532.203 -0.758309 0)
(540.603 -1.12047 0)
(508.69 -0.0994943 0)
(514.829 -0.298608 0)
(522.588 -0.507681 0)
(531.013 -0.760971 0)
(538.597 -1.09297 0)
(545.448 -1.53113 0)
(506.575 -0.103613 0)
(512.965 -0.316599 0)
(521.031 -0.544918 0)
(529.613 -0.791188 0)
(537.395 -1.09179 0)
(543.395 -1.49094 0)
(548.773 -2.01541 0)
(504.443 -0.0990664 0)
(511.014 -0.32768 0)
(519.343 -0.576601 0)
(528.168 -0.845642 0)
(535.995 -1.13057 0)
(542.187 -1.48574 0)
(546.685 -1.96026 0)
(551.048 -2.58833 0)
(502.394 -0.0893253 0)
(509.056 -0.319049 0)
(517.607 -0.597135 0)
(526.627 -0.893805 0)
(534.586 -1.20384 0)
(540.799 -1.53066 0)
(545.463 -1.95016 0)
(548.99 -2.51461 0)
(552.652 -3.2618 0)
(500.417 -0.0784085 0)
(507.15 -0.289707 0)
(515.882 -0.583628 0)
(525.053 -0.925125 0)
(533.112 -1.27234 0)
(539.404 -1.62504 0)
(544.074 -2.00172 0)
(547.79 -2.49849 0)
(550.536 -3.16811 0)
(553.731 -4.04464 0)
(498.403 -0.0703203 0)
(505.27 -0.257648 0)
(514.193 -0.530874 0)
(523.473 -0.907997 0)
(531.61 -1.31199 0)
(537.926 -1.71327 0)
(542.694 -2.11663 0)
(546.415 -2.55572 0)
(549.292 -3.14567 0)
(551.542 -3.92956 0)
(554.109 -4.95783 0)
(496.243 -0.073947 0)
(503.343 -0.233844 0)
(512.511 -0.478475 0)
(521.897 -0.828855 0)
(530.081 -1.2894 0)
(536.394 -1.76134 0)
(541.245 -2.22303 0)
(545.034 -2.69082 0)
(547.871 -3.20333 0)
(550.252 -3.89802 0)
(551.927 -4.82552 0)
(554.287 -6.0234 0)
(493.896 -0.0825032 0)
(501.322 -0.245548 0)
(510.784 -0.441519 0)
(520.316 -0.756508 0)
(528.522 -1.18357 0)
(534.828 -1.73329 0)
(539.751 -2.28031 0)
(543.567 -2.81611 0)
(546.451 -3.35628 0)
(548.785 -3.95591 0)
(550.659 -4.78673 0)
(552.117 -5.87756 0)
(554.276 -7.26245 0)
(491.518 -0.0909734 0)
(499.224 -0.273667 0)
(509 -0.467013 0)
(518.718 -0.707296 0)
(526.952 -1.09009 0)
(533.261 -1.60324 0)
(538.231 -2.24945 0)
(542.039 -2.88207 0)
(544.958 -3.49875 0)
(547.338 -4.12804 0)
(549.221 -4.84438 0)
(550.822 -5.83648 0)
(552.053 -7.10625 0)
(554.101 -8.69129 0)
(489.263 -0.098358 0)
(497.187 -0.295938 0)
(507.19 -0.519218 0)
(517.112 -0.753421 0)
(525.383 -1.0355 0)
(531.747 -1.49287 0)
(536.702 -2.09885 0)
(540.479 -2.85116 0)
(543.417 -3.57172 0)
(545.848 -4.28945 0)
(547.803 -5.02973 0)
(549.329 -5.88594 0)
(550.704 -7.06335 0)
(551.81 -8.53964 0)
(553.896 -10.3392 0)
(487.151 -0.100734 0)
(495.256 -0.316467 0)
(505.431 -0.55746 0)
(515.489 -0.826008 0)
(523.833 -1.10494 0)
(530.284 -1.43809 0)
(535.204 -1.97737 0)
(538.902 -2.68222 0)
(541.856 -3.54238 0)
(544.335 -4.37047 0)
(546.332 -5.20368 0)
(547.84 -6.07539 0)
(549.148 -7.10534 0)
(550.416 -8.50144 0)
(551.579 -10.2092 0)
(553.707 -12.2544 0)
(484.955 -0.0951758 0)
(493.359 -0.316449 0)
(503.699 -0.581391 0)
(513.852 -0.880785 0)
(522.265 -1.20265 0)
(528.835 -1.53066 0)
(533.712 -1.92345 0)
(537.345 -2.54936 0)
(540.274 -3.36253 0)
(542.803 -4.35017 0)
(544.806 -5.28849 0)
(546.31 -6.25074 0)
(547.607 -7.2797 0)
(548.817 -8.52382 0)
(550.173 -10.1829 0)
(551.376 -12.1592 0)
(553.571 -14.4909 0)
(482.437 -0.0912331 0)
(491.259 -0.303079 0)
(501.92 -0.570044 0)
(512.151 -0.894743 0)
(520.65 -1.26609 0)
(527.291 -1.65385 0)
(532.174 -2.04223 0)
(535.784 -2.49785 0)
(538.701 -3.22499 0)
(541.236 -4.16751 0)
(543.209 -5.28069 0)
(544.743 -6.3413 0)
(546.049 -7.4471 0)
(547.25 -8.67543 0)
(548.571 -10.2061 0)
(549.969 -12.1527 0)
(551.23 -14.4308 0)
(553.563 -17.1119 0)
(479.606 -0.0954176 0)
(488.833 -0.296761 0)
(499.928 -0.551047 0)
(510.37 -0.871489 0)
(518.945 -1.25898 0)
(525.603 -1.71672 0)
(530.505 -2.17955 0)
(534.177 -2.63999 0)
(537.123 -3.17959 0)
(539.645 -4.02745 0)
(541.538 -5.10442 0)
(543.117 -6.34618 0)
(544.475 -7.55163 0)
(545.698 -8.82421 0)
(547.011 -10.3094 0)
(548.364 -12.1813 0)
(549.824 -14.4521 0)
(551.223 -17.0761 0)
(553.566 -20.1762 0)
(476.728 -0.102466 0)
(486.234 -0.316116 0)
(497.727 -0.551927 0)
(508.46 -0.849312 0)
(517.186 -1.22483 0)
(523.767 -1.68143 0)
(528.701 -2.24053 0)
(532.464 -2.79276 0)
(535.508 -3.3466 0)
(538.022 -3.98637 0)
(539.808 -4.9678 0)
(541.434 -6.19367 0)
(542.855 -7.57704 0)
(544.155 -8.94694 0)
(545.481 -10.4288 0)
(546.801 -12.2323 0)
(548.222 -14.4756 0)
(549.821 -17.1058 0)
(551.2 -20.1398 0)
(553.544 -23.7624 0)
(473.907 -0.10795 0)
(483.716 -0.335969 0)
(495.482 -0.593419 0)
(506.489 -0.876496 0)
(515.357 -1.20416 0)
(521.902 -1.62933 0)
(526.819 -2.16524 0)
(530.67 -2.85608 0)
(533.831 -3.5124 0)
(536.337 -4.16899 0)
(538.057 -4.92997 0)
(539.687 -6.07052 0)
(541.182 -7.47011 0)
(542.58 -8.9953 0)
(543.977 -10.5517 0)
(545.262 -12.2887 0)
(546.663 -14.4859 0)
(548.233 -17.1161 0)
(549.8 -20.1541 0)
(551.147 -23.674 0)
(553.505 -27.9511 0)
(471.131 -0.0980076 0)
(481.268 -0.349103 0)
(493.324 -0.628863 0)
(504.528 -0.941057 0)
(513.49 -1.26912 0)
(520.032 -1.62109 0)
(524.988 -2.09484 0)
(528.856 -2.73388 0)
(532.104 -3.56861 0)
(534.593 -4.34081 0)
(536.296 -5.11437 0)
(537.92 -6.03803 0)
(539.422 -7.36974 0)
(540.942 -8.95575 0)
(542.448 -10.6409 0)
(543.75 -12.4015 0)
(545.109 -14.4883 0)
(546.679 -17.0907 0)
(548.223 -20.1513 0)
(549.749 -23.6525 0)
(551.081 -27.754 0)
(553.589 -32.7934 0)
(468.149 -0.089028 0)
(478.817 -0.321836 0)
(491.154 -0.641661 0)
(502.565 -0.993314 0)
(511.556 -1.35945 0)
(518.162 -1.72925 0)
(523.193 -2.10635 0)
(527.106 -2.64545 0)
(530.344 -3.41217 0)
(532.791 -4.39966 0)
(534.539 -5.28174 0)
(536.148 -6.19632 0)
(537.629 -7.32608 0)
(539.211 -8.89533 0)
(540.842 -10.6733 0)
(542.225 -12.5367 0)
(543.567 -14.55 0)
(545.113 -17.0716 0)
(546.674 -20.1077 0)
(548.174 -23.6176 0)
(549.676 -27.6703 0)
(551.172 -32.4827 0)
(553.736 -38.1967 0)
(464.857 -0.0990906 0)
(476.121 -0.294839 0)
(488.911 -0.595063 0)
(500.472 -0.995241 0)
(509.523 -1.42386 0)
(516.205 -1.85323 0)
(521.367 -2.26551 0)
(525.367 -2.67095 0)
(528.573 -3.29305 0)
(530.925 -4.20468 0)
(532.754 -5.33431 0)
(534.414 -6.34413 0)
(535.851 -7.42812 0)
(537.425 -8.83908 0)
(539.141 -10.6769 0)
(540.632 -12.6484 0)
(542.027 -14.7113 0)
(543.536 -17.0782 0)
(545.092 -20.0713 0)
(546.624 -23.5791 0)
(548.094 -27.5945 0)
(549.76 -32.3241 0)
(551.354 -37.9235 0)
(553.686 -43.7254 0)
(461.191 -0.1176 0)
(473.16 -0.329147 0)
(486.434 -0.551957 0)
(498.256 -0.928834 0)
(507.332 -1.40746 0)
(514.129 -1.92455 0)
(519.392 -2.42855 0)
(523.512 -2.89181 0)
(526.744 -3.32345 0)
(529.004 -4.06062 0)
(530.907 -5.13112 0)
(532.666 -6.40007 0)
(534.134 -7.54055 0)
(535.662 -8.8408 0)
(537.368 -10.5849 0)
(538.956 -12.7 0)
(540.448 -14.8754 0)
(541.95 -17.1955 0)
(543.487 -20.0551 0)
(545.034 -23.5412 0)
(546.54 -27.543 0)
(548.171 -32.1855 0)
(549.931 -37.7093 0)
(551.507 -43.928 0)
(552.604 -47.951 0)
(457.183 -0.1189 0)
(469.898 -0.389809 0)
(483.769 -0.623339 0)
(495.865 -0.873685 0)
(505.091 -1.3213 0)
(511.927 -1.891 0)
(517.276 -2.50809 0)
(521.443 -3.09128 0)
(524.742 -3.60455 0)
(527.032 -4.08458 0)
(528.968 -4.97694 0)
(530.849 -6.22987 0)
(532.425 -7.60971 0)
(533.965 -8.89359 0)
(535.6 -10.4858 0)
(537.218 -12.6036 0)
(538.813 -14.9616 0)
(540.37 -17.3611 0)
(541.87 -20.0771 0)
(543.419 -23.4974 0)
(544.957 -27.5032 0)
(546.614 -32.0906 0)
(548.319 -37.5255 0)
(550.086 -43.8051 0)
(551.251 -49.8859 0)
(550.15 -48.3954 0)
(453.102 -0.0886807 0)
(466.361 -0.39901 0)
(480.863 -0.729682 0)
(493.373 -0.991016 0)
(502.775 -1.26516 0)
(509.719 -1.78693 0)
(515.041 -2.45556 0)
(519.202 -3.18141 0)
(522.538 -3.84724 0)
(524.936 -4.41925 0)
(526.97 -4.99731 0)
(528.89 -6.09517 0)
(530.632 -7.52641 0)
(532.29 -8.96987 0)
(533.885 -10.4447 0)
(535.444 -12.4125 0)
(537.13 -14.9061 0)
(538.769 -17.4751 0)
(540.274 -20.1593 0)
(541.788 -23.4515 0)
(543.355 -27.4577 0)
(545.036 -32.0341 0)
(546.726 -37.3842 0)
(548.469 -43.6923 0)
(549.978 -50.1491 0)
(549.44 -53.6256 0)
(542.307 -38.2137 0)
(449.863 -0.0781681 0)
(462.839 -0.306891 0)
(477.696 -0.750803 0)
(490.66 -1.15183 0)
(500.375 -1.43369 0)
(507.443 -1.73595 0)
(512.8 -2.33394 0)
(516.864 -3.10647 0)
(520.221 -3.94373 0)
(522.736 -4.70724 0)
(524.886 -5.36302 0)
(526.845 -6.1153 0)
(528.663 -7.44451 0)
(530.523 -9.026 0)
(532.185 -10.5621 0)
(533.677 -12.2961 0)
(535.375 -14.7081 0)
(537.117 -17.5069 0)
(538.689 -20.2792 0)
(540.152 -23.4262 0)
(541.721 -27.4064 0)
(543.438 -32.0106 0)
(545.105 -37.3099 0)
(546.843 -43.5812 0)
(548.41 -50.3437 0)
(548.682 -55.4432 0)
(545.588 -51.8906 0)
(525.613 -9.09917 0)
(447.473 -0.082772 0)
(460.139 -0.264281 0)
(474.513 -0.584235 0)
(487.655 -1.18588 0)
(497.701 -1.65548 0)
(505.016 -1.96097 0)
(510.461 -2.29042 0)
(514.543 -2.97607 0)
(517.866 -3.85444 0)
(520.489 -4.81796 0)
(522.762 -5.69315 0)
(524.752 -6.46412 0)
(526.579 -7.47252 0)
(528.557 -9.0713 0)
(530.41 -10.7994 0)
(531.897 -12.3861 0)
(533.564 -14.572 0)
(535.363 -17.4321 0)
(537.047 -20.4177 0)
(538.515 -23.5469 0)
(540.04 -27.3748 0)
(541.801 -32.0406 0)
(543.452 -37.2942 0)
(545.161 -43.5266 0)
(546.815 -50.5457 0)
(547.695 -56.7889 0)
(545.87 -56.2431 0)
(533.453 -32.585 0)
(504.619 8.41976 0)
(445.798 0.0167016 0)
(458.122 -0.261983 0)
(472.012 -0.496844 0)
(484.573 -0.928631 0)
(494.689 -1.70383 0)
(502.268 -2.24247 0)
(507.909 -2.57394 0)
(512.169 -2.94542 0)
(515.536 -3.73326 0)
(518.236 -4.7371 0)
(520.606 -5.82709 0)
(522.682 -6.81049 0)
(524.481 -7.74503 0)
(526.458 -9.12587 0)
(528.443 -10.9815 0)
(530.08 -12.7803 0)
(531.72 -14.6196 0)
(533.475 -17.3649 0)
(535.295 -20.5761 0)
(536.833 -23.8069 0)
(538.31 -27.4634 0)
(540.095 -32.1099 0)
(541.765 -37.4217 0)
(543.449 -43.5047 0)
(545.189 -50.6019 0)
(546.419 -57.3647 0)
(544.837 -59.8174 0)
(536.434 -44.2761 0)
(511.584 -7.78564 0)
(500.207 30.1458 0)
(446.126 0.152348 0)
(456.643 0.00186895 0)
(470.034 -0.48987 0)
(482.097 -0.777124 0)
(491.605 -1.34313 0)
(499.192 -2.31584 0)
(505.052 -2.91837 0)
(509.611 -3.28691 0)
(513.166 -3.73046 0)
(515.965 -4.6278 0)
(518.42 -5.76883 0)
(520.59 -6.97975 0)
(522.452 -8.05797 0)
(524.365 -9.27608 0)
(526.337 -11.062 0)
(528.157 -13.1506 0)
(529.872 -15.0407 0)
(531.514 -17.3726 0)
(533.394 -20.6864 0)
(535.087 -24.1424 0)
(536.551 -27.6964 0)
(538.33 -32.2332 0)
(540.032 -37.5599 0)
(541.725 -43.5642 0)
(543.515 -50.6083 0)
(544.89 -57.8369 0)
(543.762 -62.5986 0)
(538.782 -55.2666 0)
(517.17 -17.5147 0)
(507.374 35.2752 0)
(516.552 65.1666 0)
(464.941 1.2674 0)
(457.79 0.471268 0)
(468.606 -0.0040765 0)
(480.117 -0.777161 0)
(489.095 -1.115 0)
(496.077 -1.83943 0)
(501.922 -3.01914 0)
(506.834 -3.69399 0)
(510.617 -4.12636 0)
(513.577 -4.67099 0)
(516.142 -5.69279 0)
(518.462 -6.97926 0)
(520.422 -8.2876 0)
(522.354 -9.48071 0)
(524.204 -11.0407 0)
(526.117 -13.2961 0)
(528.01 -15.4975 0)
(529.579 -17.6922 0)
(531.378 -20.708 0)
(533.257 -24.4342 0)
(534.79 -28.0527 0)
(536.529 -32.3631 0)
(538.272 -37.6897 0)
(540.026 -43.6531 0)
(541.746 -50.4645 0)
(543.241 -58.4326 0)
(542.364 -64.7654 0)
(540.216 -63.2326 0)
(524.361 -26.3575 0)
(514.643 39.3229 0)
(524.617 82.3259 0)
(529.12 106.545 0)
(512.338 2.75018 0)
(473.247 3.92199 0)
(468.849 0.927259 0)
(478.614 0.0224747 0)
(487.111 -1.08708 0)
(493.581 -1.51443 0)
(498.825 -2.4369 0)
(503.834 -3.83584 0)
(507.934 -4.58963 0)
(510.947 -5.10189 0)
(513.696 -5.79401 0)
(516.229 -6.96268 0)
(518.319 -8.38324 0)
(520.368 -9.78184 0)
(522.12 -11.1334 0)
(524.009 -13.2027 0)
(526.089 -15.7367 0)
(527.755 -18.0518 0)
(529.345 -20.6952 0)
(531.339 -24.5695 0)
(533.041 -28.4269 0)
(534.719 -32.4859 0)
(536.523 -37.8026 0)
(538.294 -43.6922 0)
(539.903 -50.411 0)
(541.286 -58.8776 0)
(540.727 -66.2087 0)
(541.024 -67.7936 0)
(532.739 -31.736 0)
(524.554 43.4837 0)
(528.733 90.6179 0)
(532.482 111.217 0)
(531.355 115.248 0)
(553.643 1.6401 0)
(518.279 8.72849 0)
(484.387 7.35153 0)
(478.594 1.47539 0)
(485.743 -0.00203626 0)
(491.705 -1.45145 0)
(496.338 -1.97684 0)
(500.849 -3.15199 0)
(505.071 -4.77628 0)
(508.215 -5.60445 0)
(511.022 -6.2283 0)
(513.783 -7.14264 0)
(516.059 -8.49325 0)
(518.264 -10.0284 0)
(520.061 -11.4408 0)
(521.88 -13.0841 0)
(524.028 -15.7333 0)
(525.951 -18.4293 0)
(527.405 -20.9108 0)
(529.343 -24.4933 0)
(531.259 -28.7203 0)
(532.953 -32.7298 0)
(534.743 -37.8644 0)
(536.443 -43.7079 0)
(537.975 -51.0336 0)
(538.817 -58.9734 0)
(539.513 -67.3101 0)
(542.278 -69.0827 0)
(542.906 -34.1731 0)
(535.754 46.774 0)
(533.208 97.131 0)
(533.806 111.643 0)
(532.107 114.728 0)
(530.648 115.949 0)
(566.153 0.243161 0)
(557.146 5.38934 0)
(525.289 15.9 0)
(496.203 11.5325 0)
(486.222 2.23116 0)
(490.429 -0.0108374 0)
(494.515 -1.86917 0)
(498.38 -2.53406 0)
(502.166 -4.01876 0)
(505.363 -5.83609 0)
(508.324 -6.74343 0)
(511.144 -7.55165 0)
(513.533 -8.74301 0)
(515.939 -10.2891 0)
(517.872 -11.9047 0)
(519.758 -13.3661 0)
(521.8 -15.5895 0)
(524 -18.6217 0)
(525.524 -21.2809 0)
(527.298 -24.3793 0)
(529.357 -28.8493 0)
(531.235 -33.1692 0)
(532.792 -37.8701 0)
(534.517 -44.356 0)
(535.698 -51.3709 0)
(536.489 -59.0986 0)
(539.094 -67.9489 0)
(544.956 -64.7876 0)
(554.149 -29.5653 0)
(548.133 49.2105 0)
(537.525 100.079 0)
(534.911 111.443 0)
(532.515 114.226 0)
(530.902 115.123 0)
(530.265 114.164 0)
(567.439 0.0386217 0)
(569.55 0.812432 0)
(560.852 9.63918 0)
(532.699 24.4446 0)
(504.903 16.8462 0)
(491.232 3.31633 0)
(493.333 0.0122527 0)
(496.644 -2.31239 0)
(499.584 -3.19273 0)
(502.475 -5.0575 0)
(505.598 -7.02058 0)
(508.53 -8.03433 0)
(510.816 -9.09102 0)
(513.351 -10.6141 0)
(515.475 -12.3834 0)
(517.562 -14.0273 0)
(519.473 -15.7574 0)
(521.779 -18.651 0)
(523.601 -21.8789 0)
(525.268 -24.5024 0)
(527.28 -28.8654 0)
(529.445 -33.6858 0)
(530.679 -38.1698 0)
(532.415 -44.9769 0)
(533.048 -51.3485 0)
(535.111 -59.5694 0)
(539.903 -63.925 0)
(550.778 -54.7593 0)
(566.182 -16.2018 0)
(560.783 47.5481 0)
(541.851 100.371 0)
(535.796 110.632 0)
(533.024 113.337 0)
(531.161 114.398 0)
(530.125 113.528 0)
(529.345 110.248 0)
(567.542 -0.0149751 0)
(570.914 0.119039 0)
(572.799 1.4283 0)
(565.374 14.7991 0)
(538.692 34.4234 0)
(510.771 23.3656 0)
(495.823 5.01213 0)
(495.666 0.084106 0)
(497.787 -2.72592 0)
(499.784 -4.01406 0)
(502.84 -6.30523 0)
(505.972 -8.34345 0)
(508.127 -9.49118 0)
(510.582 -10.8872 0)
(512.877 -12.767 0)
(515.205 -14.7357 0)
(517.149 -16.4649 0)
(519.368 -18.6669 0)
(521.369 -22.2666 0)
(523.277 -25.2471 0)
(524.984 -28.8762 0)
(527.382 -34.1837 0)
(528.475 -39.2704 0)
(529.706 -45.0634 0)
(531.149 -51.8865 0)
(534.75 -58.2773 0)
(544.025 -55.6033 0)
(560.362 -37.2543 0)
(576.757 -0.747187 0)
(571.598 41.3294 0)
(546.594 96.2367 0)
(536.947 109.319 0)
(533.544 112.319 0)
(531.542 113.542 0)
(530.09 112.976 0)
(528.941 109.469 0)
(528.075 104.272 0)
(566.839 -0.0396909 0)
(571.023 -0.0457953 0)
(574.093 0.182117 0)
(576.735 2.19124 0)
(569.728 20.9211 0)
(542.711 45.6959 0)
(515.607 31.3898 0)
(499.775 7.75866 0)
(497.077 0.34108 0)
(498.08 -2.95596 0)
(500.205 -5.01477 0)
(503.389 -7.76656 0)
(505.602 -9.81504 0)
(507.846 -11.0986 0)
(510.142 -12.9565 0)
(512.674 -15.2376 0)
(514.802 -17.3359 0)
(516.926 -19.2028 0)
(518.781 -22.531 0)
(521.206 -26.3862 0)
(522.484 -29.2991 0)
(525.139 -34.831 0)
(525.862 -40.0967 0)
(527.434 -45.0679 0)
(530.695 -52.4584 0)
(537.704 -51.042 0)
(551.832 -39.7397 0)
(571.075 -15.0006 0)
(583.634 11.7988 0)
(579.738 33.8781 0)
(552.546 88.0041 0)
(538.287 106.687 0)
(534.138 111.219 0)
(531.947 112.643 0)
(530.343 112.216 0)
(528.747 108.862 0)
(527.355 103.191 0)
(526.705 96.7715 0)
(566.167 -0.0648009 0)
(570.252 -0.120526 0)
(574.125 -0.100392 0)
(577.912 0.251342 0)
(581.214 3.11729 0)
(572.545 28.1349 0)
(545.069 58.0452 0)
(520.861 41.4962 0)
(503.419 12.3733 0)
(498.007 1.00594 0)
(498.698 -2.95637 0)
(500.835 -6.00647 0)
(503.146 -9.53809 0)
(505.395 -11.4208 0)
(507.346 -13.0401 0)
(509.972 -15.47 0)
(512.356 -18.0338 0)
(514.499 -20.164 0)
(516.028 -22.9631 0)
(518.743 -27.0944 0)
(520.155 -30.6343 0)
(522.281 -34.8583 0)
(523.631 -40.5758 0)
(526.781 -45.7268 0)
(532.555 -46.1835 0)
(543.889 -37.1671 0)
(563.15 -16.4501 0)
(579.376 5.51396 0)
(586.713 18.6431 0)
(584.791 27.2968 0)
(559.775 76.3477 0)
(540.345 103.53 0)
(534.871 110.057 0)
(532.395 111.695 0)
(530.562 111.28 0)
(528.568 108.057 0)
(526.973 102.412 0)
(525.649 95.5319 0)
(525.434 88.3666 0)
(565.662 -0.0722423 0)
(569.53 -0.183554 0)
(573.153 -0.217982 0)
(577.778 -0.161943 0)
(582.413 0.316507 0)
(585.319 4.35624 0)
(573.531 36.4691 0)
(546.181 70.7609 0)
(526.567 53.9439 0)
(508.243 20.1966 0)
(500.401 3.02666 0)
(499.7 -2.76506 0)
(500.852 -6.70546 0)
(503.178 -11.5046 0)
(504.799 -13.2216 0)
(507.102 -15.5281 0)
(509.762 -18.4145 0)
(512.008 -21.1478 0)
(513.375 -23.546 0)
(516.073 -27.4075 0)
(517.931 -31.7165 0)
(519.798 -34.1698 0)
(523.104 -41.6544 0)
(528.087 -39.9348 0)
(538.36 -33.5176 0)
(555.696 -14.0006 0)
(572.969 8.01143 0)
(583.327 18.7887 0)
(587.685 21.4245 0)
(587.269 23.1821 0)
(567.793 62.3078 0)
(543.265 98.9894 0)
(535.794 108.723 0)
(532.864 110.71 0)
(530.892 110.153 0)
(528.451 107.097 0)
(526.559 101.445 0)
(525.082 94.6589 0)
(524.063 87.1064 0)
(524.298 79.5885 0)
(565.29 -0.0736784 0)
(568.97 -0.201574 0)
(572.314 -0.301052 0)
(576.609 -0.317864 0)
(582.058 -0.242612 0)
(586.711 0.389926 0)
(588.445 6.06051 0)
(572.268 46.0414 0)
(546.562 82.9152 0)
(532.214 68.6206 0)
(515.597 33.2265 0)
(504.47 8.7751 0)
(501.029 -1.68085 0)
(501.541 -6.77471 0)
(503.206 -12.7197 0)
(504.732 -14.5308 0)
(507.278 -18.3668 0)
(509.668 -21.5651 0)
(511.334 -23.9765 0)
(513.539 -26.1988 0)
(516.551 -32.0948 0)
(519.298 -34.2533 0)
(525.145 -34.7319 0)
(534.286 -26.9888 0)
(550.556 -9.50923 0)
(566.913 12.8431 0)
(578.095 25.5236 0)
(584.33 25.7698 0)
(587.845 22.4973 0)
(588.166 21.2565 0)
(575.487 47.9944 0)
(547.442 92.7747 0)
(536.994 107.03 0)
(533.358 109.665 0)
(531.261 108.846 0)
(528.389 105.953 0)
(526.182 100.396 0)
(524.467 93.5895 0)
(523.312 86.2207 0)
(522.635 78.3699 0)
(523.439 70.8559 0)
(565.018 -0.0563207 0)
(568.59 -0.205439 0)
(571.702 -0.319034 0)
(575.793 -0.419368 0)
(581.033 -0.434266 0)
(586.266 -0.345278 0)
(590.373 0.488868 0)
(589.845 8.59817 0)
(569.406 56.5291 0)
(546.35 93.3416 0)
(537.225 83.9358 0)
(525.605 53.2518 0)
(511.877 22.3453 0)
(505.483 3.92326 0)
(503.717 -4.88064 0)
(504.506 -12.444 0)
(505.958 -14.4925 0)
(508.183 -19.8914 0)
(510.258 -23.5297 0)
(512.833 -25.4756 0)
(517.519 -27.4345 0)
(522.855 -24.008 0)
(532.763 -17.3847 0)
(548.047 -0.183898 0)
(562.856 20.0406 0)
(573.356 32.9937 0)
(579.449 34.7183 0)
(583.938 29.5577 0)
(587.533 23.2977 0)
(588.346 20.544 0)
(581.654 35.7267 0)
(553.086 84.3878 0)
(538.617 104.778 0)
(533.908 108.524 0)
(531.648 107.377 0)
(528.365 104.617 0)
(525.836 99.2315 0)
(523.895 92.4461 0)
(522.497 85.1267 0)
(521.705 77.5181 0)
(521.509 69.6982 0)
(522.922 62.4293 0)
(564.912 -0.0434131 0)
(568.406 -0.16455 0)
(571.379 -0.330811 0)
(575.339 -0.437943 0)
(580.449 -0.548237 0)
(585.568 -0.584615 0)
(590.005 -0.475617 0)
(592.574 0.613931 0)
(590.428 12.5985 0)
(564.812 67.3755 0)
(545.716 100.789 0)
(540.934 96.4832 0)
(535.2 77.5557 0)
(525.175 48.3041 0)
(515.709 22.685 0)
(512.535 6.53537 0)
(511.398 -4.35878 0)
(510.678 -7.94605 0)
(515.386 -13.7382 0)
(517.796 -11.1501 0)
(525.317 -9.38713 0)
(535.889 0.101824 0)
(548.676 15.6068 0)
(560.692 31.3442 0)
(569.643 41.4714 0)
(575.241 43.2526 0)
(579.528 39.1459 0)
(583.31 32.1143 0)
(586.841 24.2238 0)
(588.298 20.2235 0)
(585.694 27.0915 0)
(560.067 73.6737 0)
(540.842 101.657 0)
(534.563 107.206 0)
(531.989 105.802 0)
(528.592 103.084 0)
(525.535 97.9458 0)
(523.339 91.1986 0)
(521.731 83.9485 0)
(520.69 76.4616 0)
(520.402 68.8989 0)
(520.805 61.348 0)
(522.478 54.2914 0)
(564.938 -0.0183461 0)
(568.401 -0.128398 0)
(571.293 -0.259905 0)
(575.226 -0.447056 0)
(580.196 -0.561244 0)
(585.16 -0.700927 0)
(589.445 -0.764473 0)
(592.638 -0.613845 0)
(594.614 0.87233 0)
(589.221 18.9285 0)
(559.057 77.6015 0)
(544.979 104.697 0)
(542.926 103.333 0)
(541.284 95.4354 0)
(537.69 78.7251 0)
(533.543 57.1871 0)
(530.584 39.6496 0)
(529.378 27.9065 0)
(532.418 22.4317 0)
(536.181 24.7662 0)
(543.853 29.7221 0)
(551.88 38.6159 0)
(559.979 47.2147 0)
(566.618 51.8718 0)
(571.625 51.6896 0)
(575.381 47.7232 0)
(578.54 41.6751 0)
(582.219 34.1384 0)
(585.868 25.447 0)
(588.176 20.1103 0)
(587.784 22.1694 0)
(567.754 61.0932 0)
(543.884 97.295 0)
(535.409 105.582 0)
(532.253 104.133 0)
(528.794 101.354 0)
(525.294 96.5204 0)
(522.804 89.8502 0)
(520.983 82.658 0)
(519.735 75.3172 0)
(519.187 67.9123 0)
(519.562 60.6049 0)
(520.282 53.3239 0)
(521.268 46.8732 0)
(565.18 0.011795 0)
(568.617 -0.0647586 0)
(571.42 -0.210164 0)
(575.252 -0.358189 0)
(580.172 -0.539664 0)
(584.984 -0.664788 0)
(589.013 -0.853265 0)
(592.089 -0.965159 0)
(594.847 -0.758777 0)
(595.758 1.57003 0)
(585.515 28.6306 0)
(553.046 86.0911 0)
(544.332 105.694 0)
(543.497 104.755 0)
(543.535 101.643 0)
(544.257 94.1504 0)
(544.977 83.6588 0)
(546.013 74.2238 0)
(547.729 67.6545 0)
(550.827 64.6798 0)
(555.058 63.9426 0)
(559.65 64.032 0)
(563.961 63.1949 0)
(567.934 60.185 0)
(570.987 55.7725 0)
(574.306 50.1567 0)
(577.657 43.6121 0)
(581.019 35.859 0)
(584.867 27.1863 0)
(587.975 20.5027 0)
(588.629 20.0343 0)
(575.133 47.9537 0)
(547.944 91.2761 0)
(536.55 103.479 0)
(532.506 102.409 0)
(529.122 99.4601 0)
(525.128 94.9209 0)
(522.29 88.3896 0)
(520.252 81.2669 0)
(518.804 74.0542 0)
(518.032 66.8452 0)
(518.188 59.6934 0)
(518.965 52.6636 0)
(519.221 45.9497 0)
(516.62 39.6039 0)
(565.426 0.0298341 0)
(569.016 0.0103935 0)
(571.824 -0.106685 0)
(575.623 -0.300774 0)
(580.254 -0.464937 0)
(584.968 -0.627747 0)
(588.78 -0.762197 0)
(591.734 -1.02141 0)
(594.397 -1.19991 0)
(596.292 -0.893005 0)
(595.885 3.15344 0)
(579.281 42.2229 0)
(547.599 91.9861 0)
(543.826 104.604 0)
(543.069 104.068 0)
(543.839 101.13 0)
(546.58 96.6014 0)
(549.502 90.912 0)
(552.149 85.5002 0)
(554.824 80.8702 0)
(557.796 76.819 0)
(560.976 72.9074 0)
(564.234 68.539 0)
(566.856 63.4868 0)
(570.27 58.0937 0)
(573.347 52.0359 0)
(576.445 45.1826 0)
(579.878 37.7096 0)
(583.827 29.1975 0)
(587.531 21.4825 0)
(588.875 19.3249 0)
(581.192 36.1345 0)
(553.143 83.2355 0)
(538.135 100.654 0)
(532.709 100.632 0)
(529.462 97.4327 0)
(525.038 93.1343 0)
(521.804 86.8049 0)
(519.535 79.7765 0)
(517.9 72.6832 0)
(516.9 65.6639 0)
(516.862 58.7111 0)
(517.506 51.8509 0)
(517.935 45.3118 0)
(514.997 38.7859 0)
(507.68 32.5489 0)
(565.542 0.0450172 0)
(569.266 0.0694363 0)
(572.168 0.0161315 0)
(576.056 -0.14945 0)
(580.595 -0.375564 0)
(585.017 -0.558415 0)
(588.719 -0.710833 0)
(591.554 -0.861222 0)
(594.116 -1.21335 0)
(595.835 -1.43064 0)
(597.036 -0.961881 0)
(595.145 6.81951 0)
(570.493 58.6842 0)
(543.832 94.757 0)
(542.707 101.749 0)
(542.83 101.631 0)
(544.238 99.0349 0)
(547.426 94.5144 0)
(550.534 89.5909 0)
(553.517 84.9189 0)
(556.471 80.368 0)
(559.533 75.7441 0)
(562.688 70.8673 0)
(565.931 65.6701 0)
(568.983 59.8842 0)
(572.069 53.6472 0)
(575.318 46.9696 0)
(578.809 39.631 0)
(582.788 31.3935 0)
(586.91 22.9499 0)
(588.934 19.1533 0)
(585.358 27.233 0)
(559.418 72.9937 0)
(540.267 96.9132 0)
(532.978 98.7893 0)
(529.801 95.3035 0)
(525.006 91.1344 0)
(521.355 85.079 0)
(518.83 78.1879 0)
(517.017 71.2077 0)
(515.802 64.3719 0)
(515.548 57.6264 0)
(516.082 50.9728 0)
(516.505 44.5427 0)
(513.953 38.219 0)
(506.38 31.8107 0)
(495.358 26.2405 0)
(565.538 0.0377729 0)
(569.324 0.11183 0)
(572.271 0.117349 0)
(576.267 0.0283646 0)
(580.773 -0.178461 0)
(585.205 -0.424408 0)
(588.707 -0.621304 0)
(591.526 -0.771358 0)
(593.98 -0.959772 0)
(595.48 -1.41399 0)
(596.76 -1.6564 0)
(597.711 -0.871093 0)
(592.145 14.7 0)
(560.906 75.4859 0)
(542.345 96.7331 0)
(541.956 100.253 0)
(542.543 100.046 0)
(545.116 96.5763 0)
(548.504 91.7002 0)
(551.955 86.9314 0)
(555.103 82.44 0)
(558.169 77.7558 0)
(561.313 72.7151 0)
(564.454 67.3019 0)
(567.656 61.6383 0)
(570.903 55.5159 0)
(574.229 48.866 0)
(577.776 41.6722 0)
(581.762 33.6134 0)
(586.082 24.8905 0)
(588.929 19.1421 0)
(587.718 21.6242 0)
(566.303 61.1012 0)
(542.992 92.1674 0)
(533.478 96.7838 0)
(530.072 93.1096 0)
(525.118 88.9154 0)
(520.954 83.1976 0)
(518.141 76.4964 0)
(516.149 69.6343 0)
(514.734 62.9665 0)
(514.26 56.4401 0)
(514.657 50.0013 0)
(515.088 43.7165 0)
(512.787 37.5435 0)
(505.527 31.3099 0)
(494.055 25.5068 0)
(481.866 20.865 0)
(565.373 0.0233732 0)
(569.217 0.10556 0)
(572.228 0.180334 0)
(576.3 0.162936 0)
(580.811 0.0452368 0)
(585.264 -0.194453 0)
(588.803 -0.452308 0)
(591.534 -0.665931 0)
(593.959 -0.829235 0)
(595.225 -1.0765 0)
(596.549 -1.62849 0)
(597.786 -1.8165 0)
(597.766 -0.0929353 0)
(585.272 29.2354 0)
(552.912 89.8773 0)
(541.831 99.6901 0)
(541.889 100.756 0)
(543.319 98.9938 0)
(546.296 94.472 0)
(549.938 89.1753 0)
(553.345 84.3438 0)
(556.556 79.6882 0)
(559.834 74.7411 0)
(563.131 69.3918 0)
(566.423 63.6417 0)
(569.745 57.5141 0)
(573.156 50.9238 0)
(576.745 43.7534 0)
(580.734 35.8136 0)
(585.153 26.9961 0)
(588.654 19.4646 0)
(588.794 18.6953 0)
(572.982 48.596 0)
(546.616 85.8387 0)
(534.416 94.3816 0)
(530.233 90.8124 0)
(525.242 86.4787 0)
(520.614 81.1487 0)
(517.473 74.6932 0)
(515.288 67.9674 0)
(513.693 61.4502 0)
(512.997 55.1455 0)
(513.243 48.9371 0)
(513.655 42.8095 0)
(511.612 36.8206 0)
(504.593 30.7144 0)
(493.193 25.0219 0)
(480.292 20.1173 0)
(468.543 16.4768 0)
(565.169 0.0019689 0)
(568.95 0.0680857 0)
(571.962 0.173626 0)
(576.177 0.250022 0)
(580.78 0.215498 0)
(585.272 0.0533654 0)
(588.851 -0.202609 0)
(591.733 -0.473812 0)
(594.001 -0.694335 0)
(595.132 -0.878245 0)
(596.415 -1.20687 0)
(597.626 -1.85252 0)
(598.258 -1.87696 0)
(596.659 2.78921 0)
(574.136 49.9861 0)
(547.57 99.498 0)
(541.863 101.526 0)
(542.292 100.802 0)
(544.344 97.5475 0)
(547.941 92.1333 0)
(551.693 86.8081 0)
(555.055 81.9283 0)
(558.417 76.9499 0)
(561.799 71.585 0)
(565.197 65.83 0)
(568.596 59.6643 0)
(572.064 53.0196 0)
(575.699 45.8438 0)
(579.701 37.9797 0)
(584.153 29.1998 0)
(588.161 20.4893 0)
(589.179 17.4398 0)
(578.65 36.88 0)
(551.183 77.6492 0)
(535.675 91.2627 0)
(530.274 88.3248 0)
(525.407 83.8653 0)
(520.345 78.919 0)
(516.835 72.7629 0)
(514.434 66.2083 0)
(512.672 59.8286 0)
(511.764 53.7389 0)
(511.842 47.7743 0)
(512.217 41.8218 0)
(510.406 36.0307 0)
(503.65 30.0815 0)
(492.281 24.4462 0)
(479.22 19.636 0)
(466.586 15.7176 0)
(456.012 12.9816 0)
(565.116 -0.0151783 0)
(568.818 0.00577491 0)
(571.712 0.106513 0)
(575.904 0.239899 0)
(580.534 0.318473 0)
(585.197 0.262072 0)
(588.856 0.0657246 0)
(591.883 -0.211386 0)
(594.11 -0.486781 0)
(595.103 -0.693728 0)
(596.381 -0.913041 0)
(597.513 -1.37504 0)
(598.151 -2.05298 0)
(598.286 -1.77069 0)
(593.448 11.1119 0)
(561.129 71.172 0)
(544.157 101.83 0)
(541.986 101.467 0)
(542.804 99.7521 0)
(545.739 95.2027 0)
(549.862 89.5273 0)
(553.507 84.3573 0)
(556.986 79.2951 0)
(560.441 73.8791 0)
(563.923 68.0388 0)
(567.404 61.8151 0)
(570.941 55.1397 0)
(574.627 47.9422 0)
(578.656 40.1272 0)
(583.124 31.403 0)
(587.43 21.9522 0)
(589.306 16.922 0)
(582.75 27.1463 0)
(556.57 67.5329 0)
(537.458 87.1793 0)
(530.247 85.7318 0)
(525.573 81.142 0)
(520.151 76.5083 0)
(516.235 70.6881 0)
(513.586 64.3518 0)
(511.663 58.1106 0)
(510.56 52.2182 0)
(510.457 46.5079 0)
(510.777 40.7491 0)
(509.178 35.1722 0)
(502.684 29.393 0)
(491.375 23.8424 0)
(478.105 19.0621 0)
(465.21 15.2392 0)
(453.631 12.2279 0)
(444.611 10.2468 0)
(565.186 -0.020798 0)
(568.849 -0.0427851 0)
(571.662 -0.000279658 0)
(575.77 0.142182 0)
(580.265 0.294925 0)
(584.916 0.370869 0)
(588.77 0.314591 0)
(591.97 0.065801 0)
(594.143 -0.215691 0)
(595.15 -0.476731 0)
(596.465 -0.680197 0)
(597.469 -0.98136 0)
(598.082 -1.56511 0)
(598.364 -2.13672 0)
(598.162 -0.861561 0)
(585.358 29.4706 0)
(550.36 86.4932 0)
(542.197 100.603 0)
(541.889 100.649 0)
(543.622 97.9956 0)
(547.797 92.4794 0)
(551.826 86.8735 0)
(555.497 81.6375 0)
(559.032 76.1803 0)
(562.601 70.2823 0)
(566.173 63.9907 0)
(569.782 57.2763 0)
(573.529 50.0611 0)
(577.598 42.2694 0)
(582.073 33.5975 0)
(586.539 23.7863 0)
(589.324 16.7365 0)
(585.173 19.9042 0)
(562.48 55.7457 0)
(539.88 81.847 0)
(530.096 83.0276 0)
(525.724 78.3796 0)
(520.023 73.9095 0)
(515.678 68.4502 0)
(512.75 62.3874 0)
(510.659 56.3046 0)
(509.384 50.5868 0)
(509.092 45.1322 0)
(509.34 39.5898 0)
(507.931 34.2388 0)
(501.698 28.6472 0)
(490.466 23.1907 0)
(477.002 18.466 0)
(463.786 14.665 0)
(451.916 11.7614 0)
(441.803 9.51732 0)
(434.515 8.12964 0)
(565.306 -0.0104197 0)
(569.123 -0.066536 0)
(571.768 -0.0800836 0)
(575.762 -0.00446897 0)
(580.13 0.168994 0)
(584.699 0.343397 0)
(588.562 0.417051 0)
(591.993 0.318419 0)
(594.111 0.0654957 0)
(595.202 -0.215551 0)
(596.597 -0.449704 0)
(597.468 -0.676098 0)
(597.981 -1.05256 0)
(598.309 -1.7586 0)
(598.656 -2.05089 0)
(596.931 3.22856 0)
(571.177 56.307 0)
(544.309 95.0137 0)
(541.594 100.711 0)
(542.148 100.071 0)
(545.598 95.6668 0)
(549.969 89.61 0)
(553.932 84.0214 0)
(557.57 78.4883 0)
(561.227 72.5546 0)
(564.901 66.2031 0)
(568.594 59.4485 0)
(572.404 52.2115 0)
(576.522 44.4182 0)
(581.004 35.7715 0)
(585.545 25.7123 0)
(588.778 16.8476 0)
(586.276 14.8249 0)
(568.324 43.2269 0)
(542.842 75.252 0)