/*--------------------------------*- C++ -*----------------------------------*\
| =========                 |                                                 |
| \\      /  F ield         | OpenFOAM: The Open Source CFD Toolbox           |
|  \\    /   O peration     | Version:  v2012                                 |
|   \\  /    A nd           | Website:  www.openfoam.com                      |
|    \\/     M anipulation  |                                                 |
\*---------------------------------------------------------------------------*/
FoamFile
{
    version     2.0;
    format      ascii;
    class       volVectorField;
    location    "0";
    object      wallShearStress;
}
// * * * * * * * * * * * * * * * * * * * * * * * * * * * * * * * * * * * * * //

dimensions      [1 -1 -2 0 0 0 0];


internalField   uniform (0 0 0);

boundaryField
{
    top
    {
        type            calculated;
        value           uniform (0 0 0);
    }
    base
    {
        type            calculated;
        value           nonuniform List<vector> 
276
(
(-145.388 -0.536898 6.56107e-17)
(-111.03 -0.00176721 -1.52609e-17)
(-170.507 -0.000493563 1.94266e-19)
(-179.854 0.00186684 1.60219e-20)
(-179.26 0.00240595 8.01096e-21)
(-177.123 0.00237116 0)
(-174.735 0.00211295 -6.40877e-20)
(-172.501 0.0019013 0)
(-170.501 0.00169009 1.60219e-20)
(-168.725 0.00169067 8.01096e-21)
(-167.16 0.00152465 -8.01096e-21)
(-165.773 0.00157429 -3.20439e-20)
(-164.542 0.00129552 -8.01096e-21)
(-163.439 0.00121309 -1.60219e-20)
(-162.45 0.00131713 1.60219e-20)
(-161.565 0.00135096 -1.60219e-20)
(-160.762 0.00134481 -3.20439e-20)
(-160.03 0.00129157 -4.80658e-20)
(-159.363 0.00114079 -1.60219e-20)
(-158.756 0.00123921 3.20439e-20)
(-158.205 0.00121542 8.01096e-20)
(-157.699 0.00122125 1.60219e-20)
(-157.24 0.00123766 3.20439e-20)
(-156.821 0.00139362 -4.80658e-20)
(-156.438 0.00156818 2.24307e-19)
(-156.091 0.00177856 -4.80658e-19)
(-155.779 0.00216436 -1.92263e-19)
(-155.497 0.00246194 -4.1657e-19)
(-155.243 0.00270892 -1.28175e-19)
(-155.014 0.00299913 -1.92263e-19)
(-154.81 0.0032655 4.48614e-19)
(-154.626 0.00353574 -3.20439e-19)
(-154.462 0.00379017 -3.20439e-19)
(-154.316 0.00400873 1.28175e-19)
(-154.184 0.00419382 -3.84526e-19)
(-154.068 0.00437018 0)
(-153.964 0.00450948 1.28175e-19)
(-153.87 0.00460236 3.84526e-19)
(-153.785 0.00468827 1.28175e-19)
(-153.708 0.00467551 -1.28175e-19)
(-153.637 0.00465735 0)
(-153.572 0.00462815 -2.56351e-19)
(-153.512 0.00463192 -5.12702e-19)
(-153.455 0.00451292 -1.28175e-19)
(-153.4 0.00436039 -1.28175e-18)
(-153.347 0.00417783 -3.84526e-19)
(-153.294 0.00398458 -8.97228e-19)
(-153.242 0.0037675 -2.05081e-18)
(-153.19 0.00350254 -1.0254e-18)
(-153.137 0.00328135 -1.40993e-18)
(-153.086 0.00319121 -5.12702e-19)
(-153.037 0.00306679 0)
(-152.989 0.00278713 -1.28175e-19)
(-152.941 0.00243709 3.84526e-19)
(-152.895 0.00220178 1.28175e-18)
(-152.849 0.00204615 3.84526e-19)
(-152.805 0.00201084 -5.12702e-19)
(-152.762 0.00186654 -3.84526e-19)
(-152.72 0.00205319 2.56351e-19)
(-152.682 0.00210598 0)
(-152.644 0.00220626 -1.28175e-19)
(-152.609 0.00226872 0)
(-152.575 0.00218717 3.71709e-18)
(-152.541 0.0019241 3.97344e-18)
(-152.507 0.00173216 3.84526e-19)
(-152.473 0.00156715 1.0254e-18)
(-152.439 0.00150232 5.12702e-19)
(-152.408 0.0015465 -1.5381e-18)
(-152.377 0.00165624 1.79446e-18)
(-152.347 0.00177149 1.40993e-18)
(-152.318 0.00187072 -2.56351e-18)
(-152.289 0.00199809 0)
(-152.261 0.00195998 0)
(-152.233 0.00203179 -2.05081e-18)
(-152.206 0.00225077 -2.05081e-18)
(-152.181 0.00212499 -5.12702e-19)
(-152.153 0.00213722 -1.0254e-18)
(-152.123 0.00225889 7.69052e-19)
(-152.08 0.00228258 3.07621e-18)
(-152.052 0.0024359 -1.79446e-18)
(-152.026 0.00250731 -7.69052e-19)
(-152 0.00258552 -5.12702e-19)
(-151.973 0.00259506 -2.56351e-19)
(-151.946 0.00265746 5.12702e-19)
(-151.918 0.00271806 -1.5381e-18)
(-151.89 0.00278175 1.28175e-18)
(-151.86 0.00284388 -1.5381e-18)
(-151.83 0.00292083 -4.61431e-18)
(-151.8 0.00310886 3.84526e-18)
(-151.772 0.00329534 -5.12702e-19)
(-151.746 0.00338483 2.56351e-19)
(-151.72 0.00359941 1.5381e-18)
(-151.695 0.00356928 -5.12702e-19)
(-151.666 0.00354261 1.0254e-18)
(-151.637 0.00346078 -5.12702e-19)
(-151.608 0.00351982 -1.0254e-18)
(-151.579 0.00359027 -4.10161e-18)
(-151.55 0.00366723 -1.0254e-18)
(-151.518 0.00373747 -1.0254e-18)
(-151.489 0.00386187 -3.07621e-18)
(-151.46 0.00394005 -2.56351e-18)
(-151.429 0.00400123 -2.05081e-18)
(-151.398 0.00406252 3.07621e-18)
(-151.369 0.00422299 -5.12702e-19)
(-151.34 0.00411299 1.0254e-18)
(-151.309 0.00418063 5.12702e-19)
(-151.277 0.00424688 2.05081e-18)
(-151.244 0.00420021 0)
(-151.213 0.00424253 5.12702e-19)
(-151.18 0.00429136 -1.5381e-18)
(-151.147 0.00434403 -1.0254e-18)
(-151.115 0.00440353 5.12702e-19)
(-151.083 0.00445152 0)
(-151.05 0.00448863 -5.12702e-19)
(-151.015 0.00452159 -2.05081e-18)
(-150.982 0.00456544 -1.0254e-18)
(-150.949 0.00461472 1.0254e-18)
(-150.914 0.00468797 -5.12702e-19)
(-150.878 0.00475879 2.05081e-18)
(-150.845 0.00480839 5.12702e-19)
(-150.814 0.00482385 1.0254e-18)
(-150.779 0.00481956 -1.0254e-18)
(-150.743 0.00482294 -5.12702e-19)
(-150.708 0.00482276 0)
(-150.673 0.00482821 -1.0254e-18)
(-150.638 0.00484798 5.12702e-19)
(-150.602 0.0048791 0)
(-150.565 0.00491657 0)
(-150.528 0.00493838 0)
(-150.492 0.00494672 5.12702e-19)
(-150.457 0.00493218 -5.12702e-19)
(-150.421 0.00491497 0)
(-150.383 0.00489824 -2.05081e-18)
(-150.344 0.00489433 -5.12702e-19)
(-150.306 0.004894 1.0254e-18)
(-150.27 0.00489984 -5.12702e-19)
(-150.232 0.00489675 5.12702e-19)
(-150.193 0.00489331 5.12702e-19)
(-150.154 0.00488267 -2.05081e-18)
(-150.114 0.00487348 -2.05081e-18)
(-150.072 0.00486681 5.12702e-19)
(-150.033 0.00485152 0)
(-149.995 0.00484308 -1.0254e-18)
(-149.956 0.00484602 0)
(-149.916 0.00486541 2.05081e-18)
(-149.874 0.00490838 5.12702e-19)
(-149.831 0.00492455 5.12702e-19)
(-149.793 0.00491822 1.5381e-18)
(-149.755 0.00487715 1.0254e-18)
(-149.714 0.0048154 -5.12702e-19)
(-149.672 0.00476564 0)
(-149.633 0.00473349 1.0254e-18)
(-149.587 0.00480768 5.12702e-19)
(-149.546 0.00466798 0)
(-149.506 0.00462288 1.0254e-18)
(-149.46 0.00460012 -2.05081e-18)
(-149.417 0.00370469 -1.0254e-18)
(-149.399 0.00537436 2.10208e-17)
(-149.305 -0.00348007 -4.33233e-17)
(-147.68 0.0230072 9.80286e-16)
(-103.838 0.443663 -4.59381e-16)
(13.929 0.822586 -5.25006e-16)
(37.0644 0.265173 1.57502e-15)
(34.5915 0.188074 -3.11723e-16)
(33.0129 0.0713631 1.14845e-16)
(31.4252 0.104053 -2.46097e-17)
(30.3975 0.0789472 -9.84387e-17)
(29.8339 0.0584182 -2.46097e-17)
(29.9726 0.0585472 1.64065e-17)
(30.2883 0.037055 -5.74226e-17)
(30.6505 0.029187 -6.15242e-18)
(31.16 0.0267165 0)
(31.6023 0.0154516 -2.05081e-18)
(31.9841 0.00920909 -2.87113e-17)
(32.2922 0.0049535 -9.74133e-18)
(32.5188 0.00255469 7.17782e-18)
(32.7251 -0.000677755 3.1403e-18)
(32.9295 -0.00353893 1.12794e-17)
(33.1318 -0.00781397 2.05081e-18)
(33.3544 -0.013049 0)
(33.6265 -0.0194508 -2.05081e-18)
(34.0582 -0.0242338 -1.0254e-17)
(34.8683 -0.0273556 2.05081e-18)
(36.4005 -0.0293616 -4.10161e-18)
(39.3106 -0.0313126 -2.05081e-18)
(43.7712 -0.0300889 8.20323e-18)
(50.1636 -0.0340589 2.05081e-18)
(57.9181 -0.0240832 -1.64065e-17)
(65.7109 -0.0118963 -4.10161e-18)
(70.2866 -0.0022089 -1.58938e-17)
(72.8754 0.00189363 -2.56351e-19)
(75.2531 0.00974179 1.0254e-18)
(76.3742 0.0156279 3.07621e-18)
(76.4817 0.0162513 2.05081e-18)
(75.8543 0.0159609 3.07621e-18)
(74.5481 0.0144324 -1.0254e-18)
(72.8585 0.0119272 -3.07621e-18)
(70.9226 0.0105691 1.0254e-18)
(68.4752 0.00791535 0)
(65.4625 0.00460288 -5.12702e-19)
(61.6666 0.00119988 2.6276e-18)
(57.0749 -0.00137419 -2.56351e-19)
(51.7091 -0.00356155 -1.0254e-18)
(45.6214 -0.00050841 -8.58775e-18)
(38.8537 0.00688817 -1.5381e-17)
(31.4562 0.0174549 4.10161e-18)
(23.5002 0.0302943 2.66605e-17)
(15.074 0.0431839 -2.05081e-17)
(6.27304 0.0545246 0)
(-2.81946 0.061145 -8.20323e-18)
(-12.1481 0.0567268 -8.20323e-18)
(-21.6984 0.0380963 8.20323e-18)
(-31.4782 0.00984564 4.92194e-17)
(-41.4814 -0.0217609 -4.92194e-17)
(-51.6466 -0.0572293 5.74226e-17)
(-61.8451 -0.0850595 3.28129e-17)
(-71.9237 -0.108655 -4.92194e-17)
(-81.7235 -0.123713 -3.28129e-17)
(-91.0896 -0.128835 -0)
(-99.9234 -0.123724 -0)
(-108.206 -0.109963 -6.56258e-17)
(-115.988 -0.0865357 -1.88674e-16)
(-123.354 -0.0499047 -1.64065e-16)
(-130.407 0.000893882 1.92263e-19)
(-137.265 0.0618288 -2.543e-16)
(-144.053 0.130798 2.46097e-16)
(-150.865 0.195137 -2.62503e-16)
(-157.741 0.242697 0)
(-164.655 0.261578 -3.28129e-17)
(-171.518 0.244014 2.2969e-16)
(-178.206 0.192071 2.62503e-16)
(-184.574 0.102425 3.69145e-16)
(-190.504 -0.00828756 1.0254e-18)
(-195.918 -0.123928 1.64065e-17)
(-200.783 -0.229836 -3.11723e-16)
(-205.125 -0.310872 4.59381e-16)
(-209.025 -0.356583 -3.28129e-17)
(-212.601 -0.361515 -6.56258e-17)
(-215.997 -0.326417 3.28129e-17)
(-219.366 -0.253981 6.56258e-17)
(-222.851 -0.151996 -7.54697e-16)
(-226.534 -0.0309225 -0)
(-230.439 0.0915153 0)
(-234.551 0.203061 0)
(-238.804 0.294792 -9.84387e-17)
(-243.467 0.337334 -1.64065e-16)
(-249.035 0.354637 -3.28129e-17)
(-254.949 0.362194 -3.28129e-17)
(-258.895 0.303515 -6.89071e-16)
(-263.991 0.191084 -4.92194e-17)
(-269.422 0.121688 5.086e-16)
(-273.622 0.0430408 5.98836e-16)
(-279.212 -0.0477605 -8.20323e-18)
(-284.554 -0.134683 1.2633e-15)
(-289.633 -0.215586 1.64065e-17)
(-294.485 -0.278326 9.84387e-17)
(-298.975 -0.319306 7.21884e-16)
(-303.121 -0.341194 -6.56258e-17)
(-306.898 -0.34584 3.28129e-17)
(-310.285 -0.336673 -3.28129e-17)
(-313.263 -0.316464 -1.31252e-16)
(-315.81 -0.28853 3.28129e-17)
(-317.929 -0.256425 -3.93755e-16)
(-319.65 -0.222635 -2.62503e-16)
(-320.986 -0.189608 -4.59381e-16)
(-321.952 -0.158471 -4.59381e-16)
(-322.572 -0.129959 3.28129e-17)
(-322.865 -0.104924 2.05081e-16)
(-322.857 -0.0840246 0)
(-322.577 -0.0667194 -0)
(-322.046 -0.0529648 -1.23048e-17)
(-321.273 -0.0428815 -0)
(-320.298 -0.0357543 -6.97274e-17)
(-319.032 -0.0327734 1.23048e-17)
(-319.06 -0.0217429 -6.97274e-17)
(-314.325 -0.0456181 1.18631e-16)
)
;
    }
    frontAndBack
    {
        type            empty;
    }
    inlet
    {
        type            calculated;
        value           uniform (0 0 0);
    }
    outlet
    {
        type            calculated;
        value           uniform (0 0 0);
    }
}


// ************************************************************************* //
