/*--------------------------------*- C++ -*----------------------------------*\
| =========                 |                                                 |
| \\      /  F ield         | OpenFOAM: The Open Source CFD Toolbox           |
|  \\    /   O peration     | Version:  v2012                                 |
|   \\  /    A nd           | Website:  www.openfoam.com                      |
|    \\/     M anipulation  |                                                 |
\*---------------------------------------------------------------------------*/
FoamFile
{
    version     2.0;
    format      ascii;
    class       volScalarField;
    location    "0";
    object      xx;
}
// * * * * * * * * * * * * * * * * * * * * * * * * * * * * * * * * * * * * * //

dimensions      [0 0 0 0 0 0 0];


internalField   nonuniform List<scalar> 
27324
(
1.33289
1.26119
3.40682
1.18735
3.33314
3.69814
1.11727
3.23431
3.57389
2.58888
1.05138
3.13391
3.42531
2.46893
1.44102
0.989637
3.03357
3.27787
2.33733
1.36026
0.723309
0.931441
2.93567
3.13365
2.20886
1.27645
0.67768
0.342079
0.876149
2.83964
2.99552
2.08527
1.19625
0.632033
0.318219
0.152901
0.822983
2.74354
2.86297
1.96713
1.12017
0.588891
0.294752
0.141088
0.0647085
0.771858
2.64422
2.73354
1.85351
1.04679
0.547936
0.272689
0.129706
0.0592885
0.0264938
0.724028
2.5407
2.60387
1.74267
0.97566
0.508
0.251851
0.119127
0.0541737
0.0242481
0.0111415
0.680207
2.43654
2.47217
1.63355
0.906114
0.468939
0.231567
0.109215
0.0494903
0.0221737
0.0102984
0.00516683
0.640981
2.33551
2.34069
1.527
0.838816
0.430806
0.211802
0.0996083
0.0451571
0.0202975
0.00952567
0.00486343
0.00271201
0.605648
2.24138
2.21161
1.42455
0.775719
0.394565
0.192696
0.0903144
0.0410093
0.0185867
0.00883415
0.0045823
0.00259798
0.00156304
0.572191
2.15205
2.08707
1.32745
0.717045
0.361661
0.174814
0.0814478
0.0370537
0.0169727
0.00820843
0.00432995
0.00248859
0.00151392
0.000946854
0.539145
2.0585
1.96358
1.23495
0.66307
0.331932
0.158868
0.0732859
0.0333546
0.0154561
0.00762189
0.00410064
0.00238868
0.00146448
0.000921864
0.000584741
0.506346
1.95607
1.8373
1.14399
0.611248
0.304933
0.144623
0.0661574
0.0300165
0.0140605
0.00707419
0.00388474
0.00229625
0.00141785
0.000895424
0.000570184
0.000364129
0.474639
1.84523
1.7078
1.05415
0.560292
0.278751
0.131795
0.0599138
0.0271611
0.0128221
0.00657439
0.00368215
0.0022075
0.00137358
0.00086983
0.000554372
0.000355264
0.000229385
0.4452
1.73261
1.57858
0.966117
0.510172
0.252812
0.119372
0.0543733
0.0247009
0.0117749
0.00613087
0.00349613
0.00212253
0.0013301
0.000845032
0.00053884
0.000345468
0.000223995
0.000147681
0.4184
1.62448
1.45663
0.882784
0.462532
0.22732
0.107162
0.0490667
0.0225434
0.0108808
0.00575466
0.00332913
0.00204253
0.00128749
0.000820372
0.000523626
0.000335769
0.000217955
0.00014448
9.85548e-05
0.39335
1.52208
1.34398
0.80533
0.418633
0.203941
0.0955092
0.043958
0.0205034
0.0100976
0.0054325
0.00318472
0.00196863
0.00124628
0.000795883
0.000508535
0.000326253
0.000211957
0.000140843
9.67534e-05
6.93634e-05
0.369416
1.41992
1.23753
0.733391
0.378126
0.182941
0.0852303
0.0392152
0.0185759
0.00936134
0.00514843
0.00305791
0.00190228
0.00120714
0.000771787
0.000493578
0.000316907
0.000206113
0.000137239
9.46586e-05
6.84447e-05
5.21739e-05
0.346212
1.31486
1.13242
0.663961
0.339929
0.164032
0.0763223
0.035181
0.0168246
0.00867296
0.00488027
0.00294263
0.00184191
0.00117066
0.000748538
0.000478817
0.000307768
0.000200446
0.000133757
9.25915e-05
6.73212e-05
5.18141e-05
4.21036e-05
0.324208
1.20654
1.0273
0.596188
0.30286
0.146134
0.0684341
0.0317705
0.0153649
0.00805391
0.00462891
0.00283158
0.00178522
0.00113648
0.000726374
0.00046445
0.000298803
0.00019497
0.000130421
9.06156e-05
6.62193e-05
5.1299e-05
4.2077e-05
3.62083e-05
0.304146
1.0982
0.924187
0.530849
0.267436
0.12897
0.0609482
0.0287763
0.014144
0.00754249
0.00440168
0.00272545
0.00172949
0.00110366
0.000705181
0.000450569
0.000290028
0.000189659
0.00012723
8.87432e-05
6.51802e-05
5.07992e-05
4.19253e-05
3.6347e-05
3.30084e-05
0.28537
0.993594
0.825129
0.469815
0.23508
0.112976
0.0538451
0.0259308
0.0130735
0.00711492
0.00421135
0.00262706
0.00167497
0.00107119
0.000684723
0.000437154
0.000281483
0.000184458
0.000124165
8.69729e-05
6.42064e-05
5.0341e-05
4.17853e-05
3.64016e-05
3.30161e-05
3.1714e-05
0.267075
0.890282
0.730366
0.412989
0.206275
0.09902
0.0473513
0.0232455
0.0120514
0.00673538
0.00404811
0.00254142
0.00162308
0.00103915
0.000664702
0.000424314
0.000273236
0.000179374
0.000121183
8.52905e-05
6.32986e-05
4.99237e-05
4.16754e-05
3.6471e-05
3.31237e-05
3.15126e-05
3.38021e-05
0.247901
0.785057
0.637019
0.357501
0.180295
0.0870217
0.0418837
0.0208403
0.011095
0.00636785
0.00389763
0.00246454
0.00157591
0.00100814
0.000645125
0.000412005
0.000265444
0.000174485
0.000118273
8.36893e-05
6.24565e-05
4.95489e-05
4.15945e-05
3.65653e-05
3.33011e-05
3.14891e-05
3.21467e-05
7.46187e-05
0.227941
0.672622
0.543596
0.303279
0.15454
0.0764111
0.0372975
0.0188547
0.0102438
0.00602105
0.00374649
0.00239009
0.00153189
0.000979047
0.000626036
0.000400173
0.000258165
0.000169895
0.000115488
8.21612e-05
6.16843e-05
4.92199e-05
4.15425e-05
3.66851e-05
3.35094e-05
3.15338e-05
3.13336e-05
3.78077e-05
0.00525392
0.20737
0.555156
0.450526
0.251791
0.129731
0.0658923
0.033306
0.0172137
0.00954799
0.00571167
0.00359987
0.00231262
0.0014882
0.000951287
0.000607659
0.000388586
0.000251277
0.00016567
0.000112878
8.07097e-05
6.09818e-05
4.89434e-05
4.15211e-05
3.68273e-05
3.3729e-05
3.16888e-05
3.11385e-05
3.55503e-05
0.00273233
0.0901253
0.184865
0.436813
0.360239
0.207618
0.107495
0.0559612
0.0293697
0.0157977
0.00897485
0.0054571
0.00346589
0.0022355
0.00144272
0.000923622
0.000589848
0.000377141
0.000244564
0.000161734
0.000110471
7.93404e-05
6.03298e-05
4.87151e-05
4.1529e-05
3.69841e-05
3.39673e-05
3.19244e-05
3.12024e-05
3.39188e-05
0.00144807
0.0747318
0.27032
0.1393
0.317778
0.27438
0.169274
0.0905596
0.0473849
0.0256994
0.014407
0.00847343
0.00524192
0.0033512
0.00216371
0.00139719
0.000895284
0.000572332
0.000365946
0.000237799
0.000157919
0.000108242
7.80546e-05
5.97056e-05
4.85221e-05
4.15607e-05
3.71468e-05
3.42298e-05
3.22014e-05
3.13602e-05
3.27435e-05
0.000817123
0.0581384
0.210516
0.630147
0.0804128
0.173286
0.194156
0.134504
0.0772906
0.0414891
0.022601
0.0131075
0.00797524
0.00504613
0.00324997
0.00209968
0.0013546
0.00086712
0.000555009
0.000355145
0.00023109
0.00015402
0.000106115
7.6865e-05
5.90956e-05
4.83538e-05
4.16051e-05
3.73263e-05
3.45142e-05
3.25468e-05
3.16351e-05
3.21397e-05
0.000543536
0.0431332
0.162761
0.501051
1.51395
0.025904
0.0887059
0.119695
0.107253
0.0659956
0.0373043
0.020548
0.0119974
0.00750012
0.00484485
0.00315306
0.00204104
0.00131577
0.000840378
0.000538017
0.000344911
0.000224725
0.000150102
0.000104005
7.57684e-05
5.85179e-05
4.81932e-05
4.16702e-05
3.75393e-05
3.48281e-05
3.30105e-05
3.18763e-05
3.17397e-05
0.000396714
0.0302684
0.124763
0.400955
1.25661
3.66895
0.0138828
0.0429531
0.0707241
0.0789517
0.0591552
0.0338814
0.0191149
0.0112524
0.00708226
0.00464543
0.00304984
0.00198249
0.00127926
0.000815487
0.000521671
0.000335164
0.000218888
0.000146386
0.000101881
7.47598e-05
5.80139e-05
4.80333e-05
4.17852e-05
3.77853e-05
3.52122e-05
3.34789e-05
3.19823e-05
3.09318e-05
0.000330787
0.0198922
0.0942885
0.320792
1.0397
3.11666
8.4997
0.0125137
0.0315309
0.0428352
0.0560819
0.048665
0.0321014
0.0178454
0.0107226
0.00679866
0.00446307
0.00294248
0.00191926
0.00124204
0.000791479
0.000506232
0.00032567
0.000213552
0.000143063
9.97992e-05
7.38019e-05
5.76086e-05
4.79081e-05
4.19481e-05
3.80693e-05
3.56942e-05
3.37814e-05
3.17824e-05
2.921e-05
0.000226359
0.0118079
0.0703456
0.255769
0.855516
2.63545
7.36828
18.9586
0.0121593
0.0295646
0.0316156
0.0421774
0.0389003
0.0275775
0.0171982
0.0102231
0.0065984
0.00433321
0.00283724
0.00185207
0.00120239
0.000766688
0.00049107
0.000316396
0.000208308
0.000140062
9.79132e-05
7.28613e-05
5.73116e-05
4.78767e-05
4.21334e-05
3.85158e-05
3.60603e-05
3.38154e-05
3.06095e-05
2.66085e-05
0.000126112
0.00626524
0.0512078
0.202716
0.700089
2.21553
6.35887
16.7092
41.2935
0.0118774
0.0287753
0.0293689
0.0356469
0.033014
0.0240319
0.0150008
0.00985613
0.0063982
0.00423211
0.0027524
0.00178463
0.00116051
0.00074084
0.000475698
0.000307114
0.000202936
0.000137145
9.62893e-05
7.19423e-05
5.711e-05
4.79162e-05
4.24199e-05
3.88988e-05
3.61138e-05
3.30527e-05
2.83791e-05
2.36639e-05
6.29113e-05
0.00290619
0.0355658
0.15933
0.569443
1.85229
5.46413
14.6728
36.9177
88.2606
0.0115757
0.0280852
0.0284619
0.0337695
0.0295304
0.0223091
0.0138178
0.00867269
0.00610593
0.00411899
0.00267788
0.00172595
0.00111862
0.000713862
0.000460211
0.000297826
0.000197508
0.000134067
9.4807e-05
7.11756e-05
5.68467e-05
4.81615e-05
4.26429e-05
3.89326e-05
3.55579e-05
3.10064e-05
2.52539e-05
2.1114e-05
3.39896e-05
0.00116468
0.0231685
0.1235
0.460162
1.54012
4.66923
12.8425
32.894
79.9882
184.427
0.0112509
0.0273317
0.0275722
0.0327119
0.0282445
0.0203295
0.0136395
0.00830554
0.00544109
0.00378698
0.00258876
0.00167383
0.00107999
0.000686266
0.000444469
0.000288652
0.000192067
0.000130857
9.3231e-05
7.05245e-05
5.65082e-05
4.83185e-05
4.24616e-05
3.85123e-05
3.34283e-05
2.75422e-05
2.23475e-05
1.95813e-05
2.33568e-05
0.000420137
0.0138044
0.0938207
0.369058
1.27369
3.97095
11.2062
29.2363
72.2388
169.393
373.15
0.0109104
0.0265136
0.0266912
0.0317892
0.0273167
0.0196303
0.013016
0.00851073
0.00550011
0.0034447
0.00231521
0.00158072
0.00104393
0.000656971
0.000427115
0.000278895
0.000186486
0.000127454
9.12877e-05
6.9833e-05
5.58842e-05
4.79406e-05
4.14704e-05
3.58693e-05
2.95916e-05
2.40605e-05
2.05856e-05
1.88938e-05
1.9918e-05
0.000154868
0.00732461
0.0690038
0.293428
1.04756
3.36046
9.74505
25.9328
65.0961
155.02
347.306
721.038
0.0105721
0.0256642
0.0258275
0.0309982
0.0265566
0.0190641
0.0125555
0.00830328
0.00597374
0.00369273
0.0021914
0.00139255
0.000931155
0.000617001
0.000406436
0.000266433
0.000179566
0.000123349
8.87475e-05
6.8468e-05
5.47443e-05
4.58288e-05
3.82359e-05
3.12838e-05
2.55951e-05
2.18701e-05
1.98022e-05
1.86397e-05
1.87964e-05
6.59826e-05
0.00340606
0.0482284
0.230663
0.85675
2.83036
8.44371
22.9534
58.5653
141.581
322.042
679.953
1307.35
0.0102359
0.0248367
0.0250085
0.0302502
0.02588
0.0185814
0.0122153
0.00788347
0.00603414
0.00421405
0.00250826
0.00140084
0.000836541
0.000536058
0.000353671
0.000237838
0.000165075
0.00011574
8.19314e-05
6.35029e-05
4.95167e-05
4.00224e-05
3.24435e-05
2.6813e-05
2.3193e-05
2.08959e-05
1.94568e-05
1.87413e-05
1.85328e-05
3.46874e-05
0.00139385
0.0314714
0.178589
0.69623
2.3738
7.2914
20.2727
52.6063
129.131
298.084
638.727
1249.63
2179.85
0.00990101
0.0240465
0.0242604
0.0295448
0.0252239
0.0180873
0.0118696
0.0077635
0.00558746
0.00435498
0.00302412
0.00168756
0.000913627
0.000515801
0.000312936
0.000201427
0.000135436
9.46899e-05
6.78232e-05
5.23012e-05
4.08772e-05
3.3371e-05
2.80963e-05
2.45177e-05
2.21774e-05
2.04591e-05
1.95073e-05
1.88777e-05
1.85688e-05
2.39314e-05
0.000520351
0.0188592
0.135328
0.561562
1.98287
6.27001
17.8637
47.1876
117.624
275.595
599.045
1189.47
2112.17
3300.54
0.00958014
0.023318
0.0235865
0.0288424
0.0245587
0.0176091
0.0114901
0.00761677
0.00550856
0.00404946
0.00323339
0.00211289
0.00113672
0.000601169
0.000332683
0.000194866
0.000122607
8.24153e-05
5.87453e-05
4.47167e-05
3.58295e-05
3.0009e-05
2.62298e-05
2.36444e-05
2.17186e-05
2.05285e-05
1.96462e-05
1.90682e-05
1.86944e-05
2.02921e-05
0.000193491
0.0101363
0.0993291
0.448773
1.65033
5.37188
15.7039
42.2679
107.03
254.519
561.285
1130.47
2037.24
3239.7
4578.21
0.00924655
0.0226079
0.0229839
0.0281801
0.0238487
0.0171403
0.011138
0.00746526
0.00544685
0.00395378
0.00306091
0.00232607
0.00144605
0.000758389
0.00039785
0.000218838
0.000129217
8.23752e-05
5.68078e-05
4.26396e-05
3.43106e-05
2.90244e-05
2.56946e-05
2.35237e-05
2.19148e-05
2.0708e-05
1.98405e-05
1.92484e-05
1.88455e-05
1.91491e-05
7.88148e-05
0.0047825
0.0695476
0.354219
1.36924
4.58551
13.7702
37.8133
97.2985
234.855
525.429
1073.4
1962.17
3163.09
4544.45
5918.34
0.0088889
0.0218262
0.0223523
0.027461
0.0231385
0.0166721
0.0108426
0.00734522
0.00537388
0.00390403
0.00291653
0.00226581
0.00163978
0.000960804
0.000495534
0.000262929
0.000147947
8.95887e-05
5.93477e-05
4.33453e-05
3.44841e-05
2.92643e-05
2.59926e-05
2.37732e-05
2.2157e-05
2.09381e-05
2.00323e-05
1.94145e-05
1.90005e-05
1.88525e-05
3.84523e-05
0.00197924
0.0454605
0.275176
1.13157
3.90192
12.0442
33.784
88.3864
216.548
491.516
1018.38
1888.11
3084.73
4480.7
5929.39
7223.01
0.0085128
0.0209972
0.0216871
0.0266478
0.0223431
0.0161923
0.0105777
0.00726267
0.00530504
0.0038497
0.00288614
0.00213118
0.00166092
0.00111457
0.00061616
0.000318395
0.000173038
0.000101212
6.47164e-05
4.592e-05
3.5765e-05
3.00046e-05
2.64991e-05
2.4152e-05
2.24526e-05
2.11666e-05
2.02147e-05
1.95707e-05
1.91516e-05
1.88593e-05
2.47816e-05
0.000727701
0.0273826
0.209807
0.928524
3.31171
10.5127
30.1463
80.2377
199.573
459.509
965.558
1815.35
3005.59
4414.14
5894.1
7291.11
8221.23
0.00813504
0.0201349
0.0210201
0.0258143
0.0215279
0.0156826
0.0103307
0.00719568
0.00524524
0.00379944
0.00286271
0.0021021
0.00156161
0.00117127
0.000727428
0.000386459
0.00020357
0.000115021
7.10212e-05
4.88788e-05
3.72649e-05
3.08444e-05
2.70317e-05
2.45295e-05
2.2738e-05
2.13885e-05
2.0392e-05
1.97231e-05
1.93006e-05
1.89678e-05
2.04473e-05
0.000254166
0.0148326
0.154954
0.754103
2.80634
9.15582
26.8692
72.8
183.87
429.438
914.988
1744.21
2926.3
4344.96
5856.11
7300
8358.95
8691.33
0.00778134
0.0192651
0.0203551
0.0249963
0.0207526
0.0151868
0.0100999
0.00714031
0.00518542
0.00376091
0.00284416
0.00208637
0.00151658
0.00112276
0.000792005
0.000457329
0.000240107
0.000131605
7.84801e-05
5.23021e-05
3.89296e-05
3.17412e-05
2.75852e-05
2.4911e-05
2.30218e-05
2.16104e-05
2.05714e-05
1.98768e-05
1.94488e-05
1.91116e-05
1.92608e-05
9.21972e-05
0.00703645
0.109272
0.60582
2.3764
7.96288
23.9207
66.0238
169.387
401.261
866.799
1674.92
2847.23
4274.13
5813.55
7307.84
8433.62
8874.86
8732.35
0.00746961
0.0184778
0.0197318
0.02419
0.0199857
0.0147128
0.00990594
0.00708179
0.0051192
0.003727
0.00283207
0.00207488
0.001507
0.00107259
0.000789588
0.000517758
0.000284976
0.000151704
8.74135e-05
5.63273e-05
4.08178e-05
3.27107e-05
2.81666e-05
2.53099e-05
2.33187e-05
2.18408e-05
2.07563e-05
2.00336e-05
1.9597e-05
1.92653e-05
1.90374e-05
3.93809e-05
0.00285352
0.0721555
0.479391
2.01025
6.9184
21.2765
59.8549
156.062
374.972
821.02
1607.83
2768.64
4201.88
5768.11
7309.94
8509.4
9000.51
8932.76
8516.43
0.0071939
0.0177782
0.0191672
0.0234276
0.019256
0.0142344
0.00974074
0.00702773
0.00504823
0.00369608
0.00282336
0.00206789
0.00150152
0.00106305
0.000748505
0.00053193
0.000331064
0.000176297
9.80929e-05
6.10799e-05
4.30126e-05
3.3798e-05
2.87953e-05
2.57342e-05
2.36324e-05
2.20826e-05
2.09483e-05
2.01942e-05
1.97459e-05
1.94214e-05
1.91039e-05
2.36193e-05
0.000972575
0.0438334
0.371595
1.69681
6.009
18.9122
54.2524
143.812
350.541
777.74
1543.06
2691.05
4128.56
5719.8
7308.38
8578.67
9131.15
9083.21
8718.84
8145.68
0.00695545
0.0171806
0.0186191
0.0226551
0.0185716
0.0137939
0.00960177
0.00697159
0.00497926
0.00367234
0.0028151
0.0020641
0.00150051
0.00105963
0.00072927
0.00050975
0.000348492
0.000205164
0.0001107
6.65867e-05
4.55525e-05
3.50285e-05
2.94836e-05
2.61879e-05
2.39652e-05
2.23362e-05
2.11468e-05
2.03585e-05
1.98958e-05
1.95787e-05
1.9252e-05
1.98155e-05
0.000291139
0.0238784
0.28055
1.42979
5.22095
16.8097
49.1747
132.572
327.89
737.033
1480.87
2614.8
4054.64
5668.93
7302.97
8644.02
9258.36
9239.84
8878.94
8343.6
7673.71
0.00674036
0.0166677
0.018068
0.02185
0.017902
0.0133877
0.00949639
0.00690893
0.00490911
0.00365655
0.0028077
0.00206368
0.00150206
0.00106041
0.000726724
0.000488742
0.000344214
0.000221623
0.000125225
7.29138e-05
4.84585e-05
3.64333e-05
3.02408e-05
2.6673e-05
2.43163e-05
2.26015e-05
2.13523e-05
2.05263e-05
2.00478e-05
1.97376e-05
1.94261e-05
1.91763e-05
8.5899e-05
0.0112674
0.203987
1.19226
4.54276
14.949
44.5903
122.261
306.951
698.918
1421.48
2540.34
3980.55
5615.99
7294.02
8704.49
9384.94
9394.83
9045.39
8506.01
7864.31
7131.76
0.00653056
0.0161688
0.0174905
0.0210033
0.01724
0.0130112
0.00940992
0.00683253
0.00484265
0.00364854
0.00280362
0.00206481
0.00150488
0.00106338
0.000727115
0.000484447
0.00032706
0.000225811
0.000138968
8.02327e-05
5.17503e-05
3.80421e-05
3.10852e-05
2.71928e-05
2.46866e-05
2.28799e-05
2.15649e-05
2.06983e-05
2.02028e-05
1.98988e-05
1.96117e-05
1.92479e-05
3.21418e-05
0.00438475
0.139761
0.984012
3.96003
13.3131
40.4643
112.825
287.616
663.449
1365.09
2467.98
3906.97
5561.29
7281.72
8759.87
9509.91
9550.74
9210.81
8674.52
8025.4
7313.61
6542.28
0.0063174
0.0156919
0.0168927
0.0201157
0.0165715
0.0126783
0.00933306
0.00674131
0.00478511
0.00364509
0.00280354
0.00206904
0.00150881
0.00106735
0.000729152
0.000483988
0.000316103
0.000217882
0.000146781
8.85578e-05
5.54611e-05
3.98543e-05
3.20332e-05
2.7754e-05
2.50765e-05
2.31724e-05
2.17858e-05
2.08749e-05
2.03617e-05
2.00639e-05
1.98058e-05
1.94696e-05
2.10071e-05
0.00130254
0.0882158
0.802725
3.46165
11.8809
36.7692
104.206
269.784
630.568
1311.96
2398.07
3834.58
5505.17
7266.42
8809.63
9632.94
9706.75
9377.84
8842.32
8191.88
7470.89
6714.31
5924.96
0.00609688
0.0152494
0.0163175
0.0192151
0.0159203
0.0123846
0.00926555
0.00663313
0.00473658
0.00364384
0.00280455
0.00207652
0.00151376
0.00107191
0.000732296
0.000485189
0.000314698
0.00020768
0.00014442
9.62777e-05
5.9687e-05
4.18223e-05
3.30908e-05
2.83661e-05
2.54882e-05
2.34802e-05
2.20167e-05
2.10567e-05
2.0525e-05
2.02347e-05
2.0008e-05
1.97149e-05
1.96017e-05
0.000264519
0.0498888
0.645397
3.02997
10.6324
33.4738
96.372
253.345
600.221
1262.3
2331.06
3764.02
5448.34
7248.47
8853.43
9753.53
9862.53
9545.34
9011.78
8357.96
7632.87
6865.78
6086.19
5298.37
0.00588306
0.0148364
0.0157579
0.0183293
0.015304
0.0121271
0.009189
0.00650873
0.00469362
0.00364306
0.00280883
0.00208503
0.00151998
0.00107717
0.000735723
0.000487278
0.000314905
0.000202072
0.000137095
9.76012e-05
6.43082e-05
4.39102e-05
3.42425e-05
2.90419e-05
2.59259e-05
2.38046e-05
2.22587e-05
2.12441e-05
2.06936e-05
2.04127e-05
2.02191e-05
1.99731e-05
1.97542e-05
4.01863e-05
0.0240557
0.510653
2.6501
9.54806
30.5523
89.2855
238.232
572.253
1216.28
2267.48
3695.85
5391.21
7227.86
8891.78
9871.15
10017.6
9713.32
9181.94
8525.79
7794.86
7021.57
6230.25
5447.92
4679.8
0.00566989
0.0144358
0.015219
0.0174613
0.0147186
0.0119056
0.0090864
0.00637181
0.0046604
0.00364443
0.00281544
0.00209432
0.00152844
0.00108313
0.000739182
0.000489551
0.000315738
0.000201553
0.00013096
9.36843e-05
6.72777e-05
4.6193e-05
3.54456e-05
2.97914e-05
2.63987e-05
2.41462e-05
2.25136e-05
2.14382e-05
2.08686e-05
2.05992e-05
2.04423e-05
2.02433e-05
2.00095e-05
2.06266e-05
0.0089812
0.394995
2.31456
8.61074
27.9813
82.9203
224.376
546.537
1173.96
2207.79
3630.15
5334.61
7205.2
8926.09
9985.17
10171.5
9881.09
9352.77
8694.3
7958.44
7177.55
6378.11
5583.1
4816.89
4084.18
0.00544726
0.0140152
0.0147002
0.0166464
0.014192
0.0117134
0.00896974
0.00623334
0.00463148
0.00364173
0.0028248
0.00210363
0.00153744
0.00108957
0.000742515
0.000491575
0.000316887
0.000201751
0.000128038
8.79996e-05
6.69582e-05
4.84604e-05
3.66576e-05
3.06049e-05
2.69178e-05
2.45073e-05
2.27826e-05
2.16402e-05
2.10503e-05
2.07958e-05
2.06786e-05
2.0524e-05
2.03047e-05
2.06573e-05
0.00195768
0.296845
2.00422
7.80644
25.7332
77.2459
211.753
522.918
1135.3
2152.53
3567.55
5279.3
7180.88
8956.71
10094.9
10323.6
10048.4
9523.46
8863.42
8122.98
7335.18
6526.4
5721.59
4942.06
4208.48
3523.56
0.00521645
0.0135555
0.0141769
0.0158993
0.0137279
0.0115244
0.00883417
0.00610894
0.00460528
0.00363892
0.00283618
0.00211222
0.00154674
0.00109628
0.000745626
0.000493289
0.000317864
0.000202102
0.000127685
8.39713e-05
6.28451e-05
4.99306e-05
3.79106e-05
3.14381e-05
2.74939e-05
2.48913e-05
2.30647e-05
2.18521e-05
2.12394e-05
2.10052e-05
2.09275e-05
2.08169e-05
2.06199e-05
2.07535e-05
3.54665e-05
0.218742
1.73351
7.11499
23.7819
72.2207
200.346
501.306
1100.14
2102.12
3508.71
5226.06
7155.89
8983.85
10199.9
10473.6
10214.6
9693.88
9032.67
8288.04
7493.77
6676.47
5860.91
5070.16
4322.83
3634.98
3006.59
0.00496924
0.013023
0.0136545
0.0152307
0.013339
0.0113368
0.0086762
0.00600454
0.00458989
0.00364034
0.00284625
0.00211972
0.0015561
0.00110312
0.000748866
0.000494689
0.000318526
0.000202498
0.000127592
8.19167e-05
5.81418e-05
4.85858e-05
3.9139e-05
3.22247e-05
2.81283e-05
2.53062e-05
2.33596e-05
2.20763e-05
2.14363e-05
2.12297e-05
2.11897e-05
2.11247e-05
2.09499e-05
2.09583e-05
3.48443e-05
0.161756
1.49638
6.51194
22.0964
67.811
190.14
481.659
1068.28
2056.78
3454.67
5175.42
7131.04
9008.05
10299.4
10620.6
10379
9863.26
9201.54
8453.32
7653.08
6827.6
6001.98
5199.27
4439.83
3738.17
3105.42
2538.58
0.00471124
0.0124387
0.0131145
0.0146592
0.0130173
0.011153
0.00850178
0.00591029
0.00457977
0.00364801
0.00285715
0.00212779
0.001566
0.00111032
0.000752474
0.000496049
0.000318996
0.000202753
0.00012768
8.161e-05
5.51312e-05
4.47909e-05
3.97943e-05
3.29593e-05
2.87934e-05
2.57621e-05
2.36683e-05
2.23143e-05
2.16437e-05
2.14675e-05
2.14657e-05
2.14474e-05
2.12929e-05
2.12335e-05
3.46253e-05
0.127148
1.29504
5.97343
20.6515
63.9805
181.133
463.977
1039.55
2016.5
3406.3
5128.41
7107.23
9029.99
10392.9
10763.9
10541
10031.1
9369.6
8618.38
7812.71
6979.65
6144.28
5330.2
4557.98
3843.75
3197.46
2625.39
2121.98
0.00445489
0.0118174
0.0125918
0.0141918
0.0127699
0.010958
0.00830634
0.00582465
0.00457592
0.00366394
0.00287051
0.00213634
0.00157595
0.0011163
0.000756104
0.000497766
0.000319464
0.000202883
0.000127886
8.14925e-05
5.35878e-05
4.06019e-05
3.84913e-05
3.37075e-05
2.94223e-05
2.62687e-05
2.39944e-05
2.25654e-05
2.18669e-05
2.1716e-05
2.17613e-05
2.17835e-05
2.16475e-05
2.15695e-05
3.46608e-05
0.113056
1.11627
5.48599
19.4285
60.7047
173.299
448.303
1013.86
1981.14
3364.46
5086.25
7085.09
9050.71
10480.1
10903
10699.8
10196.9
9536.14
8782.66
7972.22
7132.13
6287.58
5462.47
4677.96
3950.53
3291.6
2706.58
2197.53
1756.73
0.00419489
0.0111753
0.0120936
0.0138334
0.0125849
0.0107541
0.00809062
0.00574542
0.00457809
0.00368438
0.00288439
0.00214489
0.00158574
0.00112214
0.000759752
0.000499746
0.000320293
0.000203017
0.000128062
8.15298e-05
5.33619e-05
3.79187e-05
3.52677e-05
3.40904e-05
2.99549e-05
2.6823e-05
2.43449e-05
2.28274e-05
2.21115e-05
2.19744e-05
2.2078e-05
2.21325e-05
2.20163e-05
2.19348e-05
3.48342e-05
0.111469
0.963072
5.04574
18.4168
57.9556
166.614
434.669
991.232
1950.41
3329.68
5050.65
7065.35
9071.05
10560.6
11036.8
10854.6
10359.3
9700.63
8945.6
8131.17
7284.76
6431.52
5595.84
4799.32
4059.13
3387.03
2789.69
2268.44
1821.88
1440.96
0.00393728
0.0105229
0.0116406
0.0135502
0.012433
0.0105395
0.00786341
0.00567665
0.00458758
0.00370989
0.00289709
0.00215893
0.00159536
0.00112736
0.000763335
0.000501769
0.000321336
0.000203332
0.000128202
8.16648e-05
5.32867e-05
3.66262e-05
3.13298e-05
3.31241e-05
3.04415e-05
2.73888e-05
2.47317e-05
2.31019e-05
2.23734e-05
2.2244e-05
2.24142e-05
2.24965e-05
2.23998e-05
2.23231e-05
3.52329e-05
0.111934
0.848229
4.66951
17.5824
55.6995
161.031
423.128
971.793
1924.2
3301.94
5023.43
7049.38
9091.38
10634.3
11164.7
11004.1
10517.8
9862.37
9107.3
8289.61
7437.14
6575.81
5730.09
4921.93
4169.12
3484.19
2874.08
2341.07
1883.24
1496.7
1171.53
0.00368426
0.00987972
0.0112464
0.0133467
0.0122871
0.0102944
0.00763663
0.00561735
0.00460756
0.00373273
0.00290952
0.00217474
0.001606
0.00113188
0.000766106
0.000503667
0.000322476
0.000203764
0.000128336
8.17783e-05
5.33661e-05
3.63455e-05
2.84885e-05
3.05795e-05
3.08039e-05
2.78925e-05
2.51653e-05
2.33935e-05
2.26508e-05
2.25384e-05
2.27683e-05
2.28774e-05
2.27991e-05
2.27322e-05
3.57855e-05
0.114036
0.784235
4.35552
16.8884
53.894
156.52
413.7
955.751
1902.56
3281.02
5005.79
7039.31
9111.8
10701
11285.2
11146.2
10670.8
10020.7
9266.98
8447.43
7589.87
6720.55
5864.91
5045.6
4280.47
3582.76
2960.08
2414.97
1946.18
1549.32
1218.82
944.471
0.0034468
0.00926043
0.0109157
0.0131934
0.0121252
0.0100105
0.00741766
0.00557357
0.00463691
0.00375174
0.00291966
0.00219094
0.00161622
0.00113607
0.000768315
0.000505261
0.000323518
0.000204323
0.00012849
8.18413e-05
5.34995e-05
3.62859e-05
2.70749e-05
2.69387e-05
3.05333e-05
2.8296e-05
2.56471e-05
2.37119e-05
2.29413e-05
2.28574e-05
2.31366e-05
2.32774e-05
2.32161e-05
2.31591e-05
3.64809e-05
0.11766
0.76454
4.09809
16.2995
52.5169
153.068
406.444
943.306
1885.81
3266.58
4998.07
7037.53
9132.75
10760.1
11395.1
11279.4
10817.1
10174.5
9424.13
8603.83
7742.02
6865.61
6000.54
5170.05
4392.88
3682.69
3047.45
2490.37
2010.31
1603.36
1263.53
984.242
755.419
0.00322316
0.0086836
0.010633
0.0130598
0.0119167
0.00969478
0.00721241
0.00555585
0.00467729
0.00376605
0.00292943
0.00220661
0.00162534
0.00114022
0.000770111
0.000506277
0.000324435
0.000204798
0.000128726
8.18762e-05
5.36036e-05
3.6266e-05
2.64655e-05
2.37008e-05
2.87898e-05
2.86664e-05
2.61474e-05
2.4067e-05
2.32422e-05
2.32018e-05
2.35227e-05
2.36969e-05
2.36507e-05
2.36018e-05
3.72977e-05
0.122396
0.75619
3.87752
15.8138
51.5656
150.683
401.395
934.667
1874.31
3258.44
4999.77
7045.74
9156.64
10757.2
11362
11403.2
10956.4
10323.6
9577.37
8756.53
7890.97
7008.91
6135.69
5294.89
4506.14
3783.82
3136.16
2567.1
2075.83
1658.54
1309.55
1021.88
788.57
599.865
0.00300619
0.00814097
0.010389
0.0129104
0.0116446
0.00936281
0.00703653
0.00555923
0.00472119
0.0037779
0.00293743
0.00222094
0.00163346
0.00114498
0.000771655
0.000506678
0.000324861
0.000205212
0.000129081
8.18917e-05
5.36557e-05
3.63333e-05
2.6377e-05
2.17845e-05
2.58743e-05
2.87796e-05
2.65952e-05
2.44605e-05
2.35577e-05
2.35709e-05
2.39277e-05
2.4137e-05
2.41036e-05
2.40613e-05
3.81987e-05
0.128205
0.759858
3.7373
15.46
51.042
149.372
398.595
929.96
1868.51
3256.63
5009.83
7064.23
9176.55
10728.9
11282.7
11518
11088.5
10466.2
9723.73
8903.64
8038.3
7152.46
6271.5
5420.59
4620.44
3885.88
3225.97
2645.06
2142.57
1715.01
1356.65
1060.74
819.939
627.189
473.363
0.00279017
0.00762869
0.0101648
0.0127013
0.0112972
0.00902411
0.0068899
0.00558258
0.00476416
0.00378472
0.00294643
0.00223335
0.00163977
0.00114962
0.00077408
0.000507008
0.000325099
0.000205517
0.000129421
8.19251e-05
5.36713e-05
3.63999e-05
2.6361e-05
2.09068e-05
2.25417e-05
2.80296e-05
2.69448e-05
2.48981e-05
2.39039e-05
2.39615e-05
2.43538e-05
2.45996e-05
2.45764e-05
2.45384e-05
3.91742e-05
0.135238
0.772765
3.62754
15.272
50.8963
149.119
398.087
929.291
1868.65
3261.27
5027.17
7082.72
9190.51
10748.5
11207.2
11559.5
11212.3
10599.4
9861.19
9047.59
8183.68
7293.74
6405.99
5545.98
4734.96
3988.76
3317.06
2724.19
2210.52
1772.61
1404.9
1100.6
852.45
653.045
495.621
371.682
0.00258066
0.00714249
0.00995718
0.0124276
0.0108964
0.00870672
0.00678426
0.00562509
0.0047973
0.00378828
0.0029585
0.00224423
0.00164502
0.00115405
0.0007766
0.000507857
0.000325212
0.000205702
0.000129717
8.20367e-05
5.36852e-05
3.64373e-05
2.64298e-05
2.06316e-05
1.99047e-05
2.60856e-05
2.72517e-05
2.53742e-05
2.42817e-05
2.43697e-05
2.48057e-05
2.50848e-05
2.50691e-05
2.50347e-05
4.02248e-05
0.143529
0.801828
3.55134
15.1518
50.9542
149.691
399.584
932.42
1874.22
3270.74
5042.7
7096.28
9202.4
10816.2
11157.4
11453.2
11325.8
10719.9
9992.58
9187.36
8324.2
7432.14
6539.05
5670.79
4849.57
4092.05
3408.79
2804.49
2279.55
1831.32
1454.22
1141.51
885.873
679.964
516.677
389.569
290.876
0.00238781
0.00669412
0.00975414
0.0120971
0.0104816
0.00841664
0.00672269
0.00567987
0.00481861
0.00378676
0.00297123
0.00225443
0.00164956
0.0011574
0.000778905
0.000508923
0.000325394
0.000205782
0.00012999
8.21918e-05
5.37047e-05
3.64544e-05
2.65279e-05
2.05848e-05
1.83812e-05
2.33601e-05
2.70815e-05
2.58378e-05
2.46963e-05
2.47999e-05
2.52829e-05
2.55934e-05
2.55823e-05
2.55513e-05
4.13502e-05
0.153107
0.838217
3.5143
14.9908
51.0485
150.353
401.235
935.492
1878.77
3277.54
5053.37
7106.71
9211.84
10900.7
11159.4
11371
11426.5
10830.1
10118.4
9319.15
8459.13
7566.93
6669.76
5794.31
4963.72
4195.48
3500.88
2885.49
2349.69
1891.04
1504.57
1183.4
920.271
707.732
538.708
406.462
305.025
227.342
0.00220601
0.00631269
0.00958599
0.0117324
0.0100766
0.00816105
0.00669636
0.00573558
0.0048251
0.00378285
0.00298188
0.00226337
0.00165419
0.00115961
0.000780732
0.000510003
0.000325997
0.000205814
0.0001301
8.23185e-05
5.38044e-05
3.64652e-05
2.65964e-05
2.05977e-05
1.76496e-05
2.04864e-05
2.63194e-05
2.62137e-05
2.51507e-05
2.52534e-05
2.57884e-05
2.61262e-05
2.61168e-05
2.60902e-05
4.25527e-05
0.164039
0.88389
3.51971
14.8036
51.2739
151.428
403.901
940.351
1885.41
3285.76
5063.3
7113.46
9218.01
10923.5
11185.3
11323.7
11508.1
10930.2
10233.7
9442.24
8587.84
7696.92
6797.11
5915.82
5076.86
4298.55
3593.19
2966.8
2420.61
1951.78
1555.84
1226.24
955.558
736.381
561.516
424.256
318.371
238.352
177.854
0.0020318
0.00599124
0.00948139
0.0113772
0.00970128
0.0079519
0.00669619
0.00578484
0.00481819
0.00377515
0.00299253
0.00227164
0.00165933
0.00116105
0.000781167
0.000510864
0.000326879
0.000205879
0.000130093
8.24193e-05
5.39321e-05
3.64654e-05
2.66219e-05
2.06607e-05
1.74024e-05
1.82443e-05
2.45554e-05
2.64234e-05
2.56547e-05
2.57345e-05
2.63237e-05
2.66851e-05
2.66731e-05
2.66526e-05
4.38341e-05
0.176425
0.937546
3.57722
14.6007
51.632
152.863
407.461
946.757
1893.62
3294.92
5072.71
7115.9
9218.48
10929.4
11182.1
11326.8
11483.8
11020.6
10336.4
9555.59
8708.7
7820.75
6920.09
6034.44
5188.28
4400.91
3685.26
3048.34
2491.83
2013.38
1608.05
1269.95
991.735
765.853
585.126
442.756
332.522
248.707
186.27
139.577
0.00187407
0.00568541
0.0093962
0.0110496
0.0093534
0.00777806
0.00670613
0.00580869
0.00479729
0.00377229
0.00300257
0.00227718
0.00166371
0.00116293
0.000781208
0.000511068
0.000327602
0.000206034
0.000129997
8.24371e-05
5.4066e-05
3.64792e-05
2.66156e-05
2.07479e-05
1.73553e-05
1.68712e-05
2.2295e-05
2.61816e-05
2.62105e-05
2.62452e-05
2.68891e-05
2.7272e-05
2.72529e-05
2.72393e-05
4.52007e-05
0.190249
0.999645
3.69269
14.4198
52.0728
154.617
411.763
954.41
1903.06
3304.8
5081.5
7114.8