/*--------------------------------*- C++ -*----------------------------------*\
| =========                 |                                                 |
| \\      /  F ield         | OpenFOAM: The Open Source CFD Toolbox           |
|  \\    /   O peration     | Version:  v2012                                 |
|   \\  /    A nd           | Website:  www.openfoam.com                      |
|    \\/     M anipulation  |                                                 |
\*---------------------------------------------------------------------------*/
FoamFile
{
    version     2.0;
    format      ascii;
    class       volScalarField;
    location    "0";
    object      yPlus;
}
// * * * * * * * * * * * * * * * * * * * * * * * * * * * * * * * * * * * * * //

dimensions      [0 0 0 0 0 0 0];


internalField   uniform 0;

boundaryField
{
    top
    {
        type            calculated;
        value           uniform 0;
    }
    base
    {
        type            calculated;
        value           nonuniform List<scalar> 
276
(
0.172877
0.149891
0.185997
0.191205
0.190899
0.189742
0.18844
0.187213
0.186106
0.18512
0.18425
0.183474
0.182782
0.182157
0.181598
0.181098
0.180643
0.180226
0.179845
0.179499
0.179187
0.178904
0.178649
0.17842
0.178217
0.178038
0.177885
0.177756
0.177648
0.177561
0.177493
0.177442
0.177408
0.177388
0.17738
0.177384
0.177396
0.177417
0.177444
0.177476
0.177511
0.17755
0.17759
0.177631
0.177673
0.177714
0.177754
0.177791
0.177826
0.177859
0.177889
0.177915
0.177937
0.177955
0.177968
0.177978
0.177986
0.177991
0.177996
0.177999
0.178002
0.178005
0.178007
0.178007
0.178004
0.178
0.177995
0.177989
0.177983
0.177977
0.177972
0.177966
0.177959
0.177953
0.177946
0.17794
0.177929
0.177921
0.177912
0.177917
0.177922
0.177927
0.17793
0.177933
0.177935
0.177936
0.177936
0.177938
0.177941
0.177945
0.177951
0.177956
0.177961
0.177963
0.177964
0.177964
0.177964
0.177964
0.177963
0.177962
0.177963
0.177961
0.17796
0.177959
0.177959
0.177957
0.177954
0.177951
0.177947
0.177942
0.177938
0.177935
0.17793
0.177925
0.177918
0.177912
0.177906
0.177899
0.177892
0.177887
0.177883
0.177875
0.177865
0.177857
0.177848
0.177838
0.177828
0.177816
0.177805
0.177795
0.177783
0.177771
0.177757
0.177742
0.177729
0.177714
0.177698
0.177682
0.177665
0.177648
0.177627
0.177609
0.17759
0.177571
0.177551
0.177529
0.177506
0.177487
0.177466
0.177442
0.177418
0.177394
0.177366
0.17734
0.177314
0.177284
0.177256
0.177237
0.177171
0.176273
0.151214
0.0693679
0.12115
0.119854
0.118825
0.116983
0.11586
0.115409
0.116233
0.117402
0.118572
0.120027
0.121323
0.122477
0.123472
0.124289
0.125041
0.125775
0.126481
0.12721
0.128005
0.129064
0.130767
0.1337
0.13894
0.14649
0.156624
0.168234
0.179812
0.187295
0.191915
0.196666
0.200026
0.202279
0.203749
0.204453
0.204693
0.204406
0.202958
0.200623
0.196887
0.191547
0.184381
0.175147
0.163465
0.148762
0.130092
0.105553
0.06953
0.0441277
0.0957395
0.129671
0.157794
0.182787
0.205646
0.226752
0.246256
0.264209
0.280631
0.295599
0.30927
0.321854
0.333569
0.344618
0.355201
0.365497
0.37562
0.385612
0.395433
0.404976
0.41411
0.422693
0.430621
0.437841
0.444344
0.450191
0.455485
0.460376
0.465028
0.46962
0.474305
0.47917
0.484225
0.489434
0.494685
0.500164
0.506238
0.511393
0.515138
0.519862
0.523327
0.526272
0.529582
0.531957
0.533591
0.534531
0.53473
0.534269
0.533202
0.531577
0.529428
0.526781
0.523675
0.520172
0.516305
0.512115
0.507636
0.502898
0.497932
0.49277
0.48744
0.481956
0.476376
0.47054
0.466126
0.45557
)
;
    }
    frontAndBack
    {
        type            empty;
    }
    inlet
    {
        type            calculated;
        value           uniform 0;
    }
    outlet
    {
        type            calculated;
        value           uniform 0;
    }
}


// ************************************************************************* //
