# y+ ()       
# Time        	patch         	min           	max           	average       
1600          	base	9.980831e-03	6.247463e-01	2.526416e-01
