# Wall heat-flux
# Time        	patch         	min           	max           	integral      
3500          	base	-2.210061e+06	-3.957680e+04	-4.889745e+03
