# Wall heat-flux
# Time        	patch         	min           	max           	integral      
0             	base	1.188502e+06	1.332727e+06	1.434726e+04
