# y+ ()       
# Time        	patch         	min           	max           	average       
1300          	base	5.751529e-03	2.867928e+01	4.969387e+00
