# wallHeatFlux  FACE_DATA 398
# x  y  z  wallHeatFlux
-0.7975 0 0.025 -653671
-0.79239 0 0.025 -120050
-0.787056 0 0.025 -71323.9
-0.781492 0 0.025 -64333.5
-0.775691 0 0.025 -65793.8
-0.769649 0 0.025 -66616
-0.763362 0 0.025 -67201.1
-0.756822 0 0.025 -67121.2
-0.750025 0 0.025 -66605
-0.742968 0 0.025 -65860.6
-0.735648 0 0.025 -64976.4
-0.72806 0 0.025 -64006.1
-0.720203 0 0.025 -63004.5
-0.712076 0 0.025 -62126.3
-0.703677 0 0.025 -61348.3
-0.695006 0 0.025 -60564.1
-0.686065 0 0.025 -59821.9
-0.676855 0 0.025 -59137.7
-0.667379 0 0.025 -58436.3
-0.65764 0 0.025 -57750.6
-0.647644 0 0.025 -57152.4
-0.637397 0 0.025 -56627.7
-0.626906 0 0.025 -56029
-0.616179 0 0.025 -55532.2
-0.605224 0 0.025 -55019.8
-0.594054 0 0.025 -54521.3
-0.582678 0 0.025 -54024.4
-0.57111 0 0.025 -53584.4
-0.559364 0 0.025 -53170.3
-0.547454 0 0.025 -52774.4
-0.535396 0 0.025 -52333.9
-0.523205 0 0.025 -51926.5
-0.510901 0 0.025 -51556.9
-0.4985 0 0.025 -51214.9
-0.486021 0 0.025 -50909
-0.473483 0 0.025 -50574
-0.460905 0 0.025 -50241.3
-0.448308 0 0.025 -49913
-0.435709 0 0.025 -49598.9
-0.42313 0 0.025 -49308.5
-0.41059 0 0.025 -49086.9
-0.39811 0 0.025 -48879.8
-0.385706 0 0.025 -48638.2
-0.373398 0 0.025 -48375.2
-0.361205 0 0.025 -48127.3
-0.349141 0 0.025 -47887.9
-0.337226 0 0.025 -47664.5
-0.325475 0 0.025 -47467.4
-0.313901 0 0.025 -47296.9
-0.30252 0 0.025 -47163.2
-0.291343 0 0.025 -47014.5
-0.280382 0 0.025 -46855.1
-0.269646 0 0.025 -46694.8
-0.259148 0 0.025 -46540.4
-0.248893 0 0.025 -46393.2
-0.23889 0 0.025 -46251.8
-0.229143 0 0.025 -46115.3
-0.219659 0 0.025 -45980.6
-0.210441 0 0.025 -45829.6
-0.201491 0 0.025 -45671.2
-0.192812 0 0.025 -45515.9
-0.184405 0 0.025 -45376
-0.176269 0 0.025 -45271.7
-0.168404 0 0.025 -45185.2
-0.160808 0 0.025 -45125.7
-0.15348 0 0.025 -45090.6
-0.146415 0 0.025 -45077.7
-0.13961 0 0.025 -45068.8
-0.133063 0 0.025 -45056.6
-0.126767 0 0.025 -45040
-0.120718 0 0.025 -45013.2
-0.11491 0 0.025 -44965.8
-0.109339 0 0.025 -44908.3
-0.103997 0 0.025 -44839.4
-0.0988805 0 0.025 -44758.6
-0.0939808 0 0.025 -44675.1
-0.0892928 0 0.025 -44587.7
-0.0848096 0 0.025 -44505.8
-0.0805248 0 0.025 -44424.3
-0.0764316 0 0.025 -44343.1
-0.0725237 0 0.025 -44272.7
-0.0687943 0 0.025 -44208.3
-0.065237 0 0.025 -44143.4
-0.0618454 0 0.025 -44090.1
-0.058613 0 0.025 -44036.1
-0.0555337 0 0.025 -43988.4
-0.0526013 0 0.025 -43950.8
-0.0498099 0 0.025 -43913.5
-0.0471536 0 0.025 -43881.5
-0.0446266 0 0.025 -43854.9
-0.0422235 0 0.025 -43833.7
-0.039939 0 0.025 -43817.9
-0.0377676 0 0.025 -43801.7
-0.0357044 0 0.025 -43791.9
-0.0337445 0 0.025 -43786.4
-0.0318832 0 0.025 -43754.4
-0.0301159 0 0.025 -42762.8
-0.0284383 0 0.025 -35793
-0.0268461 0 0.025 -28692.7
-0.0253353 0 0.025 -42880.9
-0.023902 0 0.025 -58354.7
-0.0225426 0 0.025 -68156.2
-0.0212532 0 0.025 -74744.1
-0.0200306 0 0.025 -80590.5
-0.0188715 0 0.025 -85495.1
-0.0177728 0 0.025 -89902
-0.0167313 0 0.025 -93789.7
-0.0157444 0 0.025 -97211.6
-0.0148092 0 0.025 -100354
-0.0139232 0 0.025 -103245
-0.0130838 0 0.025 -105910
-0.0122887 0 0.025 -108310
-0.0115356 0 0.025 -110432
-0.0108223 0 0.025 -112283
-0.0101469 0 0.025 -113893
-0.00950727 0 0.025 -115285
-0.00890168 0 0.025 -116491
-0.00832835 0 0.025 -117570
-0.00778557 0 0.025 -118580
-0.00727176 0 0.025 -119572
-0.0067854 0 0.025 -120604
-0.00632507 0 0.025 -121710
-0.00588937 0 0.025 -122910
-0.00547703 0 0.025 -124228
-0.0050868 0 0.025 -125659
-0.00471753 0 0.025 -127220
-0.0043681 0 0.025 -128912
-0.00403746 0 0.025 -130749
-0.00372461 0 0.025 -132754
-0.0034286 0 0.025 -134890
-0.00314855 0 0.025 -137199
-0.0028836 0 0.025 -139720
-0.00263294 0 0.025 -142422
-0.00239581 0 0.025 -145083
-0.0021715 0 0.025 -147795
-0.00195929 0 0.025 -150648
-0.00175856 0 0.025 -153601
-0.00156869 0 0.025 -156669
-0.00138908 0 0.025 -159837
-0.0012192 0 0.025 -163073
-0.00105853 0 0.025 -166370
-0.000906546 0 0.025 -169707
-0.000762803 0 0.025 -172983
-0.000626848 0 0.025 -175927
-0.000498265 0 0.025 -177733
-0.000376656 0 0.025 -176587
-0.000261642 0 0.025 -168836
-0.00015287 0 0.025 -147258
-5e-05 0 0.025 -95335.2
4.14519e-05 2.79596e-05 0.025 -68730.4
0.000125371 8.45641e-05 0.025 -82979.7
0.000211347 0.000142556 0.025 -98352.2
0.000299429 0.000201968 0.025 -109511
0.000389669 0.000262835 0.025 -118909
0.000482118 0.000325193 0.025 -127805
0.000576831 0.000389077 0.025 -136114
0.000673861 0.000454524 0.025 -143622
0.000773265 0.000521574 0.025 -150276
0.0008751 0.000590262 0.025 -156156
0.000979426 0.000660632 0.025 -161389
0.0010863 0.000732721 0.025 -166111
0.00119579 0.000806572 0.025 -170457
0.00130795 0.000882227 0.025 -174498
0.00142285 0.00095973 0.025 -178324
0.00154056 0.00103912 0.025 -182001
0.00166115 0.00112046 0.025 -185575
0.00178467 0.00120378 0.025 -189116
0.00191121 0.00128913 0.025 -192653
0.00204083 0.00137656 0.025 -196150
0.00217362 0.00146612 0.025 -199706
0.00230964 0.00155787 0.025 -203322
0.00244897 0.00165185 0.025 -206962
0.00259169 0.00174812 0.025 -210696
0.00273789 0.00184673 0.025 -214552
0.00288765 0.00194774 0.025 -218542
0.00304105 0.00205122 0.025 -222636
0.00319818 0.00215719 0.025 -226856
0.00335912 0.00226575 0.025 -231275
0.00352397 0.00237695 0.025 -235844
0.00369283 0.00249085 0.025 -240626
0.00386579 0.00260751 0.025 -245605
0.00404294 0.00272699 0.025 -250821
0.00422438 0.00284938 0.025 -256300
0.00441022 0.00297474 0.025 -262057
0.00460056 0.00310312 0.025 -268118
0.00479552 0.00323462 0.025 -274475
0.00499519 0.0033693 0.025 -281248
0.00519968 0.00350723 0.025 -288326
0.00540911 0.00364849 0.025 -295835
0.00562361 0.00379318 0.025 -303779
0.00584329 0.00394134 0.025 -312167
0.00606826 0.00409309 0.025 -321136
0.00629865 0.00424849 0.025 -330572
0.0065346 0.00440764 0.025 -340678
0.00677623 0.00457063 0.025 -351361
0.00702368 0.00473753 0.025 -362639
0.00727707 0.00490844 0.025 -374891
0.00753655 0.00508347 0.025 -387986
0.00780227 0.00526269 0.025 -401991
0.00807436 0.00544622 0.025 -417058
0.00835298 0.00563415 0.025 -433275
0.00863826 0.00582659 0.025 -450709
0.00893038 0.00602362 0.025 -469839
0.00922949 0.00622537 0.025 -490413
0.00953574 0.00643195 0.025 -513005
0.00984929 0.00664345 0.025 -537553
0.0101703 0.00686 0.025 -563747
0.0104991 0.00708171 0.025 -595742
0.0108356 0.00730871 0.025 -631404
0.0111801 0.0075411 0.025 -669075
0.0115329 0.00777902 0.025 -710907
0.011894 0.00802259 0.025 -756229
0.0122637 0.00827194 0.025 -799432
0.0126421 0.00852719 0.025 -844692
0.0130295 0.0087885 0.025 -890714
0.013426 0.00905597 0.025 -931243
0.013832 0.00932978 0.025 -974997
0.0142475 0.00961003 0.025 -1.01697e+06
0.0146727 0.0098969 0.025 -1.05666e+06
0.0151081 0.0101905 0.025 -1.10153e+06
0.0155536 0.010491 0.025 -1.14869e+06
0.0160097 0.0107986 0.025 -1.19688e+06
0.0164764 0.0111134 0.025 -1.24919e+06
0.016954 0.0114356 0.025 -1.30547e+06
0.0174427 0.0117653 0.025 -1.36097e+06
0.0179429 0.0121026 0.025 -1.42008e+06
0.0184548 0.0124479 0.025 -1.49044e+06
0.0189786 0.0128013 0.025 -1.53863e+06
0.0195146 0.0131628 0.025 -1.58897e+06
0.020063 0.0135327 0.025 -1.64873e+06
0.0206242 0.0139112 0.025 -1.68503e+06
0.0211983 0.0142984 0.025 -1.70987e+06
0.0217857 0.0146947 0.025 -1.74045e+06
0.0223867 0.0151 0.025 -1.76507e+06
0.0230015 0.0155147 0.025 -1.78414e+06
0.0236304 0.0159389 0.025 -1.80946e+06
0.0242738 0.0163729 0.025 -1.80734e+06
0.0249318 0.0168167 0.025 -1.82045e+06
0.025605 0.0172708 0.025 -1.8287e+06
0.0262935 0.0177352 0.025 -1.80352e+06
0.0269977 0.0182102 0.025 -1.77444e+06
0.0277178 0.0186959 0.025 -1.73527e+06
0.0284544 0.0191927 0.025 -1.74978e+06
0.0292075 0.0197008 0.025 -1.68419e+06
0.0299777 0.0202203 0.025 -1.64566e+06
0.0307653 0.0207514 0.025 -1.61683e+06
0.0315704 0.0212945 0.025 -1.5886e+06
0.0323937 0.0218499 0.025 -1.5653e+06
0.0332354 0.0224176 0.025 -1.53987e+06
0.0340959 0.022998 0.025 -1.51703e+06
0.0349755 0.0235913 0.025 -1.48481e+06
0.0358747 0.0241978 0.025 -1.48361e+06
0.0367938 0.0248178 0.025 -1.44875e+06
0.0377331 0.0254513 0.025 -1.42365e+06
0.0386932 0.0260989 0.025 -1.40468e+06
0.0396743 0.0267606 0.025 -1.38689e+06
0.0406769 0.0274369 0.025 -1.37433e+06
0.0417013 0.0281279 0.025 -1.35878e+06
0.042748 0.0288339 0.025 -1.3567e+06
0.0438175 0.0295552 0.025 -1.34248e+06
0.04491 0.0302922 0.025 -1.32937e+06
0.0460262 0.031045 0.025 -1.33152e+06
0.0471662 0.031814 0.025 -1.33716e+06
0.0483306 0.0325995 0.025 -1.32662e+06
0.0495199 0.0334016 0.025 -1.3302e+06
0.0507344 0.0342208 0.025 -1.32499e+06
0.0519746 0.0350573 0.025 -1.32123e+06
0.0532409 0.0359114 0.025 -1.32331e+06
0.0545339 0.0367835 0.025 -1.30858e+06
0.0558538 0.0376739 0.025 -1.30633e+06
0.0572012 0.0385827 0.025 -1.30496e+06
0.0585766 0.0395104 0.025 -1.30272e+06
0.0599804 0.0404573 0.025 -1.31112e+06
0.061413 0.0414236 0.025 -1.29617e+06
0.0628748 0.0424096 0.025 -1.32387e+06
0.0643665 0.0434157 0.025 -1.32817e+06
0.0658883 0.0444422 0.025 -1.30098e+06
0.0674408 0.0454894 0.025 -1.28949e+06
0.0690245 0.0465576 0.025 -1.28743e+06
0.0706398 0.0476471 0.025 -1.27793e+06
0.0722871 0.0487582 0.025 -1.27533e+06
0.0739669 0.0498912 0.025 -1.27457e+06
0.0756797 0.0510466 0.025 -1.285e+06
0.0774258 0.0522244 0.025 -1.29664e+06
0.0792059 0.053425 0.025 -1.28896e+06
0.0810203 0.0546489 0.025 -1.30973e+06
0.0828694 0.0558961 0.025 -1.27738e+06
0.0847537 0.0571671 0.025 -1.31949e+06
0.0866737 0.0584622 0.025 -1.27908e+06
0.0886298 0.0597816 0.025 -1.2795e+06
0.0906224 0.0611256 0.025 -1.29095e+06
0.0926518 0.0624944 0.025 -1.25793e+06
0.0947185 0.0638884 0.025 -1.3019e+06
0.096823 0.065308 0.025 -1.25976e+06
0.0989659 0.0667532 0.025 -1.34828e+06
0.101147 0.0682245 0.025 -1.69823e+06
0.103367 0.0697219 0.025 -1.60076e+06
0.105626 0.0712458 0.025 -1.20516e+06
0.107926 0.0727965 0.025 -1.19912e+06
0.110265 0.074374 0.025 -1.23803e+06
0.112644 0.0759789 0.025 -1.8435e+06
0.115063 0.0776111 0.025 -1.24216e+06
0.117524 0.0792709 0.025 -1.71847e+06
0.120026 0.0809585 0.025 -1.89054e+06
0.122569 0.0826741 0.025 -1.67786e+06
0.125155 0.0844179 0.025 -1.49796e+06
0.127782 0.0861901 0.025 -1.29927e+06
0.130451 0.0879908 0.025 -1.25278e+06
0.133163 0.08982 0.025 -1.22965e+06
0.135918 0.0916781 0.025 -1.19956e+06
0.138716 0.0935651 0.025 -1.20048e+06
0.141556 0.095481 0.025 -1.20962e+06
0.14444 0.097426 0.025 -1.5958e+06
0.147367 0.0994004 0.025 -2.37834e+06
0.150337 0.101404 0.025 -1.67731e+06
0.153351 0.103437 0.025 -1.62342e+06
0.156408 0.105498 0.025 -2.27654e+06
0.159508 0.107589 0.025 -1.0294e+06
0.162651 0.10971 0.025 -1.52327e+06
0.165838 0.111859 0.025 -3.67861e+06
0.169069 0.114039 0.025 -1.64056e+06
0.172343 0.116247 0.025 -2.00484e+06
0.175659 0.118483 0.025 -1.89834e+06
0.179018 0.120749 0.025 -1.89408e+06
0.182421 0.123045 0.025 -1.96207e+06
0.185866 0.125368 0.025 -1.72139e+06
0.189353 0.12772 0.025 -1.75465e+06
0.192882 0.1301 0.025 -1.86205e+06
0.196453 0.132509 0.025 -1.7594e+06
0.200065 0.134946 0.025 -2.14798e+06
0.203718 0.13741 0.025 -1.96903e+06
0.207412 0.139901 0.025 -929270
0.211146 0.14242 0.025 -991536
0.214919 0.144965 0.025 -1.62726e+06
0.218732 0.147537 0.025 -992558
0.222583 0.150134 0.025 -1.9618e+06
0.226472 0.152757 0.025 -982899
0.230399 0.155406 0.025 -1.84881e+06
0.234362 0.15808 0.025 -1.73979e+06
0.238362 0.160777 0.025 -2.37202e+06
0.242396 0.163498 0.025 -1.97324e+06
0.246466 0.166244 0.025 -2.1365e+06
0.250569 0.169012 0.025 -936486
0.254706 0.171801 0.025 -1.54377e+06
0.258874 0.174613 0.025 -1.54806e+06
0.263074 0.177446 0.025 -1.97544e+06
0.267304 0.180299 0.025 -1.59485e+06
0.271564 0.183172 0.025 -952461
0.275852 0.186064 0.025 -1.63783e+06
0.280168 0.188975 0.025 -927158
0.28451 0.191904 0.025 -1.66293e+06
0.288876 0.19485 0.025 -2.29541e+06
0.293268 0.197812 0.025 -1.62369e+06
0.297683 0.20079 0.025 -1.93088e+06
0.302119 0.203782 0.025 -2.22817e+06
0.306577 0.206788 0.025 -1.54516e+06
0.311054 0.209808 0.025 -1.6085e+06
0.315549 0.212841 0.025 -1.1701e+06
0.320063 0.215885 0.025 -2.04205e+06
0.324591 0.218939 0.025 -1.44313e+06
0.329134 0.222003 0.025 -1.42052e+06
0.333691 0.225077 0.025 -2.23413e+06
0.33826 0.228159 0.025 -1.79882e+06
0.342839 0.231248 0.025 -1.84398e+06
0.347428 0.234343 0.025 -877182
0.352025 0.237444 0.025 -1.95086e+06
0.356628 0.240548 0.025 -1.42098e+06
0.361237 0.243658 0.025 -1.15837e+06
0.36585 0.246769 0.025 -2.59553e+06
0.370465 0.249882 0.025 -1.03789e+06
0.375082 0.252996 0.025 -1.47393e+06
0.379698 0.25611 0.025 -2.33853e+06
0.384313 0.259223 0.025 -1.40771e+06
0.388926 0.262333 0.025 -1.72113e+06
0.393534 0.265442 0.025 -1.41535e+06
0.398136 0.268546 0.025 -881640
0.40273 0.271645 0.025 -1.63576e+06
0.407317 0.274739 0.025 -1.69082e+06
0.411894 0.277826 0.025 -2.14607e+06
0.41646 0.280906 0.025 -837555
0.421014 0.283977 0.025 -1.59948e+06
0.425554 0.28704 0.025 -1.88139e+06
0.430079 0.290092 0.025 -1.48859e+06
0.434588 0.293133 0.025 -1.836e+06
0.439079 0.296162 0.025 -1.28221e+06
0.443551 0.299179 0.025 -1.66927e+06
0.448004 0.302183 0.025 -1.69845e+06
0.452437 0.305172 0.025 -1.6583e+06
0.456846 0.308146 0.025 -1.54069e+06
0.461232 0.311105 0.025 -1.56593e+06
0.465593 0.314047 0.025 -1.44896e+06
0.469929 0.316971 0.025 -1.93411e+06
0.474238 0.319878 0.025 -992867
0.47852 0.322766 0.025 -1.11163e+06
0.482773 0.325635 0.025 -881015
0.486996 0.328483 0.025 -1.32551e+06
0.491189 0.331311 0.025 -2.02067e+06
0.49535 0.334118 0.025 -1.28927e+06
