# wallHeatFlux  FACE_DATA 448
# x  y  z  wallHeatFlux
-0.778 -3.80769e-06 0 -198882
-0.773968 -3.80769e-06 0 -40154.3
-0.769872 -3.80769e-06 0 -24476.2
-0.76571 -3.80769e-06 0 -19627.1
-0.761486 -3.80769e-06 0 -16560.4
-0.757196 -3.80769e-06 0 -14607.2
-0.752841 -3.80769e-06 0 -13276.2
-0.748422 -3.80769e-06 0 -12258.3
-0.743939 -3.80769e-06 0 -11459.6
-0.739391 -3.80769e-06 0 -10802.3
-0.73478 -3.80769e-06 0 -10249.8
-0.730104 -3.80769e-06 0 -9797.65
-0.725364 -3.80769e-06 0 -9435.42
-0.720562 -3.80769e-06 0 -9173.92
-0.715696 -3.80769e-06 0 -9018.68
-0.710769 -3.80769e-06 0 -9135.85
-0.705778 -3.80769e-06 0 -9488.47
-0.700727 -3.80769e-06 0 -10130.2
-0.695615 -3.80769e-06 0 -10895.6
-0.690443 -3.80769e-06 0 -11597.6
-0.685211 -3.80769e-06 0 -12155.6
-0.67992 -3.80769e-06 0 -12585.4
-0.674571 -3.80769e-06 0 -12902.9
-0.669166 -3.80769e-06 0 -13145.7
-0.663704 -3.80769e-06 0 -13329.6
-0.658187 -3.80769e-06 0 -13470.5
-0.652616 -3.80769e-06 0 -13568.5
-0.646993 -3.80769e-06 0 -13623.4
-0.641317 -3.80769e-06 0 -13641
-0.635592 -3.80769e-06 0 -13651.8
-0.629817 -3.80769e-06 0 -13637.2
-0.623994 -3.80769e-06 0 -13610
-0.618125 -3.80769e-06 0 -13573
-0.61221 -3.80769e-06 0 -13524.5
-0.606252 -3.80769e-06 0 -13470.5
-0.600253 -3.80769e-06 0 -13416.2
-0.594213 -3.80769e-06 0 -13350.9
-0.588134 -3.80769e-06 0 -13290.7
-0.582018 -3.80769e-06 0 -13230.2
-0.575867 -3.80769e-06 0 -13169.5
-0.569683 -3.80769e-06 0 -13103
-0.563467 -3.80769e-06 0 -13036.3
-0.557221 -3.80769e-06 0 -12969.6
-0.550946 -3.80769e-06 0 -12912.5
-0.544647 -3.80769e-06 0 -12856.2
-0.538323 -3.80769e-06 0 -12799.3
-0.531979 -3.80769e-06 0 -12736.7
-0.525613 -3.80769e-06 0 -12679.3
-0.51923 -3.80769e-06 0 -12621.5
-0.512832 -3.80769e-06 0 -12574.4
-0.50642 -3.80769e-06 0 -12527
-0.499995 -3.80769e-06 0 -12474.3
-0.493562 -3.80769e-06 0 -12415.3
-0.487123 -3.80769e-06 0 -12361.9
-0.480677 -3.80769e-06 0 -12319.1
-0.47423 -3.80769e-06 0 -12281.1
-0.467782 -3.80769e-06 0 -12243.5
-0.461335 -3.80769e-06 0 -12205.7
-0.454892 -3.80769e-06 0 -12155.9
-0.448455 -3.80769e-06 0 -12107.3
-0.442026 -3.80769e-06 0 -12062.6
-0.435607 -3.80769e-06 0 -12018.7
-0.429202 -3.80769e-06 0 -11990.5
-0.42281 -3.80769e-06 0 -11967.6
-0.416434 -3.80769e-06 0 -11939.4
-0.410078 -3.80769e-06 0 -11904.7
-0.403743 -3.80769e-06 0 -11854.6
-0.39743 -3.80769e-06 0 -11809.8
-0.391141 -3.80769e-06 0 -11764
-0.38488 -3.80769e-06 0 -11729.7
-0.378648 -3.80769e-06 0 -11695.1
-0.372446 -3.80769e-06 0 -11687.4
-0.366277 -3.80769e-06 0 -11669.1
-0.360142 -3.80769e-06 0 -11649.7
-0.354042 -3.80769e-06 0 -11625.8
-0.347981 -3.80769e-06 0 -11590.7
-0.341959 -3.80769e-06 0 -11550.4
-0.335978 -3.80769e-06 0 -11504.1
-0.33004 -3.80769e-06 0 -11463.1
-0.324146 -3.80769e-06 0 -11428.5
-0.318298 -3.80769e-06 0 -11403.7
-0.312497 -3.80769e-06 0 -11395.3
-0.306744 -3.80769e-06 0 -11386.9
-0.301041 -3.80769e-06 0 -11378.5
-0.29539 -3.80769e-06 0 -11375.2
-0.28979 -3.80769e-06 0 -11362
-0.284243 -3.80769e-06 0 -11342.4
-0.278752 -3.80769e-06 0 -11317.8
-0.273316 -3.80769e-06 0 -11288
-0.267937 -3.80769e-06 0 -11252.7
-0.262614 -3.80769e-06 0 -11211.7
-0.25735 -3.80769e-06 0 -11177.2
-0.252146 -3.80769e-06 0 -11141.7
-0.247001 -3.80769e-06 0 -11117.3
-0.241916 -3.80769e-06 0 -11098.2
-0.236893 -3.80769e-06 0 -11084.7
-0.231931 -3.80769e-06 0 -11076.3
-0.227031 -3.80769e-06 0 -11074.4
-0.222195 -3.80769e-06 0 -11076.7
-0.217421 -3.80769e-06 0 -11074.1
-0.212711 -3.80769e-06 0 -11071.2
-0.208064 -3.80769e-06 0 -11064.1
-0.203482 -3.80769e-06 0 -11055.5
-0.198964 -3.80769e-06 0 -11042.8
-0.19451 -3.80769e-06 0 -11024.7
-0.19012 -3.80769e-06 0 -11006.5
-0.185796 -3.80769e-06 0 -10983.4
-0.181535 -3.80769e-06 0 -10959.5
-0.17734 -3.80769e-06 0 -10930.4
-0.173208 -3.80769e-06 0 -10902.6
-0.169141 -3.80769e-06 0 -10878.4
-0.165138 -3.80769e-06 0 -10856.2
-0.161199 -3.80769e-06 0 -10832.8
-0.157325 -3.80769e-06 0 -10815.2
-0.153513 -3.80769e-06 0 -10797.7
-0.149765 -3.80769e-06 0 -10790.5
-0.14608 -3.80769e-06 0 -10773.6
-0.142457 -3.80769e-06 0 -10772.9
-0.138897 -3.80769e-06 0 -10770.6
-0.135398 -3.80769e-06 0 -10770.6
-0.131961 -3.80769e-06 0 -10769.3
-0.128584 -3.80769e-06 0 -10773.2
-0.125268 -3.80769e-06 0 -10773
-0.122011 -3.80769e-06 0 -10778.2
-0.118815 -3.80769e-06 0 -10781.8
-0.115677 -3.80769e-06 0 -10781.7
-0.112597 -3.80769e-06 0 -10781.2
-0.109574 -3.80769e-06 0 -10781.3
-0.106609 -3.80769e-06 0 -10775.1
-0.1037 -3.80769e-06 0 -10769.5
-0.100846 -3.80769e-06 0 -10769
-0.098048 -3.80769e-06 0 -10763.7
-0.0953042 -3.80769e-06 0 -10753
-0.0926143 -3.80769e-06 0 -10747.6
-0.0899773 -3.80769e-06 0 -10737
-0.0873927 -3.80769e-06 0 -10726.3
-0.0848599 -3.80769e-06 0 -10721.3
-0.082378 -3.80769e-06 0 -10710.8
-0.0799465 -3.80769e-06 0 -10695.1
-0.0775645 -3.80769e-06 0 -10684.9
-0.0752312 -3.80769e-06 0 -10674.5
-0.0729462 -3.80769e-06 0 -10664.4
-0.0707085 -3.80769e-06 0 -10648.8
-0.0685175 -3.80769e-06 0 -10638.8
-0.0663725 -3.80769e-06 0 -10628.7
-0.0642727 -3.80769e-06 0 -10613.5
-0.0622173 -3.80769e-06 0 -10603.6
-0.0602058 -3.80769e-06 0 -10593.6
-0.0582373 -3.80769e-06 0 -10583.9
-0.0563111 -3.80769e-06 0 -10574.2
-0.0544265 -3.80769e-06 0 -10564.5
-0.0525827 -3.80769e-06 0 -10554.8
-0.0507792 -3.80769e-06 0 -10545.3
-0.0490152 -3.80769e-06 0 -10535.8
-0.0472898 -3.80769e-06 0 -10526.4
-0.0456025 -3.80769e-06 0 -10516.9
-0.0439526 -3.80769e-06 0 -10512.9
-0.0423394 -3.80769e-06 0 -10503.5
-0.0407622 -3.80769e-06 0 -10499.8
-0.0392203 -3.80769e-06 0 -10490.7
-0.0377131 -3.80769e-06 0 -10487
-0.0362398 -3.80769e-06 0 -10478
-0.0347999 -3.80769e-06 0 -10474.4
-0.0333926 -3.80769e-06 0 -10470.9
-0.0320175 -3.80769e-06 0 -10462.2
-0.0306737 -3.80769e-06 0 -10459
-0.0293607 -3.80769e-06 0 -10456
-0.0280779 -3.80769e-06 0 -10447.4
-0.0268246 -3.80769e-06 0 -10444.8
-0.0256004 -3.80769e-06 0 -10441.7
-0.0244045 -3.80769e-06 0 -10433.9
-0.0232363 -3.80769e-06 0 -10426.3
-0.0220954 -3.80769e-06 0 -10413.2
-0.0209812 -3.80769e-06 0 -10389.9
-0.019893 -3.80769e-06 0 -10339.9
-0.0188303 -3.80769e-06 0 -10236.5
-0.0177927 -3.80769e-06 0 -10036.6
-0.0167794 -3.80769e-06 0 -9659.37
-0.0157901 -3.80769e-06 0 -9061
-0.0148243 -3.80769e-06 0 -8268.87
-0.0138814 -3.80769e-06 0 -7411.7
-0.0129608 -3.80769e-06 0 -6618.84
-0.0120623 -3.80769e-06 0 -6024.98
-0.0111851 -3.80769e-06 0 -5783.37
-0.0103289 -3.80769e-06 0 -5953.87
-0.00949328 -3.80769e-06 0 -6408.62
-0.00867767 -3.80769e-06 0 -6959.39
-0.00788168 -3.80769e-06 0 -7478.59
-0.00710485 -3.80769e-06 0 -7939.84
-0.00634675 -3.80769e-06 0 -8310.95
-0.00560698 -3.80769e-06 0 -8598.36
-0.0048851 -3.80769e-06 0 -8818.21
-0.00418071 -3.80769e-06 0 -8995.11
-0.00349342 -3.80769e-06 0 -9180.29
-0.00282284 -3.80769e-06 0 -9468.28
-0.00216857 -3.80769e-06 0 -9930.24
-0.00153026 -3.80769e-06 0 -10894.5
-0.00090752 -3.80769e-06 0 -11488.9
-0.0003 -3.80769e-06 0 -10740.4
0.000259937 0.000146262 2.25537e-21 -11096.2
0.000779437 0.000446185 0 -13955.4
0.00129893 0.000746101 0 -16287.9
0.00181858 0.00104611 2.2554e-21 -17924.1
0.00233835 0.00134618 -2.25541e-21 -18992
0.00285828 0.00164636 2.25542e-21 -20291
0.00337841 0.00194664 0 -22223.1
0.00389877 0.00224706 0 -24475.1
0.00441941 0.00254764 -2.25544e-21 -26882.8
0.00494034 0.00284839 2.25545e-21 -29552
0.00546162 0.00314934 -2.25546e-21 -32459.5
0.00598328 0.0034505 2.25547e-21 -35569.5
0.00650535 0.00375191 2.25547e-21 -38801.6
0.00702786 0.00405357 2.25548e-21 -42131.7
0.00755087 0.00435552 0 -45454.9
0.00807439 0.00465776 -2.25549e-21 -48808.8
0.00859847 0.00496033 2.2555e-21 -52193.8
0.00912315 0.00526324 0 -55586.9
0.00964845 0.00556651 2.25551e-21 -58903.4
0.0101744 0.00587017 0 -62142.9
0.0107011 0.00617424 0 -65321.7
0.0112285 0.00647873 -2.25552e-21 -68518.9
0.0117567 0.00678367 0 -71694.7
0.0122857 0.00708907 0 -74959.9
0.0128156 0.00739497 0 -78295.5
0.0133463 0.00770137 -2.25554e-21 -81859.7
0.0138779 0.00800831 0 -85683
0.0144106 0.0083158 0 -89803.7
0.0149442 0.00862387 0 -94293.9
0.0154788 0.00893253 0 -99167.2
0.0160145 0.00924181 0 -104348
0.0165513 0.00955172 2.25556e-21 -109922
0.0170893 0.00986231 -2.25556e-21 -115895
0.0176284 0.0101736 0 -122392
0.0181687 0.0104855 0 -128801
0.0187103 0.0107982 2.25556e-21 -150591
0.0192532 0.0111117 2.25557e-21 -163743
0.0197975 0.0114259 2.25557e-21 -168640
0.0203431 0.0117408 0 -175141
0.0208901 0.0120566 4.51114e-21 -183017
0.0214385 0.0123732 -4.51114e-21 -185337
0.0219884 0.0126907 0 -193851
0.0225398 0.0130091 4.51114e-21 -201193
0.0230928 0.0133283 0 -205872
0.0236474 0.0136485 0 -188279
0.0242037 0.0139697 0 -188427
0.0247616 0.0142918 -4.51113e-21 -190255
0.0253212 0.0146148 -4.51113e-21 -192967
0.0258825 0.0149389 -4.51114e-21 -195650
0.0264456 0.015264 0 -199377
0.0270106 0.0155902 0 -203106
0.0275774 0.0159174 -4.51112e-21 -206344
0.0281462 0.0162457 0 -208664
0.0287168 0.0165752 4.51111e-21 -209888
0.0292895 0.0169059 -4.51111e-21 -210591
0.0298642 0.0172376 0 -209267
0.0304409 0.0175706 0 -206466
0.0310198 0.0179048 4.5111e-21 -202520
0.0316007 0.0182402 4.5111e-21 -198232
0.0321839 0.0185768 -4.51107e-21 -193663
0.0327693 0.0189148 0 -189832
0.0333569 0.0192541 0 -187236
0.0339469 0.0195947 4.51106e-21 -185642
0.0345392 0.0199366 0 -184020
0.0351339 0.02028 0 -182657
0.035731 0.0206247 4.51105e-21 -180830
0.0363305 0.0209708 -4.51103e-21 -178995
0.0369326 0.0213184 4.51102e-21 -177530
0.0375373 0.0216675 0 -175872
0.0381445 0.0220181 0 -174397
0.0387543 0.0223702 0 -173520
0.0393668 0.0227238 4.51099e-21 -171359
0.0399821 0.023079 -4.51097e-21 -169974
0.0406001 0.0234358 4.51097e-21 -168134
0.041221 0.0237942 0 -166814
0.0418446 0.0241542 0 -165527
0.0424712 0.024516 4.51092e-21 -164230
0.0431006 0.0248794 -4.51094e-21 -163362
0.0437331 0.0252445 0 -162243
0.0443686 0.0256114 4.51089e-21 -160798
0.0450071 0.02598 4.51089e-21 -159895
0.0456487 0.0263505 0 -158666
0.0462935 0.0267227 0 -157973
0.0469415 0.0270968 -4.51085e-21 -156914
0.0475927 0.0274728 0 -156248
0.0482473 0.0278507 -4.51081e-21 -155442
0.0489051 0.0282305 4.51081e-21 -154357
0.0495663 0.0286122 -4.51079e-21 -153583
0.050231 0.0289959 0 -152842
0.0508991 0.0293816 -4.51077e-21 -152000
0.0515707 0.0297694 4.51073e-21 -151208
0.0522459 0.0301592 -4.51073e-21 -150816
0.0529247 0.0305511 0 -149590
0.0536071 0.0309451 0 -149139
0.0542933 0.0313412 -4.51067e-21 -148446
0.0549832 0.0317395 0 -148070
0.0556769 0.03214 0 -147720
0.0563744 0.0325427 0 -147487
0.0570758 0.0329477 -4.5106e-21 -147173
0.0577812 0.0333549 0 -146897
0.0584905 0.0337645 0 -146011
0.0592039 0.0341763 -4.51056e-21 -145781
0.0599214 0.0345905 4.51053e-21 -144786
0.060643 0.0350071 0 -144674
0.0613688 0.0354262 4.51049e-21 -143975
0.0620989 0.0358477 -4.51048e-21 -144012
0.0628332 0.0362716 4.51046e-21 -143869
0.0635719 0.0366981 0 -143642
0.0643149 0.037127 4.51041e-21 -143874
0.0650624 0.0375586 0 -143282
0.0658144 0.0379927 0 -143318
0.0665709 0.0384295 4.51035e-21 -142797
0.0673321 0.0388689 -4.51035e-21 -142434
0.0680979 0.039311 0 -142156
0.0688683 0.0397558 -4.51029e-21 -141259
0.0696435 0.0402034 4.51029e-21 -140966
0.0704236 0.0406537 0 -140350
0.0712085 0.0411069 0 -140297
0.0719983 0.0415628 0 -139683
0.0727931 0.0420217 0 -139491
0.0735929 0.0424834 0 -139361
0.0743978 0.0429481 0 -139050
0.0752078 0.0434158 0 -139081
0.076023 0.0438864 4.5101e-21 -138514
0.0768435 0.0443601 -4.51009e-21 -138570
0.0776693 0.0448369 -4.51004e-21 -138209
0.0785004 0.0453167 4.51003e-21 -137762
0.079337 0.0457997 0 -137656
0.080179 0.0462858 0 -137074
0.0810266 0.0467751 0 -136637
0.0818797 0.0472677 0 -136703
0.0827385 0.0477635 0 -136039
0.083603 0.0482626 0 -136037
0.0844733 0.0487651 4.50985e-21 -135916
0.0853495 0.0492709 -4.50983e-21 -135767
0.0862316 0.0497801 0 -135755
0.0871195 0.0502927 -4.50978e-21 -135105
0.0880135 0.0508089 0 -135016
0.0889136 0.0513285 0 -134848
0.0898198 0.0518517 0 -134305
0.0907322 0.0523785 0 -134023
0.0916509 0.0529089 0 -133604
0.0925758 0.0534429 4.50963e-21 -133366
0.0935072 0.0539806 4.50959e-21 -133018
0.094445 0.054522 0 -132835
0.0953894 0.0550672 4.50953e-21 -132497
0.0963404 0.0556162 0 -132317
0.0972979 0.0561691 0 -131930
0.0982622 0.0567258 0 -131893
0.0992333 0.0572865 0 -131805
0.100211 0.057851 0 -131458
0.101196 0.0584196 0 -130774
0.102188 0.0589922 4.50935e-21 -131006
0.103187 0.0595689 4.50932e-21 -130581
0.104193 0.0601497 -4.50928e-21 -129728
0.105206 0.0607347 0 -130145
0.106226 0.0613239 0 -129589
0.107254 0.0619172 0 -129334
0.10829 0.0625149 4.50918e-21 -129169
0.109332 0.0631169 4.50915e-21 -129024
0.110382 0.0637232 -4.50911e-21 -129162
0.11144 0.064334 -4.50908e-21 -128812
0.112506 0.0649492 4.50905e-21 -129069
0.11358 0.0655688 4.50902e-21 -128262
0.114661 0.066193 0 -128161
0.11575 0.0668218 0 -128190
0.116847 0.0674552 0 -128005
0.117952 0.0680932 0 -127787
0.119065 0.068736 0 -127729
0.120187 0.0693834 4.50884e-21 -126863
0.121316 0.0700357 0 -127072
0.122455 0.0706928 0 -127103
0.123601 0.0713548 -4.50875e-21 -125968
0.124756 0.0720217 0 -126450
0.12592 0.0726935 -4.5087e-21 -126044
0.127093 0.0733704 0 -125808
0.128274 0.0740524 0 -125342
0.129464 0.0747395 4.50859e-21 -125440
0.130663 0.0754317 0 -125320
0.131871 0.0761292 4.50853e-21 -124801
0.133088 0.0768319 4.50851e-21 -125441
0.134315 0.0775399 0 -124853
0.13555 0.0782532 4.50845e-21 -124303
0.136795 0.078972 0 -124512
0.13805 0.0796962 0 -123710
0.139314 0.080426 -4.50834e-21 -124048
0.140587 0.0811613 -4.50831e-21 -123371
0.14187 0.0819021 4.50827e-21 -123285
0.143163 0.0826487 0 -123062
0.144466 0.0834009 0 -123075
0.145779 0.0841589 0 -123144
0.147102 0.0849227 4.50815e-21 -122367
0.148435 0.0856924 4.50811e-21 -122234
0.149779 0.0864679 0 -122178
0.151133 0.0872495 4.50805e-21 -121777
0.152497 0.0880371 4.50801e-21 -121630
0.153871 0.0888307 4.50798e-21 -122313
0.155257 0.0896305 0 -121317
0.156653 0.0904364 4.50791e-21 -120925
0.15806 0.0912487 4.50787e-21 -121408
0.159478 0.0920672 0 -120522
0.160907 0.092892 0 -120313
0.162347 0.0937233 0 -120409
0.163798 0.0945611 4.50774e-21 -126042
0.16526 0.0954054 0 -121465
0.166734 0.0962563 0 -120152
0.168219 0.0971138 0 -119254
0.169716 0.097978 4.50761e-21 -119314
0.171225 0.098849 4.50758e-21 -118906
0.172745 0.0997268 4.50754e-21 -119090
0.174278 0.100611 0 -118282
0.175822 0.101503 0 -118921
0.177379 0.102402 0 -118075
0.178947 0.103308 4.50741e-21 -118810
0.180529 0.10422 4.50737e-21 -118333
0.182122 0.10514 4.50734e-21 -117419
0.183728 0.106068 0 -123712
0.185347 0.107002 -4.50727e-21 -124686
0.186979 0.107944 0 -124712
0.188623 0.108894 0 -124892
0.190281 0.109851 4.50716e-21 -125184
0.191952 0.110815 0 -124392
0.193636 0.111787 -4.5071e-21 -123657
0.195333 0.112767 -4.50707e-21 -116970
0.197044 0.113755 -4.50702e-21 -122508
0.198768 0.114751 -4.507e-21 -122242
0.200506 0.115754 -4.50696e-21 -121302
0.202258 0.116766 0 -115899
0.204024 0.117785 4.50688e-21 -121139
0.205805 0.118813 4.50686e-21 -123146
0.207599 0.119849 0 -120516
0.209408 0.120893 -4.50679e-21 -121269
0.211231 0.121946 -4.50676e-21 -120727
0.213068 0.123007 0 -119887
0.214921 0.124076 0 -119419
0.216788 0.125154 0 -119323
0.21867 0.126241 0 -114341
0.220567 0.127336 0 -118994
0.22248 0.12844 0 -113410
0.224408 0.129553 0 -113239
0.226351 0.130675 0 -112146
0.22831 0.131806 0 -111958
0.230284 0.132946 9.01282e-21 -111605
0.232275 0.134095 0 -116821
0.234282 0.135254 9.01268e-21 -118671
0.236304 0.136421 0 -119153
0.238344 0.137598 9.01253e-21 -117282
0.2404 0.138785 0 -117650
0.242472 0.139982 0 -116972
