# y+ ()       
# Time        	patch         	min           	max           	average       
12200         	base	6.926587e-03	2.389443e+01	5.514914e+00
