# p  FACE_DATA 317
# x  y  z  p
-2.24217 0 0.27 23911.8
-2.12942 0 0.27 23884.4
-2.02231 0 0.27 23857.5
-1.92055 0 0.27 23847.2
-1.82389 0 0.27 23844.5
-1.73207 0 0.27 23839.5
-1.64485 0 0.27 23831.8
-1.562 0 0.27 23827.1
-1.48331 0 0.27 23826.9
-1.40856 0 0.27 23824.8
-1.33756 0 0.27 23816.9
-1.27013 0 0.27 23802.8
-1.20608 0 0.27 23784.3
-1.14539 0 0.27 23762.8
-1.08787 0 0.27 23743.4
-1.03323 0 0.27 23726
-0.981322 0 0.27 23711
-0.932014 0 0.27 23698.9
-0.885173 0 0.27 23689.5
-0.84068 0 0.27 23682.6
-0.798416 0 0.27 23677.8
-0.758473 0 0.27 23674.7
-0.720912 0 0.27 23673.1
-0.685558 0 0.27 23672.4
-0.652245 0 0.27 23672.3
-0.620811 0 0.27 23672.3
-0.591171 0 0.27 23672.2
-0.563165 0 0.27 23672.4
-0.536572 0 0.27 23673.3
-0.51125 0 0.27 23674.9
-0.487059 0 0.27 23677.3
-0.463863 0 0.27 23680.7
-0.441526 0 0.27 23685
-0.419915 0 0.27 23690.1
-0.398896 0 0.27 23695.6
-0.378338 0 0.27 23701.4
-0.358104 0 0.27 23707.2
-0.33806 0 0.27 23710.7
-0.318069 0 0.27 23738.7
-0.296809 0 0.27 23756.8
-0.275112 0 0.27 23739
-0.255001 0 0.27 23735.3
-0.23636 0 0.27 23763.1
-0.219081 0 0.27 23754.4
-0.203066 0 0.27 23731.8
-0.188221 0 0.27 23729.5
-0.174462 0 0.27 23727.1
-0.161708 0 0.27 23727.3
-0.149886 0 0.27 23728.2
-0.138929 0 0.27 23727.7
-0.128773 0 0.27 23728.1
-0.119359 0 0.27 23727.3
-0.110632 0 0.27 23727.3
-0.102544 0 0.27 23727.3
-0.0950472 0 0.27 23727.9
-0.0880983 0 0.27 23728
-0.0816572 0 0.27 23727.9
-0.0756869 0 0.27 23728.6
-0.070153 0 0.27 23729.8
-0.0650234 0 0.27 23789.8
-0.0602687 0 0.27 25706.4
-0.0558616 0 0.27 33831.6
-0.0517765 0 0.27 41909
-0.0479899 0 0.27 45274.6
-0.04448 0 0.27 47464
-0.0412265 0 0.27 49027
-0.0382106 0 0.27 50097
-0.0354151 0 0.27 51001.1
-0.0328237 0 0.27 51785.8
-0.0304215 0 0.27 52430
-0.0281948 0 0.27 53006.2
-0.0261306 0 0.27 53522.1
-0.0242171 0 0.27 53986.1
-0.0224431 0 0.27 54401.9
-0.0207985 0 0.27 54777.9
-0.0192738 0 0.27 55119.4
-0.0178602 0 0.27 55429.3
-0.0165496 0 0.27 55711.3
-0.0153345 0 0.27 55967.5
-0.0142077 0 0.27 56200.5
-0.0131629 0 0.27 56413.2
-0.0121939 0 0.27 56607.7
-0.0112952 0 0.27 56786.2
-0.0104616 0 0.27 56950.7
-0.0096884 0 0.27 57103
-0.00897103 0 0.27 57244.6
-0.00830536 0 0.27 57376.9
-0.00768758 0 0.27 57500.8
-0.0071141 0 0.27 57617.4
-0.00658165 0 0.27 57726.9
-0.00608714 0 0.27 57830.7
-0.00562772 0 0.27 57928.7
-0.00520074 0 0.27 58021.6
-0.00480375 0 0.27 58109.6
-0.00443446 0 0.27 58192.9
-0.00409073 0 0.27 58271.8
-0.00377059 0 0.27 58346.5
-0.00347218 0 0.27 58416.5
-0.00319379 0 0.27 58488.2
-0.00293381 0 0.27 58550.7
-0.00269075 0 0.27 58611.1
-0.00246319 0 0.27 58668
-0.00224984 0 0.27 58722.1
-0.00204945 0 0.27 58773.2
-0.00186089 0 0.27 58821.6
-0.00168306 0 0.27 58867
-0.00151492 0 0.27 58910.3
-0.00135552 0 0.27 58950.5
-0.00120394 0 0.27 58988.9
-0.00105929 0 0.27 59023.9
-0.000920752 0 0.27 59057.4
-0.000787523 0 0.27 59087.1
-0.000658834 0 0.27 59114.3
-0.000533942 0 0.27 59137.6
-0.000412129 0 0.27 59154.3
-0.000292693 0 0.27 59170.6
-0.000174943 0 0.27 59150
-5.82025e-05 0 0.27 59353.3
6.0278e-05 2.68374e-05 0.27 58632.6
0.000182584 8.12915e-05 0.27 58857.5
0.000308438 0.000137325 0.27 58815.3
0.000437939 0.000194983 0.27 58801
0.00057119 0.00025431 0.27 58787.4
0.000708293 0.000315353 0.27 58787
0.000849358 0.000378158 0.27 58796.2
0.000994492 0.000442776 0.27 58810.3
0.00114381 0.000509256 0.27 58831.7
0.00129743 0.000577649 0.27 58856.3
0.00145545 0.000648007 0.27 58886.4
0.00161801 0.000720386 0.27 58919.6
0.00178523 0.000794839 0.27 58957.2
0.00195724 0.000871423 0.27 58997.6
0.00213417 0.000950195 0.27 59041.9
0.00231614 0.00103122 0.27 59089.1
0.0025033 0.00111455 0.27 59139.8
0.00269579 0.00120024 0.27 59193.4
0.00289374 0.00128838 0.27 59250.2
0.00309731 0.00137901 0.27 59310.1
0.00330663 0.00147221 0.27 59373.5
0.00352187 0.00156804 0.27 59440.7
0.00374317 0.00166657 0.27 59510.1
0.0039707 0.00176788 0.27 59582.5
0.00420463 0.00187202 0.27 59658.2
0.00444512 0.0019791 0.27 59737.2
0.00469233 0.00208916 0.27 59819.7
0.00494645 0.0022023 0.27 59905.6
0.00520763 0.00231859 0.27 59994.9
0.00547608 0.00243811 0.27 60087.7
0.00575197 0.00256094 0.27 60184.2
0.00603549 0.00268717 0.27 60284.3
0.00632683 0.00281688 0.27 60388.2
0.00662618 0.00295016 0.27 60495.9
0.00693375 0.0030871 0.27 60607.5
0.00724974 0.0032278 0.27 60723.2
0.00757435 0.00337232 0.27 60843
0.0079078 0.00352077 0.27 60967
0.00825029 0.00367327 0.27 61095.5
0.00860204 0.00382988 0.27 61228.5
0.00896328 0.00399071 0.27 61366.2
0.00933422 0.00415586 0.27 61508.7
0.0097151 0.00432544 0.27 61656.2
0.0101061 0.00449954 0.27 61808.9
0.0105076 0.00467828 0.27 61967.1
0.0109197 0.00486175 0.27 62130.7
0.0113426 0.00505007 0.27 62300.4
0.0117768 0.00524333 0.27 62476.1
0.0122222 0.00544166 0.27 62658.3
0.0126792 0.00564515 0.27 62847
0.0131482 0.00585394 0.27 63042.7
0.0136292 0.00606812 0.27 63245.3
0.0141227 0.00628781 0.27 63455.7
0.0146288 0.00651313 0.27 63673.8
0.0151477 0.00674419 0.27 63899.7
0.0156799 0.00698113 0.27 64134
0.0162254 0.00722403 0.27 64376.8
0.0167847 0.00747303 0.27 64628.4
0.017358 0.00772826 0.27 64889
0.0179454 0.00798982 0.27 65159
0.0185474 0.00825783 0.27 65438.4
0.0191641 0.00853242 0.27 65727.7
0.0197959 0.00881371 0.27 66026.9
0.0204431 0.00910183 0.27 66336
0.0211057 0.00939688 0.27 66655.1
0.0217843 0.00969898 0.27 66984.3
0.0224789 0.0100083 0.27 67323.6
0.02319 0.0103248 0.27 67673
0.0239176 0.0106488 0.27 68033
0.0246623 0.0109804 0.27 68403.1
0.025424 0.0113195 0.27 68783.8
0.0262032 0.0116664 0.27 69175.2
0.0270001 0.0120212 0.27 69577.2
0.0278149 0.012384 0.27 69989.7
0.0286479 0.0127549 0.27 70413
0.0294992 0.0131339 0.27 70846.4
0.0303692 0.0135212 0.27 71290.5
0.0312581 0.013917 0.27 71744.5
0.0321659 0.0143213 0.27 72208.3
0.0330931 0.014734 0.27 72681.8
0.0340398 0.0151555 0.27 73165
0.0350062 0.0155858 0.27 73657.6
0.0359924 0.0160249 0.27 74159.5
0.0369987 0.0164729 0.27 74671.7
0.0380251 0.0169299 0.27 75192.4
0.0390719 0.0173959 0.27 75722.1
0.0401391 0.0178711 0.27 76260.4
0.041227 0.0183554 0.27 76805.8
0.0423356 0.018849 0.27 77359.4
0.043465 0.0193519 0.27 77920.8
0.0446154 0.0198641 0.27 78487.6
0.0457867 0.0203856 0.27 79060
0.046979 0.0209164 0.27 79635.8
0.0481924 0.0214567 0.27 80214.2
0.0494267 0.0220063 0.27 80792.7
0.0506823 0.0225652 0.27 81369.1
0.0519588 0.0231335 0.27 81941.8
0.0532563 0.0237113 0.27 82507.9
0.0545749 0.0242983 0.27 83066.2
0.0559142 0.0248946 0.27 83613.8
0.0572744 0.0255002 0.27 84149.7
0.0586552 0.0261149 0.27 84672
0.0600565 0.0267388 0.27 85181.3
0.0614781 0.0273718 0.27 85677.8
0.0629198 0.0280137 0.27 86161.6
0.0643815 0.0286645 0.27 86636.5
0.0658629 0.029324 0.27 87102.3
0.0673636 0.0299922 0.27 87562.7
0.0688836 0.030669 0.27 88018.7
0.0704223 0.0313541 0.27 88472.3
0.0719795 0.0320474 0.27 88926.6
0.0735549 0.0327488 0.27 89380.6
0.075148 0.0334581 0.27 89835.3
0.0767585 0.0341751 0.27 90291.1
0.0783859 0.0348996 0.27 90745.7
0.0800297 0.0356315 0.27 91200
0.0816895 0.0363706 0.27 91652.8
0.0833647 0.0371164 0.27 92096.3
0.085055 0.0378689 0.27 92529.9
0.0867595 0.0386278 0.27 92943.7
0.0884779 0.0393929 0.27 93334
0.0902095 0.0401639 0.27 93698.5
0.0919538 0.0409405 0.27 94035
0.09371 0.0417224 0.27 94342
0.0954776 0.0425094 0.27 94622.6
0.0972558 0.0433011 0.27 94881.3
0.0990439 0.0440972 0.27 95122.4
0.100841 0.0448975 0.27 95343.7
0.102647 0.0457015 0.27 95548.8
0.104461 0.046509 0.27 95759.7
0.106282 0.0473197 0.27 95960.4
0.108109 0.0481331 0.27 96177.7
0.109941 0.048949 0.27 96390.8
0.111779 0.0497671 0.27 96601.1
0.11362 0.0505868 0.27 96820
0.115464 0.051408 0.27 97074.5
0.117311 0.0522302 0.27 97316.8
0.11916 0.0530531 0.27 97549.4
0.121009 0.0538763 0.27 97829.1
0.122857 0.0546995 0.27 98087.4
0.124705 0.0555223 0.27 98326.6
0.126552 0.0563444 0.27 98564.6
0.128395 0.0571653 0.27 98792.6
0.130236 0.0579847 0.27 99005.4
0.132072 0.0588023 0.27 99200.9
0.133904 0.0596177 0.27 99378.5
0.13573 0.0604306 0.27 99522.3
0.137549 0.0612407 0.27 99625.6
0.139361 0.0620475 0.27 99710.9
0.141165 0.0628508 0.27 99753.3
0.14296 0.0636503 0.27 99839.2
0.144747 0.0644455 0.27 99907.1
0.146523 0.0652363 0.27 99953.8
0.148288 0.0660222 0.27 99997.8
0.150042 0.0668031 0.27 100032
0.151784 0.0675785 0.27 100104
0.153513 0.0683483 0.27 100138
0.155228 0.0691121 0.27 100198
0.15693 0.0698698 0.27 100294
0.158617 0.070621 0.27 100385
0.160289 0.0713654 0.27 100507
0.161946 0.072103 0.27 100621
0.163586 0.0728334 0.27 100737
0.165211 0.0735564 0.27 100874
0.166817 0.0742718 0.27 101006
0.168406 0.0749795 0.27 101148
0.169978 0.0756793 0.27 101291
0.171532 0.0763709 0.27 101405
0.173067 0.0770543 0.27 101514
0.174583 0.0777293 0.27 101600
0.17608 0.0783958 0.27 101710
0.177557 0.0790535 0.27 101833
0.179014 0.0797025 0.27 101870
0.180452 0.0803425 0.27 101910
0.18187 0.0809736 0.27 102006
0.183266 0.0815956 0.27 102106
0.184643 0.0822085 0.27 102246
0.185999 0.0828122 0.27 102356
0.187334 0.0834066 0.27 102461
0.188648 0.0839917 0.27 102604
0.189942 0.0845675 0.27 102721
0.191214 0.0851339 0.27 102896
0.192465 0.085691 0.27 103034
0.193695 0.0862387 0.27 103207
0.194904 0.086777 0.27 103399
0.196093 0.0873059 0.27 103590
0.197259 0.0878254 0.27 103777
0.198405 0.0883357 0.27 103984
0.19953 0.0888366 0.27 104213
0.200635 0.0893284 0.27 104476
0.201718 0.0898108 0.27 104714
0.202782 0.0902841 0.27 104944
0.203824 0.0907483 0.27 105196
0.204846 0.0912035 0.27 105385
0.205848 0.0916496 0.27 105604
0.206831 0.0920869 0.27 105840
0.207793 0.0925153 0.27 106045
0.208735 0.092935 0.27 106278
0.209658 0.093346 0.27 106172
