# Wall heat-flux
# Time        	patch         	min           	max           	integral      
5000          	base	-3.521821e+06	-4.632639e+04	-3.230399e+03
