/*--------------------------------*- C++ -*----------------------------------*\
| =========                 |                                                 |
| \\      /  F ield         | OpenFOAM: The Open Source CFD Toolbox           |
|  \\    /   O peration     | Version:  v2012                                 |
|   \\  /    A nd           | Website:  www.openfoam.com                      |
|    \\/     M anipulation  |                                                 |
\*---------------------------------------------------------------------------*/
FoamFile
{
    version     2.0;
    format      ascii;
    class       volScalarField;
    location    "3900";
    object      alphat;
}
// * * * * * * * * * * * * * * * * * * * * * * * * * * * * * * * * * * * * * //

dimensions      [1 -1 -1 0 0 0 0];


internalField   nonuniform List<scalar> 
29502
(
4.08243e-08
1.30796e-09
3.42003e-08
1.29406e-09
1.19583e-09
3.07579e-08
1.55395e-09
3.84675e-09
1.20039e-09
2.78533e-08
1.72672e-09
5.55259e-09
4.91972e-08
1.51011e-09
2.64662e-08
1.82616e-09
6.4505e-09
7.51012e-08
3.13502e-07
2.58862e-09
2.64518e-08
1.87702e-09
6.92812e-09
8.76173e-08
4.78056e-07
1.19457e-06
4.98315e-09
2.74229e-08
1.89038e-09
7.15894e-09
9.37821e-08
5.54018e-07
1.80918e-06
3.26321e-06
9.11095e-09
2.88015e-08
1.88637e-09
7.20847e-09
9.62762e-08
5.8918e-07
2.0818e-06
4.89136e-06
7.04812e-06
1.49671e-08
3.03029e-08
1.86672e-09
7.17796e-09
9.63546e-08
6.00814e-07
2.20126e-06
5.5854e-06
1.04403e-05
1.2799e-05
2.24664e-08
3.18972e-08
1.83915e-09
7.08003e-09
9.54407e-08
5.984e-07
2.23351e-06
5.87486e-06
1.18304e-05
1.87671e-05
2.04164e-05
3.09252e-08
3.36151e-08
1.81452e-09
6.95507e-09
9.37724e-08
5.90428e-07
2.21755e-06
5.93935e-06
1.23847e-05
2.1127e-05
2.97695e-05
2.92433e-05
3.95367e-08
3.54931e-08
1.79671e-09
6.84591e-09
9.19083e-08
5.788e-07
2.18303e-06
5.88733e-06
1.24899e-05
2.20312e-05
3.33674e-05
4.31171e-05
3.81224e-05
4.79216e-08
3.75534e-08
1.77998e-09
6.76847e-09
9.0297e-08
5.66703e-07
2.13801e-06
5.7907e-06
1.2374e-05
2.21846e-05
3.46995e-05
4.82389e-05
5.71139e-05
4.78011e-05
5.52332e-08
3.98122e-08
1.75013e-09
6.69136e-09
8.91396e-08
5.56338e-07
2.09326e-06
5.67296e-06
1.21738e-05
2.19828e-05
3.49153e-05
5.00052e-05
6.41649e-05
7.27235e-05
5.8234e-05
6.22752e-08
4.22785e-08
1.72597e-09
6.55402e-09
8.80111e-08
5.4876e-07
2.05496e-06
5.55879e-06
1.19395e-05
2.16452e-05
3.46165e-05
5.03032e-05
6.65967e-05
8.23174e-05
9.00716e-05
6.92736e-05
6.84345e-08
4.49608e-08
1.70377e-09
6.45113e-09
8.61079e-08
5.41534e-07
2.0267e-06
5.46144e-06
1.17162e-05
2.12604e-05
3.41213e-05
4.99118e-05
6.70432e-05
8.56364e-05
0.000102925
0.000109139
8.09659e-05
7.38955e-08
4.78624e-08
1.68986e-09
6.3559e-09
8.47141e-08
5.29942e-07
2.0001e-06
5.38872e-06
1.15259e-05
2.08976e-05
3.35666e-05
4.92869e-05
6.65664e-05
8.63113e-05
0.00010742
0.000126035
0.000129829
9.36715e-05
8.01174e-08
5.09861e-08
1.67289e-09
6.2972e-09
8.34349e-08
5.21447e-07
1.95875e-06
5.32089e-06
1.13825e-05
2.05888e-05
3.30469e-05
4.85926e-05
6.57784e-05
8.5772e-05
0.000108434
0.0001321
0.000151515
0.000151852
0.000105639
8.42993e-08
5.43457e-08
1.65086e-09
6.22195e-09
8.26409e-08
5.13716e-07
1.92848e-06
5.21761e-06
1.1249e-05
2.03544e-05
3.26054e-05
4.7934e-05
6.49021e-05
8.48184e-05
0.000107879
0.000133594
0.000159657
0.000179205
0.000174957
0.000116559
8.45577e-08
5.79396e-08
1.63428e-09
6.12637e-09
8.16394e-08
5.08891e-07
1.90109e-06
5.14227e-06
1.10491e-05
2.01364e-05
3.2269e-05
4.73544e-05
6.41003e-05
8.37481e-05
0.000106771
0.000133108
0.000161848
0.000190165
0.000208927
0.000198484
0.00012662
8.02044e-08
6.17775e-08
1.62117e-09
6.05891e-09
8.03886e-08
5.02934e-07
1.88393e-06
5.07419e-06
1.09038e-05
1.98129e-05
3.19544e-05
4.69113e-05
6.34279e-05
8.27653e-05
0.000105504
0.000131881
0.000161566
0.00019335
0.000223572
0.000240504
0.000221679
0.000135841
7.2852e-08
6.58658e-08
1.60722e-09
6.00522e-09
7.95311e-08
4.95586e-07
1.86308e-06
5.03167e-06
1.07727e-05
1.9579e-05
3.14919e-05
4.64956e-05
6.29213e-05
8.19523e-05
0.000104326
0.000130418
0.000160268
0.000193467
0.000228171
0.000259707
0.000273606
0.0002439
0.000144583
6.36881e-08
7.02042e-08
1.59575e-09
5.94508e-09
7.88514e-08
4.90619e-07
1.8376e-06
4.9802e-06
1.06908e-05
1.93681e-05
3.11595e-05
4.58862e-05
6.24381e-05
8.13391e-05
0.000103354
0.000129036
0.000158642
0.00019217
0.000228966
0.000266358
0.000298282
0.000307553
0.000264533
0.000153762
5.57848e-08
7.47978e-08
1.58519e-09
5.89791e-09
7.80772e-08
4.86699e-07
1.82055e-06
4.91789e-06
1.05921e-05
1.92373e-05
3.08607e-05
4.54521e-05
6.17265e-05
8.07495e-05
0.000102623
0.000127901
0.000157058
0.000190425
0.000227794
0.00026815
0.000307875
0.000338951
0.000341443
0.000282844
0.000164217
4.99509e-08
7.96413e-08
1.5726e-09
5.85434e-09
7.74904e-08
4.82219e-07
1.80713e-06
4.87654e-06
1.04733e-05
1.9079e-05
3.0676e-05
4.50629e-05
6.12367e-05
7.98868e-05
0.000101919
0.000127054
0.000155777
0.000188667
0.000225989
0.00026729
0.000311027
0.000352511
0.000381266
0.00037435
0.00029797
0.000172003
4.77078e-08
8.47466e-08
1.55878e-09
5.8005e-09
7.69465e-08
4.78853e-07
1.7917e-06
4.844e-06
1.03952e-05
1.88895e-05
3.04516e-05
4.48235e-05
6.07982e-05
7.929e-05
0.000100875
0.000126224
0.000154813
0.000187241
0.000224091
0.000265543
0.000310772
0.000357568
0.000399914
0.000424542
0.000405268
0.000309067
0.000164014
4.79082e-08
9.01524e-08
1.5461e-09
5.7413e-09
7.62712e-08
4.75798e-07
1.78032e-06
4.80639e-06
1.03333e-05
1.87662e-05
3.01843e-05
4.45314e-05
6.05344e-05
7.87607e-05
0.000100158
0.000124983
0.000153859
0.000186152
0.000222535
0.000263548
0.000309271
0.00035831
0.000407626
0.000449613
0.00046791
0.000433084
0.000315575
0.0001497
5.03913e-08
9.60365e-08
1.53706e-09
5.68902e-09
7.55261e-08
4.71969e-07
1.77005e-06
4.77909e-06
1.0262e-05
1.86678e-05
3.00123e-05
4.41841e-05
6.02044e-05
7.8448e-05
9.95343e-05
0.000124143
0.000152423
0.000185085
0.000221348
0.000261907
0.000307271
0.000357274
0.000409851
0.000460963
0.000501007
0.00051031
0.000456731
0.000317619
0.00012927
5.46671e-08
1.03297e-07
1.53127e-09
5.65404e-09
7.4882e-08
4.67747e-07
1.75723e-06
4.75484e-06
1.02108e-05
1.85544e-05
2.98748e-05
4.39639e-05
5.98094e-05
7.80592e-05
9.91633e-05
0.000123411
0.000151447
0.000183453
0.000220171
0.000260669
0.000305594
0.000355403
0.000409568
0.000465101
0.000517164
0.000553287
0.000550525
0.000475227
0.000316832
0.000103812
6.03772e-08
1.1076e-07
1.52525e-09
5.63392e-09
7.44769e-08
4.64144e-07
1.74296e-06
4.72414e-06
1.01661e-05
1.84744e-05
2.97154e-05
4.37879e-05
5.95716e-05
7.75867e-05
9.87011e-05
0.000122986
0.000150597
0.000182341
0.000218336
0.000259406
0.000304348
0.000353806
0.000408025
0.000465857
0.000523308
0.000575564
0.00060542
0.000587146
0.000487837
0.000316544
7.56963e-05
6.62612e-08
1.19924e-07
1.51852e-09
5.60985e-09
7.42685e-08
4.61992e-07
1.73098e-06
4.69013e-06
1.01088e-05
1.84053e-05
2.96052e-05
4.3583e-05
5.93833e-05
7.7302e-05
9.814e-05
0.000122437
0.00015012
0.000181371
0.000217096
0.000257372
0.000303057
0.000352635
0.000406641
0.000464854
0.000525228
0.000584263
0.000635543
0.000656176
0.000618686
0.000494357
0.000321755
4.86164e-05
7.17657e-08
1.26048e-07
1.51055e-09
5.58268e-09
7.39965e-08
4.60993e-07
1.72418e-06
4.66178e-06
1.00449e-05
1.83152e-05
2.95109e-05
4.34434e-05
5.91591e-05
7.70824e-05
9.78069e-05
0.000121775
0.000149499
0.000180835
0.000216018
0.000255996
0.000300848
0.000351337
0.000405612
0.000463849
0.00052493
0.000588156
0.000648422
0.000696394
0.000704053
0.000643562
0.000494911
0.000331266
2.69024e-05
7.75939e-08
1.3149e-07
1.50175e-09
5.54917e-09
7.36856e-08
4.59604e-07
1.72135e-06
4.64651e-06
9.99261e-06
1.8215e-05
2.93858e-05
4.33253e-05
5.90095e-05
7.68143e-05
9.75521e-05
0.000121394
0.000148735
0.000180146
0.000215432
0.000254826
0.000299334
0.000348997
0.000404377
0.00046308
0.000524477
0.000589027
0.000655001
0.00071528
0.000756408
0.000747421
0.000660285
0.000489478
0.000300715
1.29608e-05
8.39007e-08
1.36549e-07
1.49207e-09
5.51279e-09
7.32909e-08
4.57996e-07
1.71712e-06
4.6409e-06
9.96577e-06
1.81338e-05
2.92465e-05
4.31659e-05
5.88883e-05
7.66403e-05
9.72379e-05
0.000121105
0.000148296
0.000179287
0.000214671
0.000254214
0.000298066
0.000347373
0.000401969
0.000462014
0.000524045
0.000589413
0.000657543
0.000725439
0.000784126
0.000814103
0.000784304
0.000668081
0.000479287
0.000256269
5.71429e-06
9.04736e-08
1.40736e-07
1.48256e-09
5.47147e-09
7.28541e-08
4.55908e-07
1.71214e-06
4.63175e-06
9.95741e-06
1.80949e-05
2.91355e-05
4.29874e-05
5.87166e-05
7.65035e-05
9.70398e-05
0.000120745
0.00014797
0.00017879
0.000213713
0.000253387
0.00029746
0.000346032
0.000400298
0.000459542
0.00052327
0.000589601
0.000659141
0.000730298
0.000798967
0.000853996
0.000867692
0.000812863
0.000667255
0.000469466
0.000202133
2.39128e-06
9.69996e-08
1.42717e-07
1.47321e-09
5.43201e-09
7.23573e-08
4.53558e-07
1.70555e-06
4.62071e-06
9.94197e-06
1.80851e-05
2.90858e-05
4.28476e-05
5.85205e-05
7.63004e-05
9.68801e-05
0.000120528
0.000147569
0.000178423
0.000213168
0.000252313
0.000296595
0.00034544
0.000398927
0.000457912
0.000520594
0.000589274
0.000660228
0.000733585
0.000806956
0.00087485
0.000921992
0.000915155
0.000831315
0.000658679
0.000468062
0.000143778
9.92331e-07
1.03653e-07
1.42869e-07
1.46384e-09
5.39309e-09
7.18778e-08
4.50819e-07
1.69798e-06
4.60589e-06
9.92289e-06
1.80634e-05
2.9077e-05
4.27899e-05
5.83702e-05
7.60614e-05
9.66375e-05
0.000120345
0.000147336
0.000177987
0.000212781
0.000251729
0.000295409
0.000344554
0.00039835
0.000456568
0.000519187
0.000586702
0.00066057
0.000735937
0.00081254
0.000886975
0.000952088
0.000984942
0.000954182
0.000838212
0.000644295
0.000467397
9.01271e-05
4.27005e-07
1.10576e-07
1.42351e-07
1.45617e-09
5.35562e-09
7.14084e-08
4.48209e-07
1.68904e-06
4.58851e-06
9.89632e-06
1.80354e-05
2.90505e-05
4.27858e-05
5.83175e-05
7.58898e-05
9.63594e-05
0.000120064
0.000147139
0.000177732
0.000212303
0.000251335
0.000294786
0.000343298
0.000397462
0.000456067
0.000517937
0.000585483
0.000658254
0.000737232
0.000816624
0.000895625
0.000969578
0.00102937
0.00104121
0.000982403
0.000833191
0.000626497
0.00040501
5.04602e-05
2.13747e-07
1.17119e-07
1.40958e-07
1.45096e-09
5.32574e-09
7.09626e-08
4.45678e-07
1.68059e-06
4.56779e-06
9.86517e-06
1.79959e-05
2.90149e-05
4.27572e-05
5.83333e-05
7.58404e-05
9.61644e-05
0.000119758
0.000146824
0.000177525
0.000212023
0.000250825
0.000294377
0.000342647
0.000396175
0.000455158
0.000517573
0.000584389
0.000657359
0.000735386
0.000819243
0.000902039
0.000982243
0.0010537
0.00110155
0.00108873
0.000997588
0.000817578
0.000610612
0.000326846
2.60882e-05
1.39981e-07
1.21724e-07
1.42308e-07
1.44787e-09
5.30639e-09
7.06025e-08
4.43223e-07
1.67238e-06
4.5483e-06
9.82747e-06
1.79488e-05
2.89627e-05
4.27165e-05
5.83175e-05
7.58746e-05
9.61199e-05
0.000119534
0.000146478
0.000177188
0.000211825
0.000250553
0.000293861
0.000342238
0.00039553
0.000453831
0.000516544
0.000584241
0.00065653
0.00073499
0.000818148
0.00090645
0.000991731
0.00107154
0.00113793
0.00116569
0.00112491
0.000998277
0.000794247
0.000603542
0.000239024
1.28307e-05
1.16893e-07
1.25258e-07
1.44023e-07
1.4471e-09
5.29761e-09
7.03978e-08
4.41283e-07
1.66448e-06
4.52954e-06
9.7922e-06
1.78912e-05
2.88994e-05
4.26533e-05
5.82787e-05
7.58651e-05
9.61631e-05
0.000119491
0.000146222
0.000176783
0.000211463
0.000250353
0.000293616
0.000341723
0.000395138
0.00045322
0.000515122
0.000583302
0.000656698
0.000734573
0.000818484
0.000906476
0.000998531
0.00108502
0.00116234
0.00121906
0.00122005
0.00114694
0.000984394
0.000767689
0.000571448
0.000154065
5.98029e-06
1.11994e-07
1.25783e-07
1.44702e-07
1.44741e-09
5.29757e-09
7.03268e-08
4.40246e-07
1.65817e-06
4.51116e-06
9.75845e-06
1.78375e-05
2.88214e-05
4.25751e-05
5.82124e-05
7.58296e-05
9.61674e-05
0.000119558
0.000146188
0.0001765
0.000211007
0.000249956
0.000293426
0.00034149
0.000394632
0.000452865
0.00051464
0.0005819
0.000655924
0.000735188
0.00081867
0.000907845
0.00100015
0.00109495
0.00118093
0.00125311
0.00129019
0.00126214
0.00115244
0.000958058
0.000745299
0.000477587
8.86838e-05
2.6001e-06
1.11822e-07
1.24497e-07
1.42486e-07
1.44765e-09
5.30164e-09
7.03806e-08
4.40068e-07
1.65511e-06
4.49684e-06
9.72535e-06
1.77866e-05
2.87491e-05
4.24773e-05
5.81316e-05
7.57575e-05
9.61435e-05
0.000119575
0.000146302
0.000176488
0.000210706
0.000249464
0.000293016
0.000341342
0.000394438
0.000452386
0.000514343
0.000581538
0.000654605
0.000734685
0.000819901
0.000908886
0.00100294
0.00109878
0.00119491
0.00127816
0.00134059
0.0013499
0.00128896
0.00114034
0.000924166
0.000733109
0.000365669
4.71712e-05
1.07225e-06
1.1218e-07
1.23871e-07
1.40086e-07
1.44697e-09
5.30418e-09
7.0475e-08
4.40567e-07
1.65509e-06
4.49046e-06
9.69954e-06
1.77362e-05
2.8681e-05
4.23879e-05
5.8029e-05
7.56638e-05
9.60673e-05
0.000119554
0.000146326
0.000176634
0.000210713
0.000249153
0.0002925
0.000340943
0.000394321
0.000452257
0.000513807
0.000581363
0.000654426
0.00073353
0.000819806
0.000910951
0.00100516
0.00110349
0.00120172
0.0012973
0.00137497
0.00141664
0.00139597
0.00129768
0.00111218
0.000889888
0.000691459
0.000248349
2.33074e-05
4.51422e-07
1.12662e-07
1.23915e-07
1.37571e-07
1.44511e-09
5.30242e-09
7.05505e-08
4.41353e-07
1.65754e-06
4.49194e-06
9.68975e-06
1.7698e-05
2.86137e-05
4.23044e-05
5.79367e-05
7.5545e-05
9.59596e-05
0.000119474
0.00014631
0.000176687
0.000210886
0.000249178
0.000292169
0.000340422
0.000393922
0.000452134
0.000513713
0.00058091
0.00065443
0.000733617
0.000818931
0.000911443
0.00100834
0.0011073
0.00120897
0.00130803
0.00140059
0.00146711
0.00148001
0.00142551
0.00128651
0.0010729
0.000866766
0.000574068
0.000151131
1.08696e-05
2.22307e-07
1.13682e-07
1.24004e-07
1.35485e-07
1.44164e-09
5.29424e-09
7.05634e-08
4.42014e-07
1.66087e-06
4.49916e-06
9.69491e-06
1.76857e-05
2.85641e-05
4.2222e-05
5.78481e-05
7.54345e-05
9.58175e-05
0.000119355
0.000146238
0.000176695
0.000211
0.0002494
0.000292227
0.000340065
0.000393373
0.000451665
0.000513656
0.000580935
0.000654109
0.000733877
0.000819389
0.000910998
0.00100966
0.00111196
0.0012149
0.0013186
0.00141642
0.00150282
0.00154645
0.00152825
0.00143519
0.00125658
0.00103117
0.000853087
0.000435957
8.35122e-05
4.67246e-06
1.43592e-07
1.14826e-07
1.23801e-07
1.33737e-07
1.43645e-09
5.28019e-09
7.04945e-08
4.42314e-07
1.66381e-06
4.50883e-06
9.71135e-06
1.76978e-05
2.85516e-05
4.21629e-05
5.77634e-05
7.53345e-05
9.5693e-05
0.000119195
0.000146102
0.000176628
0.000211049
0.000249583
0.000292521
0.000340189
0.000393022
0.000451096
0.000513211
0.000580984
0.0006543
0.000733749
0.000820002
0.000911966
0.00100984
0.0011144
0.00122147
0.00132729
0.00143125
0.00152513
0.00159771
0.00161138
0.0015582
0.00142306
0.00121239
0.000997448
0.000751131
0.00029346
4.20344e-05
1.85035e-06
1.17909e-07
1.1537e-07
1.2345e-07
1.32199e-07
1.42988e-09
5.25717e-09
7.0333e-08
4.42058e-07
1.6655e-06
4.51732e-06
9.73209e-06
1.7728e-05
2.8574e-05
4.21533e-05
5.77083e-05
7.52424e-05
9.55799e-05
0.000119056
0.000145922
0.000176489
0.000210981
0.000249659
0.000292769
0.000340572
0.000393217
0.000450785
0.000512649
0.000580587
0.000654494
0.000734168
0.000820152
0.000913057
0.0010115
0.00111547
0.00122542
0.00133634
0.00144351
0.00154539
0.00163193
0.00167812
0.00165953
0.00156628
0.00138917
0.00116163
0.000973409
0.000600378
0.000177911
1.93153e-05
7.26817e-07
1.10672e-07
1.15719e-07
1.2311e-07
1.30571e-07
1.42174e-09
5.22686e-09
7.00482e-08
4.41254e-07
1.66511e-06
4.52288e-06
9.75086e-06
1.77649e-05
2.86224e-05
4.21904e-05
5.7713e-05
7.51869e-05
9.54725e-05
0.000118929
0.000145769
0.000176294
0.000210837
0.000249624
0.000292887
0.000340886
0.000393699
0.000451024
0.000512373
0.000580056
0.000654178
0.00073456
0.000820872
0.000913594
0.00101323
0.00111805
0.00122771
0.00134229
0.00145571
0.00156217
0.00165897
0.00172874
0.00174241
0.00168704
0.00154965
0.00133707
0.00111743
0.000901177
0.000432086
9.82562e-05
8.13239e-06
3.1542e-07
1.08907e-07
1.1621e-07
1.22733e-07
1.28997e-07
1.41262e-09
5.19178e-09
6.9669e-08
4.39704e-07
1.6627e-06
4.52284e-06
9.76332e-06
1.77981e-05
2.86796e-05
4.22606e-05
5.77711e-05
7.52e-05
9.54105e-05
0.000118814
0.000145634
0.000176128
0.000210637
0.000249469
0.000292884
0.000341066
0.000394076
0.000451527
0.000512712
0.000579834
0.000653706
0.000734369
0.000821533
0.000914718
0.0010143
0.00112062
0.0012315
0.00134622
0.00146426
0.00157837
0.00168145
0.00176916
0.00180862
0.00178748
0.00168966
0.00150772
0.00127688
0.00108736
0.000737207
0.000277323
4.8676e-05
3.16903e-06
1.72437e-07
1.08654e-07
1.16665e-07
1.23583e-07
1.25278e-07
1.40397e-09
5.15234e-09
6.92211e-08
4.37569e-07
1.65767e-06
4.51777e-06
9.7652e-06
1.78217e-05
2.8732e-05
4.23431e-05
5.78706e-05
7.52864e-05
9.54425e-05
0.000118755
0.000145508
0.000175988
0.000210459
0.000249256
0.000292742
0.000341086
0.000394306
0.000451907
0.000513342
0.000580301
0.000653569
0.000733993
0.000821524
0.000915735
0.00101595
0.00112239
0.00123517
0.00135159
0.00147036
0.00159026
0.00170266
0.00179895
0.0018629
0.00186982
0.0018088
0.00166417
0.00144615
0.00122635
0.00102199
0.000549879
0.000160358
2.15596e-05
1.18553e-06
1.25376e-07
1.08873e-07
1.178e-07
1.30736e-07
1.17892e-07
1.39581e-09
5.11517e-09
6.87103e-08
4.3502e-07
1.65053e-06
4.50612e-06
9.75674e-06
1.78267e-05
2.87688e-05
4.24173e-05
5.79784e-05
7.54159e-05
9.5561e-05
0.000118808
0.000145451
0.000175846
0.000210316
0.000249082
0.000292509
0.000340973
0.00039437
0.000452149
0.000513834
0.000581083
0.000654193
0.000733977
0.000821296
0.000915985
0.00101744
0.00112475
0.00123788
0.00135668
0.00147777
0.00159918
0.00171878
0.00182635
0.00190673
0.00193878
0.00190876
0.00180207
0.00161174
0.00137889
0.0011917
0.000841186
0.000364363
8.35236e-05
8.73393e-06
4.62993e-07
1.10726e-07
1.09906e-07
1.19387e-07
1.35026e-07
1.16438e-07
1.38777e-09
5.08065e-09
6.82379e-08
4.32091e-07
1.64192e-06
4.48918e-06
9.73548e-06
1.78148e-05
2.87791e-05
4.2471e-05
5.8079e-05
7.55548e-05
9.57285e-05
0.000118956
0.00014552
0.000175786
0.000210157
0.000248922
0.000292338
0.000340748
0.000394267
0.000452235
0.000514166
0.000581715
0.000655166
0.0007348
0.00082145
0.000915973
0.00101805
0.00112685
0.00124115
0.00136061
0.00148467
0.0016092
0.00173132
0.00184779
0.0019452
0.00199662
0.00199388
0.0019209
0.00176499
0.00154113
0.00132513
0.0011145
0.000634518
0.000217055
3.82838e-05
3.30429e-06
2.1543e-07
1.06696e-07
1.11884e-07
1.18813e-07
1.32321e-07
1.16053e-07
1.38106e-09
5.04863e-09
6.7803e-08
4.29363e-07
1.63192e-06
4.4685e-06
9.70387e-06
1.77822e-05
2.87646e-05
4.2488e-05
5.81482e-05
7.56851e-05
9.59163e-05
0.000119173
0.000145717
0.000175883
0.000210113
0.000248758
0.00029219
0.000340565
0.000394065
0.000452151
0.000514324
0.000582162
0.000655967
0.000736006
0.000822524
0.000916364
0.00101835
0.00112794
0.00124405
0.00136504
0.0014902
0.00161842
0.00174465
0.00186494
0.00197465
0.00204696
0.00206646
0.00202369
0.00190183
0.00170089
0.00146811
0.00128618
0.000913951
0.000424523
0.000116509
1.56559e-05
1.20337e-06
1.36292e-07
1.06518e-07
1.12546e-07
1.18076e-07
1.3026e-07
1.15862e-07
1.37514e-09
5.02051e-09
6.73911e-08
4.26838e-07
1.62256e-06
4.44435e-06
9.66493e-06
1.77326e-05
2.872e-05
4.24716e-05
5.81738e-05
7.57778e-05
9.60769e-05
0.000119415
0.000145996
0.00017613
0.000210257
0.00024873
0.000292023
0.000340435
0.000393871
0.000451966
0.000514281
0.000582411
0.000656558
0.000737017
0.000824015
0.000917753
0.00101905
0.00112867
0.00124579
0.00136898
0.00149612
0.00162598
0.00175678
0.00188242
0.00199757
0.00208903
0.00212986
0.00211241
0.00202306
0.00185082
0.00162077
0.00141356
0.00117495
0.000687225
0.000254702
5.44813e-05
5.92346e-06
4.56243e-07
1.13239e-07
1.06591e-07
1.12804e-07
1.17732e-07
1.2807e-07
1.15725e-07
1.37021e-09
4.99677e-09
6.703e-08
4.24486e-07
1.61407e-06
4.42172e-06
9.61909e-06
1.7671e-05
2.86508e-05
4.24152e-05
5.81623e-05
7.58151e-05
9.61973e-05
0.000119623
0.000146291
0.000176482
0.000210551
0.000248935
0.000291999
0.00034028
0.000393743
0.00045181
0.000514124
0.000582426
0.000656924
0.000737786
0.000825287
0.000919594
0.00102084
0.0011298
0.00124709
0.00137159
0.00150138
0.0016338
0.00176693
0.00189816
0.00202021
0.00212463
0.00218433
0.00219052
0.00212926
0.0019885
0.00177415
0.00154513
0.00136989
0.000948585
0.00045893
0.000137588
2.24141e-05
2.11738e-06
2.08842e-07
1.06834e-07
1.06771e-07
1.13012e-07
1.17407e-07
1.25954e-07
1.15624e-07
1.36648e-09
4.97762e-09
6.67321e-08
4.22399e-07
1.60596e-06
4.40106e-06
9.57637e-06
1.75982e-05
2.8564e-05
4.23256e-05
5.80985e-05
7.58038e-05
9.62476e-05
0.000119785
0.00014656
0.000176855
0.000210963
0.000249298
0.000292237
0.000340245
0.000393606
0.000451686
0.000513992
0.000582311
0.000657016
0.0007383
0.000826277
0.000921188
0.00102312
0.00113209
0.00124879
0.00137365
0.00150512
0.00164075
0.00177715
0.00191159
0.00204043
0.00215509
0.00223194
0.00225816
0.00222365
0.00211181
0.00192205
0.00168787
0.00149342
0.00120204
0.000697702
0.000272403
6.42602e-05
8.39935e-06
7.51447e-07
1.32906e-07
1.04952e-07
1.0707e-07
1.13555e-07
1.18161e-07
1.22719e-07
1.15551e-07
1.36382e-09
4.96335e-09
6.64921e-08
4.20639e-07
1.5987e-06
4.38155e-06
9.5376e-06
1.75305e-05
2.84615e-05
4.22136e-05
5.79952e-05
7.57306e-05
9.62358e-05
0.000119846
0.000146763
0.000177177
0.000211419
0.000249785
0.000292708
0.00034052
0.000393595
0.000451535
0.000513896
0.000582216
0.000656964
0.000738499
0.000826981
0.000922458
0.00102511
0.00113489
0.0012517
0.00137609
0.00150819
0.00164594
0.00178623
0.00192482
0.00205795
0.00218081
0.00227356
0.002318
0.00230608
0.00222322
0.00205853
0.00183389
0.0016173
0.0014381
0.000946172
0.00045701
0.000144686
2.6143e-05
2.94898e-06
2.97125e-07
1.10985e-07
1.04298e-07
1.07903e-07
1.14187e-07
1.26321e-07
1.16531e-07
1.15498e-07
1.36233e-09
4.95441e-09
6.63227e-08
4.19284e-07
1.5928e-06
4.36399e-06
9.50064e-06
1.74694e-05
2.8367e-05
4.20808e-05
5.78655e-05
7.56071e-05
9.61551e-05
0.000119836
0.000146849
0.00017741
0.000211817
0.000250327
0.000293326
0.000341092
0.000393932
0.000451611
0.000513763
0.000582157
0.000656919
0.000738526
0.000827319
0.000923401
0.00102673
0.00113738
0.00125517
0.00137978
0.00151159
0.00165032
0.00179329
0.00193659
0.00207493
0.00220342
0.00231007
0.00237126
0.00237928
0.00232186
0.00218526
0.00197511
0.00174442
0.00156472
0.00119361
0.000672578
0.00026522
6.59008e-05
9.62819e-06
1.00866e-06
1.56679e-07
1.04946e-07
1.04172e-07
1.09206e-07
1.14319e-07
1.29526e-07
1.12338e-07
1.1546e-07
1.36181e-09
4.95006e-09
6.62097e-08
4.1833e-07
1.58815e-06
4.34944e-06
9.46717e-06
1.74109e-05
2.82818e-05
4.19586e-05
5.77117e-05
7.54491e-05
9.6005e-05
0.000119752
0.000146848
0.000177541
0.00021212
0.000250828
0.000293979
0.000341831
0.000394583
0.000452026
0.00051389
0.000582053
0.000656914
0.000738558
0.000827461
0.000923922
0.00102797
0.00113943
0.00125826
0.00138406
0.00151626
0.00165497
0.00179936
0.00194602
0.00209005
0.00222503
0.00234255
0.00241848
0.00244503
0.00241001
0.00229984
0.0021116
0.00187815
0.00167903
0.00142775
0.000907159
0.000426245
0.000135791
2.59682e-05
3.3151e-06
3.69879e-07
1.16441e-07
1.03346e-07
1.04688e-07
1.10128e-07
1.15878e-07
1.26126e-07
1.11301e-07
1.15433e-07
1.36193e-09
4.95003e-09
6.61748e-08
4.17736e-07
1.58496e-06
4.33843e-06
9.44001e-06
1.7358e-05
2.81998e-05
4.18487e-05
5.7569e-05
7.52627e-05
9.58157e-05
0.000119566
0.000146739
0.000177551
0.000212278
0.000251214
0.000294568
0.000342626
0.000395413
0.000452735
0.000514398
0.000582244
0.000656852
0.000738626
0.000827594
0.000924219
0.00102873
0.00114106
0.00126086
0.00138791
0.00152155
0.00166085
0.00180562
0.00195425
0.00210246
0.00224429
0.00237187
0.00246094
0.00250361
0.00248958
0.00240372
0.00223837
0.0020133
0.00179512
0.00162184
0.00114808
0.000615948
0.000239615
5.87956e-05
9.2732e-06
1.10477e-06
1.75252e-07
1.05569e-07
1.03164e-07
1.05503e-07
1.12106e-07
1.15365e-07
1.23194e-07
1.10769e-07
1.15415e-07
1.36267e-09
4.95255e-09
6.61939e-08
4.17564e-07
1.58298e-06
4.331e-06
9.41944e-06
1.73154e-05
2.81265e-05
4.17441e-05
5.74447e-05
7.5097e-05
9.55909e-05
0.00011934
0.000146541
0.000177416
0.000212302
0.000251405
0.000295031
0.000343329
0.000396345
0.000453606
0.000515241
0.000582861
0.000657119
0.000738621
0.000827762
0.000924488
0.00102923
0.00114213
0.00126296
0.00139118
0.00152632
0.00166738
0.001813
0.00196256
0.00211344
0.00226044
0.00239619
0.00249983
0.00255661
0.00256076
0.00249825
0.00235634
0.00214425
0.00191289
0.00173217
0.00137608
0.000838394
0.000373397
0.00011609
2.21278e-05
3.09397e-06
3.91232e-07
1.20332e-07
1.03013e-07
1.03251e-07
1.07224e-07
1.12687e-07
1.15292e-07
1.18112e-07
1.10471e-07
1.15405e-07
1.36301e-09
4.95648e-09
6.62405e-08
4.17724e-07
1.58262e-06
4.32653e-06
9.40569e-06
1.72835e-05
2.80677e-05
4.16499e-05
5.73284e-05
7.49479e-05
9.53888e-05
0.000119076
0.000146276
0.000177204
0.000212169
0.000251459
0.000295288
0.000343899
0.000397176
0.000454585
0.000516257
0.000583858
0.000657869
0.000738988
0.000827839
0.00092479
0.00102968
0.0011429
0.00126443
0.00139388
0.00153043
0.00167331
0.00182106
0.00197176
0.00212435
0.00227485
0.00241699
0.0025341
0.00260525
0.00262545
0.00258329
0.0024653
0.00227111
0.002037
0.00183885
0.00158798
0.00105599
0.000543274
0.000200562
4.71065e-05
7.59082e-06
1.0026e-06
1.78644e-07
1.06146e-07
1.02423e-07
1.04306e-07
1.08646e-07
1.1317e-07
1.24162e-07
1.10555e-07
1.10312e-07
1.154e-07
1.36406e-09
4.96017e-09
6.63054e-08
4.18074e-07
1.58346e-06
4.326e-06
9.39801e-06
1.72626e-05
2.80245e-05
4.15759e-05
5.7226e-05
7.48055e-05
9.52152e-05
0.000118826
0.000145969
0.000176904
0.000211925
0.000251344
0.000295366
0.000344241
0.000397839
0.000455444
0.000517404
0.000585044
0.000659043
0.000739891
0.000828329
0.000924978
0.00103016
0.00114358
0.00126554
0.00139586
0.00153389
0.00167845
0.0018284
0.00198172
0.00213582
0.00228884
0.00243567
0.00256483
0.00264908
0.00268479
0.00266098
0.0025644
0.00239044
0.00216241
0.00194802
0.00177209
0.00127552
0.000725801
0.000310504
9.02659e-05
1.68346e-05
2.44304e-06
3.51441e-07
1.20383e-07
1.02731e-07
1.03049e-07
1.04964e-07
1.09749e-07
1.13353e-07
1.24367e-07
1.08032e-07
1.10221e-07
1.15397e-07
1.36499e-09
4.96513e-09
6.6367e-08
4.18495e-07
1.58478e-06
4.32841e-06
9.39787e-06
1.72521e-05
2.79973e-05
4.15224e-05
5.71471e-05
7.46849e-05
9.50502e-05
0.000118625
0.000145689
0.000176545
0.00021158
0.000251063
0.00029526
0.000344326
0.00039823
0.00045613
0.000518408
0.000586379
0.000660423
0.000741272
0.000829415
0.000925621
0.0010305
0.00114429
0.00126655
0.00139742
0.00153651
0.00168285
0.00183484
0.0019908
0.00214813
0.00230345
0.0024535
0.00259216
0.00268903
0.0027386
0.00273244
0.00265587
0.00250108
0.0022833
0.00205689
0.00187779
0.00148577
0.000926432
0.000443701
0.000154049
3.41588e-05
5.52163e-06
7.75507e-07
1.65018e-07
1.05778e-07
1.02545e-07
1.03375e-07
1.05878e-07
1.1065e-07
1.13584e-07
1.20833e-07
1.07186e-07
1.1017e-07
1.15395e-07
1.36501e-09
4.96962e-09
6.64387e-08
4.18921e-07
1.58638e-06
4.33223e-06
9.40365e-06
1.72532e-05
2.79838e-05
4.1489e-05
5.70927e-05
7.45974e-05
9.4904e-05
0.000118444
0.000145445
0.000176237
0.000211165
0.000250669
0.000294948
0.000344195
0.00039834
0.000456503
0.00051922
0.000587554
0.000661976
0.000742879
0.000831035
0.000926927
0.00103134
0.00114483
0.00126756
0.00139883
0.00153865
0.00168629
0.0018404
0.00199883
0.00215934
0.00231847
0.00247181
0.00261473
0.00272528
0.00278786
0.00279729
0.00274057
0.00260533
0.0023995
0.00216723
0.00197726
0.00168429
0.00112562
0.000598031
0.000238861
6.30705e-05
1.15393e-05
1.71235e-06
2.79451e-07
1.16055e-07
1.02915e-07
1.0277e-07
1.0388e-07
1.0692e-07
1.11524e-07
1.14639e-07
1.13111e-07
1.06741e-07
1.10144e-07
1.15395e-07
1.36642e-09
4.97153e-09
6.65026e-08
4.1938e-07
1.58804e-06
4.33652e-06
9.41172e-06
1.72642e-05
2.79885e-05
4.14762e-05
5.70637e-05
7.45362e-05
9.47989e-05
0.000118269
0.000145228
0.000175952
0.000210804
0.000250198
0.000294509
0.000343864
0.000398214
0.000456656
0.000519671
0.000588508
0.000663346
0.000744677
0.000832904
0.000928829
0.0010329
0.00114591
0.00126835
0.00140024
0.00154058
0.00168917
0.00184487
0.00200583
0.00216933
0.00233227
0.00249016
0.00263749
0.00275785
0.00283299
0.00285695
0.00281776
0.00270289
0.00251234
0.0022798
0.00207623
0.00187195
0.0013304
0.000759725
0.000339595
0.000107011
2.21758e-05
3.60218e-06
5.40383e-07
1.44001e-07
1.04725e-07
1.02564e-07
1.03197e-07
1.04397e-07
1.08497e-07
1.12232e-07
1.22067e-07
1.06431e-07
1.06511e-07
1.10132e-07
1.15395e-07
1.36626e-09
4.97816e-09
6.65339e-08
4.19784e-07
1.58975e-06
4.34104e-06
9.42076e-06
1.72786e-05
2.80068e-05
4.14861e-05
5.70569e-05
7.45039e-05
9.47327e-05
0.000118138
0.00014504
0.000175687
0.000210491
0.000249767
0.000293977
0.000343387
0.000397874
0.00045652
0.000519872
0.000589053
0.000664466
0.000746274
0.000834986
0.000930998
0.00103513
0.00114779
0.00126974
0.00140136
0.0015425
0.00169177
0.00184868
0.00201161
0.00217813
0.00234466
0.00250709
0.00265988
0.00278871
0.00287479
0.00291173
0.00288899
0.00279254
0.00261912
0.00239237
0.00217542
0.00199791
0.00152952
0.000942394
0.000455827
0.000165799
3.96348e-05
7.05897e-06
1.0805e-06
2.10228e-07
1.10514e-07
1.02561e-07
1.02768e-07
1.0345e-07
1.05412e-07
1.10059e-07
1.12611e-07
1.20068e-07
1.04826e-07
1.06403e-07
1.10127e-07
1.15395e-07
1.36608e-09
4.97561e-09
6.66412e-08
4.20037e-07
1.59125e-06
4.34548e-06
9.42974e-06
1.7294e-05
2.80297e-05
4.1514e-05
5.70787e-05
7.45021e-05
9.47064e-05
0.000118066
0.000144898
0.000175484
0.000210191
0.000249403
0.000293481
0.000342804
0.000397357
0.000456147
0.000519751
0.000589317
0.000665124
0.000747589
0.000836844
0.000933408
0.00103765
0.0011504
0.001272
0.00140313
0.00154404
0.00169435
0.00185213
0.00201659
0.00218552
0.00235566
0.00252242
0.0026806
0.00281754
0.00291403
0.00296268
0.00295456
0.00287581
0.00271862
0.0025002
0.00227365
0.00209135
0.00171505
0.00112744
0.000590211
0.000239293
6.58655e-05
1.29436e-05
2.09609e-06
3.50738e-07
1.255e-07
1.0323e-07
1.02393e-07
1.02722e-07
1.03974e-07
1.07045e-07
1.10898e-07
1.12354e-07
1.12356e-07
1.04129e-07
1.06356e-07
1.10125e-07
1.15395e-07
1.36584e-09
4.97516e-09
6.65962e-08
4.20645e-07
1.5922e-06