/*--------------------------------*- C++ -*----------------------------------*\
| =========                 |                                                 |
| \\      /  F ield         | OpenFOAM: The Open Source CFD Toolbox           |
|  \\    /   O peration     | Version:  v2012                                 |
|   \\  /    A nd           | Website:  www.openfoam.com                      |
|    \\/     M anipulation  |                                                 |
\*---------------------------------------------------------------------------*/
FoamFile
{
    version     2.0;
    format      ascii;
    class       volScalarField;
    location    "3900";
    object      betann;
}
// * * * * * * * * * * * * * * * * * * * * * * * * * * * * * * * * * * * * * //

dimensions      [0 0 0 0 0 0 0];


internalField   nonuniform List<scalar> 
29502
(
1.0104
1.01892
1.02626
1.01846
1.0302
1.0282
1.01813
1.02872
1.03081
1.02889
1.01795
1.02818
1.02607
1.03094
1.02916
1.01786
1.02794
1.02474
1.02203
1.03091
1.02927
1.01782
1.02784
1.0242
1.01966
1.01724
1.0308
1.02931
1.01781
1.02779
1.02397
1.01872
1.01368
1.01203
1.03068
1.02931
1.01781
1.02777
1.02387
1.01832
1.01228
1.00727
1.00678
1.03054
1.0293
1.01782
1.02778
1.02385
1.01818
1.0117
1.00542
1.00097
1.00188
1.03042
1.02928
1.01784
1.02779
1.02388
1.01816
1.01151
1.00467
0.998754
0.995271
0.997586
1.0303
1.02926
1.01786
1.02781
1.02392
1.01822
1.0115
1.00444
0.997866
0.992788
0.990423
0.993995
1.0302
1.02924
1.01788
1.02783
1.02397
1.01831
1.01161
1.00444
0.9976
0.99181
0.987778
0.986463
0.991066
1.03012
1.02921
1.01789
1.02785
1.02402
1.01841
1.01175
1.00459
0.9976
0.991518
0.986747
0.983721
0.983285
0.988682
1.03005
1.02918
1.01791
1.02786
1.02406
1.0185
1.01191
1.00477
0.997781
0.991508
0.986433
0.982662
0.980485
0.980723
0.98677
1.02999
1.02915
1.01793
1.02789
1.0241
1.01857
1.01204
1.00498
0.997993
0.9917
0.986406
0.98233
0.978822
0.97647
0.977675
0.98526
1.02995
1.02912
1.01795
1.02791
1.02416
1.01864
1.01215
1.00516
0.998233
0.991921
0.986597
0.982284
0.978284
0.974792
0.973057
0.975162
0.984099
1.02992
1.02909
1.01797
1.02793
1.0242
1.01875
1.01226
1.00531
0.99844
0.992175
0.986812
0.982466
0.978182
0.974067
0.97076
0.969928
0.9732
0.983243
1.02988
1.02905
1.01798
1.02794
1.02425
1.01883
1.01242
1.00545
0.998619
0.992394
0.987065
0.982668
0.978446
0.973903
0.969964
0.967626
0.967547
0.9717
0.982666
1.02988
1.02903
1.018
1.02796
1.02428
1.01891
1.01254
1.00566
0.998783
0.992588
0.987283
0.982912
0.978737
0.974233
0.969769
0.966804
0.965238
0.965762
0.970586
0.982349
1.02992
1.02903
1.01801
1.02798
1.02432
1.01896
1.01265
1.00581
0.999027
0.992765
0.987481
0.983123
0.979098
0.974593
0.970071
0.966583
0.964389
0.963439
0.96446
0.969793
0.982302
1.03
1.02908
1.01802
1.02799
1.02436
1.01903
1.01273
1.00596
0.999206
0.993026
0.987662
0.983319
0.979409
0.974964
0.9704
0.966862
0.964149
0.962564
0.962106
0.963559
0.969279
0.982574
1.03009
1.02918
1.01803
1.02801
1.02439
1.0191
1.01283
1.00607
0.999381
0.993217
0.987925
0.983497
0.979705
0.97526
0.970826
0.967162
0.964407
0.962308
0.961207
0.961146
0.963001
0.969039
0.983234
1.0302
1.02939
1.01805
1.02802
1.02442
1.01915
1.01294
1.00619
0.999506
0.993405
0.988118
0.983756
0.979974
0.975548
0.971187
0.967565
0.964684
0.962547
0.960936
0.960223
0.96049
0.96274
0.96908
0.984355
1.0303
1.02971
1.01806
1.02803
1.02444
1.0192
1.01302
1.00633
0.999652
0.993541
0.98831
0.983945
0.980362
0.97581
0.971546
0.967906
0.965066
0.962804
0.961159
0.959938
0.959543
0.960089
0.962743
0.969415
0.985967
1.03037
1.03018
1.01807
1.02804
1.02447
1.01925
1.01308
1.00643
0.999817
0.993701
0.988451
0.984135
0.980588
0.976188
0.971878
0.968252
0.965389
0.963171
0.9614
0.960146
0.959236
0.959108
0.959907
0.962991
0.970069
0.988039
1.03041
1.031
1.01808
1.02805
1.02449
1.01929
1.01315
1.00651
0.999929
0.993877
0.988616
0.984277
0.980773
0.976462
0.972362
0.968571
0.965724
0.963479
0.961753
0.960373
0.95943
0.958774
0.958875
0.95992
0.963476
0.971081
0.990626
1.03043
1.03248
1.01809
1.02807
1.02452
1.01933
1.01321
1.00661
1.00003
0.993997
0.988796
0.984443
0.980916
0.976743
0.972699
0.969039
0.966033
0.963803
0.962048
0.960714
0.959645
0.958955
0.958508
0.958813
0.960116
0.963769
0.97252
0.993783
1.03042
1.03602
1.0181
1.02808
1.02455
1.01937
1.01326
1.00668
1.00014
0.994104
0.988919
0.984621
0.981081
0.976963
0.973051
0.969363
0.966488
0.964103
0.962362
0.960997
0.959976
0.959158
0.958671
0.958404
0.958904
0.960496
0.964291
0.974496
0.997608
1.0304
1.04589
1.0181
1.02809
1.02457
1.01942
1.01333
1.00675
1.00022
0.994222
0.989029
0.984744
0.981256
0.977216
0.97333
0.969703
0.966799
0.964548
0.962656
0.961305
0.960249
0.959478
0.95886
0.958543
0.958442
0.959139
0.96107
0.96509
0.977161
1.00213
1.03037
1.0317
1.01811
1.02809
1.02459
1.01946
1.0134
1.00683
1.0003
0.994318
0.989152
0.984855
0.981377
0.977483
0.973659
0.969979
0.96713
0.96485
0.963092
0.961592
0.96055
0.959742
0.959172
0.958715
0.958545
0.958607
0.959515
0.96173
0.966243
0.980701
1.00726
1.03034
1.00415
1.01812
1.0281
1.0246
1.01948
1.01345
1.00692
1.0004
0.994404
0.989251
0.984979
0.981488
0.977667
0.974
0.970302
0.9674
0.965171
0.963386
0.962022
0.960833
0.960037
0.959426
0.959014
0.958693
0.958663
0.958893
0.960043
0.962263
0.967837
0.983677
1.01274
1.0303
0.990711
1.01812
1.0281
1.02461
1.0195
1.01349
1.00699
1.0005
0.994509
0.989341
0.98508
0.981611
0.977839
0.97423
0.970635
0.96772
0.965438
0.963701
0.96231
0.961258
0.960315
0.959715
0.95926
0.958978
0.958782
0.958894
0.9593
0.96074
0.96303
0.969979
0.987135
1.01801
1.03027
0.99055
1.01813
1.02811
1.02462
1.01952
1.01351
1.00704
1.00058
0.994616
0.98945
0.985171
0.981711
0.978028
0.974448
0.970859
0.968046
0.965755
0.963964
0.962618
0.96154
0.960737
0.959988
0.959541
0.959213
0.95905
0.958978
0.959239
0.959834
0.961262
0.964096
0.972791
0.991176
1.02241
1.03024
0.995323
1.01814
1.02812
1.02464
1.01955
1.01354
1.00706
1.00063
0.994707
0.989561
0.985282
0.981804
0.978184
0.974644
0.971075
0.968266
0.966075
0.964279
0.962879
0.961843
0.961014
0.960406
0.959809
0.959485
0.95927
0.959224
0.95928
0.9597
0.96051
0.961884
0.965548
0.976435
0.995899
1.0256
1.03022
1.00146
1.01815
1.02813
1.02466
1.01957
1.01357
1.0071
1.00067
0.994763
0.989654
0.985393
0.981915
0.978328
0.9748
0.971316
0.968478
0.966291
0.964595
0.963191
0.962102
0.961312
0.960681
0.960222
0.959747
0.959533
0.959428
0.959498
0.959687
0.960282
0.960953
0.962729
0.967513
0.981013
1.00138
1.02771
1.0302
1.01405
1.01816
1.02814
1.02468
1.0196
1.01361
1.00714
1.00071
0.9948
0.989712
0.985487
0.982025
0.978499
0.974945
0.971516
0.968718
0.966501
0.964807
0.963504
0.962413
0.961568
0.960975
0.960494
0.960154
0.959788
0.959679
0.959682
0.959869
0.960202
0.960757
0.961524
0.963867
0.970139
0.9848
1.00742
1.02904
1.03017
1.03083
1.01817
1.02815
1.0247
1.01964
1.01365
1.00719
1.00076
0.994848
0.989753
0.985545
0.982119
0.978669
0.975116
0.971702
0.968917
0.966739
0.965016
0.963714
0.962722
0.961879
0.961228
0.960785
0.960424
0.960187
0.959925
0.959918
0.960028
0.96034
0.960688
0.961198
0.962281
0.965387
0.973596
0.989166
1.01347
1.02984
1.03015
1.04505
1.01817
1.02816
1.02472
1.01967
1.0137
1.00724
1.00081
0.994902
0.989804
0.985589
0.982179
0.978814
0.975285
0.971923
0.969102
0.966937
0.965252
0.96392
0.962929
0.962185
0.961536
0.961034
0.960711
0.960454
0.960316
0.960152
0.960245
0.960467
0.960785
0.961066
0.961765
0.963277
0.967417
0.978044
0.99418
1.01868
1.03028
1.03013
1.03989
1.01818
1.02816
1.02473
1.01969
1.01374
1.0073
1.00087
0.994963
0.989862
0.985644
0.982225
0.978909
0.975429
0.972144
0.969323
0.967123
0.965449
0.964156
0.963135
0.962391
0.961842
0.96134
0.960957
0.960736
0.960578
0.960533
0.960465
0.96066
0.960882
0.961118
0.961542
0.962496
0.964589
0.97012
0.98266
0.999912
1.02264
1.03048
1.03012
1.04164
1.01818
1.02817
1.02475
1.01972
1.01378
1.00735
1.00094
0.995028
0.989926
0.985704
0.982282
0.978985
0.975526
0.972329
0.969542
0.967343
0.965636
0.964353
0.96337
0.962595
0.962046
0.961644
0.961259
0.960978
0.960856
0.96079
0.960833
0.960863
0.961033
0.961181
0.961542
0.962132
0.963437
0.966323
0.973689
0.987
1.00624
1.02543
1.03056
1.03011
1.0186
1.01818
1.02817
1.02476
1.01974
1.01382
1.0074
1.001
0.995097
0.989994
0.985771
0.982344
0.979076
0.975605
0.972452
0.969725
0.96756
0.965856
0.96454
0.963567
0.962829
0.962248
0.961846
0.96156
0.961276
0.961092
0.961061
0.961083
0.961214
0.961188
0.961307
0.961564
0.962063
0.962871
0.964655
0.968622
0.978324
0.991953
1.01261
1.0274
1.03058
1.03011
0.9979
1.01819
1.02817
1.02476
1.01976
1.01385
1.00745
1.00105
0.995161
0.990065
0.985841
0.982412
0.979177
0.975699
0.972553
0.96985
0.967743
0.966071
0.964759
0.963754
0.963026
0.962481
0.962046
0.961761
0.961574
0.961386
0.961291
0.961347
0.961455
0.961451
0.961442
0.961658
0.962038
0.962694
0.963805
0.966244
0.971673
0.982984
0.997596
1.01803
1.02881
1.03058
1.03013
0.989113
1.01819
1.02817
1.02476
1.01977
1.01387
1.00749
1.00111
0.99522
0.990131
0.985912
0.982484
0.979283
0.975803
0.972678
0.969955
0.967869
0.966254
0.964974
0.963973
0.963213
0.962678
0.962278
0.961959
0.961774
0.961681
0.96158
0.96157
0.961683
0.96164
0.961688
0.961769
0.962094
0.962609
0.963465
0.964998
0.968335
0.975693
0.987469
1.00395
1.02211
1.02969
1.03058
1.03014
0.988485
1.01819
1.02818
1.02476
1.01977
1.01388
1.00751
1.00115
0.99528
0.990192
0.985978
0.982555
0.979396
0.975912
0.972817
0.970082
0.967977
0.966382
0.965157
0.964188
0.963432
0.962864
0.962475
0.962189
0.961969
0.961878
0.961871
0.961852
0.961858
0.961839
0.961867
0.961993
0.962173
0.96262
0.96329
0.964424
0.966539
0.971103
0.98088
0.99259
1.01059
1.02505
1.03025
1.03059
1.03014
0.988447
1.01819
1.02818
1.02476
1.01977
1.01388
1.00752
1.00118
0.995327
0.990252
0.986039
0.982621
0.979507
0.976025
0.972964
0.970224
0.968107
0.966491
0.965286
0.964372
0.963648
0.963083
0.96266
0.962384
0.962197
0.962071
0.962064
0.962138
0.962073
0.962006
0.962055
0.962157
0.96237
0.962663
0.963246
0.964112
0.965635
0.96855
0.974765
0.985038
0.998427
1.0164
1.02714
1.03056
1.03059
1.03016
0.988415
1.0182
1.02818
1.02477
1.01977
1.01388
1.00752
1.00119
0.995356
0.9903
0.986099
0.982682
0.979608
0.976136
0.973114
0.970373
0.968252
0.966624
0.965398
0.964502
0.963832
0.963298
0.962877
0.962568
0.962391
0.962296
0.962254
0.962327
0.962293
0.962215
0.962213
0.962334
0.962516
0.962826
0.963245
0.963985
0.965124
0.967185
0.971198
0.979544
0.98983
1.00496
1.02089
1.02881
1.0307
1.03059
1.0302
0.988386
1.0182
1.02819
1.02477
1.01977
1.01388
1.00752
1.00119
0.995368
0.990331
0.986148
0.982742
0.979702
0.976237
0.973258
0.970523
0.968402
0.966772
0.965534
0.964615
0.963964
0.963483
0.963092
0.962784
0.962574
0.962488
0.962477
0.962513
0.962443
0.962428
0.962413
0.96248
0.962677
0.962949
0.963369
0.963928
0.964871
0.966392
0.969194
0.974692
0.983896
0.99534
1.01165
1.02421
1.02962
1.03076
1.03059
1.0303
0.988376
1.01821
1.02819
1.02478
1.01978
1.01388
1.00752
1.00119
0.99537
0.990346
0.98618
0.982791
0.979796
0.976331
0.97339
0.970667
0.968554
0.966924
0.965683
0.964753
0.964079
0.963616
0.963278
0.962998
0.962788
0.96267
0.962667
0.96269
0.96259
0.962574
0.96262
0.962669
0.96281
0.96309
0.963462
0.964008
0.964732
0.965957
0.968003
0.971822
0.979283
0.9885
1.00162
1.0173
1.0266
1.03024
1.03077
1.03059
1.0306
0.988561
1.01821
1.0282
1.0248
1.0198
1.0139
1.00752
1.00119
0.995368
0.99035
0.986197
0.982824
0.979871
0.976424
0.973511
0.970799
0.968698
0.967076
0.965837
0.964904
0.964217
0.963733
0.963413
0.963185
0.963002
0.962883
0.962848
0.962838
0.962759
0.962717
0.96276
0.962867
0.962985
0.963205
0.963579
0.964067
0.964753
0.965694
0.96731
0.970078
0.975299
0.983619
0.993781
1.00847
1.02155
1.02833
1.0306
1.03078
1.03059
1.03163
0.991165
1.01822
1.02821
1.02481
1.01982
1.01391
1.00754
1.0012
0.995371
0.990351
0.986205
0.982843
0.979925
0.9765
0.973631
0.970921
0.96883
0.967221
0.965989
0.965059
0.964369
0.963871
0.963529
0.963321
0.963189
0.963096
0.963058
0.962978
0.962905
0.962882
0.962898
0.963001
0.963172
0.963364
0.963673
0.964152
0.964769
0.965626
0.96687
0.969021
0.972798
0.979878
0.988127
0.999868
1.01484
1.0247
1.02946
1.03078
1.03078
1.03059
1.03845
1.0177
1.01823
1.02821
1.02483
1.01984
1.01394
1.00756
1.00122
0.995381
0.990358
0.98621
0.982855
0.979958
0.976556
0.973726
0.97104
0.968952
0.967353
0.966134
0.965212
0.964525
0.964024
0.963667
0.963438
0.963326
0.963283
0.96327
0.963139
0.963043
0.963026
0.963059
0.963133
0.963298
0.963537
0.963811
0.964219
0.964819
0.965582
0.966672
0.968333
0.971229
0.976389
0.983986
0.993315
1.00668
1.01982
1.02699
1.03016
1.03085
1.03079
1.03059
1.02482
1.03202
1.01823
1.02822
1.02485
1.01987
1.01398
1.0076
1.00124
0.995405
0.990372
0.98622
0.982863
0.979982
0.976592
0.973797
0.971135
0.96907
0.967476
0.966268
0.965357
0.964679
0.96418
0.96382
0.963575
0.963443
0.963421
0.963442
0.963301
0.963201
0.963161
0.963199
0.963288
0.963422
0.963652
0.963967
0.964334
0.964855
0.965588
0.966538
0.967951
0.970187
0.974114
0.981017
0.988477
0.999343
1.01343
1.02345
1.02859
1.03059
1.03088
1.03079
1.0306
0.99321
1.02841
1.01824
1.02823
1.02486
1.0199
1.01402
1.00764
1.00129
0.995436
0.990398
0.986238
0.982878
0.979999
0.976621
0.973844
0.971207
0.969165
0.967594
0.96639
0.965491
0.964824
0.964335
0.963977
0.963728
0.963581
0.963538
0.963551
0.963446
0.963361
0.963317
0.963331
0.963424
0.963571
0.963769
0.96407
0.964468
0.96494
0.965586
0.96648
0.967686
0.969546
0.972576
0.977908
0.984863
0.993662
1.00615
1.01885
1.02612
1.02964
1.03081
1.03088
1.03078
1.0306
0.992431
1.02817
1.01824
1.02824
1.02488
1.01993
1.01406
1.00769
1.00134
0.995483
0.990432
0.986268
0.982899
0.980028
0.976644
0.973882
0.971258
0.969239
0.96769
0.966509
0.965615
0.964959
0.96448
0.964131
0.963884
0.963733
0.963676
0.963646
0.963556
0.963505
0.963474
0.963484
0.963552
0.963701
0.963909
0.964176
0.964556
0.965049
0.965637
0.966428
0.967534
0.969095
0.971572
0.975698
0.982168
0.98942
0.999718
1.01308
1.02275
1.02802
1.0303
1.03091
1.03089
1.03079
1.03062
0.992349
1.02813
1.01825
1.02824
1.02489
1.01995
1.0141
1.00775
1.00139
0.995537
0.990482
0.986304
0.982932
0.980067
0.976677
0.973917
0.971302
0.969292
0.967765
0.966605
0.965734
0.965083
0.964615
0.964276
0.964039
0.963889
0.963828
0.963753
0.963651
0.963615
0.963617
0.963638
0.963701
0.963824
0.964032
0.964306
0.964648
0.965117
0.965719
0.966437
0.967409
0.968808
0.97086
0.974192
0.979804
0.986177
0.994714
1.00657
1.01868
1.02563
1.02929
1.03069
1.03094
1.03089
1.03079
1.03069
0.992498
1.02811
1.01825
1.02825
1.0249
1.01997
1.01413
1.00779
1.00145
0.995596
0.990537
0.986356
0.982971
0.980122
0.976722
0.973968
0.971342
0.969342
0.967821
0.966682
0.96583
0.965203
0.964739
0.964412
0.964183
0.964043
0.963983
0.96387
0.963757
0.96371
0.963726
0.963779
0.963851
0.963968
0.964149
0.964421
0.964766
0.965194
0.965763
0.966486
0.967361
0.968581
0.970383
0.973113
0.977624
0.983626
0.990864
1.00093
1.01352
1.02266
1.02771
1.0301
1.03088
1.03095
1.03089
1.03079
1.03112
0.994102
1.0281
1.01825
1.02825
1.02491
1.01999
1.01416
1.00784
1.00151
0.995661
0.990598
0.986411
0.983024
0.980185
0.976781
0.974035
0.9714
0.969387
0.967873
0.96674
0.965907
0.965299
0.96486
0.964536
0.964319
0.964188
0.964137
0.963988
0.963873
0.963815
0.963821
0.963887
0.963989
0.964113
0.964287
0.96453
0.96487
0.965296
0.965821
0.966503
0.967363
0.968449
0.970011
0.972367
0.976039
0.981694
0.987848
0.996348
1.00795
1.01912
1.02559
1.02911
1.03058
1.03097
1.03095
1.03089
1.03079
1.03932
1.01017
1.0281
1.01826
1.02825
1.02492
1.02001
1.01419
1.00788
1.00156
0.995717
0.990662
0.986472
0.983079
0.980268
0.976847
0.974109
0.971472
0.969449
0.967922
0.966795
0.965967
0.965376
0.964956
0.964657
0.964444
0.964323
0.964271
0.964104
0.96399
0.96393
0.963925
0.963981
0.964096
0.964248
0.964426
0.96466
0.96497
0.965387
0.965904
0.966536
0.967345
0.968385
0.969764
0.971791
0.974916
0.979876
0.985404
0.99273
1.00283
1.0148
1.02304
1.02771
1.03
1.03085
1.03099
1.03095
1.03089
1.03079
1.01096
1.04695
1.02809
1.01826
1.02825
1.02492
1.02002
1.01421
1.00791
1.0016
0.995766
0.990718
0.986534
0.983139
0.980354
0.976931
0.974176
0.971562
0.969525
0.967988
0.966846
0.966025
0.965438
0.965034
0.964755
0.964565
0.964449
0.964374
0.964212
0.964105
0.964046
0.964038
0.964084
0.964188
0.964352
0.964556
0.964791
0.96509
0.965475
0.96598
0.966599
0.96735
0.968316
0.969604
0.971381
0.97405
0.978241
0.983475
0.989824
0.998497
1.01002
1.02012
1.0259
1.02913
1.03054
1.03097
1.031
1.03095
1.03089
1.0308
0.996067
1.03181
1.02809
1.01826
1.02826
1.02493
1.02003
1.01423
1.00794
1.00164
0.995812
0.990766
0.986588
0.983199
0.980444
0.977017
0.974263
0.971657
0.96962
0.968069
0.966917
0.966079
0.965498
0.965096
0.964833
0.964664
0.96457
0.96447
0.964315
0.964212
0.96416
0.964153
0.964195
0.96429
0.964443
0.964658
0.964916
0.965213
0.965584
0.966053
0.966655
0.967387
0.968283
0.969463
0.971091
0.973414
0.976972
0.982002
0.9875
0.994974
1.00531
1.0166
1.02381
1.02795
1.03002
1.03084
1.03102
1.031
1.03095
1.03089
1.03082
0.994542
1.03026
1.02809
1.01826
1.02826
1.02493
1.02004
1.01425
1.00796
1.00167
0.995852
0.990811
0.986633
0.98325
0.980513
0.977106
0.974348
0.971774
0.969717
0.968167
0.967001
0.966152
0.965554
0.965157
0.964895
0.964743
0.96467
0.964564
0.964411
0.964315
0.964266
0.964265
0.964308
0.964399
0.964542
0.964746
0.965014
0.96533
0.965696
0.966147
0.96671
0.967421
0.968286
0.969374
0.970848
0.97294
0.976017
0.980792
0.985605
0.992181
1.00112
1.01258
1.02142
1.0265
1.0293
1.03056
1.03098
1.03103
1.031
1.03095
1.03089
1.03111
0.997441
1.03008
1.02808
1.01826
1.02826
1.02493
1.02004
1.01426
1.00798
1.0017
0.995886
0.99085
0.986676
0.983293
0.980562
0.977193
0.974435
0.971891
0.969836
0.968267
0.967102
0.966239
0.965629
0.965214
0.964956
0.964806
0.964749
0.964643
0.964505
0.96441
0.964368
0.96437
0.964418
0.964509
0.964649
0.964843
0.965099
0.965423
0.965804
0.966246
0.966787
0.967456
0.96829
0.969328
0.970679
0.972554
0.975286
0.979405
0.98405
0.989924
0.997728
1.00823
1.01867
1.02478
1.02838
1.03014
1.03086
1.03104
1.03103
1.031
1.03095
1.03089
1.03866
1.01819
1.03005
1.02808
1.01826
1.02826
1.02493
1.02004
1.01426
1.00799
1.00172
0.995913
0.990883
0.986713
0.983334
0.980603
0.977266
0.97452
0.972007
0.969953
0.968388
0.967205
0.966344
0.965718
0.96529
0.965013
0.964867
0.964813
0.964708
0.964585
0.964505
0.964463
0.964471
0.964521
0.964617
0.964756
0.964946
0.965193
0.965505
0.965891
0.966344
0.96687
0.967513
0.9683
0.96929
0.970563
0.972272
0.974699
0.978318
0.982805
0.988049
0.994967
1.0044
1.01531
1.02286
1.02723
1.02959
1.03064
1.031
1.03105
1.03103
1.03099
1.03095
1.0309
1.00713
1.04005
1.03004
1.02808
1.01826
1.02826
1.02493
1.02004
1.01426
1.008
1.00173
0.995934
0.99091
0.986744
0.983367
0.980641
0.977327
0.97459
0.972117
0.970069
0.968506
0.967327
0.966448
0.965825
0.965381
0.96509
0.964923
0.964874
0.96476
0.96465
0.964585
0.964558
0.964565
0.964621
0.964718
0.964862
0.96505
0.965292
0.965594
0.965968
0.966421
0.966955
0.967578
0.968335
0.969265
0.970466
0.972058
0.974256
0.97745
0.981795
0.986453
0.992701
1.00104
1.01178
1.02073
1.02586
1.02888
1.03033
1.0309
1.03105
1.03106
1.03102
1.03099
1.03095
1.03091
0.99756
1.03113
1.03004
1.02808
1.01826
1.02826
1.02493
1.02004
1.01426
1.008
1.00174
0.995948
0.99093
0.986769
0.983396
0.980673
0.977384
0.974649
0.972205
0.970177
0.968621
0.967446
0.966572
0.96593
0.965488
0.965181
0.965
0.964931
0.964811
0.964702
0.964649
0.964638
0.96466
0.964714
0.964816
0.96496
0.965152
0.965392
0.965689
0.966052
0.966492
0.967021
0.967647
0.96838
0.96927
0.970392
0.971879
0.973906
0.97678
0.980987
0.985109
0.990795
0.998245
1.00819
1.01825
1.02435
1.028
1.02991
1.03075
1.03103
1.03107
1.03106
1.03102
1.03099
1.03095
1.031
0.999751
1.03063
1.03004
1.02807
1.01826
1.02826
1.02493
1.02004
1.01426
1.008
1.00174
0.995955
0.990945
0.986789
0.983421
0.9807
0.977429
0.974703
0.972276
0.970264
0.968728
0.967562
0.966692
0.966056
0.965595
0.965288
0.965091
0.965007
0.964856
0.964753
0.964703
0.964703
0.96474
0.964808
0.964908
0.965055
0.965247
0.96549
0.965784
0.966141
0.96657
0.967084
0.967701
0.968431
0.969288
0.970352
0.971737
0.973613
0.976237
0.980047
0.98401
0.989175
0.995894
1.00499
1.01541
1.02271
1.02696
1.02938
1.03052
1.03096
1.03107
1.03108
1.03106
1.03102
1.03099
1.03095
1.04772
1.03126
1.03057
1.03004
1.02807
1.01826
1.02826
1.02493
1.02004
1.01426
1.00799
1.00174
0.995956
0.990952
0.986804
0.98344
0.980723
0.977468
0.974745
0.97234
0.970332
0.968813
0.967668
0.966808
0.966176
0.965721
0.965396
0.965199
0.965099
0.964915
0.964799
0.964754
0.964756
0.964805
0.964889
0.965002
0.965147
0.96534
0.965581
0.965877
0.96623
0.966652
0.967153
0.967754
0.96847
0.969317
0.970333
0.971636
0.973375
0.975784
0.979235
0.983113
0.987804
0.993907
1.00209
1.01248
1.02094
1.0258
1.02875
1.03023
1.03086
1.03105
1.03108
1.03108
1.03105
1.03102
1.03099
1.03096
1.00661
1.03395
1.03056
1.03004
1.02807
1.01827
1.02826
1.02493
1.02004
1.01426
1.00799
1.00174
0.995957
0.990954
0.986811
0.983454
0.980742
0.977502
0.974782
0.972389
0.970393
0.96888
0.967752
0.966914
0.966294
0.965843
0.965523
0.965307
0.965187
0.964984
0.964857
0.964799
0.964807
0.964859
0.964954
0.965082
0.965239
0.965429
0.965671
0.965963
0.966318
0.966734
0.967227
0.967813
0.968511
0.969338
0.97033
0.971563
0.97319
0.975411
0.978557
0.982353
0.986634
0.992265
0.999621
1.00942
1.01894
1.02457
1.028
1.02986
1.03071
1.03102
1.03108
1.03108
1.03107
1.03105
1.03102
1.03099
1.03109
1.00069
1.03095
1.03056
1.03003
1.02807
1.01827
1.02826
1.02493
1.02004
1.01426
1.00799
1.00174
0.995957
0.990956
0.986815
0.983462
0.980756
0.977531
0.974814
0.972429
0.970439
0.968938
0.967816
0.966997
0.9664
0.965961
0.965646
0.965435
0.965268
0.965064
0.964925
0.964857
0.964853
0.96491
0.965008
0.965147
0.965319
0.96552
0.965757
0.966049
0.966398
0.966814
0.967301
0.967877
0.968559
0.969365
0.970326
0.971516
0.973044
0.975111
0.977997
0.981718
0.985614
0.990855
0.997569
1.0066
1.01664
1.02327
1.02717
1.02942
1.03051
1.03096
1.03108
1.03109
1.03108
1.03107
1.03104
1.03102
1.03099
1.03819
1.02671
1.03079
1.03056
1.03003
1.02807
1.01827
1.02826
1.02493
1.02004
1.01426
1.00799
1.00174
0.995958
0.990958
0.986819
0.983466
0.980764
0.977552
0.974842
0.972465
0.970477
0.968981
0.967872
0.967061
0.966483
0.966069
0.965766
0.965558
0.965362
0.965145
0.965006
0.964925
0.96491
0.964955
0.965059
0.965201
0.965384
0.9656
0.965847
0.966132
0.96648
0.966889
0.967374
0.96794
0.968611
0.969398
0.970333
0.971476
0.972934
0.974864
0.977534
0.98119
0.984745
0.98962
0.995815
1.00411
1.01414
1.02187
1.02625
1.02891
1.03027
1.03087
1.03107
1.0311
1.03109
1.03109
1.03106
1.03104
1.03102
1.031
1.00947
1.03445
1.03077
1.03056
1.03003
1.02806
1.01827
1.02826
1.02494
1.02005
1.01425
1.008
1.00174
0.99596
0.990961
0.986822
0.983472
0.98077
0.977565
0.974864
0.972495
0.970511
0.969018
0.967914
0.967115
0.966546
0.966152
0.965874
0.965679
0.965453
0.96524
0.965087
0.965005
0.964978
0.965012
0.965103
0.965252
0.965437
0.965664
0.965925
0.96622
0.966559
0.966964
0.96744
0.968003
0.968663
0.969436
0.970347
0.971453
0.972843
0.974668
0.977147
0.980653
0.984008
0.988535
0.99429
1.0019
1.0117
1.02031
1.02528
1.02834
1.02998
1.03074
1.03103
1.0311
1.0311
1.0311
1.03109
1.03106
1.03104
1.03102
1.03133
1.00508
1.03103
1.03077
1.03055
1.03003
1.02806
1.01827
1.02826
1.02494
1.02005
1.01427
1.00799
1.00174
0.995965
0.990965
0.986827
0.983477
0.980776
0.977575
0.974877
0.972518
0.97054
0.96905
0.96795
0.967156
0.9666
0.966216
0.965958
0.965788
0.965543
0.965332
0.965182
0.965086
0.965057
0.965079
0.965159
0.965296
0.965488
0.965717
0.965988
0.966297
0.966642
0.967038
0.967508
0.968061
0.968714
0.969475
0.970367
0.971439
0.972778
0.974506
0.976832
0.980071
0.983374
0.987583
0.992982
0.999968
1.00927
1.01857
1.02427
1.0277
1.02965
1.03059
1.03099
1.0311
1.03111
1.03111
1.03111
1.03109
1.03106
1.03104
1.03102
1.04886
1.04288
1.03089
1.03077
1.03055
1.03003
1.02806
1.01827
1.02826
1.02494
1.02005
1.01427
1.00801
1.00174
0.995972
0.990972
0.986834
0.983483
0.980783
0.977587
0.974888
0.972532
0.970562
0.969079
0.967981
0.967191
0.96664
0.96627
0.966024
0.965874
0.965625
0.965422
0.965273
0.965181
0.965137
0.965157
0.965225
0.965351
0.965531
0.965767
0.966041
0.966359
0.966716
0.967116
0.967576
0.968121
0.96876
0.969514
0.970389
0.971433
0.972726
0.97438
0.976569
0.979588
0.982826
0.98674
0.991836
0.998312
1.00701
1.01668
1.02321
1.02701
1.02928
1.03042
1.03092
1.03109
1.03111
1.03111
1.0311
1.03111
1.03109
1.03106
1.03104
1.03103
1.01577
1.03181
1.03088
1.03077
1.03055
1.03003
1.02806
1.01827
1.02826
1.02494
1.02006
1.01428
1.00802
1.00176
0.995965
0.990982
0.986843
0.983492
0.980791
0.9776
0.974901
0.972544
0.970576
0.969101
0.968009
0.967222
0.966675
0.966309
0.966078
0.965934
0.965691
0.965504
0.965364
0.965272
0.965231
0.965236
0.965302
0.965415
0.965585
0.96581
0.966091
0.966411
0.966777
0.967187
0.967649
0.968181
0.968811
0.969548
0.970413
0.971431
0.972684
0.974273
0.976358
0.979185
0.982368
0.986
0.990816
0.996874
1.00498
1.01469
1.02209
1.02627
1.02886
1.03021
1.03083
1.03106
1.03112
1.03112
1.03111
1.0311
1.0311
1.03108
1.03106
1.03104
1.03268
1.0192
1.03099
1.03088
1.03077
1.03055
1.03003
1.02806
1.01828
1.02827
1.02495
1.02006
1.01429
1.00803
1.00177
0.995992
0.990976
0.986854
0.983504
0.980802
0.977617
0.974916
0.972559
0.97059
0.969113
0.96803
0.967248
0.966704
0.966343
0.966117
0.965978
0.965742
0.965571
0.965447
0.965363
0.965322
0.965329
0.96538
0.965491
0.965648
0.965863
0.966132
0.96646
0.966828
0.967246
0.967716
0.968248
0.968862
0.969588
0.970433
0.971434
0.972648
0.974181
0.976173
0.978851
0.981982
0.985363
0.989912
0.995604
1.00314
1.01273
1.02088
1.02552
1.02841
1.02998
1.03073
1.03103
1.03112
1.03112
1.03112
1.03111
1.0311
1.03109
1.03107
1.03106
1.03106
1.01357
1.03402
1.03095
1.03088
1.03077
1.03055
1.03003
1.02806
1.01828
1.02827
1.02495
1.02007
1.0143
1.00804
1.00178
0.996006
0.991007
0.98685
0.983517
0.980816
0.977636
0.974935
0.972577
0.970606
0.969129
0.968042
0.967268
0.966729
0.966372
0.966151
0.966011
0.965786
0.965622
0.965514
0.965446
0.965413
0.965419
0.965472
0.965568
0.965722
0.965924
0.966184
0.966501
0.966876
0.967296
0.967773
0.96831
0.968921
0.96963
0.97046
0.971436
0.97262
0.974099
0.97601
0.978556
0.981658
0.98482
0.989112
0.994488
1.00151
1.01077
1.01955
1.02475
1.02792
1.02973
1.03061
1.03099
1.03111
1.03113
1.03112
1.03112
1.03111
1.0311
1.03109
1.03107
1.03106
1.03155
1.02373
1.03108
1.03094
1.03088
1.03076
1.03055
1.03003
1.02805
1.01828
1.02827
1.02496
1.02008
1.01431
1.00805
1.0018
0.99602
0.991023
0.986883
0.983514
0.980831
0.977659
0.974957
0.972602
0.970625
0.969146
0.968057
0.967279
0.966749
0.966397
0.966179
0.966039
0.965819
0.965667
0.965566
0.965513
0.965496
0.96551
0.965561
0.965658
0.965797
0.965995
0.966243
0.96655
0.966915
0.967342
0.96782
0.968363
0.968977
0.969679
0.970491
0.971446
0.972595
0.974031
0.975866
0.978296
0.981369
0.984353
0.988408
0.993512
1.00008
1.00889
1.01812
1.02396
1.02741
1.02945
1.03048
1.03094
1.0311
1.03113
1.03113
1.03112
1.03112
1.03112
1.03111
1.03109
1.03107
1.03106
1.04391
1.03975
1.03099
1.03094
1.03088
1.03076
1.03055
1.03003
1.02805
1.01828
1.02827
1.02496
1.02009
1.01432
1.00806
1.00181
0.996035
0.991038
0.986902
0.98355
0.980829
0.977685
0.974983
0.972632
0.970651
0.969165
0.968075
0.967294
0.96676
0.966416
0.966204
0.966064
0.965848
0.965699
0.96561
0.965565
0.965563
0.965593
0.965651
0.965745
0.965885
0.966068
0.966311
0.966607
0.966963
0.96738
0.967864
0.968407
0.969025
0.969727
0.97053
0.971462
0.972581
0.973968
0.975741
0.978064
0.981114
0.983929
0.987786
0.992659
0.998822
1.00714
1.01658
1.02315
1.02687
1.02915
1.03034
1.03088
1.03108
1.03113
1.03114
1.03113
1.03113
1.03112
1.03113
1.03111
1.03109
1.03107
1.03133
1.01602
1.03113
1.03099
1.03094
1.03087
1.03076
1.03055
1.03002
1.02805
1.01828
1.02828
1.02497
1.0201
1.01433
1.00808
1.00183
0.996052
0.991055
0.986919
0.983571
0.980867
0.977685
0.97501
0.972668
0.970683
0.969193
0.968096
0.967313
0.966776
0.966427
0.966223
0.966086
0.965872
0.965728
0.965643
0.96561
0.965616
0.965661
0.965734
0.965834
0.965971
0.966154
0.966382
0.966672
0.967017
0.967425
0.9679
0.968449
0.969065
0.969768
0.970569
0.971488
0.972574
0.973919
0.975627
0.97786
0.980856
0.983552
0.987215
0.991898
0.997732
1.00555
1.01501
1.02227
1.02632
1.02884
1.03018
1.03081
1.03106
1.03113
1.03114
1.03114
1.03113
1.03113
1.03113
1.03112
1.0311
1.03108
1.03109
1.03203
1.03767
1.03103
1.03099
1.03094
1.03087
1.03076
1.03055
1.03002
1.02805
1.01829
1.02828
1.02497
1.02011
1.01435
1.0081
1.00185
0.996071
0.991074
0.986937
0.983589
0.980889
0.977747
0.975012
0.972706
0.970721
0.969226
0.968125
0.967336
0.966795
0.966442
0.966233
0.966104
0.965894
0.965753
0.965672
0.965644
0.965661
0.965714
0.965801
0.965916
0.966058
0.966237
0.966465
0.96674
0.967079
0.967476
0.967943
0.968482
0.969103
0.969804
0.970602
0.971514
0.97258
0.973882
0.975531
0.977674
0.980541
0.983213
0.986698
0.991201
0.996766
1.00414
1.01347
1.02133
1.02575
1.0285
1.03001
1.03073
1.03104
1.03113
1.03114
1.03114
1.03113
1.03113
1.03112
1.03112
1.03111
1.03109
1.03108
1.03146
1.01979
1.03114
1.03102
1.03099
1.03094
1.03087
1.03076
1.03055
1.03002
1.02804
1.01829
1.02828
1.02498
1.02012
1.01436
1.00812
1.00187
0.996092
0.991095
0.986957
0.983608
0.980909
0.977782
0.975076
0.972706
0.970763
0.969266
0.968159
0.967365
0.966817
0.96646
0.966247
0.966115
0.965912
0.965775
0.965697
0.965673
0.965695
0.965759
0.965855
0.965983
0.966139
0.966323
0.966545
0.96682
0.967143
0.967534
0.96799
0.968522
0.969134
0.969837
0.970631
0.971537
0.97259
0.973859
0.975452
0.977514
0.980256
0.98291
0.986226
0.990563
0.995891
1.00286
1.01199
1.02033
1.02518
1.02814
1.02982
1.03065
1.03101
1.03112
1.03114
1.03114
1.03114
1.03113
1.03113
1.03112
1.03111
1.0311
1.03109
1.03109
1.04323
1.03484
1.03105
1.03102
1.03099
1.03094
1.03087
1.03076
1.03055
1.03002
1.02804
1.01829
1.02828
1.02499
1.02013
1.01438
1.00814
1.00189
0.996115
0.991117
0.986978
0.983628
0.980929
0.977814
0.975113
0.972799
0.970765
0.96931
0.968201
0.9674