/*--------------------------------*- C++ -*----------------------------------*\
| =========                 |                                                 |
| \\      /  F ield         | OpenFOAM: The Open Source CFD Toolbox           |
|  \\    /   O peration     | Version:  v2012                                 |
|   \\  /    A nd           | Website:  www.openfoam.com                      |
|    \\/     M anipulation  |                                                 |
\*---------------------------------------------------------------------------*/
FoamFile
{
    version     2.0;
    format      ascii;
    class       volScalarField;
    location    "3900";
    object      Fs;
}
// * * * * * * * * * * * * * * * * * * * * * * * * * * * * * * * * * * * * * //

dimensions      [0 0 0 0 0 0 0];


internalField   nonuniform List<scalar> 
29502
(
0
0.000104943
0
4.36318e-05
0.000503057
0
4.58123e-05
4.1314e-05
0.000856334
0
4.44988e-05
4.62074e-05
3.99657e-05
0.000875231
0
4.45823e-05
4.5897e-05
4.73134e-05
4.07284e-05
0.000732139
0
4.62165e-05
4.61703e-05
4.61134e-05
4.87226e-05
4.38917e-05
0.000513114
0
4.68753e-05
4.60008e-05
4.66428e-05
4.66383e-05
5.08895e-05
4.55238e-05
0.000413801
0
4.81133e-05
4.59595e-05
4.61447e-05
4.66743e-05
4.76332e-05
5.3812e-05
4.51477e-05
0.000288529
0
4.68973e-05
4.65616e-05
4.61146e-05
4.65027e-05
4.72905e-05
4.87179e-05
5.77461e-05
4.49332e-05
0.000241564
3.33067e-16
4.51548e-05
4.5721e-05
4.61398e-05
4.71258e-05
4.73249e-05
4.80859e-05
5.01721e-05
6.26167e-05
4.39065e-05
0.00019576
1.80633e-13
4.45615e-05
4.54491e-05
4.56245e-05
4.65803e-05
4.77058e-05
4.83237e-05
4.90515e-05
5.18505e-05
6.8724e-05
4.3907e-05
0.000138198
2.45383e-11
4.58391e-05
4.52535e-05
4.55962e-05
4.59806e-05
4.73279e-05
4.76168e-05
4.83913e-05
5.01264e-05
5.38186e-05
7.55983e-05
4.4194e-05
0.000128012
1.28856e-09
4.61887e-05
4.60058e-05
4.55379e-05
4.56788e-05
4.62373e-05
4.75826e-05
4.80789e-05
4.90109e-05
5.12993e-05
5.60494e-05
8.24698e-05
4.68369e-05
7.68254e-05
3.12368e-08
4.57603e-05
4.59739e-05
4.6203e-05
4.56372e-05
4.5822e-05
4.64446e-05
4.77107e-05
4.89877e-05
5.03416e-05
5.25538e-05
5.85714e-05
8.67115e-05
5.32202e-05
5.55256e-05
4.05901e-07
4.59074e-05
4.57968e-05
4.65298e-05
4.62359e-05
4.57752e-05
4.59635e-05
4.66842e-05
4.80867e-05
4.9566e-05
5.12925e-05
5.38921e-05
6.13948e-05
8.63639e-05
6.39778e-05
3.11772e-05
3.03785e-06
4.6987e-05
4.58986e-05
4.60206e-05
4.70667e-05
4.62392e-05
4.5951e-05
4.6109e-05
4.69111e-05
4.84034e-05
5.0086e-05
5.23143e-05
5.5309e-05
6.46058e-05
8.45551e-05
7.56633e-05
1.72648e-05
1.4586e-05
4.75179e-05
4.57065e-05
4.62157e-05
4.60968e-05
4.64926e-05
4.65628e-05
4.61379e-05
4.62604e-05
4.71429e-05
4.87139e-05
5.05973e-05
5.3349e-05
5.68308e-05
6.81906e-05
8.19283e-05
7.73786e-05
1.22005e-05
5.85955e-05
4.78597e-05
4.67409e-05
4.55899e-05
4.63625e-05
4.56985e-05
4.58081e-05
4.68333e-05
4.63036e-05
4.64255e-05
4.73589e-05
4.89962e-05
5.11028e-05
5.44535e-05
5.84651e-05
7.28453e-05
8.30471e-05
7.27405e-05
4.69587e-06
0.000191235
4.63106e-05
4.69272e-05
4.67116e-05
4.62249e-05
4.60372e-05
4.56971e-05
4.62851e-05
4.70211e-05
4.6489e-05
4.65916e-05
4.75483e-05
4.92565e-05
5.15848e-05
5.55929e-05
6.03473e-05
7.82713e-05
9.18973e-05
7.24553e-05
1.45708e-06
0.00049468
4.46688e-05
4.60113e-05
4.67475e-05
4.69413e-05
4.64375e-05
4.60314e-05
4.59729e-05
4.68672e-05
4.72022e-05
4.66588e-05
4.67627e-05
4.7725e-05
4.94973e-05
5.20292e-05
5.66429e-05
6.25405e-05
8.17049e-05
9.81273e-05
6.90436e-05
3.85999e-07
0.00111579
4.40863e-05
4.54559e-05
4.60369e-05
4.68818e-05
4.71647e-05
4.65329e-05
4.63119e-05
4.59761e-05
4.70011e-05
4.73379e-05
4.68091e-05
4.69323e-05
4.78802e-05
4.97189e-05
5.24346e-05
5.75676e-05
6.48797e-05
8.32713e-05
9.55776e-05
5.87365e-05
8.74374e-08
0.0022411
4.43017e-05
4.56738e-05
4.6405e-05
4.6115e-05
4.69404e-05
4.73762e-05
4.66287e-05
4.64148e-05
4.59373e-05
4.70759e-05
4.74324e-05
4.69604e-05
4.70944e-05
4.80155e-05
4.99217e-05
5.27644e-05
5.83473e-05
6.74059e-05
8.62723e-05
8.28752e-05
4.28903e-05
2.24649e-08
0.00412591
4.6372e-05
4.55359e-05
4.62773e-05
4.69624e-05
4.6324e-05
4.71029e-05
4.75764e-05
4.6674e-05
4.65001e-05
4.58826e-05
4.71643e-05
4.75124e-05
4.7107e-05
4.72535e-05
4.81415e-05
5.01119e-05
5.31354e-05
5.87384e-05
6.96469e-05
9.388e-05
7.30306e-05
2.46014e-05
7.58871e-09
0.00694433
4.85766e-05
4.63395e-05
4.59785e-05
4.67271e-05
4.69179e-05
4.69531e-05
4.73411e-05
4.77959e-05
4.67457e-05
4.65518e-05
4.57828e-05
4.72072e-05
4.75651e-05
4.7251e-05
4.74027e-05
4.82451e-05
5.02996e-05
5.37111e-05
5.9203e-05
7.12191e-05
0.000104476
6.5682e-05
9.93662e-06
2.66964e-09
0.0108153
5.04643e-05
4.69486e-05
4.59669e-05
4.62023e-05
4.70011e-05
4.66925e-05
4.74929e-05
4.74779e-05
4.78857e-05
4.6801e-05
4.65644e-05
4.56544e-05
4.72305e-05
4.7615e-05
4.73912e-05
4.7494e-05
4.83157e-05
5.04728e-05
5.43536e-05
6.03287e-05
7.26085e-05
0.000111703
7.03076e-05
2.73827e-06
9.42248e-10
0.0173821
5.11139e-05
4.80882e-05
4.68317e-05
4.54986e-05
4.63154e-05
4.64655e-05
4.61888e-05
4.68602e-05
4.74576e-05
4.79332e-05
4.68347e-05
4.65529e-05
4.54927e-05
4.72347e-05
4.76469e-05
4.752e-05
4.75575e-05
4.83753e-05
5.06293e-05
5.49185e-05
6.15553e-05
7.39451e-05
0.000108581
6.37557e-05
4.98205e-07
3.17389e-10
0.0290116
5.05239e-05
4.84078e-05
4.74847e-05
4.72564e-05
4.55988e-05
4.63545e-05
4.5873e-05
4.60612e-05
4.60368e-05
4.73771e-05
4.79468e-05
4.68551e-05
4.65104e-05
4.53075e-05
4.72193e-05
4.76607e-05
4.76355e-05
4.7579e-05
4.84148e-05
5.07609e-05
5.54249e-05
6.25408e-05
7.50933e-05
9.76117e-05
5.59656e-05
5.95668e-08
9.6784e-11
0.0563085
4.91839e-05
4.821e-05
4.76732e-05
4.76755e-05
4.76308e-05
4.65908e-05
4.63542e-05
4.60119e-05
4.61973e-05
4.6102e-05
4.73183e-05
4.79511e-05
4.6848e-05
4.64425e-05
4.50849e-05
4.71885e-05
4.7659e-05
4.77366e-05
4.756e-05
4.84205e-05
5.08524e-05
5.58631e-05
6.32135e-05
7.58015e-05
7.76882e-05
4.77459e-05
5.16758e-09
2.59155e-11
0.144363
4.59341e-05
4.76381e-05
4.76351e-05
4.78301e-05
4.79208e-05
4.79099e-05
4.75484e-05
4.63408e-05
4.62506e-05
4.6545e-05
4.62975e-05
4.72048e-05
4.79368e-05
4.67887e-05
4.6348e-05
4.48344e-05
4.71468e-05
4.76163e-05
4.78182e-05
4.7602e-05
4.83927e-05
5.09154e-05
5.62025e-05
6.36576e-05
7.65917e-05
5.79457e-05
3.37179e-05
4.24937e-10
5.22116e-12
0.3817
4.3883e-05
4.61563e-05
4.73238e-05
4.78458e-05
4.80545e-05
4.82056e-05
4.81561e-05
4.80811e-05
4.63634e-05
4.636e-05
4.69121e-05
4.62511e-05
4.70427e-05
4.78368e-05
4.66735e-05
4.62326e-05
4.45584e-05
4.7088e-05
4.75561e-05
4.78784e-05
4.76171e-05
4.8327e-05
5.09819e-05
5.63648e-05
6.36924e-05
7.7231e-05
4.9684e-05
1.73479e-05
5.23027e-11
7.11486e-13
0.839133
4.35286e-05
4.57937e-05
4.64407e-05
4.75828e-05
4.80412e-05
4.82883e-05
4.8463e-05
4.83207e-05
4.8186e-05
4.64255e-05
4.64056e-05
4.70036e-05
4.6134e-05
4.68903e-05
4.77382e-05
4.65316e-05
4.60955e-05
4.42569e-05
4.70155e-05
4.7471e-05
4.79095e-05
4.7604e-05
4.82101e-05
5.10658e-05
5.64461e-05
6.36245e-05
6.88562e-05
4.33549e-05
5.7726e-06
1.77648e-11
4.53526e-14
0.984533
4.37431e-05
4.55352e-05
4.6429e-05
4.66939e-05
4.78009e-05
4.82496e-05
4.84708e-05
4.86133e-05
4.83806e-05
4.78005e-05
4.64676e-05
4.64559e-05
4.68654e-05
4.60111e-05
4.66932e-05
4.76052e-05
4.63707e-05
4.59391e-05
4.39286e-05
4.69356e-05
4.73561e-05
4.79079e-05
4.75433e-05
4.80111e-05
5.09704e-05
5.64182e-05
6.34821e-05
5.67646e-05
3.26584e-05
1.0106e-06
2.53472e-11
4.82947e-15
0.985276
4.45204e-05
4.53278e-05
4.61985e-05
4.6156e-05
4.69123e-05
4.80452e-05
4.84188e-05
4.85756e-05
4.86584e-05
4.8402e-05
4.74465e-05
4.64876e-05
4.64977e-05
4.67755e-05
4.5844e-05
4.63878e-05
4.74275e-05
4.61892e-05
4.57637e-05
4.3569e-05
4.68492e-05
4.72071e-05
4.78653e-05
4.74954e-05
4.77658e-05
5.07253e-05
5.56397e-05
6.03959e-05
4.95635e-05
2.22059e-05
7.2187e-08
1.27221e-10
1.37113e-14
0.943431
4.55995e-05
4.56246e-05
4.59625e-05
4.63912e-05
4.61915e-05
4.713e-05
4.82481e-05
4.85089e-05
4.86037e-05
4.86252e-05
4.83766e-05
4.73738e-05
4.64913e-05
4.65412e-05
4.6715e-05
4.56445e-05
4.61048e-05
4.72657e-05
4.59865e-05
4.55675e-05
4.31792e-05
4.67706e-05
4.70491e-05
4.77155e-05
4.74306e-05
4.76136e-05
5.04367e-05
5.45112e-05
5.5564e-05
4.08352e-05
1.36069e-05
1.8067e-09
1.02766e-09
8.57092e-14
0.871808
4.7347e-05
4.58563e-05
4.61338e-05
4.63184e-05
4.64502e-05
4.64603e-05
4.73022e-05
4.84034e-05
4.85324e-05
4.854e-05
4.85185e-05
4.83161e-05
4.74099e-05
4.64789e-05
4.65768e-05
4.66231e-05
4.54133e-05
4.58605e-05
4.70599e-05
4.57603e-05
4.53507e-05
4.27628e-05
4.66451e-05
4.69427e-05
4.7403e-05
4.70637e-05
4.75198e-05
4.97024e-05
5.27871e-05
4.98141e-05
2.95208e-05
6.4048e-06
2.92907e-11
1.04216e-08
5.62328e-13
0.673178
4.78275e-05
4.61165e-05
4.59147e-05
4.65291e-05
4.67152e-05
4.5978e-05
4.6656e-05
4.74341e-05
4.85054e-05
4.84887e-05
4.84044e-05
4.83638e-05
4.81943e-05
4.7411e-05
4.64508e-05
4.66129e-05
4.65086e-05
4.51593e-05
4.55492e-05
4.67293e-05
4.55076e-05
4.51084e-05
4.23457e-05
4.63624e-05
4.67844e-05
4.7033e-05
4.63107e-05
4.74274e-05
4.86407e-05
4.96681e-05
4.27559e-05
1.92237e-05
1.8218e-06
1.25777e-12
1.75501e-07
6.00742e-12
0.390811
4.81427e-05
4.67443e-05
4.60984e-05
4.61173e-05
4.61817e-05
4.63263e-05
4.57086e-05
4.68227e-05
4.75297e-05
4.85435e-05
4.83727e-05
4.81938e-05
4.81463e-05
4.80155e-05
4.7378e-05
4.64135e-05
4.66375e-05
4.63643e-05
4.489e-05
4.51977e-05
4.63575e-05
4.52297e-05
4.48382e-05
4.19738e-05
4.59907e-05
4.64753e-05
4.66486e-05
4.53113e-05
4.71285e-05
4.72405e-05
4.5933e-05
3.45378e-05
1.15653e-05
2.07364e-07
3.99625e-13
7.6553e-07
1.06936e-10
0.151582
4.83838e-05
4.70581e-05
4.66748e-05
4.67943e-05
4.64332e-05
4.54705e-05
4.54906e-05
4.61594e-05
4.69433e-05
4.76031e-05
4.84282e-05
4.81853e-05
4.79629e-05
4.79012e-05
4.78272e-05
4.73011e-05
4.63656e-05
4.66453e-05
4.62035e-05
4.4606e-05
4.48193e-05
4.59966e-05
4.49242e-05
4.45384e-05
4.16484e-05
4.5639e-05
4.60842e-05
4.614e-05
4.40552e-05
4.60312e-05
4.47555e-05
4.09415e-05
2.51661e-05
6.52992e-06
7.99688e-09
3.48049e-12
5.24441e-07
3.23861e-09
0.0884994
4.85703e-05
4.72709e-05
4.69655e-05
4.6997e-05
4.71328e-05
4.68827e-05
4.63871e-05
4.57033e-05
4.64693e-05
4.70222e-05
4.76453e-05
4.81853e-05
4.79645e-05
4.76526e-05
4.76245e-05
4.76041e-05
4.72227e-05
4.63109e-05
4.66363e-05
4.60064e-05
4.42985e-05
4.44214e-05
4.56231e-05
4.45854e-05
4.41996e-05
4.13143e-05
4.52591e-05
4.56287e-05
4.54587e-05
4.28513e-05
4.41072e-05
4.14241e-05
3.44657e-05
1.63104e-05
2.87381e-06
8.5884e-11
4.38925e-10
6.70892e-08
2.38993e-07
0.208249
4.82719e-05
4.74362e-05
4.71209e-05
4.72262e-05
4.72253e-05
4.72279e-05
4.73116e-05
4.68963e-05
4.63028e-05
4.66006e-05
4.70824e-05
4.76555e-05
4.79745e-05
4.76805e-05
4.71991e-05
4.71582e-05
4.73276e-05
4.71511e-05
4.62447e-05
4.66008e-05
4.58015e-05
4.39713e-05
4.40114e-05
4.52408e-05
4.42094e-05
4.38224e-05
4.09411e-05
4.47957e-05
4.50619e-05
4.45968e-05
4.18401e-05
4.17093e-05
3.72531e-05
2.69358e-05
9.37502e-06
6.83063e-07
1.13365e-12
1.72737e-07
8.93509e-09
8.96836e-07
0.595091
4.80715e-05
4.73351e-05
4.7263e-05
4.73689e-05
4.74494e-05
4.74279e-05
4.73794e-05
4.72522e-05
4.70116e-05
4.64897e-05
4.67227e-05
4.71379e-05
4.7641e-05
4.78736e-05
4.7275e-05
4.67664e-05
4.67471e-05
4.70181e-05
4.7044e-05
4.61591e-05
4.65345e-05
4.56069e-05
4.36262e-05
4.35938e-05
4.48479e-05
4.37915e-05
4.33988e-05
4.05174e-05
4.42624e-05
4.43655e-05
4.3533e-05
4.03785e-05
3.87314e-05
3.19946e-05
1.90286e-05
5.07725e-06
4.98255e-08
8.74301e-14
7.03842e-05
9.95355e-09
5.86827e-06
0.916479
4.76479e-05
4.72878e-05
4.72418e-05
4.75234e-05
4.75943e-05
4.76537e-05
4.76045e-05
4.74734e-05
4.70897e-05
4.69151e-05
4.6488e-05
4.68141e-05
4.71856e-05
4.76015e-05
4.78055e-05
4.68687e-05
4.63308e-05
4.62849e-05
4.66864e-05
4.69022e-05
4.60503e-05
4.64308e-05
4.53856e-05
4.32712e-05
4.31659e-05
4.44366e-05
4.33263e-05
4.29204e-05
4.00326e-05
4.36197e-05
4.3501e-05
4.21982e-05
3.82216e-05
3.49916e-05
2.58228e-05
1.18665e-05
2.34812e-06
1.22972e-09
5.89695e-13
0.00042684
9.76145e-09
4.691e-05
0.994492
4.7462e-05
4.70772e-05
4.7261e-05
4.75466e-05
4.7784e-05
4.78103e-05
4.78026e-05
4.77113e-05
4.75174e-05
4.7128e-05
4.67447e-05
4.64654e-05
4.68824e-05
4.719e-05
4.7536e-05
4.76878e-05
4.64709e-05
4.5827e-05
4.57876e-05
4.6336e-05
4.6736e-05
4.59074e-05
4.62772e-05
4.51399e-05
4.2897e-05
4.27259e-05
4.4002e-05
4.28078e-05
4.2376e-05
3.94637e-05
4.28491e-05
4.24376e-05
4.04663e-05
3.54439e-05
3.04047e-05
1.9098e-05
6.5756e-06
6.35231e-07
6.08991e-12
1.83349e-10
0.000120726
3.87948e-09
0.000165838
0.999743
4.71276e-05
4.69779e-05
4.71247e-05
4.75978e-05
4.78e-05
4.80267e-05
4.79706e-05
4.78955e-05
4.77684e-05
4.75351e-05
4.71181e-05
4.67091e-05
4.65496e-05
4.69287e-05
4.71608e-05
4.74165e-05
4.71447e-05
4.60119e-05
4.52999e-05
4.52669e-05
4.59675e-05
4.65389e-05
4.57222e-05
4.60714e-05
4.48668e-05
4.25004e-05
4.22725e-05
4.35398e-05
4.22296e-05
4.17548e-05
3.88005e-05
4.19115e-05
4.11072e-05
3.82232e-05
3.19724e-05
2.50138e-05
1.25937e-05
3.36298e-06
6.11566e-08
1.18572e-13
7.24285e-08
1.6813e-05
2.13651e-09
0.000186061
0.999886
4.67165e-05
4.67772e-05
4.70434e-05
4.7468e-05
4.78867e-05
4.80566e-05
4.8232e-05
4.80835e-05
4.79443e-05
4.77857e-05
4.75174e-05
4.70925e-05
4.67168e-05
4.66543e-05
4.69572e-05
4.71391e-05
4.72678e-05
4.68086e-05
4.55332e-05
4.47509e-05
4.47297e-05
4.55834e-05
4.62998e-05
4.54869e-05
4.58167e-05
4.4561e-05
4.20801e-05
4.18016e-05
4.30396e-05
4.15818e-05
4.10415e-05
3.80049e-05
4.07732e-05
3.93875e-05
3.54043e-05
2.77894e-05
1.90522e-05
7.3041e-06
1.46922e-06
1.83705e-09
5.08815e-13
0.000112604
9.19542e-06
4.8145e-09
0.000326492
0.999908
4.63827e-05
4.65599e-05
4.68656e-05
4.7371e-05
4.77582e-05
4.81489e-05
4.8255e-05
4.83867e-05
4.81544e-05
4.79568e-05
4.77633e-05
4.74634e-05
4.70476e-05
4.67247e-05
4.67402e-05
4.69679e-05
4.71024e-05
4.71349e-05
4.64471e-05
4.505e-05
4.41879e-05
4.41873e-05
4.51885e-05
4.6017e-05
4.52006e-05
4.55068e-05
4.42209e-05
4.16324e-05
4.13044e-05
4.24953e-05
4.08553e-05
4.02188e-05
3.7058e-05
3.93574e-05
3.71611e-05
3.19534e-05
2.29455e-05
1.31156e-05
3.78845e-06
3.16495e-07
8.12728e-12
1.34455e-10
0.00168267
1.1618e-05
1.2597e-08
0.000628796
0.999844
4.58313e-05
4.63638e-05
4.66963e-05
4.71659e-05
4.76473e-05
4.80555e-05
4.83799e-05
4.83836e-05
4.84979e-05
4.81744e-05
4.79166e-05
4.76883e-05
4.73893e-05
4.69911e-05
4.67312e-05
4.68065e-05
4.69626e-05
4.70324e-05
4.69728e-05
4.60515e-05
4.4561e-05
4.36267e-05
4.36448e-05
4.47829e-05
4.56852e-05
4.48548e-05
4.51363e-05
4.38433e-05
4.11526e-05
4.0776e-05
4.18913e-05
4.00354e-05
3.92618e-05
3.59165e-05
3.75493e-05
3.4362e-05
2.78298e-05
1.76218e-05
7.96994e-06
1.8982e-06
2.55367e-08
1.15796e-13
5.54398e-08
0.000188324
3.09357e-06
2.45583e-08
0.0014064
0.999595
4.55742e-05
4.60186e-05
4.65332e-05
4.69671e-05
4.74389e-05
4.79172e-05
4.82944e-05
4.85863e-05
4.84758e-05
4.85676e-05
4.81467e-05
4.78464e-05
4.75665e-05
4.72751e-05
4.69134e-05
4.67296e-05
4.68502e-05
4.6939e-05
4.69408e-05
4.67782e-05
4.56629e-05
4.40744e-05
4.30762e-05
4.31078e-05
4.43671e-05
4.52948e-05
4.44444e-05
4.47e-05
4.3418e-05
4.06342e-05
4.02004e-05
4.12181e-05
3.91034e-05
3.81468e-05
3.45065e-05
3.5258e-05
3.09405e-05
2.3077e-05
1.23142e-05
4.30893e-06
6.86776e-07
5.60978e-10
6.07459e-13
9.95542e-06
6.49993e-05
1.2727e-06
7.13589e-08
0.00374246
0.997675
4.55568e-05
4.58214e-05
4.62193e-05
4.67803e-05
4.72089e-05
4.77006e-05
4.81545e-05
4.84851e-05
4.87413e-05
4.85285e-05
4.85795e-05
4.80763e-05
4.77161e-05
4.74303e-05
4.71267e-05
4.68194e-05
4.67156e-05
4.68711e-05
4.68992e-05
4.68349e-05
4.65794e-05
4.52797e-05
4.35973e-05
4.25426e-05
4.25825e-05
4.39366e-05
4.48443e-05
4.39681e-05
4.41947e-05
4.29351e-05
4.00655e-05
3.95677e-05
4.04551e-05
3.80389e-05
3.68398e-05
3.27148e-05
3.24312e-05
2.68726e-05
1.78667e-05
7.60388e-06
2.1619e-06
1.06377e-07
3.46123e-12
6.02253e-10
0.0003949
6.26167e-05
2.99172e-07
3.58607e-07
0.0115336
0.97489
4.57347e-05
4.58277e-05
4.60262e-05
4.6412e-05
4.7017e-05
4.74437e-05
4.79182e-05
4.83436e-05
4.86517e-05
4.8844e-05
4.85437e-05
4.85282e-05
4.7949e-05
4.75242e-05
4.72538e-05
4.69566e-05
4.67059e-05
4.66835e-05
4.68622e-05
4.68462e-05
4.67121e-05
4.63732e-05
4.49076e-05
4.31333e-05
4.20306e-05
4.20699e-05
4.34881e-05
4.4335e-05
4.3424e-05
4.36163e-05
4.23897e-05
3.94359e-05
3.88562e-05
3.95842e-05
3.68191e-05
3.52603e-05
3.04637e-05
2.90131e-05
2.22003e-05
1.26305e-05
4.19225e-06
8.9928e-07
4.90834e-09
2.87215e-13
4.72946e-07
0.000343286
4.32913e-05
9.80366e-08
2.28004e-06
0.0634996
0.607169
4.59459e-05
4.58752e-05
4.60289e-05
4.6177e-05
4.65982e-05
4.72468e-05
4.76441e-05
4.81014e-05
4.85033e-05
4.87845e-05
4.89008e-05
4.85313e-05
4.84278e-05
4.78035e-05
4.7316e-05
4.70306e-05
4.67638e-05
4.65763e-05
4.66272e-05
4.68253e-05
4.67667e-05
4.65776e-05
4.61646e-05
4.4549e-05
4.26846e-05
4.15498e-05
4.15773e-05
4.30126e-05
4.3769e-05
4.28088e-05
4.29561e-05
4.17701e-05
3.87312e-05
3.80473e-05
3.8574e-05
3.54036e-05
3.33276e-05
2.77314e-05
2.49741e-05
1.71064e-05
7.94796e-06
2.11102e-06
1.88739e-07
4.81711e-11
1.80533e-11
2.5849e-05
0.0001075
2.93966e-05
3.27287e-08
1.70269e-05
0.53336
0.0298089
4.61335e-05
4.60029e-05
4.60079e-05
4.6152e-05
4.63423e-05
4.67631e-05
4.7437e-05
4.78126e-05
4.82455e-05
4.86206e-05
4.88695e-05
4.88996e-05
4.84899e-05
4.82822e-05
4.76163e-05
4.70841e-05
4.67835e-05
4.65487e-05
4.64252e-05
4.65444e-05
4.67592e-05
4.66641e-05
4.64048e-05
4.59534e-05
4.42147e-05
4.22486e-05
4.11035e-05
4.11049e-05
4.25073e-05
4.31466e-05
4.21209e-05
4.2209e-05
4.10599e-05
3.7936e-05
3.71098e-05
3.73857e-05
3.37071e-05
3.09861e-05
2.45106e-05
2.04042e-05
1.20065e-05
4.46832e-06
9.43147e-07
1.32521e-08
8.01303e-13
4.8879e-08
0.000145517
0.00012147
2.27299e-05
1.43888e-08
4.94434e-05
0.992191
0.0023093
4.63336e-05
4.60861e-05
4.61166e-05
4.61296e-05
4.62894e-05
4.64862e-05
4.69023e-05
4.75683e-05
4.79536e-05
4.83527e-05
4.8692e-05
4.89127e-05
4.8843e-05
4.84082e-05
4.80971e-05
4.73447e-05
4.68138e-05
4.65142e-05
4.63116e-05
4.62514e-05
4.64288e-05
4.66553e-05
4.65364e-05
4.62203e-05
4.57068e-05
4.38682e-05
4.18479e-05
4.06842e-05
4.06519e-05
4.19709e-05
4.24678e-05
4.13611e-05
4.13665e-05
4.02424e-05
3.70244e-05
3.60143e-05
3.59466e-05
3.16395e-05
2.81869e-05
2.08077e-05
1.54952e-05
7.51634e-06
2.27975e-06
2.31296e-07
3.18285e-10
4.9758e-12
8.8828e-06
0.000158876
8.49216e-05
1.45323e-05
2.29673e-08
7.20204e-05
0.998839
0.000564329
4.64461e-05
4.62162e-05
4.61716e-05
4.62591e-05
4.62606e-05
4.64138e-05
4.66056e-05
4.70063e-05
4.76593e-05
4.80657e-05
4.84248e-05
4.87259e-05
4.89162e-05
4.87443e-05
4.82929e-05
4.78827e-05
4.70744e-05
4.65145e-05
4.62225e-05
4.60562e-05
4.60531e-05
4.62755e-05
4.65095e-05
4.63721e-05
4.60374e-05
4.54765e-05
4.35554e-05
4.14759e-05
4.02877e-05
4.02013e-05
4.14038e-05
4.1734e-05
4.05248e-05
4.0421e-05
3.93019e-05
3.59732e-05
3.47009e-05
3.41895e-05
2.91368e-05
2.48733e-05
1.67105e-05
1.07294e-05
4.20591e-06
1.01019e-06
2.05284e-08
4.52816e-12
1.04072e-08
3.84459e-05
0.000121804
6.74097e-05
7.71959e-06
6.66162e-08
0.000192111
0.999395
0.00026962
4.65763e-05
4.62715e-05
4.62893e-05
4.63143e-05
4.63671e-05
4.63664e-05
4.65135e-05
4.66814e-05
4.70861e-05
4.7721e-05
4.81446e-05
4.84555e-05
4.87269e-05
4.8878e-05
4.85977e-05
4.81455e-05
4.76433e-05
4.67924e-05
4.61921e-05
4.59115e-05
4.57812e-05
4.58197e-05
4.60795e-05
4.63216e-05
4.61688e-05
4.58082e-05
4.5254e-05
4.32826e-05
4.11154e-05
3.99061e-05
3.97462e-05
4.08012e-05
4.09463e-05
3.96086e-05
3.93608e-05
3.8216e-05
3.47452e-05
3.30908e-05
3.20375e-05
2.61591e-05
2.10679e-05
1.24498e-05
6.62916e-06
2.1484e-06
2.39258e-07
1.02833e-09
6.4268e-12
4.80149e-06
7.08066e-05
0.000152878
4.51045e-05
1.80056e-06
2.71759e-07
0.000750554
0.997938
0.000162888
4.66706e-05
4.63627e-05
4.63333e-05
4.64436e-05
4.64563e-05
4.6474e-05
4.64388e-05
4.65636e-05
4.67283e-05
4.71359e-05
4.77442e-05
4.81981e-05
4.8446e-05
4.86898e-05
4.8816e-05
4.84141e-05
4.79669e-05
4.735e-05
4.64667e-05
4.58496e-05
4.55833e-05
4.54788e-05
4.55542e-05
4.58404e-05
4.60885e-05
4.59261e-05
4.55464e-05
4.4984e-05
4.29913e-05
4.07767e-05
3.95368e-05
3.92937e-05
4.01578e-05
4.01049e-05
3.86062e-05
3.81735e-05
3.69609e-05
3.3259e-05
3.11042e-05
2.94217e-05
2.26713e-05
1.68334e-05
8.42833e-06
3.72801e-06
8.94075e-07
1.77999e-08
2.38364e-11
7.68443e-09
3.97188e-05
8.02655e-05
0.000119806
4.23662e-05
3.82704e-07
1.36813e-06
0.00407504
0.983942
0.000113377
4.67359e-05
4.64279e-05
4.64231e-05
4.64974e-05
4.65897e-05
4.65716e-05
4.6556e-05
4.64726e-05
4.65874e-05
4.67482e-05
4.7157e-05
4.77382e-05
4.82214e-05
4.84011e-05
4.86224e-05
4.8723e-05
4.81951e-05
4.7809e-05
4.70276e-05
4.61282e-05
4.54893e-05
4.52326e-05
4.51506e-05
4.52522e-05
4.55577e-05
4.58056e-05
4.56406e-05
4.52553e-05
4.47061e-05
4.27098e-05
4.04478e-05
3.91831e-05
3.88377e-05
3.94679e-05
3.91963e-05
3.75099e-05
3.68466e-05
3.54929e-05
3.14372e-05
2.86916e-05
2.62668e-05
1.87222e-05
1.24947e-05
5.12657e-06
1.90102e-06
1.96675e-07
8.60799e-10
2.24716e-11
3.56153e-06
5.51769e-05
8.72517e-05
0.000122638
3.63445e-05
1.32595e-07
7.95432e-06
0.0664502
0.778179
8.67557e-05
4.67126e-05
4.64945e-05
4.64849e-05
4.6599e-05
4.6645e-05
4.67157e-05
4.66656e-05
4.65955e-05
4.6482e-05
4.65916e-05
4.6751e-05
4.7152e-05
4.76962e-05
4.8215e-05
4.83392e-05
4.85245e-05
4.86001e-05
4.79429e-05
4.75902e-05
4.67223e-05
4.57762e-05
4.51139e-05
4.48623e-05
4.47957e-05
4.49154e-05
4.52281e-05
4.54704e-05
4.53083e-05
4.49296e-05
4.44062e-05
4.24263e-05
4.01226e-05
3.88325e-05
3.83546e-05
3.87201e-05
3.82125e-05
3.63126e-05
3.53465e-05
3.37491e-05
2.92547e-05
2.58221e-05
2.25709e-05
1.44457e-05
8.43835e-06
2.86119e-06
7.15046e-07
1.35377e-08
5.44673e-11
1.59092e-08
3.54123e-05
5.7058e-05
0.000105454
8.45476e-05
2.46397e-05
8.28557e-08
4.50198e-05
0.777085
0.160657
7.10128e-05
4.67938e-05
4.64883e-05
4.65709e-05
4.66771e-05
4.67608e-05
4.6786e-05
4.68141e-05
4.67304e-05
4.66002e-05
4.64745e-05
4.65678e-05
4.67219e-05
4.71208e-05
4.7633e-05
4.81514e-05
4.82712e-05
4.83978e-05
4.84654e-05
4.7707e-05
4.72581e-05
4.63923e-05
4.54088e-05
4.47258e-05
4.44757e-05
4.44144e-05
4.45429e-05
4.48511e-05
4.50832e-05
4.49248e-05
4.45593e-05
4.40699e-05
4.21268e-05
3.97874e-05
3.84601e-05
3.78338e-05
3.79043e-05
3.71633e-05
3.49905e-05
3.3612e-05
3.16634e-05
2.66937e-05
2.24591e-05
1.83597e-05
1.02476e-05
5.27623e-06
1.49218e-06
1.29319e-07
5.07822e-10
1.33904e-10
5.26716e-06
4.98912e-05
6.50063e-05
0.000106478
6.63189e-05
1.24973e-05
1.40378e-07
8.14945e-05
0.97613
0.0134906
6.11622e-05
4.67339e-05
4.65865e-05
4.65774e-05
4.67865e-05
4.68566e-05
4.69024e-05
4.68846e-05
4.68555e-05
4.67446e-05
4.65837e-05
4.64359e-05
4.65208e-05
4.66698e-05
4.70621e-05
4.75616e-05
4.80392e-05
4.81823e-05
4.82522e-05
4.83134e-05
4.7466e-05
4.69773e-05
4.60396e-05
4.50264e-05
4.43276e-05
4.40684e-05
4.40054e-05
4.41306e-05
4.44227e-05
4.46386e-05
4.44845e-05
4.41413e-05
4.36932e-05
4.18011e-05
3.94227e-05
3.8049e-05
3.72585e-05
3.702e-05
3.60292e-05
3.34768e-05
3.15911e-05
2.92044e-05
2.36896e-05
1.86433e-05
1.39443e-05
6.52221e-06
2.97476e-06
5.54647e-07
9.28138e-09
6.92387e-11
6.48016e-08
3.85562e-05
5.53064e-05
7.4021e-05
0.000126188
4.75048e-05
2.87793e-06
6.14775e-07
0.000258992
0.989232
0.00170472
5.4722e-05
4.67031e-05
4.65587e-05
4.66947e-05
4.68158e-05
4.6989e-05
4.70257e-05
4.70136e-05
4.69416e-05
4.68686e-05
4.67291e-05
4.65344e-05
4.63678e-05
4.64476e-05
4.66009e-05
4.6965e-05
4.7472e-05
4.78977e-05
4.8071e-05
4.80818e-05
4.81133e-05
4.72007e-05
4.67084e-05
4.56887e-05
4.46393e-05
4.39186e-05
4.36481e-05
4.357e-05
4.36804e-05
4.39403e-05
4.4135e-05
4.39847e-05
4.36673e-05
4.32665e-05
4.14358e-05
3.90108e-05
3.75817e-05
3.6614e-05
3.60488e-05
3.47367e-05
3.17343e-05
2.9229e-05
2.63117e-05
2.02908e-05
1.45129e-05
9.68949e-06
3.81428e-06
1.36562e-06
9.75409e-08
2.98093e-10
8.74097e-10
8.76142e-06
4.87387e-05
5.83968e-05
8.60177e-05
0.000108713
3.98889e-05
7.14215e-07
3.81073e-06
0.00249651
0.963551
0.000368167
5.06075e-05
4.65632e-05
4.65531e-05
4.66886e-05
4.69605e-05
4.70273e-05
4.71692e-05
4.7162e-05
4.70916e-05
4.69732e-05
4.68596e-05
4.66867e-05
4.64647e-05
4.62779e-05
4.63484e-05
4.65074e-05
4.68737e-05
4.73596e-05
4.77366e-05
4.79458e-05
4.78964e-05
4.79109e-05
4.6999e-05
4.63939e-05
4.53327e-05
4.42493e-05
4.35032e-05
4.32092e-05
4.3109e-05
4.31928e-05
4.34071e-05
4.35737e-05
4.34228e-05
4.3132e-05
4.27735e-05
4.10177e-05
3.85416e-05
3.70317e-05
3.58617e-05
3.49219e-05
3.32324e-05
2.97171e-05
2.65131e-05
2.29689e-05
1.64524e-05
1.04392e-05
6.23259e-06
2.0182e-06
3.20236e-07
1.10173e-08
1.05507e-10
4.24317e-07
3.19399e-05
4.70122e-05
6.26071e-05
9.95704e-05
8.96006e-05
3.395e-05
2.1672e-07
2.38466e-05
0.0599775
0.655203
0.000141443
4.82143e-05
4.63844e-05
4.64771e-05
4.6717e-05
4.69668e-05
4.71966e-05
4.72301e-05
4.73128e-05
4.72489e-05
4.71286e-05
4.69779e-05
4.682e-05
4.66165e-05
4.6369e-05
4.61639e-05
4.62313e-05
4.63867e-05
4.67643e-05
4.72244e-05
4.75683e-05
4.7813e-05
4.77037e-05
4.76366e-05
4.68103e-05
4.60828e-05
4.49728e-05
4.38542e-05
4.30762e-05
4.27535e-05
4.26206e-05
4.26633e-05
4.2821e-05
4.29516e-05
4.27964e-05
4.25264e-05
4.22099e-05
4.05191e-05
3.79843e-05
3.63506e-05
3.49436e-05
3.35796e-05
3.14689e-05
2.73947e-05
2.33724e-05
1.91681e-05
1.25751e-05
6.78847e-06
3.62976e-06
8.2205e-07
2.69791e-08
6.66434e-10
1.09641e-08
1.71106e-05
3.73865e-05
4.76006e-05
6.67988e-05
0.000111677
6.40404e-05
1.59368e-05
3.04596e-07
7.88049e-05
0.840795
0.0722369
8.51562e-05
4.68629e-05
4.61561e-05
4.63937e-05
4.66542e-05
4.70152e-05
4.72188e-05
4.74213e-05
4.74149e-05
4.74156e-05
4.73098e-05
4.71371e-05
4.69395e-05
4.67515e-05
4.65164e-05
4.6248e-05
4.60246e-05
4.60976e-05
4.62462e-05
4.66187e-05
4.70677e-05
4.73602e-05
4.76746e-05
4.74767e-05
4.73937e-05
4.65908e-05
4.5782e-05
4.4618e-05
4.34579e-05
4.26391e-05
4.22795e-05
4.21027e-05
4.20937e-05
4.21835e-05
4.22693e-05
4.20995e-05
4.18482e-05
4.15421e-05
3.98833e-05
3.72797e-05
3.54963e-05
3.37949e-05
3.19566e-05
2.93873e-05
2.46893e-05
1.9857e-05
1.50893e-05
8.78291e-06
4.0754e-06
1.69535e-06
1.67434e-07
1.63016e-09
6.40026e-10
4.24245e-06
3.58446e-05
3.7744e-05
4.8652e-05
7.91101e-05
0.000117014
3.81413e-05
2.74928e-06
9.52107e-07
0.000215523
0.965687
0.00439471
6.36909e-05
4.61265e-05
4.60255e-05
4.62688e-05
4.66009e-05
4.69537e-05
4.72779e-05
4.74545e-05
4.7589e-05
4.75592e-05
4.74954e-05
4.73344e-05
4.7113e-05
4.68712e-05
4.66455e-05
4.63894e-05
4.61053e-05
4.58714e-05
4.59445e-05
4.60906e-05
4.64595e-05
4.69071e-05
4.71214e-05
4.74881e-05
4.72476e-05
4.71104e-05
4.6389e-05
4.54901e-05
4.42663e-05
4.30621e-05
4.21943e-05
4.17905e-05
4.15569e-05
4.14827e-05
4.14969e-05
4.1526e-05
4.1335e-05
4.10791e-05
4.07233e-05
3.90969e-05
3.64172e-05
3.44131e-05
3.23485e-05
2.99863e-05
2.69222e-05
2.16018e-05
1.59795e-05
1.10327e-05
5.86205e-06
2.2323e-06
4.50787e-07
1.99857e-08
4.68973e-10
1.43152e-07
3.89396e-05
4.13738e-05
3.8334e-05
5.30151e-05
0.000100847
0.000124691
3.05934e-05
8.12244e-07
4.18118e-06
0.000877536
0.937001
0.000568522
5.39387e-05
4.57386e-05
4.59821e-05
4.61937e-05
4.65174e-05
4.68957e-05
4.72214e-05
4.75406e-05
4.767e-05
4.77096e-05
4.76738e-05
4.75377e-05
4.73261e-05
4.70605e-05
4.67801e-05
4.65109e-05
4.62411e-05
4.59348e-05
4.56986e-05
4.57726e-05
4.59235e-05
4.62856e-05
4.67305e-05
4.69146e-05
4.72615e-05
4.70653e-05
4.68594e-05
4.6165e-05
4.51968e-05
4.39179e-05
4.26634e-05
4.17418e-05
4.12898e-05
4.09862e-05
4.08343e-05
4.07595e-05
4.0727e-05
4.04923e-05
4.01811e-05
3.97672e-05
3.81529e-05
3.53723e-05
3.30232e-05
3.05385e-05
2.76274e-05
2.40097e-05
1.80704e-05
1.20864e-05
7.40929e-06
3.51485e-06
9.21938e-07
4.44551e-08
1.68505e-09
1.08388e-08
1.3454e-05
4.93101e-05
4.22321e-05
3.95424e-05
5.57976e-05
0.000135391
0.000115872
2.82845e-05
4.20609e-07
3.44925e-05
0.128124
0.440634
0.000162074
4.92089e-05
4.55468e-05
4.60128e-05
4.61668e-05
4.64594e-05
4.6801e-05
4.71668e-05
4.74803e-05
4.77532e-05
4.78588e-05
4.78028e-05
4.7763e-05
4.75518e-05
4.7285e-05
4.6974e-05
4.66646e-05
4.63508e-05
4.6072e-05
4.57466e-05
4.55054e-05
4.55863e-05
4.57388e-05
4.60921e-05
4.65246e-05
4.6715e-05
4.70181e-05
4.68893e-05
4.66075e-05
4.59015e-05
4.49096e-05
4.35729e-05
4.22636e-05
4.12789e-05
4.07707e-05
4.0388e-05
4.01473e-05
3.99784e-05
3.9869e-05
3.95434e-05
3.91714e-05
3.86734e-05
3.69942e-05
3.40563e-05
3.12848e-05
2.83201e-05
2.48009e-05
2.05955e-05
1.43538e-05
8.37615e-06
4.58354e-06
1.79006e-06
2.09313e-07
2.81879e-09
1.35787e-09
2.55482e-06
4.4543e-05
4.98311e-05
4.23845e-05
3.97181e-05
6.13121e-05
0.000132559
9.4678e-05
1.15697e-05
1.18144e-06
0.000125201
0.84931
0.0242877
8.11858e-05
4.70161e-05
4.54583e-05
4.60597e-05
4.61896e-05
4.64306e-05
4.67254e-05
4.70579e-05
4.74182e-05
4.77033e-05
4.7925e-05
4.80058e-05
4.78656e-05
4.78111e-05
4.75308e-05
4.72135e-05
4.6847e-05
4.65138e-05
4.61726e-05
4.58857e-05
4.55417e-05
4.52974e-05
4.53807e-05
4.55312e-05
4.58799e-05
4.6303e-05
4.64966e-05
4.67447e-05
4.66765e-05
4.63916e-05
4.56474e-05
4.46266e-05
4.32306e-05
4.18597e-05
4.08036e-05
4.02345e-05
3.97597e-05
3.94254e-05
3.91542e-05
3.89342e-05
3.85079e-05
3.80551e-05
3.73916e-05
3.55593e-05
3.23792e-05
2.91926e-05
2.56024e-05
2.1496e-05
1.68049e-05
1.05747e-05
5.4709e-06
2.39485e-06
4.62334e-07
2.81858e-08
9.01808e-10
1.50732e-07
2.99682e-05
4.59845e-05
4.9821e-05
4.24215e-05
4.00389e-05
6.02086e-05
9.20888e-05
4.75804e-05
2.21474e-06
7.14752e-06
0.00113416
0.926705
0.0014183
5.8437e-05
4.60433e-05
4.54202e-05
4.6179e-05
4.61923e-05
4.64534e-05
4.66998e-05
4.69823e-05
4.73185e-05
4.76294e-05
4.78699e-05
4.80796e-05
4.81219e-05
4.78955e-05
4.78128e-05
4.74716e-05
4.71213e-05
4.67087e-05
4.63406e-05
4.59717e-05
4.56794e-05
4.53253e-05
4.50682e-05
4.51562e-05
4.5305e-05
4.56472e-05
4.60671e-05
4.62676e-05
4.64804e-05
4.6437e-05
4.61843e-05
4.53962e-05
4.43453e-05
4.28868e-05
4.1451e-05
4.03152e-05
3.96763e-05
3.9106e-05
3.86734e-05
3.82733e-05
3.7928e-05
3.73944e-05
3.6794e-05
3.588e-05
3.37865e-05
3.03065e-05
2.66455e-05
2.24202e-05
1.76346e-05
1.28632e-05
7.44903e-06
3.24597e-06
9.08987e-07
6.50785e-08
3.16151e-09
2.09818e-08
1.13503e-05
4.16646e-05
4.3173e-05
4.7763e-05
4.39455e-05
4.26933e-05