/*--------------------------------*- C++ -*----------------------------------*\
| =========                 |                                                 |
| \\      /  F ield         | OpenFOAM: The Open Source CFD Toolbox           |
|  \\    /   O peration     | Version:  v2012                                 |
|   \\  /    A nd           | Website:  www.openfoam.com                      |
|    \\/     M anipulation  |                                                 |
\*---------------------------------------------------------------------------*/
FoamFile
{
    version     2.0;
    format      ascii;
    class       volScalarField;
    location    "3900";
    object      I1;
}
// * * * * * * * * * * * * * * * * * * * * * * * * * * * * * * * * * * * * * //

dimensions      [0 0 0 0 0 0 0];


internalField   nonuniform List<scalar> 
29502
(
5.53603e-06
1.40139e-07
0.0023959
1.31274e-07
8.48564e-05
0.0122187
1.84401e-07
7.25222e-05
0.00216254
0.0187961
2.25642e-07
9.76125e-05
0.00187961
0.0103371
0.0176232
2.51163e-07
0.000115556
0.0024164
0.0106754
0.024781
0.014674
2.64894e-07
0.000126251
0.0027535
0.0127295
0.02902
0.0400711
0.0118675
2.68832e-07
0.000131925
0.00289521
0.0144268
0.031274
0.0502261
0.0554312
0.00881081
2.67864e-07
0.000133183
0.0029692
0.0150885
0.0332915
0.0544874
0.0637361
0.0732522
0.00613964
2.62851e-07
0.000131975
0.00301978
0.0147965
0.0361395
0.053153
0.0719197
0.0755114
0.0831502
0.00430156
2.55495e-07
0.000129657
0.00299334
0.0147733
0.0364417
0.0541478
0.0738185
0.077068
0.0904246
0.0820664
0.00301395
2.48962e-07
0.000126886
0.00289904
0.0151517
0.034468
0.0582122
0.0691539
0.0848526
0.0831945
0.0958963
0.0852367
0.00202742
2.44318e-07
0.000124071
0.00284009
0.0149383
0.034219
0.0580915
0.0693226
0.0854435
0.0837149
0.0946185
0.0911374
0.0948599
0.00132698
2.40022e-07
0.00012166
0.00282883
0.0142167
0.035704
0.0539977
0.0747948
0.0787516
0.0915426
0.0868308
0.0973376
0.0933389
0.0952664
0.000869444
2.3237e-07
0.000119782
0.00278929
0.0140176
0.0352974
0.0536219
0.0745265
0.0786936
0.091601
0.0869904
0.0970387
0.0907762
0.103726
0.0864831
0.000567982
2.26223e-07
0.000116873
0.002714
0.0143348
0.0331589
0.0569171
0.0686872
0.0853086
0.0840329
0.0949578
0.0888755
0.0984807
0.0917398
0.104615
0.0852154
0.000361692
2.20661e-07
0.000114258
0.00265553
0.0141919
0.0329037
0.0565238
0.0683607
0.0850806
0.0839273
0.094953
0.0888578
0.0983991
0.0906781
0.10087
0.09577
0.0910426
0.000226396
2.17235e-07
0.000111559
0.00264579
0.0135137
0.0344096
0.0525871
0.0734924
0.0781021
0.0913139
0.0869223
0.0970953
0.0899741
0.0989297
0.0908114
0.101053
0.095915
0.0970102
0.000141309
2.13058e-07
0.000110077
0.00260257
0.0133392
0.0340172
0.0523361
0.0732287
0.0778996
0.0911527
0.0868412
0.0970489
0.0899955
0.098867
0.0905054
0.0991669
0.0923326
0.105767
0.086094
8.75943e-05
2.07663e-07
0.000108606
0.00253959
0.0136131
0.0320194
0.0555094
0.067627
0.0844085
0.0835369
0.0946779
0.0887771
0.0983702
0.0904468
0.0988803
0.0902755
0.0989744
0.0922757
0.107014
0.0827605
5.35516e-05
2.03655e-07
0.00010632
0.00250783
0.0135068
0.0317557
0.0551644
0.067309
0.0842425
0.0834319
0.0945911
0.0887142
0.098359
0.0904429
0.0989116
0.0902008
0.0982684
0.0903936
0.101127
0.0989938
0.0849951
3.23051e-05
2.00536e-07
0.000104338
0.00250154
0.0129614
0.0332342
0.0513537
0.0723458
0.0773646
0.0907853
0.086606
0.096869
0.0899295
0.0989178
0.0904528
0.0986215
0.0898337
0.0977977
0.0902381
0.101718
0.100658
0.0774217
1.93407e-05
1.97233e-07
0.00010303
0.00247143
0.012812
0.0330211
0.0511693
0.0720785
0.0771817
0.0906272
0.0865445
0.0968093
0.0898954
0.0989097
0.0904775
0.098626
0.0898011
0.0976891
0.0891249
0.0984597
0.0936544
0.112067
0.0627445
1.15155e-05
1.94512e-07
0.000101902
0.00241514
0.0131125
0.0311403
0.0544102
0.0666576
0.0835908
0.0830856
0.0943513
0.0885669
0.0982412
0.0904301
0.0989623
0.0902319
0.0981675
0.0893177
0.097161
0.0888047
0.0984056
0.0944602
0.11145
0.0530554
6.73954e-06
1.92044e-07
0.000100761
0.00239019
0.0130246
0.0309631
0.0541178
0.0664802
0.0834663
0.0829785
0.0942651
0.088507
0.0982109
0.0904111
0.0989688
0.0902557
0.0982118
0.0893132
0.0970226
0.0884802
0.0966967
0.0901816
0.104712
0.0984304
0.045464
3.89485e-06
1.8915e-07
9.94422e-05
0.00240244
0.0125279
0.0324129
0.0505035
0.0714618
0.0767773
0.0902932
0.0863158
0.0966245
0.089785
0.0988599
0.0904802
0.0987085
0.0898577
0.0976554
0.0887917
0.096459
0.0880553
0.0965137
0.0905321
0.106181
0.0953033
0.0338709
2.22268e-06
1.85962e-07
9.82028e-05
0.00238386
0.0124547
0.0322472
0.0503548
0.0712858
0.076623
0.0901995
0.0862707
0.0965624
0.0897483
0.0988377
0.0904798
0.0987042
0.089872
0.0976837
0.088818
0.0964139
0.0878604
0.09575
0.0883642
0.0996532
0.0981843
0.102832
0.0221978
1.25126e-06
1.83029e-07
9.71053e-05
0.00233056
0.0127818
0.0305503
0.0535637
0.06598
0.083021
0.0827265
0.0940709
0.0883552
0.0980727
0.0903602
0.0989554
0.0902684
0.0982689
0.0893905
0.0970799
0.0882745
0.0958363
0.0874663
0.0954835
0.0884903
0.100695
0.0999677
0.1006
0.0142128
6.95842e-07
1.80958e-07
9.58688e-05
0.00230674
0.0126989
0.0304421
0.0534241
0.0658424
0.0829183
0.0826556
0.0940018
0.0883146
0.098036
0.0903335
0.0989491
0.0902705
0.0982798
0.0894022
0.0971053
0.0882935
0.0958247
0.0873075
0.0951234
0.0873644
0.0970013
0.0931723
0.112324
0.0877199
0.00865351
3.86661e-07
1.79636e-07
9.47605e-05
0.00231559
0.0122227
0.0318622
0.049951
0.0708745
0.0763211
0.0899354
0.0861088
0.0964206
0.0896407
0.0987669
0.0904593
0.0987296
0.0898888
0.0977373
0.0888703
0.096483
0.0877553
0.0952729
0.0869532
0.0948683
0.0873841
0.0976243
0.0946288
0.114038
0.0826716
0.00467548
2.04628e-07
1.78266e-07
9.42323e-05
0.00230095
0.0121451
0.0317086
0.0498156
0.0707722
0.0762464
0.0898624
0.086064
0.0963741
0.0896055
0.0987363
0.0904484
0.0987293
0.089906
0.0977404
0.0888827
0.0964853
0.0877735
0.0952688
0.0868937
0.0946811
0.0868066
0.095591
0.0901184
0.105913
0.103215
0.0829744
0.00230016
1.0287e-07
1.76726e-07
9.39281e-05
0.00226249
0.0124739
0.0300457
0.0529832
0.0655345
0.0826476
0.0824795
0.0938441
0.0881938
0.0979212
0.0902666
0.0989068
0.0902741
0.0983115
0.0894321
0.0971295
0.0883244
0.0958516
0.0872635
0.094838
0.0866954
0.0945974
0.0867957
0.0960026
0.0911738
0.108183
0.100474
0.0714125
0.00107553
4.95287e-08
1.74942e-07
9.33082e-05
0.00225351
0.0124446
0.0299662
0.0528331
0.0654099
0.0825566
0.0824385
0.0938054
0.0881583
0.0978866
0.0902504
0.0988976
0.0902629
0.0983111
0.0894433
0.097156
0.0883109
0.0958584
0.087251
0.0948377
0.0866723
0.0945462
0.0866463
0.094855
0.0884585
0.101441
0.100153
0.10625
0.0517141
0.000464125
2.28828e-08
1.73007e-07
9.23297e-05
0.00227286
0.0120364
0.0314411
0.0494463
0.0703802
0.076014
0.0896993
0.0859579
0.0962655
0.0895248
0.0986661
0.090417
0.098708
0.0899024
0.0977763
0.0889126
0.0965217
0.0877411
0.0952711
0.0868599
0.0946046
0.0865885
0.0945031
0.0866428
0.0951449
0.0892367
0.10353
0.101878
0.102711
0.0357964
0.000205092
8.83278e-09
1.70869e-07
9.1513e-05
0.0022604
0.0120017
0.0313909
0.049405
0.070307
0.0759372
0.0896384
0.0859229
0.0962346
0.0895085
0.0986482
0.0903994
0.0987063
0.0898991
0.0977609
0.0889171
0.0965345
0.0877852
0.0952255
0.0868592
0.0945888
0.0865802
0.0944611
0.0865525
0.0946013
0.0875552
0.0988248
0.0963963
0.11412
0.0892428
0.0224654
9.83425e-05
2.54799e-09
1.68755e-07
9.08386e-05
0.00221717
0.0123321
0.0298254
0.0526459
0.0652005
0.0823184
0.0822844
0.0936925
0.0880782
0.0978108
0.0902019
0.0988515
0.09025
0.0983011
0.0894301
0.0971509
0.0883575
0.0958938
0.087249
0.0947702
0.0866463
0.0944867
0.0865198
0.0944263
0.0865474
0.0946893
0.0881724
0.100461
0.0985932
0.11402
0.082609
0.0116053
4.49053e-05
6.28641e-10
1.66716e-07
8.99459e-05
0.00220154
0.0122804
0.0297595
0.052589
0.0651623
0.082289
0.0822536
0.0936564
0.0880487
0.0977846
0.0901883
0.0988392
0.0902408
0.0982966
0.0894407
0.0971543
0.0883319
0.0958866
0.0872593
0.0948052
0.0865985
0.0944733
0.0864966
0.0943991
0.0864782
0.0945162
0.0869465
0.0973781
0.093404
0.111164
0.0998256
0.0794357
0.00546822
1.76382e-05
1.5418e-10
1.64693e-07
8.88371e-05
0.00221448
0.0118536
0.0311783
0.0492402
0.0701792
0.0758379
0.089523
0.0858376
0.0961388
0.0894479
0.0986061
0.0903743
0.0986704
0.089892
0.0977615
0.0889127
0.0965112
0.0877604
0.0952795
0.0868458
0.0945654
0.0865014
0.0944012
0.0864471
0.0943774
0.0864716
0.0945688
0.0874239
0.0987196
0.0954962
0.113088
0.0948766
0.0622987
0.00255757
6.73098e-06
2.12275e-11
1.63028e-07
8.79689e-05
0.00219894
0.0117983
0.0310807
0.0491571
0.0701211
0.0758071
0.0895026
0.0858206
0.0961221
0.089427
0.0985974
0.09037
0.0986654
0.0898877
0.0977516
0.0889038
0.0965259
0.0877596
0.0952365
0.0868486
0.0945655
0.0865281
0.0943534
0.0864235
0.094336
0.0864387
0.0944445
0.0867063
0.0964178
0.091619
0.10783
0.102787
0.100467
0.0392795
0.0011296
2.36587e-06
5.0217e-13
1.61885e-07
8.74764e-05
0.00215578
0.0121068
0.0295013
0.0523217
0.0650036
0.0821847
0.082193
0.0935964
0.0879905
0.097725
0.0901523
0.0988119
0.0902254
0.0982717
0.08943
0.0971434
0.0883471
0.0958705
0.0872071
0.0947725
0.0866282
0.0944551
0.0864513
0.0942833
0.0863833
0.0943252
0.0864459
0.0944932
0.0870434
0.0976125
0.0934655
0.110641
0.101601
0.0939796
0.0228161
0.00042715
5.67263e-07
7.24776e-15
1.61211e-07
8.69966e-05
0.00214314
0.0120491
0.0294162
0.0522218
0.0649298
0.0821365
0.0821695
0.0935777
0.0879728
0.0976973
0.0901362
0.0988011
0.0902146
0.0982635
0.0894189
0.0971407
0.088332
0.0958631
0.0872259
0.0947551
0.0866001
0.0944509
0.0864497
0.0943042
0.0863079
0.0942851
0.0863954
0.0944326
0.0865841
0.0958922
0.090482
0.105311
0.101966
0.108631
0.0738453
0.0118739
0.000137935
9.92165e-08
1.4896e-14
1.61054e-07
8.65348e-05
0.00216258
0.0116435
0.0308003
0.0488872
0.0698858
0.0756792
0.0894251
0.0857718
0.0960714
0.0893701
0.0985438
0.0903376
0.0986495
0.0898762
0.0977298
0.0888842
0.0964899
0.0877557
0.0952346
0.086814
0.0945263
0.0864987
0.0943676
0.086381
0.0942559
0.0862716
0.0942857
0.0864112
0.0944909
0.0868166
0.0970104
0.0921531
0.108257
0.102659
0.103072
0.0576392
0.00519095
3.58908e-05
8.14097e-09
4.10024e-14
1.61089e-07
8.67108e-05
0.00213174
0.0119723
0.0292534
0.0520261
0.0647871
0.0820243
0.0821156
0.0935462
0.0879563
0.0976701
0.0901052
0.0987754
0.0902065
0.0982669
0.0894147
0.0971224
0.0883145
0.0958344
0.0872024
0.0947681
0.0866056
0.094416
0.0864159
0.0942954
0.0863278
0.0942216
0.0862539
0.0943067
0.0864423
0.0945876
0.08737
0.0984786
0.0942229
0.111107
0.101251
0.097148
0.0381083
0.00193148
6.69785e-06
4.94898e-10
5.52922e-14
1.61152e-07
8.65645e-05
0.00215949
0.0116067
0.0306725
0.0487172
0.0697213
0.0755827
0.0893551
0.085739
0.096041
0.0893533
0.0985051
0.09031
0.0986118
0.0898699
0.0977386
0.0888816
0.0964678
0.0877332
0.095203
0.0867913
0.0945336
0.0865045
0.0943213
0.0863435
0.0942384
0.0862878
0.0942086
0.0862518
0.0943505
0.0864851
0.0948635
0.0882678
0.100355
0.0966328
0.113127
0.097226
0.0868966
0.0211763
0.00055602
4.33315e-07
5.79149e-11
2.10743e-14
1.60987e-07
8.68519e-05
0.00213466
0.0119681
0.0292017
0.0518924
0.0646478
0.0819081
0.0820558
0.0934957
0.0879207
0.0976484
0.0900826
0.098747
0.0901776
0.0982307
0.0894092
0.097127
0.0883043
0.0957958
0.0871793
0.094733
0.0865905
0.0944228
0.0864206
0.0942412
0.0862815
0.0942017
0.0862646
0.0942144
0.0862676
0.0944108
0.0865637
0.0955264
0.0894687
0.102696
0.0991132
0.113327
0.0921409
0.0627009
0.00891564
9.4521e-05
2.39396e-08
7.90718e-12
1.47011e-14
1.60603e-07
8.6616e-05
0.00216447
0.0116256
0.0306784
0.0486711
0.0696149
0.075483
0.0892814
0.0856959
0.095999
0.0893283
0.0984919
0.0902954
0.098601
0.0898432
0.0977148
0.0888799
0.0964711
0.0877072
0.0951628
0.0867709
0.0945115
0.0864944
0.0943321
0.0863453
0.0941737
0.0862368
0.0941821
0.0862552
0.0942402
0.0862986
0.0944865
0.086813
0.09659
0.0909867
0.105482
0.101095
0.110251
0.086609
0.0449555
0.00286687
7.47295e-06
2.40936e-08
9.9123e-14
1.24455e-12
1.59839e-07
8.66797e-05
0.00213781
0.0119964
0.0292434
0.0519086
0.0646128
0.0818309
0.0819921
0.0934539
0.0878901
0.0976245
0.0900743
0.0987389
0.0901644
0.0982144
0.0893803
0.0971113
0.0883077
0.0957977
0.087152
0.0947075
0.0865764
0.0944071
0.0864079
0.0942531
0.0862813
0.0941267
0.0862068
0.094183
0.0862615
0.0942878
0.086342
0.0946275
0.0873882
0.098011
0.0928728
0.108455
0.101659
0.104802
0.0766596
0.0227436
0.000558388
4.14954e-07
1.40968e-10
2.93864e-15
1.61042e-12
1.58744e-07
8.61631e-05
0.00216327
0.011646
0.0307382
0.048724
0.0696307
0.075458
0.0892298
0.0856618
0.0959643
0.0893115
0.0984842
0.0902926
0.0985968
0.0898269
0.0976762
0.0888445
0.0964556
0.087713
0.0951652
0.0867511
0.0944919
0.0864778
0.0943117
0.0863321
0.0941855
0.086235
0.0940979
0.0861934
0.0942006
0.0862811
0.0943497
0.0863931
0.0950142
0.0883076
0.0998057
0.0950944
0.111031
0.110902
0.0895892
0.064324
0.00776541
5.04296e-05
8.28453e-08
9.03612e-11
2.1993e-12
1.01368e-14
1.5733e-07
8.59157e-05
0.00213099
0.0119991
0.0292896
0.0519825
0.0646627
0.0818417
0.0819735
0.093418
0.0878571
0.0975913
0.0900651
0.0987381
0.0901712
0.0982073
0.0893625
0.0970655
0.0882687
0.0957731
0.0871562
0.094706
0.0865558
0.0943782
0.0863875
0.0942281
0.0862668
0.0941361
0.0862028
0.0940859
0.0861922
0.0942373
0.0863148
0.094426
0.0865124
0.0958017
0.0895119
0.102029
0.0974888
0.101182
0.106261
0.0830466
0.0377389
0.00151942
3.21334e-06
2.60204e-08
9.63464e-11
6.99534e-12
4.80734e-15
1.55624e-07
8.50702e-05
0.00215004
0.0116252
0.0307538
0.048782
0.0697
0.0754936
0.0892341
0.0856432
0.0959314
0.0892766
0.0984662
0.0902906
0.0986024
0.089832
0.0976753
0.0888223
0.096408
0.0876729
0.0951376
0.0867563
0.0944836
0.0864504
0.0942741
0.0863064
0.0941577
0.0862151
0.0941058
0.0861837
0.0940921
0.0862088
0.0942927
0.0863565
0.0945149
0.086875
0.0969719
0.0910342
0.104691
0.0997041
0.111004
0.0909778
0.0763422
0.0147577
0.000151478
2.2252e-07
1.18274e-11
1.29717e-09
1.07868e-13
2.76696e-13
1.53691e-07
8.45262e-05
0.0021117
0.0119517
0.0292634
0.0520114
0.0647158
0.0818933
0.0819913
0.0934128
0.0878407
0.0975629
0.0900472
0.0987249
0.0901714
0.0982157
0.0893635
0.0970623
0.0882443
0.0957237
0.0871213
0.0946931
0.0865602
0.0943694
0.0863522
0.0941829
0.0862365
0.0941048
0.0861769
0.0940943
0.0861789
0.0941192
0.0862382
0.0943623
0.0864054
0.0947462
0.0875993
0.0984974
0.092935
0.107728
0.100871
0.106517
0.085668
0.0489251
0.00310267
9.24817e-06
9.03056e-09
2.22988e-10
1.58709e-10
1.61805e-13
8.80164e-14
1.51897e-07
8.34672e-05
0.00212456
0.0115547
0.0306797
0.0487643
0.0697311
0.075534
0.0892621
0.0856456
0.0959188
0.0892573
0.0984417
0.0902724
0.0985922
0.0898319
0.0976811
0.0888282
0.0963977
0.0876487
0.0950976
0.08674
0.0944825
0.0864585
0.0942655
0.0862664
0.0941079
0.0861825
0.094069
0.0861554
0.0940975
0.0861904
0.0941662
0.086281
0.0944448
0.0865058
0.0953674
0.0886618
0.100465
0.0952735
0.110554
0.0994688
0.101409
0.0743359
0.0202241
0.000294124
5.17921e-07
1.57289e-11
5.87925e-10
4.02022e-12
2.70962e-13
1.67664e-14
1.502e-07
8.26453e-05
0.00210856
0.0115031
0.030607
0.0487169
0.0697145
0.0755359
0.089275
0.0856522
0.095924
0.0892534
0.0984239
0.0902602
0.0985841
0.0898297
0.0976775
0.0888278
0.0964059
0.087643
0.0950895
0.086731
0.094476
0.086465
0.0942684
0.0862709
0.094096
0.0861472
0.0940436
0.0861467
0.0940648
0.0861851
0.0941764
0.0862298
0.0943695
0.0864717
0.0950121
0.0880052
0.0988995
0.0934792
0.10821
0.100665
0.106038
0.0862816
0.0554741
0.00451358
1.5989e-05
2.99445e-08
1.76905e-13
3.68026e-08
1.23505e-14
2.273e-10
5.93091e-17
1.48533e-07
8.18727e-05
0.00209306
0.0114436
0.0305149
0.0486463
0.0696728
0.0755243
0.0892763
0.0856583
0.095921
0.0892583
0.0984159
0.0902506
0.0985767
0.0898294
0.0976795
0.0888297
0.0964019
0.0876466
0.0950864
0.0867247
0.094466
0.0864565
0.094269
0.0862789
0.0940946
0.0861313
0.0940067
0.0861155
0.0940492
0.0861507
0.0941617
0.0862521
0.0943067
0.0863857
0.0948136
0.0874929
0.0892002
0.101041
0.0959179
0.110799
0.0987651
0.101027
0.0760534
0.0231623
0.000377157
5.8941e-07
3.12468e-10
1.52375e-11
2.00237e-08
1.02209e-13
5.84718e-10
2.37526e-17
1.4715e-07
8.11405e-05
0.00207852
0.0113856
0.0304061
0.0485558
0.0696096
0.0754989
0.0892717
0.0856591
0.0959264
0.0892539
0.0984083
0.0902404
0.0985585
0.0898255
0.0976743
0.0888313
0.0964006
0.0876468
0.095086
0.086723
0.0944585
0.0864482
0.0942565
0.0862865
0.0940971
0.0861343
0.0939886
0.0860699
0.0940195
0.0861388
0.0941223
0.0862401
0.094311
0.0863357
0.0946303
0.0871947
0.0884993
0.0997045
0.0940404
0.108941
0.100308
0.104957
0.0860799
0.0574202
0.00518805
1.55626e-05
2.20032e-08
1.8729e-13
1.44611e-09
1.06074e-10
1.98526e-14
4.7216e-12
2.18603e-16
1.45935e-07
8.0499e-05
0.00206447
0.0113305
0.0303005
0.0484456
0.0695273
0.0754614
0.0892548
0.0856558
0.0959252
0.0892552
0.0984084
0.0902284
0.0985383
0.089811
0.0976631
0.0888272
0.0964016
0.0876407
0.0950912
0.0867202
0.0944565
0.0864411
0.0942442
0.0862787
0.0940997
0.0861477
0.0939875
0.086051
0.0939764
0.0861056
0.0941026
0.0862018
0.0942888
0.0863543
0.0945076
0.0868764
0.0964868
0.0898272
0.102035
0.0965344
0.111142
0.0976102
0.1002
0.0758332
0.0224955
0.000361775
2.51567e-07
8.38082e-10
7.24883e-15
6.84398e-09
9.40834e-11
3.83313e-11
2.89873e-12
5.75883e-17
1.44925e-07
7.99458e-05
0.00205208
0.0112776
0.0302034
0.0483389
0.0694278
0.0754121
0.089231
0.0856478
0.0959159
0.089252
0.0984068
0.0902221
0.0985272
0.0897878
0.0976528
0.0888129
0.0964019
0.0876384
0.0950873
0.0867202
0.0944566
0.0864359
0.0942354
0.086268
0.0940885
0.086159
0.0939934
0.0860549
0.0939529
0.0860553
0.0940682
0.0861883
0.094246
0.0863347
0.0944866
0.0866154
0.0959467
0.089215
0.10066
0.095009
0.109578
0.0996706
0.103338
0.0849471
0.0557529
0.00455294
8.34254e-06
2.39557e-09
1.96255e-12
4.76024e-13
2.29494e-10
1.74528e-09
4.01313e-12
2.19473e-10
7.01376e-19
1.44159e-07
7.94912e-05
0.00204153
0.0112306
0.0301061
0.0482437
0.0693286
0.0753522
0.089198
0.0856336
0.0959096
0.0892453
0.0984045
0.0902118
0.09851
0.0897738
0.0976327
0.088806
0.0963908
0.0876498
0.0950807
0.0867192
0.0944536
0.0864338
0.0942281
0.0862562
0.0940738
0.0861494
0.0939979
0.0860722
0.0939499
0.0860335
0.0940172
0.0861519
0.0942229
0.0862943
0.0944576
0.0865469
0.0871545
0.0971712
0.090699
0.103199
0.0974756
0.111025
0.0959055
0.0990227
0.0729793
0.0190477
0.000222004
3.564e-08
1.1365e-10
2.80755e-12
1.31458e-11
2.83653e-10
9.45803e-11
1.95094e-11
8.89395e-11
1.50809e-19
1.43613e-07
7.91423e-05
0.0020328
0.0111898
0.0300187
0.0481477
0.0692398
0.0752922
0.0891539
0.0856131
0.0958999
0.0892391
0.0984025
0.0902141
0.0984984
0.0897629
0.097613
0.0887925
0.0963704
0.0876498
0.0950941
0.0867175
0.094452
0.0864312
0.0942267
0.0862466
0.0940588
0.0861366
0.0939854
0.0860887
0.093958
0.0860366
0.0939902
0.0860974
0.0941853
0.0862806
0.0944179
0.0864808
0.0951935
0.0880451
0.0987514
0.0925818
0.106137
0.0993903
0.109153
0.0909381
0.092631
0.0467587
0.00225308
1.84992e-06
2.78605e-12
2.26079e-10
1.21831e-12
3.37096e-10
2.1906e-10
8.55364e-17
3.70224e-11
2.95117e-11
2.61367e-20
1.43295e-07
7.90964e-05
0.00200146
0.0114921
0.0285344
0.0512122
0.0642012
0.0815783
0.0818681
0.0933561
0.0878019
0.0975223
0.0899936
0.0986448
0.0900843
0.0981254
0.0892994
0.0970015
0.0882001
0.0956931
0.0871038
0.0946636
0.0865325
0.0943344
0.0863287
0.0941288
0.0861701
0.0939967
0.0860927
0.09396
0.0860746
0.0939666
0.0860475
0.0940358
0.08614
0.094266
0.0863366
0.0864145
0.0949899
0.0877174
0.0979495
0.0915814
0.104675
0.0983427
0.110624
0.0936624
0.0972295
0.0676905
0.0129437
7.35902e-05
9.4834e-10
4.2846e-12
4.53366e-12
3.24127e-12
3.31634e-11
2.70962e-08
9.20105e-14
9.63455e-09
6.44314e-14
9.15695e-20
1.43201e-07
7.87734e-05
0.0020217
0.0111325
0.0298837
0.047982
0.0690653
0.0751776
0.0890723
0.0855697
0.0958695
0.0892258
0.0983955
0.0902005
0.0984949
0.0897471
0.0975863
0.0887563
0.0963225
0.0876038
0.09508
0.0867261
0.0944542
0.0864249
0.0942206
0.0862358
0.0940438
0.0861063
0.0939503
0.0860609
0.0939526
0.0860753
0.0939922
0.0860755
0.0941009
0.0861916
0.094355
0.0944835
0.0866194
0.0957668
0.0887765
0.0997692
0.0936619
0.107628
0.0995229
0.107152
0.089541
0.0888333
0.0374328
0.000816725
7.3298e-08
3.53274e-14
3.80035e-12
7.1029e-12
5.88311e-13
3.20823e-11
9.24085e-09
1.366e-12
1.0312e-08
1.35324e-14
1.1322e-20
1.43207e-07
7.8927e-05
0.00199477
0.0114495
0.0284353
0.051063
0.0640617
0.0814523
0.0818017
0.0933102
0.0877787
0.097507
0.0899913
0.0986463
0.09008
0.0981084
0.0892794
0.0969563
0.0881651
0.0956347
0.0870744
0.0946592
0.0865416
0.0943387
0.0863222
0.0941205
0.0861564
0.0939745
0.0860566
0.0939193
0.0860447
0.0939612
0.0860896
0.0940382
0.0861157
0.0941784
0.0862515
0.0944468
0.0865305
0.0954443
0.088365
0.0990392
0.0926419
0.106183
0.0991405
0.109007
0.091454
0.0953557
0.0590732
0.00620744
8.78656e-06
2.00572e-13
4.80855e-11
3.66304e-12
7.10958e-11
5.20872e-15
2.12485e-08
1.03674e-11
1.41327e-09
4.10581e-11
1.36735e-13
3.71244e-23
1.43369e-07
7.87577e-05
0.00201913
0.0111079
0.0298078
0.0478741
0.0689388
0.0750803
0.0889913
0.0855298
0.0958412
0.0892056
0.0983948
0.090214
0.098499
0.0897517
0.0975718
0.0887306
0.09628
0.0875616
0.0950313
0.0867145
0.0944532
0.0864372
0.094227
0.0862282
0.094036
0.086089
0.0939239
0.086021
0.0939066
0.0860421
0.0939883
0.0861186
0.0940995
0.0861662
0.0942708
0.0863132
0.0946091
0.086961
0.0964798
0.0896042
0.101132
0.0949179
0.10893
0.0991953
0.104211
0.0878068
0.0827179
0.0247978
0.000139403
8.69667e-10
1.29253e-12
1.52672e-10
8.22541e-12
1.4925e-10
8.53923e-14
4.99206e-08
2.17371e-13
1.10883e-08
1.8161e-11
1.2268e-14
3.25023e-24
1.43415e-07
7.90115e-05
0.00199503
0.0114401
0.0283962
0.0509745
0.0639732
0.0813588
0.0817348
0.0932601
0.0877457
0.0974823
0.0899881
0.0986543
0.0900887
0.0981151
0.0892772
0.0969382
0.088132
0.0955843
0.0870312
0.0946348
0.0865373
0.0943366
0.0863352
0.0941245
0.0861481
0.0939644
0.0860357
0.0938886
0.0859977
0.0939115
0.086052
0.0940338
0.0861601
0.0941737
0.0862293
0.0862938
0.0945254
0.086811
0.096154
0.0891342
0.10032
0.0940116
0.107708
0.0992193
0.106675
0.0894804
0.0911566
0.0469344
0.00164562
3.39691e-07
4.65123e-14
1.49252e-11
2.81226e-12
3.44025e-10
4.72798e-12
6.65928e-11
2.02124e-10
4.15183e-13
2.68593e-10
7.1759e-10
1.91014e-17
6.77927e-24
1.43634e-07
7.88806e-05
0.00202116
0.0111105
0.0297966
0.0478314
0.0688641
0.0750162
0.0889311
0.0854863
0.095802
0.089188
0.098382
0.0902278
0.0985137
0.089752
0.0975759
0.0887131
0.0962528
0.0875142
0.0949814
0.0866889
0.0944399
0.0864316
0.094227
0.0862442
0.0940414
0.0860787
0.0939091
0.0859942
0.0938701
0.0859877
0.0939336
0.0860772
0.0940927
0.0862093
0.0942565
0.0862886
0.0944663
0.0866465
0.095862
0.0887911
0.0996128
0.0931667
0.106598
0.0988674
0.108224
0.0909785
0.0956293
0.0639703
0.00921139
1.6758e-05
6.14023e-13
8.19885e-11
2.39169e-11
6.28415e-12
9.95722e-12
1.72095e-11
2.68704e-11
1.66838e-08
9.10309e-13
7.45527e-08
9.77767e-13
7.94078e-17
1.22117e-26
1.43824e-07
7.89729e-05
0.00202266
0.0111167
0.0298032
0.0478343
0.0688503
0.0749986
0.0889119
0.0854724
0.0957853
0.0891749
0.0983738
0.0902214
0.0985219
0.0897606
0.0975846
0.0887146
0.096241
0.0875105
0.0949578
0.0866784
0.0944246
0.086428
0.094218
0.086249
0.0940483
0.0860895
0.0939032
0.0859842
0.0938574
0.0859686
0.0939032
0.0860447
0.0940627
0.086189
0.0862642
0.0943517
0.086345
0.094691
0.0872252
0.0970388
0.090144
0.101843
0.095474
0.109123
0.0983671
0.103178
0.0875049
0.0839938
0.029055
0.000114428
8.51183e-10
4.57365e-12
1.69399e-10
5.16936e-12
1.02975e-09
2.0996e-11
1.23329e-11
2.2269e-10
2.18347e-09
2.88524e-11
5.42647e-08
1.13148e-13
4.48674e-18
4.81683e-28
1.43828e-07
7.90554e-05
0.00202466
0.0111237
0.0298154
0.0478436
0.068854
0.074989
0.0888963
0.0854624
0.0957694
0.0891601
0.0983702
0.090208
0.0985263
0.0897609
0.0975995
0.088723
0.0962459
0.0875047
0.0949576
0.0866671
0.0944157
0.0864176
0.0942098
0.086247
0.0940501
0.0861017
0.0939147
0.0859789
0.0938501
0.0859539
0.0938833
0.08601
0.0940281
0.0861578
0.0862402
0.0943587
0.0863662
0.0946272
0.0870019
0.0966503
0.0897207
0.101126
0.0946584
0.108268
0.098869
0.105315
0.0888239
0.0908615
0.0482907
0.00172013
3.57264e-07
7.08758e-13
1.16384e-10
1.93292e-11
6.21405e-12
2.88555e-11
9.73058e-10
4.86719e-13
7.79884e-08
8.8324e-14
7.21562e-08
1.33671e-10
6.78554e-13
2.85421e-21
4.8748e-28
1.4411e-07
7.90887e-05
0.00202631
0.011132
0.0298282
0.0478546
0.0688627
0.0749892
0.0888849
0.0854516
0.0957557
0.0891503
0.0983611
0.0902146
0.0985202
0.0897708
0.0976052
0.0887358
0.0962561
0.0875037
0.0949525
0.0866614
0.0944095
0.0864065
0.0941978
0.0862427
0.0940427
0.0861122
0.0939259
0.0859933
0.0938424
0.0859426
0.0938691
0.0859838
0.0939914
0.0861189
0.0942142
0.0862953
0.0944527
0.0864733
0.0951147
0.0878385
0.098073
0.0913168
0.103672
0.0969556
0.109755
0.0961486
0.100191
0.0850632
0.0683499
0.0113679
1.56682e-06
8.51573e-14
7.04231e-11
1.14774e-10
1.47798e-14
3.82954e-10
9.25148e-11
1.66199e-10
1.11374e-10
3.91344e-08
1.38836e-13
2.25201e-07
2.7309e-11
2.80487e-14
8.61878e-23
1.11475e-29
1.4407e-07
7.93865e-05
0.00200217
0.011473
0.02844
0.0510001
0.0639534
0.0813
0.0816732
0.0931839
0.087684
0.0974168
0.0899538
0.0986546
0.0900998
0.0981501
0.0893044
0.0969783
0.0881328
0.0955582
0.0869748
0.0945781
0.0864983
0.0942837
0.0863046
0.0940991
0.0861688
0.0939773
0.0860629
0.0938907
0.0859661
0.0938361
0.0859421
0.0938981
0.0860115
0.0940556
0.0941748
0.0862612
0.094429
0.0864671
0.0950099
0.0876063
0.0976441
0.0908046
0.102886
0.0962871
0.109354
0.0971726
0.101596
0.0867016
0.0815681
0.0258062
4.45927e-05
4.54422e-09
3.96554e-11
3.5944e-10
1.14678e-11
2.69167e-11
3.1878e-10
2.79428e-09
6.34841e-17
4.5973e-08
8.38227e-11
5.34712e-09
1.47592e-09
3.30218e-10
1.13336e-17
1.29419e-22
4.34045e-33
1.44046e-07
7.92028e-05
0.00200449
0.0114764
0.0284531
0.0510163
0.0639634
0.0813068
0.0816761
0.0931805
0.0876777
0.0974083
0.0899422
0.0986451
0.0901031
0.0981449
0.0893112
0.0969901
0.0881517
0.0955719
0.0869756
0.0945726
0.0864884
0.0942778
0.0862877
0.0940819
0.0861552
0.0939683
0.0860638
0.0939012
0.0859881
0.0938503
0.0859337
0.0938873
0.0859914
0.0940264
0.086124
0.0942619
0.0863173
0.0945516
0.0867384
0.095814
0.088651
0.0993472
0.0926861
0.10567
0.0982148
0.109002
0.0928533
0.0979158
0.0796904
0.0442411
0.00170921
7.37675e-10
3.63828e-11
2.24061e-10
5.6632e-11
1.13518e-14
6.51152e-11
3.72043e-10
1.34266e-10
6.78529e-12
7.70275e-08
7.76205e-13
1.39303e-07
6.83806e-10
1.62494e-11
2.43235e-19
1.98264e-24
3.86671e-35
1.43997e-07
7.91834e-05
0.00202954
0.0111504
0.0298643
0.0478969
0.0688986
0.0750057
0.0888924
0.0854377
0.0957334
0.0891266
0.0983333
0.0901987
0.09852
0.0897725
0.0976273
0.0887691
0.0963149
0.0875385
0.0949604
0.0866437
0.094392
0.0863763
0.0941594
0.0861961
0.0939995
0.0860938
0.0939213
0.0860328
0.0938851
0.0859769
0.0938614
0.0859436
0.0939319
0.0860278
0.0860915
0.0942153
0.0862783
0.0945014
0.0866566
0.0956711
0.0884234
0.0988889
0.0921408
0.10486
0.0977076
0.109514
0.0944287
0.0989489
0.0831661
0.0619487
0.0072217
1.69858e-07
3.12256e-10
1.49329e-10
6.16634e-11
4.80254e-14
9.79338e-12
3.11675e-11
2.18041e-09
1.42322e-11
9.36876e-09
2.43493e-10
7.89179e-12
3.57998e-09
1.7638e-08
4.64366e-15
3.11147e-19
2.36796e-28
1.0383e-35
1.4392e-07
7.93499e-05
0.00200424
0.0114873
0.0298801
0.0479078
0.0689122
0.0750149
0.0888931
0.0854395
0.095723
0.0891218
0.098329
0.0901945
0.098515
0.0897724
0.0976264
0.0887776
0.0963262
0.0875553
0.0949792
0.0866491
0.0943908
0.0863684
0.094149
0.0861864
0.093979
0.086075
0.093903
0.0860331
0.0938842
0.0860006
0.093881
0.0859638
0.0939138
0.0860184
0.094076
0.0861417
0.0943102
0.0863296
0.09475
0.0871952
0.0967722
0.0896827
0.100921
0.0942843
0.107584
0.0985545
0.106365
0.0898632
0.0952902
0.0674451
0.0148454
6.54733e-05
3.23718e-12
4.91639e-10
7.50903e-11
6.79216e-14
9.3303e-13
9.79826e-11
1.93353e-11
1.63426e-09
2.3511e-14
4.7411e-08
4.89021e-11
2.91827e-08
3.30718e-09
1.2024e-09
7.28267e-17
3.04545e-21
1.2526e-30
3.47338e-38
1.43762e-07
7.93174e-05
0.00200365
0.0114854
0.0284765
0.0510622
0.0639971
0.0813332
0.0816842
0.0931805
0.0876613
0.097384
0.0899325
0.0986209
0.0900914
0.0981452
0.08932
0.0970083
0.0881836
0.0956266
0.087012
0.094594
0.0864822
0.0942617
0.086258
0.0940437
0.0861057
0.0939095
0.0860259
0.0938737
0.086016
0.0938866
0.0860079
0.0939114
0.0859878
0.0939649
0.0860575
0.0941568
0.0861989
0.0944061
0.0864705
0.0953546
0.0880483
0.0982083
0.0912734
0.103409
0.0965226
0.10923
0.0964647
0.100991
0.0866474
0.0833162
0.0313759
9.15018e-05
6.46316e-09
1.89946e-10
2.95877e-10
1.75539e-14
7.34304e-12
1.27149e-11
1.01322e-10
7.45822e-11
3.69381e-10
3.68719e-11
9.01094e-08
7.38195e-15
5.2469e-07
1.44776e-09
3.53647e-11
6.48514e-19
1.81484e-23
3.58857e-33
5.54192e-41
1.43682e-07
7.90658e-05
0.00202776
0.0111477
0.0298799
0.0479206
0.0689354
0.0750242
0.0889022
0.0854399
0.0957221
0.0891112
0.0983098
0.0901902
0.0984914
0.0897727
0.0976202
0.0887801
0.0963279
0.0875761
0.0950073
0.0866655
0.0944037
0.0863637
0.0941399
0.0861591
0.0939536
0.0860381
0.0938565
0.0859926
0.0938607
0.0860143
0.0939074
0.0860277
0.0939547
0.093984
0.0860406
0.0941423
0.0861769
0.0943746
0.0864029
0.095192
0.0878573
0.0979179
0.0909305
0.102829
0.0959604
0.108852
0.0971571
0.102234
0.0875779
0.0889051
0.0453411
0.000847232
2.67593e-07
2.79883e-10
5.08863e-10
2.64959e-12
1.05905e-11
4.90954e-11
9.67665e-12
9.37407e-13
2.95391e-09
9.75792e-12
2.33853e-08
2.95273e-10
2.17072e-09
1.11713e-08
1.94662e-08
3.92523e-15
3.75185e-19
4.73805e-28
5.22566e-34
3.67705e-44
1.43449e-07
7.89936e-05
0.00202637
0.0111442
0.0298737
0.0479183
0.0689341
0.0750345
0.0889031
0.0854391
0.0957217
0.0891076
0.098297
0.090183
0.0984871
0.0897607
0.0976111
0.0887751
0.0963284
0.0875769
0.0950193
0.0866717
0.0944087
0.0863707
0.094141
0.0861515
0.0939415
0.0860172
0.0938418
0.0859659
0.0938348
0.0859972
0.0939088
0.0860437
0.0939829
0.0940097
0.0860618
0.0941209
0.0861654
0.094351
0.0863537
0.0950389
0.0876678
0.0976399
0.0906066
0.102326
0.0954793
0.108474
0.0977085
0.10357
0.0882593
0.0922033
0.0570834
0.00453658
5.27697e-06
6.74071e-12
1.12726e-09
4.27278e-11
6.98215e-13
3.90654e-11
1.75907e-10
4.87668e-12
4.94516e-10
1.92812e-11
4.12604e-11
6.67187e-10