/*--------------------------------*- C++ -*----------------------------------*\
| =========                 |                                                 |
| \\      /  F ield         | OpenFOAM: The Open Source CFD Toolbox           |
|  \\    /   O peration     | Version:  v2012                                 |
|   \\  /    A nd           | Website:  www.openfoam.com                      |
|    \\/     M anipulation  |                                                 |
\*---------------------------------------------------------------------------*/
FoamFile
{
    version     2.0;
    format      ascii;
    class       volScalarField;
    location    "3900";
    object      I2;
}
// * * * * * * * * * * * * * * * * * * * * * * * * * * * * * * * * * * * * * //

dimensions      [0 0 0 0 0 0 0];


internalField   nonuniform List<scalar> 
29502
(
5.5408e-06
9.34271e-08
0.0024724
8.75163e-08
8.52833e-05
0.00817825
1.84444e-07
4.83484e-05
0.00221811
0.0125973
2.257e-07
6.50752e-05
0.00192478
0.00688656
0.0192183
1.67442e-07
0.000116235
0.00161095
0.0113024
0.0165046
0.0158882
1.76596e-07
0.000127026
0.00183568
0.0135487
0.0193478
0.0448292
0.00794879
2.68908e-07
8.795e-05
0.00298189
0.00961803
0.0345189
0.0334865
0.0633087
0.00589176
2.67939e-07
8.87887e-05
0.00305926
0.010059
0.0368662
0.0363264
0.0735154
0.04877
0.00645519
1.75234e-07
0.000132804
0.00201318
0.0158277
0.0240933
0.0605252
0.0479486
0.088257
0.0553578
0.00448247
1.7033e-07
0.000130465
0.00199556
0.015802
0.0242945
0.0617372
0.0492139
0.0902101
0.0602911
0.096666
0.00200754
2.4903e-07
8.45907e-05
0.00298593
0.0101011
0.0382404
0.0388082
0.0802644
0.0565704
0.0980027
0.0639396
0.100762
0.00134903
2.44384e-07
8.2714e-05
0.00292432
0.00995885
0.0379497
0.0387275
0.0804773
0.0569631
0.0986904
0.0630794
0.108266
0.0631582
0.0013549
1.60014e-07
0.000122393
0.00188588
0.0151871
0.0238026
0.0615562
0.0498629
0.0923696
0.0610291
0.102686
0.0648902
0.111123
0.0634387
0.000883334
1.54913e-07
0.000120499
0.00185952
0.0149673
0.0235315
0.0610996
0.0496839
0.0922973
0.0610671
0.102901
0.0646937
0.107725
0.0691507
0.102459
0.000376915
2.26282e-07
7.7915e-05
0.00279263
0.00955648
0.0367134
0.0379445
0.0796856
0.0568717
0.0991114
0.0633046
0.105328
0.065654
0.108968
0.0697344
0.100879
0.000239817
2.20718e-07
7.61719e-05
0.00273162
0.0094612
0.0364161
0.0376823
0.079278
0.0567196
0.0989781
0.0633007
0.105311
0.0655988
0.107628
0.0672407
0.114268
0.0606596
0.000227473
1.44823e-07
0.000112203
0.00176385
0.0144117
0.0229396
0.0598418
0.0489945
0.0915499
0.0608748
0.102825
0.0647285
0.10675
0.0659517
0.107789
0.0673605
0.114469
0.0646378
0.000141587
1.42038e-07
0.000110708
0.00173504
0.0142196
0.022678
0.0595375
0.0488185
0.0912929
0.0607676
0.102723
0.0646976
0.106784
0.0659088
0.107418
0.0661045
0.109732
0.0704758
0.102191
5.79259e-05
2.07714e-07
7.24042e-05
0.00261071
0.00907533
0.0353875
0.037006
0.0783619
0.0562714
0.0984815
0.0631174
0.105219
0.0655781
0.107366
0.0659167
0.107113
0.065972
0.109646
0.0712961
0.0980074
3.53806e-05
2.03705e-07
7.08796e-05
0.00257761
0.00900447
0.035081
0.036776
0.0779655
0.0561607
0.0983462
0.0630595
0.10514
0.0655705
0.107367
0.0659376
0.107029
0.065506
0.10721
0.0673894
0.118578
0.056719
3.21513e-05
1.33691e-07
0.000104921
0.00166769
0.013804
0.0221559
0.0583459
0.04823
0.0906147
0.0605222
0.102421
0.0645777
0.10671
0.0659426
0.107378
0.0657434
0.106549
0.0651895
0.107002
0.0677769
0.120818
0.0517089
1.92115e-05
1.31489e-07
0.000103601
0.00164762
0.01364
0.0220138
0.0581221
0.0480517
0.0903822
0.0604171
0.102343
0.0645376
0.106666
0.0659374
0.107416
0.065747
0.106523
0.0651187
0.105598
0.0656159
0.111473
0.0746435
0.0730206
7.58499e-06
1.94559e-07
6.79348e-05
0.00248107
0.00874158
0.0343669
0.036273
0.0771521
0.0557263
0.097904
0.0628996
0.104949
0.0654918
0.107358
0.065972
0.107098
0.0654407
0.105896
0.0647651
0.105175
0.0655715
0.112558
0.0742409
0.0611156
4.43408e-06
1.9209e-07
6.71741e-05
0.0024551
0.00868304
0.0341613
0.0360781
0.0769312
0.055643
0.0977665
0.0628419
0.104875
0.0654715
0.107332
0.0659762
0.107131
0.0654701
0.1059
0.0646742
0.104788
0.0644447
0.106882
0.0697574
0.118271
0.030463
3.84688e-06
1.261e-07
9.9984e-05
0.00160163
0.013328
0.0216084
0.0573167
0.0476403
0.0898683
0.0601939
0.102049
0.0644145
0.106527
0.0659037
0.107422
0.0658021
0.106616
0.0650985
0.105225
0.0642968
0.104233
0.0643183
0.107325
0.0707215
0.114413
0.0227324
2.18979e-06
1.23974e-07
9.87343e-05
0.00158924
0.0132477
0.021498
0.057137
0.0475233
0.0896735
0.0601315
0.101989
0.0643731
0.106477
0.0658898
0.107422
0.065799
0.106635
0.0651178
0.105269
0.0642687
0.104004
0.0638167
0.104588
0.0663752
0.117515
0.0686426
0.0245439
8.18709e-07
1.83071e-07
6.47367e-05
0.00239302
0.00852116
0.0336833
0.0357088
0.0763097
0.0553466
0.0974449
0.0627121
0.104674
0.0653796
0.107269
0.0659681
0.107149
0.0655083
0.106012
0.0647145
0.104568
0.0638824
0.103493
0.0636354
0.104748
0.0670661
0.11991
0.0672548
0.0154891
4.53876e-07
1.80999e-07
6.39124e-05
0.00236824
0.00846586
0.0335576
0.0356157
0.0761381
0.0552782
0.0973539
0.0626665
0.104623
0.0653546
0.107234
0.0659632
0.107158
0.0655155
0.106027
0.0647311
0.104596
0.0638754
0.103308
0.0633997
0.103328
0.0646253
0.110857
0.074803
0.10557
0.00585885
3.75262e-07
1.19758e-07
9.52642e-05
0.00154372
0.0129932
0.0212412
0.0566481
0.0472489
0.0892916
0.0599559
0.101783
0.0642787
0.106336
0.0658414
0.107397
0.0658165
0.106666
0.0651532
0.105341
0.0643153
0.103902
0.0635064
0.102851
0.0632268
0.103352
0.0650325
0.112842
0.0759534
0.0993944
0.0031807
1.96623e-07
1.18844e-07
9.4732e-05
0.00153396
0.0129081
0.0211387
0.0564845
0.0471805
0.089195
0.0599072
0.101725
0.0642475
0.106293
0.0658214
0.10738
0.0658162
0.106684
0.0651574
0.105359
0.0643171
0.103925
0.0635044
0.10279
0.0631072
0.102638
0.0636937
0.106863
0.0705454
0.124544
0.0558605
0.00242029
6.62149e-08
1.76766e-07
6.26187e-05
0.00232223
0.00831587
0.0330989
0.0353215
0.0757533
0.055097
0.0971257
0.0625614
0.104469
0.0652785
0.107149
0.0659347
0.107155
0.0655373
0.106072
0.06475
0.104639
0.0638939
0.103269
0.063216
0.102536
0.0630491
0.102625
0.0639622
0.108273
0.0720519
0.12122
0.0481852
0.00111833
3.16288e-08
1.74982e-07
6.22054e-05
0.00231289
0.00829634
0.0330069
0.0352214
0.0755984
0.0550362
0.0970731
0.0625351
0.104423
0.0652558
0.107126
0.0659292
0.107143
0.0655362
0.106085
0.0647662
0.104635
0.0638984
0.103255
0.0632153
0.102511
0.0630178
0.102458
0.063207
0.104752
0.067566
0.120311
0.0709611
0.0604719
0.000322849
2.01761e-08
1.15338e-07
9.28145e-05
0.00151524
0.0127891
0.0209605
0.0560385
0.0469191
0.0889002
0.0597976
0.101585
0.0641749
0.106188
0.0657751
0.107342
0.0658025
0.106678
0.0651792
0.105401
0.0643429
0.103904
0.063506
0.102753
0.0630586
0.102405
0.0629873
0.102457
0.0633963
0.105782
0.0689553
0.122719
0.0687911
0.0409149
0.000143436
7.5272e-09
1.13913e-07
9.19914e-05
0.00150693
0.0127511
0.0209272
0.0559891
0.0468704
0.0888029
0.059757
0.10154
0.0641539
0.106164
0.0657632
0.107319
0.0658008
0.106676
0.0651699
0.105402
0.0643514
0.103951
0.0634802
0.102754
0.0630492
0.102393
0.0629603
0.102362
0.0630435
0.103627
0.0658287
0.115291
0.0760484
0.10843
0.0152157
9.78487e-05
1.54312e-09
1.68793e-07
6.05591e-05
0.00227512
0.00822134
0.0328445
0.0350969
0.0753389
0.0548775
0.0968756
0.0624594
0.104315
0.0652042
0.107061
0.0658984
0.107126
0.0655302
0.106071
0.0647629
0.104681
0.0639238
0.103263
0.0631766
0.102482
0.0629799
0.102319
0.0629357
0.102359
0.0630991
0.104443
0.0669167
0.118299
0.0760309
0.100711
0.00787268
4.41321e-05
3.66159e-10
1.66753e-07
5.99639e-05
0.00225886
0.0081869
0.0327683
0.0350591
0.075292
0.0548582
0.0968361
0.0624353
0.104277
0.0651866
0.107042
0.0658896
0.107115
0.0655274
0.106081
0.0647659
0.104654
0.0639179
0.103275
0.0631971
0.102446
0.062971
0.102292
0.0629178
0.102279
0.0629881
0.102877
0.0648727
0.111354
0.0740679
0.120844
0.054245
0.00583818
1.25181e-05
8.8647e-11
1.09795e-07
8.92944e-05
0.00147632
0.012589
0.0207854
0.0557908
0.0467857
0.088679
0.0596806
0.10143
0.0640899
0.106084
0.065734
0.107283
0.0657767
0.106664
0.0651701
0.1054
0.0643369
0.10392
0.0635128
0.102745
0.0630367
0.102327
0.0629219
0.102233
0.0629017
0.102282
0.0630198
0.103512
0.0657638
0.114182
0.0753775
0.115023
0.0428666
0.00270326
4.81035e-06
7.52979e-12
1.08685e-07
8.84195e-05
0.00146595
0.0125285
0.0207203
0.0556911
0.046747
0.088641
0.0596672
0.101409
0.0640788
0.106057
0.0657283
0.107277
0.0657729
0.106655
0.0651639
0.105387
0.0643455
0.103922
0.0634858
0.102744
0.063037
0.102346
0.0628981
0.102208
0.0628755
0.102233
0.0629455
0.102593
0.064242
0.109044
0.0718431
0.124425
0.0676567
0.0461097
0.000778989
2.33288e-06
1.79157e-13
1.61921e-07
5.83175e-05
0.00221131
0.00807115
0.0324699
0.0348807
0.0750951
0.0547892
0.0967616
0.0623961
0.104203
0.0651471
0.106995
0.065871
0.107091
0.06551
0.106064
0.064758
0.104669
0.0639081
0.103213
0.0631763
0.102464
0.062963
0.102252
0.0628509
0.102162
0.062867
0.102253
0.0629772
0.103053
0.0650369
0.111534
0.07374
0.123183
0.0639222
0.0257923
0.000300031
5.70961e-07
1.30631e-16
1.61247e-07
5.79976e-05
0.00219818
0.00803269
0.0323716
0.034814
0.0750026
0.0547566
0.0967319
0.0623838
0.104182
0.065129
0.106974
0.0658639
0.107078
0.0655049
0.106049
0.0647554
0.104651
0.0639026
0.103229
0.0631657
0.102437
0.0629591
0.102249
0.0628611
0.102101
0.0628406
0.102189
0.0629344
0.102479
0.0638966
0.107605
0.0701678
0.123258
0.0726762
0.0913014
0.00804741
0.000143499
1.00131e-07
1.41768e-15
1.07369e-07
8.69744e-05
0.00144172
0.012359
0.0205333
0.0553644
0.0465897
0.0884779
0.0596154
0.101349
0.0640459
0.105985
0.0656929
0.107235
0.0657626
0.106642
0.0651489
0.105359
0.0643211
0.103909
0.0634829
0.102701
0.063013
0.102312
0.0629031
0.102168
0.0628285
0.102064
0.0628397
0.102221
0.0629721
0.102805
0.0646415
0.109861
0.07215
0.124451
0.0693051
0.0710302
0.00348457
3.68477e-05
6.2211e-09
8.79272e-15
1.61124e-07
5.78071e-05
0.00218633
0.00798149
0.0321836
0.0346835
0.074825
0.0546817
0.0966618
0.0623625
0.104162
0.0651114
0.106936
0.065847
0.107065
0.0655075
0.106047
0.0647439
0.104626
0.0638836
0.103197
0.0631712
0.102436
0.0629393
0.102212
0.0628544
0.102107
0.0628052
0.102052
0.0628523
0.102276
0.0630358
0.103556
0.0656216
0.112675
0.0740831
0.122942
0.0659366
0.0457106
0.00129443
6.46025e-06
4.22023e-10
1.65367e-14
1.07435e-07
8.70044e-05
0.00143965
0.0123188
0.0204481
0.0551592
0.0464799
0.0883552
0.0595685
0.101306
0.0640255
0.105965
0.0656676
0.107201
0.0657375
0.10663
0.0651552
0.105361
0.0643075
0.103878
0.0634621
0.10267
0.0630141
0.10231
0.0628761
0.102126
0.0628159
0.102065
0.0627963
0.102063
0.0628801
0.102351
0.0632195
0.104766
0.066877
0.115989
0.0754819
0.118214
0.0601395
0.0148273
0.000567863
4.4341e-07
5.73167e-11
1.04267e-14
1.61022e-07
5.79011e-05
0.00218937
0.00797864
0.0321238
0.0345944
0.0746516
0.054604
0.0965843
0.0623286
0.104114
0.0650969
0.106908
0.0658285
0.107029
0.065483
0.106036
0.0647474
0.104619
0.0638596
0.103167
0.0631482
0.102414
0.0629395
0.102206
0.0628227
0.102054
0.0627909
0.102046
0.0627999
0.1021
0.0629191
0.102477
0.0636622
0.106388
0.0684469
0.119469
0.0756881
0.112565
0.0788285
0.00609087
9.75266e-05
3.71805e-08
3.45927e-12
1.94164e-15
1.07069e-07
8.70563e-05
0.00144297
0.0123394
0.020452
0.0551034
0.046409
0.0882284
0.0595192
0.101249
0.0639971
0.105932
0.0656588
0.107184
0.0657307
0.106597
0.0651386
0.105354
0.0643103
0.103853
0.0634377
0.102645
0.063
0.102293
0.0628784
0.102115
0.0627777
0.102005
0.0627774
0.102047
0.0628171
0.102159
0.0629686
0.102831
0.0643734
0.108448
0.0703223
0.122374
0.0737497
0.106928
0.0326036
0.00293818
5.45197e-06
5.25184e-09
1.72753e-14
2.08649e-17
1.59873e-07
5.77864e-05
0.00219264
0.00799755
0.0321718
0.0346052
0.0746076
0.0545525
0.096502
0.0623005
0.104074
0.0650804
0.106896
0.0658232
0.107014
0.0654725
0.105998
0.0647358
0.104617
0.0638615
0.103142
0.0631344
0.102398
0.0629299
0.102186
0.0628251
0.102039
0.0627465
0.101977
0.0627775
0.102071
0.062849
0.102239
0.0630621
0.103617
0.0653252
0.111024
0.0723354
0.123477
0.0703636
0.0964363
0.0163047
0.000540002
3.29832e-07
1.93125e-11
3.69582e-17
1.41507e-18
1.0583e-07
8.65999e-05
0.00144217
0.0123618
0.0204919
0.055167
0.0464195
0.0881962
0.0594847
0.101204
0.0639737
0.105908
0.0656532
0.107179
0.065728
0.106577
0.0651132
0.105307
0.0642983
0.103853
0.06344
0.102631
0.062991
0.102276
0.0628659
0.102094
0.0627795
0.101987
0.0627275
0.101972
0.0627888
0.102114
0.0628907
0.102333
0.0633203
0.104863
0.0665298
0.114091
0.0741049
0.0741866
0.11002
0.0469683
0.00840966
3.26933e-05
6.22575e-08
1.76545e-12
2.99368e-17
1.78495e-18
1.57364e-07
5.72771e-05
0.00218556
0.00799936
0.0322253
0.0346545
0.0746694
0.0545597
0.0964773
0.0622764
0.10403
0.065058
0.106883
0.0658221
0.107022
0.0654679
0.105977
0.0647055
0.104564
0.0638428
0.103138
0.0631341
0.102386
0.0629155
0.102165
0.0628098
0.102016
0.0627462
0.101954
0.0627197
0.101985
0.062813
0.10218
0.0629424
0.102523
0.0638469
0.1065
0.0680257
0.117454
0.122885
0.07127
0.103509
0.0284217
0.00155325
2.07596e-06
1.08179e-08
2.84362e-12
1.19873e-23
3.01364e-22
1.03749e-07
8.54989e-05
0.00143336
0.012339
0.0205023
0.0552372
0.0464657
0.0882408
0.0594876
0.101179
0.0639516
0.105862
0.065641
0.107175
0.0657313
0.106584
0.0651128
0.105279
0.0642666
0.103796
0.0634187
0.102627
0.0629862
0.102258
0.0628465
0.102067
0.0627626
0.101958
0.0627257
0.10194
0.0627244
0.102022
0.0628498
0.10226
0.0630032
0.103037
0.0646306
0.108578
0.069824
0.120672
0.0742715
0.111422
0.0546086
0.0168778
9.84054e-05
2.18302e-07
1.7732e-11
2.1016e-13
1.60757e-18
1.11347e-18
1.53724e-07
5.63508e-05
0.00216553
0.00796777
0.0321952
0.0346738
0.0747358
0.0545942
0.0964995
0.0622729
0.104007
0.0650388
0.106858
0.0658131
0.107021
0.0654733
0.105979
0.0647036
0.104533
0.0638098
0.103086
0.0631219
0.102379
0.0629105
0.102139
0.0627862
0.101984
0.0627273
0.101918
0.0627179
0.101947
0.062743
0.102079
0.0628963
0.102355
0.0631598
0.104032
0.0656543
0.111189
0.0718864
0.122594
0.0714452
0.106281
0.0372876
0.00325085
5.7442e-06
1.00756e-08
4.68948e-12
1.58838e-15
5.01534e-19
2.15499e-17
1.01265e-07
8.38837e-05
0.00141637
0.012262
0.020453
0.0552161
0.0464866
0.0882923
0.0595063
0.101181
0.0639431
0.105835
0.0656243
0.10715
0.0657243
0.106583
0.0651166
0.105288
0.0642601
0.103765
0.0633918
0.102597
0.062981
0.102253
0.0628417
0.102037
0.0627365
0.101923
0.0627035
0.101902
0.0627201
0.101977
0.0627752
0.102157
0.0629518
0.102523
0.0635775
0.105484
0.0669776
0.11443
0.0738313
0.12119
0.0683859
0.0943413
0.0158825
0.000294052
2.82844e-07
8.02782e-12
3.44972e-11
9.46271e-14
2.99806e-16
2.17049e-17
1.00133e-07
8.30557e-05
0.0014057
0.0122056
0.0204045
0.0551594
0.0464755
0.0882951
0.0595149
0.10119
0.0639466
0.105829
0.0656125
0.107132
0.0657188
0.10658
0.065114
0.105287
0.0642658
0.10376
0.0633863
0.102585
0.0629763
0.102249
0.0628405
0.102037
0.0627305
0.101897
0.062689
0.101886
0.0627018
0.10196
0.062776
0.102099
0.0629069
0.102442
0.0633426
0.10458
0.0659529
0.111976
0.0722247
0.122401
0.0711792
0.106917
0.0422149
0.00479706
1.00164e-05
9.70018e-09
1.44656e-17
9.63311e-12
3.17333e-16
2.43613e-17
5.88242e-18
9.90222e-08
8.22774e-05
0.00139537
0.0121406
0.0203431
0.0550746
0.0464478
0.0882809
0.0595159
0.101198
0.0639447
0.105835
0.065607
0.107119
0.0657136
0.106578
0.0651155
0.10529
0.0642633
0.103766
0.0633848
0.102577
0.0629695
0.102236
0.0628378
0.102033
0.0627289
0.101883
0.0626699
0.101858
0.062691
0.101927
0.062764
0.102096
0.0628717
0.10235
0.0632005
0.103903
0.106211
0.0673976
0.115373
0.0740192
0.120362
0.0681838
0.096148
0.0190676
0.00037686
3.27488e-07
2.70259e-12
5.63912e-13
3.43201e-13
1.34921e-15
4.09578e-14
2.03574e-18
9.81003e-08
8.15397e-05
0.00138567
0.0120772
0.0202705
0.0549655
0.0464057
0.0882497
0.0595129
0.1012
0.0639483
0.10583
0.0656018
0.107104
0.0657014
0.10657
0.0651118
0.105292
0.0642624
0.103767
0.0633852
0.102577
0.0629645
0.102224
0.0628287
0.102027
0.0627265
0.101879
0.0626601
0.10182
0.0626732
0.101906
0.062742
0.102073
0.0628682
0.102296
0.063084
0.103465
0.105281
0.0664956
0.11289
0.0727298
0.122066
0.0705092
0.106783
0.0435429
0.00553222
9.79219e-06
2.84171e-09
3.0248e-13
1.1583e-12
7.97401e-13
1.19011e-14
8.76801e-14
1.007e-18
9.72897e-08
8.08934e-05
0.00137631
0.012017
0.0202002
0.0548329
0.0463508
0.0882029
0.0595018
0.101197
0.0639476
0.105832
0.065602
0.107088
0.0656878
0.10655
0.0651039
0.105285
0.0642632
0.10376
0.0633891
0.102577
0.062964
0.102216
0.0628204
0.102014
0.0627239
0.101878
0.0626586
0.101802
0.0626504
0.101873
0.0627283
0.102036
0.0628516
0.102285
0.063011
0.103071
0.0643241
0.107101
0.0680691
0.116393
0.0742763
0.119005
0.0677285
0.095742
0.0192228
0.000352673
1.38095e-07
1.92527e-18
6.74597e-14
3.63615e-13
7.03715e-13
2.95197e-22
2.19616e-14
2.85654e-19
9.66168e-08
8.03362e-05
0.00136805
0.0119593
0.0201354
0.0547043
0.0462845
0.0881407
0.059486
0.101188
0.0639416
0.105829
0.065601
0.10708
0.0656801
0.106518
0.0650967
0.105263
0.0642632
0.103757
0.0633867
0.102579
0.062965
0.102213
0.0628146
0.101999
0.0627156
0.101873
0.0626575
0.101799
0.0626374
0.101829
0.0627064
0.10201
0.062828
0.102253
0.0629904
0.102744
0.0639698
0.106224
0.0671498
0.114222
0.0732205
0.121401
0.0695167
0.105803
0.0423245
0.00477787
5.38624e-06
8.17582e-11
1.66943e-15
1.51728e-13
2.46849e-12
8.87849e-16
1.55268e-14
1.52619e-15
4.36699e-20
9.61058e-08
7.98782e-05
0.00136102
0.0119079
0.0200705
0.0545895
0.0462183
0.0880652
0.059464
0.10117
0.0639376
0.105821
0.0655996
0.107068
0.0656688
0.106499
0.0650833
0.105252
0.0642553
0.10377
0.0633826
0.10258
0.0629638
0.102215
0.0628109
0.101985
0.0627057
0.101857
0.0626552
0.101797
0.0626347
0.101807
0.0626783
0.101969
0.0628114
0.102214
0.0629694
0.102616
0.103501
0.064794
0.108257
0.0688691
0.117713
0.0742814
0.116963
0.0671007
0.0927665
0.0168053
0.00020398
1.80925e-08
1.94183e-13
7.29062e-14
7.00531e-13
3.45686e-12
8.71007e-14
1.68463e-13
4.06354e-18
8.33863e-21
9.57417e-08
7.95267e-05
0.00135519
0.0118633
0.0200123
0.0544739
0.0461591
0.0879892
0.0594346
0.101145
0.0639313
0.105815
0.0655985
0.107071
0.0656612
0.106485
0.0650697
0.105233
0.064241
0.103766
0.0633913
0.102578
0.0629632
0.102215
0.0628115
0.101978
0.062696
0.10184
0.0626459
0.101796
0.0626341
0.101801
0.0626633
0.101918
0.062786
0.102184
0.0629484
0.102525
0.0634714
0.104728
0.0658594
0.110849
0.0708694
0.120575
0.0731695
0.111209
0.0639194
0.0608602
0.00198573
1.79724e-06
1.2415e-14
3.2861e-13
8.64541e-13
8.62432e-12
6.82e-13
5.549e-14
9.036e-14
9.66146e-18
1.36079e-21
1.43325e-07
5.27309e-05
0.0020511
0.00766136
0.0313546
0.034141
0.0740984
0.0543844
0.0963461
0.0622358
0.103962
0.0650126
0.10679
0.0657597
0.106903
0.065412
0.105885
0.0646614
0.104469
0.0637893
0.103065
0.0631044
0.102345
0.062885
0.102089
0.0627462
0.101885
0.0626543
0.10179
0.0626286
0.101787
0.06264
0.10183
0.0626941
0.101993
0.0628409
0.102289
0.102449
0.0633339
0.104253
0.0653368
0.109548
0.0698535
0.11907
0.0740466
0.114365
0.0661458
0.0869499
0.0118944
6.14655e-05
5.57332e-10
9.62015e-13
7.24306e-13
3.55096e-12
9.28211e-13
7.6794e-14
5.65972e-14
1.30262e-13
7.16555e-17
2.89639e-22
9.54675e-08
7.91552e-05
0.0013478
0.0118008
0.0199223
0.0542742
0.0460427
0.0878439
0.0593801
0.101089
0.0639111
0.1058
0.0655944
0.107058
0.0656593
0.106467
0.0650521
0.105184
0.0642083
0.103701
0.0633803
0.102582
0.062965
0.102211
0.0628093
0.101975
0.0626896
0.10181
0.0626233
0.101758
0.0626234
0.101798
0.0626574
0.101883
0.0627382
0.102083
0.0629018
0.0629929
0.102766
0.0638591
0.105711
0.0665673
0.112439
0.0718693
0.121036
0.0718843
0.109821
0.0618386
0.0490217
0.000749947
7.74723e-08
1.8413e-13
2.50877e-12
1.77844e-12
1.29991e-12
4.93695e-15
4.86396e-18
6.60196e-15
9.74324e-14
9.53137e-17
3.64337e-23
1.43237e-07
5.2618e-05
0.00204416
0.00763293
0.0312404
0.0340415
0.0739251
0.0543004
0.0962607
0.062205
0.103932
0.0650025
0.10679
0.0657613
0.106902
0.0654012
0.105862
0.0646316
0.104421
0.0637493
0.103021
0.0630995
0.102348
0.0628882
0.102085
0.0627429
0.101881
0.0626437
0.101755
0.0626028
0.101747
0.0626291
0.101829
0.0626885
0.101954
0.0627906
0.102187
0.062965
0.102624
0.0636489
0.105167
0.0660687
0.111077
0.0709031
0.12024
0.0730794
0.111737
0.065199
0.0768659
0.00609741
5.03675e-06
6.80237e-13
6.77619e-12
4.19856e-12
1.68174e-12
1.89043e-15
4.33972e-16
2.17127e-13
1.25388e-18
6.39841e-15
6.42763e-17
2.63856e-24
9.55791e-08
7.91394e-05
0.00134608
0.0117739
0.0198717
0.0541441
0.0459584
0.0877204
0.0593261
0.101037
0.063892
0.105774
0.0655941
0.107079
0.0656628
0.106478
0.065043
0.105153
0.0641802
0.103643
0.0633465
0.102559
0.062962
0.102218
0.0628141
0.101971
0.0626871
0.101803
0.0626103
0.101719
0.0625946
0.101756
0.0626474
0.101881
0.0627301
0.102041
0.0628533
0.102298
0.063076
0.103236
0.0643484
0.106879
0.0674857
0.114265
0.0727999
0.120735
0.0700779
0.108268
0.0581225
0.0323443
0.000128081
6.73256e-11
4.85452e-13
2.80599e-11
4.35437e-12
1.02588e-14
1.28951e-13
1.88205e-14
1.66958e-13
6.58035e-14
9.29942e-20
9.9593e-18
2.10109e-25
1.43444e-07
5.26742e-05
0.00204443
0.00762669
0.0311953
0.0339825
0.0738147
0.054238
0.0961745
0.0621716
0.103889
0.0649858
0.106787
0.0657669
0.106917
0.0654066
0.105865
0.0646202
0.104381
0.0637158
0.102961
0.0630818
0.102333
0.0628842
0.102092
0.0627461
0.101877
0.0626399
0.101744
0.0625874
0.101702
0.0625985
0.101784
0.0626781
0.101952
0.0627807
0.102149
0.102274
0.063023
0.103026
0.0641234
0.106254
0.0669392
0.112969
0.0719776
0.120713
0.0715677
0.109753
0.0632232
0.0610964
0.00174135
7.89058e-08
9.29623e-14
1.15954e-11
2.25363e-11
3.8126e-13
3.83454e-14
4.81051e-13
1.96679e-14
1.10372e-14
3.56364e-13
9.69282e-16
5.34587e-19
2.03694e-26
9.57562e-08
7.92631e-05
0.00134743
0.0117768
0.0198642
0.0540925
0.0459086
0.0876386
0.0592858
0.10098
0.0638659
0.105751
0.0655854
0.107097
0.0656729
0.106483
0.0650468
0.105137
0.0641628
0.103585
0.0633133
0.102521
0.0629514
0.102199
0.062811
0.101981
0.0626913
0.101796
0.0626038
0.101703
0.0625759
0.101704
0.0626141
0.101835
0.0627181
0.102037
0.0628376
0.102257
0.0629881
0.102813
0.0639213
0.105755
0.066467
0.111828
0.0712105
0.120102
0.0725732
0.111161
0.0653875
0.0827743
0.00935265
6.13433e-06
1.95696e-13
8.96664e-12
2.62481e-11
1.04202e-12
2.09469e-14
2.02103e-13
1.11246e-12
2.47767e-16
1.94876e-15
6.35341e-13
1.59257e-15
4.80986e-20
6.74406e-28
9.58825e-08
7.93561e-05
0.00134843
0.0117835
0.0198686
0.0540959
0.0458993
0.087616
0.059273
0.100962
0.0638547
0.105733
0.0655799
0.107089
0.0656784
0.106495
0.0650529
0.105142
0.0641557
0.103583
0.0632983
0.102507
0.0629414
0.102189
0.062804
0.101978
0.0626943
0.101807
0.0626011
0.101695
0.06257
0.101691
0.0625972
0.101802
0.0627005
0.102015
0.102134
0.0629037
0.102367
0.0631418
0.10362
0.0647145
0.107617
0.0679784
0.115081
0.072965
0.119871
0.0694112
0.107915
0.0590574
0.0381576
0.000134274
3.59425e-10
3.783e-12
4.5534e-11
1.25722e-11
4.78017e-14
1.24188e-12
1.50191e-12
2.19491e-13
7.35973e-15
3.5727e-15
4.36426e-14
7.09708e-16
2.13339e-21
2.59903e-29
9.58854e-08
7.94392e-05
0.00134977
0.0117911
0.0198767
0.054107
0.0459018
0.0876035
0.0592625
0.100948
0.063844
0.105713
0.0655774
0.10707
0.0656811
0.106495
0.0650631
0.105155
0.0641596
0.10358
0.0632985
0.102497
0.0629351
0.102175
0.0627973
0.101968
0.062693
0.101812
0.0626083
0.10169
0.0625664
0.10168
0.0625873
0.10177
0.06268
0.101985
0.102109
0.0629009
0.102358
0.0631032
0.10333
0.0644563
0.107036
0.0674826
0.113931
0.0723758
0.12036
0.0707527
0.109037
0.0630839
0.0630667
0.00199293
4.25053e-08
1.07476e-13
6.26621e-11
2.23582e-11
6.1008e-14
1.28231e-12
1.42333e-12
2.66054e-13
3.5162e-13
1.64756e-14
1.55879e-13
7.96524e-19
1.58407e-16
5.4229e-23
1.06475e-30
9.60736e-08
7.94728e-05
0.00135087
0.0118002
0.0198852
0.0541202
0.0459076
0.0876034
0.059255
0.100934
0.0638348
0.1057
0.0655713
0.107078
0.065677
0.106507
0.0650669
0.105174
0.0641668
0.103583
0.063296
0.102492
0.0629318
0.102161
0.0627889
0.101957
0.0626865
0.101813
0.0626137
0.101704
0.0625627
0.101671
0.0625806
0.101749
0.0626595
0.101946
0.0628057
0.102213
0.0629668
0.102542
0.0634346
0.104485
0.0654167
0.109242
0.069211
0.117211
0.0734649
0.117287
0.0675964
0.105761
0.0506008
0.0138993
1.77278e-06
4.3137e-13
2.43393e-11
5.23831e-11
3.57802e-13
1.45952e-12
3.8895e-12
2.90948e-13
5.01314e-19
7.75875e-14
2.94033e-17
1.30384e-12
3.96172e-15
9.62329e-18
1.39824e-24
1.94517e-32
1.441e-07
5.29243e-05
0.00205183
0.00764865
0.0312457
0.0339996
0.0737894
0.0541987
0.0960932
0.0621205
0.103806
0.0649418
0.106738
0.0657666
0.10693
0.0654301
0.105906
0.0646488
0.104397
0.0637015
0.102904
0.0630461
0.102285
0.0628475
0.102033
0.0627225
0.101865
0.0626427
0.101757
0.0625908
0.101681
0.0625599
0.101688
0.0626017
0.101808
0.0627046
0.0627825
0.102183
0.0629511
0.102512
0.0633579
0.104171
0.0651369
0.108558
0.0686722
0.116199
0.0731575
0.118497
0.0684518
0.107259
0.0576373
0.0340372
6.2882e-05
4.15447e-10
2.03576e-11
1.30516e-10
2.70353e-12
5.21866e-13
1.02834e-11
3.5466e-12
1.24578e-15
2.18062e-13
3.20063e-16
1.56719e-14
7.84383e-14
6.75262e-15
1.66815e-19
3.48801e-26
1.51187e-34
9.60307e-08
7.95877e-05
0.00205424
0.0076509
0.0312608
0.0340104
0.0738018
0.0542033
0.0960967
0.0621182
0.103797
0.064936
0.106722
0.0657601
0.106934
0.0654265
0.105914
0.0646565
0.104422
0.0637111
0.102908
0.0630435
0.102277
0.062844
0.102015
0.0627111
0.101845
0.0626348
0.101747
0.062594
0.101695
0.0625686
0.101678
0.0625957
0.10179
0.0626888
0.101998
0.0628438
0.102295
0.0630372
0.102919
0.0639034
0.105615
0.0662898
0.111173
0.070572
0.119051
0.0730338
0.113394
0.0664218
0.10051
0.0352408
0.00134411
1.09941e-09
4.9332e-12
1.25876e-10
1.7612e-11
3.29519e-15
1.51077e-11
4.67044e-12
4.25987e-14
1.34866e-19
2.41059e-14
1.47694e-16
2.99735e-13
1.30189e-18
1.07919e-15
2.45362e-21
3.63313e-28
1.04648e-36
9.59978e-08
7.95682e-05
0.00135302
0.0118203
0.0199093
0.0541712
0.0459316
0.087624
0.0592599
0.100914
0.0638197
0.105666
0.0655523
0.107054
0.0656765
0.106507
0.0650813
0.105215
0.0642063
0.103633
0.0633035
0.102484
0.0629229
0.102136
0.0627647
0.1019
0.0626556
0.10177
0.0626028
0.101714
0.0625835
0.101693
0.0625775
0.10171
0.0626275
0.101863
0.101968
0.0628172
0.102258
0.0630086
0.10282
0.0637986
0.105283
0.0659905
0.110439
0.0700276
0.118325
0.0733223
0.115181
0.0669144
0.10421
0.0463113
0.00824375
2.21871e-07
9.51305e-13
1.08998e-10
5.17279e-11
4.7866e-20
7.47196e-12
1.04043e-11
9.64184e-14
2.44214e-16
7.55709e-16
6.76406e-15
5.70216e-18
5.3938e-13
5.42126e-15
3.43537e-17
3.4521e-23
1.44391e-30
5.64142e-39
1.4395e-07
5.28999e-05
0.00205399
0.00765816
0.0199199
0.0541844
0.0459407
0.0876358
0.0592604
0.100916
0.0638127
0.105659
0.0655494
0.107047
0.0656729
0.106505
0.0650805
0.105225
0.0642139
0.103655
0.0633162
0.102494
0.062923
0.102132
0.0627592
0.101892
0.0626429
0.101748
0.0625901
0.101704
0.0625801
0.101703
0.0625872
0.101726
0.0626172
0.101853
0.0627276
0.102067
0.0628845
0.102371
0.0631802
0.103582
0.0645445
0.107031
0.0673702
0.113448
0.0719033
0.119865
0.0713715
0.10991
0.0651933
0.0870377
0.0145035
1.31488e-05
3.14757e-12
1.1604e-10
5.74154e-11
1.10973e-14
3.12972e-12
1.2852e-11
3.64387e-13
1.02275e-16
1.11962e-15
1.36238e-17
3.46312e-15
2.00371e-15
3.96827e-14
6.30256e-15
5.9729e-19
1.90857e-25
3.92317e-33
8.31086e-42
1.43791e-07
5.28782e-05
0.00205337
0.0076569
0.0312878
0.034041
0.0738438
0.054221
0.0961071
0.0621182
0.103774
0.0649196
0.106706
0.0657436
0.106913
0.0654261
0.105921
0.0646683
0.10446
0.0637474
0.102958
0.0630595
0.102284
0.0628371
0.101995
0.0626888
0.101793
0.062596
0.101689
0.0625699
0.101688
0.0625816
0.101724
0.0626088
0.101777
0.0626536
0.101932
0.0627848
0.10218
0.0629531
0.102607
0.0635908
0.104768
0.0655182
0.109247
0.0690659
0.116652
0.073095
0.117604
0.0680394
0.107134
0.0587795
0.041496
0.000141877
2.04694e-10
4.93148e-11
1.38185e-10
6.67139e-14
5.05939e-12
1.25482e-11
1.49507e-12
7.12184e-15
1.71107e-17
8.04766e-20
4.14272e-14
3.64474e-14
1.31487e-12
9.27663e-16
4.62138e-16
3.63013e-21
4.41845e-28
3.93433e-36
3.05068e-45
9.57879e-08
7.94497e-05
0.00135184
0.0118173
0.0199197
0.0541999
0.0459561
0.0876477
0.0592665
0.100917
0.0638122
0.105644
0.0655363
0.107039
0.0656568
0.106501
0.0650758
0.105225
0.0642146
0.103679
0.0633347
0.102515
0.0629328
0.102136
0.062756
0.101873
0.0626286
0.101711
0.0625602
0.101652
0.0625607
0.101693
0.0625955
0.101763
0.0626392
0.0626653
0.101908
0.0627759
0.102156
0.0629357
0.102532
0.0634853
0.104533
0.0653191
0.108761
0.0686707
0.115875
0.0728298
0.118394
0.0688066
0.107818
0.0619241
0.0595314
0.00119036
1.09054e-08
3.30389e-11
2.01156e-10
1.14911e-12
3.64092e-12
2.11661e-11
5.01226e-12
3.29253e-14
5.02258e-19
4.53969e-18
5.55264e-14
1.86549e-17
2.80421e-15
3.44832e-14
1.28561e-14
5.00384e-18
1.21129e-23
2.31016e-31
7.37766e-40
2.74598e-49
9.56325e-08
7.9377e-05
0.00135091
0.0118136
0.0199156
0.054197
0.0459553
0.0876605
0.0592673
0.100916
0.063812
0.10564
0.0655278
0.107028
0.0656536
0.106484
0.0650693
0.105216
0.0642145
0.103679
0.0633424
0.102523
0.0629359
0.102146
0.0627581
0.10187
0.0626225
0.101694
0.0625515
0.101624
0.0625434
0.10167
0.0625924
0.101765
0.0626509
0.0626779
0.101921
0.0627639
0.10214
0.0629228
0.102475
0.0633877
0.104295
0.0651369
0.108319
0.068319
0.115185
0.0725741
0.119012
0.0696393
0.108384
0.0637541
0.0741315
0.00547413
4.20912e-07
2.00623e-14
3.1233e-10
4.63522e-12
2.17336e-12
2.2037e-11
7.5503e-12
8.23485e-14
3.25394e-16
1.31357e-16
8.10771e-23
3.95983e-15
2.7139e-16
5.81472e-13
1.39169e-23
1.71882e-15
2.51084e-20
6.36315e-27
3.16519e-35
9.62522e-47
3.00718e-52
1.43231e-07
5.27195e-05
0.00204984
0.00764887
0.0312708
0.0340331
0.0738545
0.0542302
0.096119
0.0621156
0.103769
0.064912
0.106673
0.0657234
0.106886
0.0654022
0.105894
0.0646576
0.10446
0.063754
0.102991
0.0630749
0.102303
0.0628509
0.102008
0.0626852
0.101763
0.0625713
0.101629
0.0625265
0.101605
0.0625455
0.101693
0.0626179
0.101822
0.06269
0.101943
0.0627706
0.102121
0.0629148
0.102429
0.0633025
0.104045
0.0649643
0.10792
0.0679938
0.114532
0.0722941
0.119405
0.0704102
0.109043
0.0647703
0.0847348
0.0133811
7.89071e-06
2.21314e-13
3.68327e-10
1.4121e-11
3.03859e-13