/*--------------------------------*- C++ -*----------------------------------*\
| =========                 |                                                 |
| \\      /  F ield         | OpenFOAM: The Open Source CFD Toolbox           |
|  \\    /   O peration     | Version:  v2012                                 |
|   \\  /    A nd           | Website:  www.openfoam.com                      |
|    \\/     M anipulation  |                                                 |
\*---------------------------------------------------------------------------*/
FoamFile
{
    version     2.0;
    format      ascii;
    class       volScalarField;
    location    "3900";
    object      k;
}
// * * * * * * * * * * * * * * * * * * * * * * * * * * * * * * * * * * * * * //

dimensions      [0 2 -2 0 0 0 0];


internalField   nonuniform List<scalar> 
29502
(
545.471
20.9902
109.342
24.2088
3.50769
44.7497
29.0048
13.5747
1.29689
27.312
32.1305
19.5977
64.3035
0.866694
21.1463
33.7366
22.7488
98.3342
211.808
0.949805
18.5957
34.4602
24.2969
114.899
324.063
505.579
1.32387
17.3877
34.7179
24.9905
122.556
376.895
769.246
979.596
1.91969
16.6677
34.6222
25.1964
125.523
400.145
889.712
1473.66
1631.41
2.6774
16.1094
34.3626
25.0889
125.986
407.843
940.487
1692.02
2411.38
2415.09
3.58588
15.602
33.9512
24.8234
124.935
407.813
954.94
1780.4
2742.76
3492.68
3258.53
4.55925
15.1143
33.5662
24.4476
123.203
403.184
952.393
1802.29
2871.6
3930.65
4606.99
4091.72
5.50643
14.6414
33.2127
24.1085
121.077
396.812
939.781
1794.75
2899.91
4094.17
5130.38
5667.15
4869.03
6.38794
14.182
32.8792
23.8159
119.186
389.543
923.973
1769.51
2885.86
4126.71
5318.17
6251.44
6625.15
5573.15
7.11211
13.7364
32.4374
23.5229
117.578
383.133
906.729
1739.7
2845.65
4106.27
5352.52
6453.11
7249.72
7471.95
6189.87
7.69511
13.3043
32.0417
23.1071
115.988
377.67
891.551
1707.92
2799.95
4052.03
5326.84
6487.44
7457.92
8120.84
8201.27
6711.52
8.10808
12.8859
31.6744
22.7729
113.781
372.36
878.59
1680.01
2751.84
3992.05
5261.55
6457.72
7491.1
8329.33
8863.62
8813.18
7134.58
8.32749
12.48
31.3903
22.4594
112.057
365.229
866.116
1655.96
2709.51
3929.27
5190.88
6384.67
7458.18
8360.52
9067.99
9483.93
9312.31
7457.27
8.51194
12.0866
31.0955
22.2286
110.449
359.656
849.771
1632.96
2672.6
3873.9
5117.09
6306.87
7379.74
8324.94
9096.66
9681.64
9991.96
9705.69
7674.39
8.21013
11.7057
30.7608
21.9696
109.271
354.499
836.988
1603.44
2637.36
3824.91
5051.85
6225.83
7297.24
8243.08
9058.64
9707.67
10182.2
10399.4
10002
7783.42
7.44989
11.3372
30.4739
21.6742
107.95
350.707
825.218
1580.33
2593.07
3778.07
4993.29
6154.12
7211.76
8157.97
8974.85
9667.21
10205.7
10583
10717.1
10208.8
7776.63
6.34613
10.9813
30.2237
21.4423
106.461
346.519
816.512
1559.05
2558.26
3720.42
4937.04
6088.8
7136.22
8070.08
8888.54
9582.49
10162.8
10604.4
10897.1
10954.2
10331
7641.13
5.14382
10.6381
29.9839
21.2399
105.323
341.845
807.021
1543.23
2526.23
3674.96
4869.32
6025.78
7066.57
7992.39
8799.84
9495.96
10077.9
10559.3
10916.7
11135.6
11118.3
10369
7365.15
3.98447
10.3085
29.767
21.0342
104.331
338.299
796.527
1526.12
2502.09
3633.03
4815.71
5951.45
6999.06
7919.98
8721.44
9407.56
9991.72
10474.6
10869.8
11154.5
11308.2
11215.3
10321.4
6943.33
3.0697
9.99271
29.5661
20.8584
103.309
335.208
788.589
1507.41
2476.27
3600.98
4766.18
5892.42
6920.83
7849.5
8647.73
9329.49
9904.33
10389.2
10785.9
11106.6
11327.8
11422.3
11249.4
10184.8
6385.29
2.40379
9.6912
29.3506
20.6951
102.459
332.028
781.664
1493.23
2448.36
3566.97
4727.62
5837.8
6858.65
7769.01
8575.62
9255.55
9827.25
10303.2
10701.4
11024
11280.2
11445.2
11483.5
11222.6
9953.39
5712.08
1.99992
9.40541
29.131
20.5103
101.666
329.392
774.533
1480.81
2427.08
3530.68
4687.04
5794.45
6801.02
7705.13
8494.36
9182.88
9753.91
10227.6
10617.1
10940.6
11199.4
11399.7
11513.8
11495.6
11133.7
9618.64
4924.83
1.74791
9.13664
28.9239
20.3194
100.765
326.962
768.672
1468.04
2408.24
3502.79
4644.39
5749.19
6754.35
7645.76
8430.01
9101.86
9681.4
10155.4
10543.2
10858.2
11117.5
11321.3
11472.2
11538.6
11460.5
10978.6
9168.5
4052.69
1.60217
8.89082
28.757
20.1472
99.832
324.193
763.27
1457.59
2389.07
3477.77
4611.22
5702.36
6706.01
7596.81
8370.1
9037.97
9601.26
10083.5
10472.7
10786.3
11037.1
11241.4
11397.5
11503.4
11523.1
11378.2
10750.1
8588.88
3132.6
1.51959
8.67972
28.6156
20.0179
99.0062
321.338
757.164
1448
2373.29
3452.53
4581.11
5665.48
6656.68
7546.36
8319.88
8978.41
9538.44
10004.7
10401.9
10717.5
10967.5
11163.4
11320.1
11433.8
11497.5
11469.3
11246.7
10438
7865.87
2224.42
1.47462
8.42172
28.486
19.9179
98.4099
318.831
750.854
1437.16
2358.89
3431.68
4550.95
5631.58
6617.41
7495.62
8268.28
8927.68
9479.91
9943.31
10324.5
10648.1
10900.7
11096
11244.7
11360
11434.9
11457.1
11377.4
11061.4
10029.2
6997.2
1408.29
1.43831
8.12188
28.3488
19.8152
97.9656
317.059
745.364
1426.04
2342.67
3412.64
4525.94
5597.92
6580.94
7454.81
8217.05
8875.7
9429.26
9886.21
10264.8
10572.4
10832.9
11031.6
11180
11287.8
11365.7
11403.8
11384
11246.1
10815.6
9509.05
6012.37
767.273
1.40439
7.86744
28.2069
19.705
97.4913
315.756
741.546
1416.37
2326.08
3391.31
4503.04
5569.83
6544.99
7416.53
8175.52
8824.69
9377.39
9836.1
10209.4
10514.6
10759
10965.5
11118.1
11225.9
11297.3
11340.7
11342.3
11278.4
11072.3
10499.4
8865.04
4981.74
351.519
1.3759
7.67868
28.0548
19.5844
96.9813
314.353
738.747
1409.73
2311.76
3369.68
4477.57
5543.98
6514.81
7379.05
8136.18
8783.07
9327.07
9784.68
10160.1
10461
10703.2
10893.6
11054.1
11166.9
11238.7
11276.8
11286.8
11251.3
11139.2
10851.1
10100.1
8088.41
3915.17
138.033
1.33453
7.54068
27.9022
19.4575
96.4156
312.845
735.724
1404.83
2301.9
3351.01
4451.93
5515.48
6486.83
7347.4
8097.83
8743.29
9285.84
9735.33
10109.4
10412.8
10651.5
10839.8
10984.3
11105.2
11183
11222.2
11228.6
11205.3
11130.8
10964.1
10575
9601.83
7175.04
2855.19
49.4053
1.30138
7.43654
27.7524
19.3243
95.8151
311.171
732.477
1399.54
2294.51
3338.13
4429.81
5486.98
6456.24
7317.88
8065.29
8704.58
9246.1
9694.83
10061.3
10363
10604.5
10790.1
10932.4
11037.8
11123.9
11170.1
11178.6
11154.1
11096.7
10980.4
10749.1
10234
8987.61
6135.19
1875.81
17.0896
1.2765
7.38146
27.6097
19.1974
95.1875
309.385
728.884
1393.85
2286.56
3328.13
4414.38
5462.41
6425.87
7285.88
8034.84
8671.58
9207.42
9655.48
10021.7
10316.2
10555.8
10744.6
10884.8
10988
11059.2
11114
11130.7
11109.5
11054.1
10961.1
10798.3
10488.3
9814.94
8243.04
5016.27
1075.42
5.94759
1.26017
7.37264
27.464
19.0758
94.5844
307.499
725.022
1387.62
2278.05
3317.52
4401.99
5445.03
6399.69
7254.26
8002.01
8640.65
9174.32
9617.12
9982.99
10277.7
10510.4
10697.1
10840.9
10942.5
11011.5
11052.3
11078
11066.5
11016.2
10929.1
10797.9
10581.5
10173.4
9302.26
7362.3
3906.84
526.735
2.21255
1.24959
7.38845
27.3397
18.9569
94.0101
305.705
720.941
1380.88
2268.77
3306.16
4388.93
5430.6
6380.87
7226.96
7969.69
8607.46
9143.24
9584.23
9945.17
10239.8
10473.1
10653.1
10794.9
10900.4
10968.3
11007
11019.8
11017.9
10978.8
10899.1
10778.8
10605.7
10324.8
9793.71
8678.76
6355.04
2831.04
227.094
0.987348
1.24048
7.37663
27.2386
18.8595
93.4562
304.009
717.073
1373.78
2258.8
3293.97
4375.08
5415.47
6364.75
7206.99
7941.75
8574.8
9109.99
9553.21
9912.7
10202.7
10436.2
10617.1
10752.3
10855.9
10928.1
10966.2
10977
10963.5
10934.9
10868.4
10758.4
10602.5
10382
10021.1
9335.25
7928.96
5251.52
1845.52
91.921
0.597047
1.22182
7.39845
27.1596
18.7848
92.9984
302.349
713.427
1367.07
2248.33
3280.91
4360.37
5399.58
6348.03
7189.53
7921.02
8546.66
9077.35
9520.11
9881.92
10170.8
10399.9
10581.3
10717.6
10814.9
10885.3
10928.1
10938.8
10923.5
10884.9
10830
10735.6
10593.8
10399.1
10122.3
9660.65
8781.65
7045.04
4125.86
1044.53
36.6237
0.475843
1.20577
7.36466
27.1007
18.7343
92.6732
300.994
709.872
1360.79
2238.45
3267.29
4344.73
5382.91
6330.54
7171.49
7902.57
8525.46
9049.31
9487.78
9849.17
10140.4
10368.7
10546
10683.2
10781.6
10846
10887.2
10903
10888.2
10848.1
10785.1
10703.7
10580.3
10404.4
10166.2
9819.89
9231.19
8115.74
6035.84
3046.23
504.598
14.5051
0.439134
1.1799
7.33745
27.0565
18.7011
92.464
300.043
706.937
1354.59
2229.26
3254.47
4328.57
5365.25
6312.35
7152.68
7883.51
8506.35
9027.89
9460.02
9817.32
10108.2
10338.9
10515.5
10648.9
10748.5
10814.2
10849.7
10864.2
10854.9
10816
10752
10664.7
10556.1
10402.1
10188.8
9899.59
9465.88
8717.43
7323.47
4943
2045.21
216.187
5.64853
0.423832
1.15589
7.36045
27.0139
18.6781
92.3533
299.486
704.931
1349.53
2220.17
3242.62
4313.36
5347.19
6293.12
7133.31
7863.64
8486.58
9008.3
9438.57
9789.95
10076.9
10307.3
10486.4
10619.3
10715.4
10782.5
10819.4
10828.6
10818.4
10785.5
10723.4
10635.9
10524
10387
10199.8
9944.89
9593.1
9048.67
8102.27
6401.41
3841.35
1198.81
88.4306
2.1846
0.413358
1.14662
7.41846
26.9663
18.6517
92.279
299.206
703.806
1346.08
2212.7
3230.86
4299.41
5330.24
6273.76
7112.94
7843.38
8465.97
8988.14
9418.81
9768.64
10050
10276.6
10455.5
10591
10686.8
10750.8
10789.3
10800
10784.8
10751.6
10696.1
10611.2
10500.2
10362.9
10195.4
9971.96
9668.42
9238.07
8553.97
7369.66
5367.24
2792.98
596.659
36.1097
0.894499
0.406603
1.14704
7.48575
26.9068
18.618
92.1873
299.06
703.325
1344.25
2207.67
3221.23
4285.58
5314.8
6255.66
7092.64
7822.26
8445.05
8967.03
9398.37
9748.97
10029
10250.2
10425.5
10560.9
10659.4
10723.2
10759
10771.6
10758.1
10720.2
10665
10587.5
10480
10344.9
10180.9
9980.44
9716.25
9353.18
8823.34
7965.34
6510.85
4283.65
1833.59
261.082
14.7921
0.436546
0.403005
1.14923
7.54382
26.8352
18.5697
92.0514
298.854
703.106
1343.46
2204.96
3214.64
4274.26
5299.56
6239.19
7073.76
7801.39
8423.46
8945.68
9376.98
9728.37
10009.5
10229.6
10399.8
10531.6
10630.3
10696.7
10732.6
10742.8
10731.5
10695.5
10636.1
10559.7
10460.3
10330
10169.8
9976.92
9740.28
9428.2
8990.64
8335.27
7266.84
5535.68
3233.96
1039.31
107.756
5.91172
0.279243
0.400931
1.15068
7.59364
26.752
18.5115
91.8449
298.513
702.764
1343.2
2203.79
3210.99
4266.33
5287.03
6222.96
7056.55
7782.02
8402.28
8923.84
9355.36
9706.84
9988.94
10210.5
10379.5
10506.6
10601.8
10668.6
10707.2
10717.6
10704.4
10670.8
10613.6
10533.6
10436.2
10314.9
10160.9
9973.99
9749.67
9472.17
9101.42
8569.9
7758.27
6448.73
4490.95
2244.77
497.795
43.9401
2.28791
0.227315
0.399941
1.15148
7.63846
26.6581
18.4351
91.5731
297.921
702.132
1342.67
2203.33
3209.23
4261.69
5278.01
6209.62
7039.64
7764.35
8382.63
8902.53
9333.42
9685.13
9967.44
10190.1
10360.9
10486.8
10577.4
10641
10680.1
10693.3
10680.5
10645.5
10591.1
10513.4
10413.4
10295
10151
9972.14
9756.47
9497.32
9171.29
8727.24
8077.69
7077.16
5511.6
3448.95
1372.77
211.503
17.9808
0.895036
0.210719
0.399479
1.15171
7.68755
26.5479
18.345
91.2022
297.129
700.906
1341.68
2202.54
3208.33
4259.16
5272.46
6199.81
7025.73
7747.09
8364.7
8882.75
9312.1
9663.2
9945.75
10168.8
10340.9
10468.7
10558.2
10617.4
10653.5
10667.4
10657.4
10623.2
10567.7
10493.3
10395.9
10275.8
10136
9968.42
9762.89
9515.68
9216.65
8830.85
8294.8
7498.93
6277.13
4495.85
2460.93
707.117
87.4828
7.19898
0.386168
0.205449
0.398883
1.15158
7.74593
26.4321
18.2449
90.7639
296.02
699.21
1339.56
2200.98
3206.96
4257.5
5268.96
6193.4
7015.28
7732.86
8347.3
8864.69
9292.3
9641.95
9923.96
10147.2
10319.9
10449.3
10540.8
10598.7
10630.6
10641.8
10632.8
10601.4
10547
10472.1
10378.3
10261.3
10121
9959.02
9766.26
9531.85
9249.63
8902.36
8441.88
7790.81
6815.4
5360.01
3475.9
1564.81
309.168
36.2593
2.75481
0.209825
0.203805
0.398203
1.15449
7.89263
26.3188
18.1378
90.2698
294.692
696.811
1336.61
2197.82
3204.74
4255.33
5266.41
6188.95
7008.06
7721.92
8332.97
8847.35
9274.21
9622.22
9902.85
10125.6
10298.6
10428.7
10521.9
10582.1
10612.6
10619.8
10608.2
10578.1
10526.6
10453.2
10359.5
10246.6
10109.9
9948.73
9763.35
9543.48
9277.33
8954.21
8547.06
7992.75
7198.23
6016.05
4370.2
2504.87
841.144
126.532
14.8385
1.02788
0.151981
0.203375
0.398503
1.16771
7.98688
26.2117
18.0362
89.7352
293.188
693.913
1332.42
2193.39
3200.35
4252.12
5263.16
6185.45
7002.73
7714.05
8321.72
8833.06
9257.07
9604.19
9883.24
10104.8
10277.2
10407.7
10501.9
10564
10596.8
10602.5
10587.2
10554.7
10504.8
10434.4
10342.6
10230.5
10098.4
9941.55
9758.58
9548.06
9298.6
8996.49
8623.48
8141.17
7469.5
6501.88
5107.84
3376.36
1612.82
376.966
52.3361
5.84197
0.400225
0.133989
0.203873
0.40273
1.16652
7.99982
26.1034
17.942
89.2385
291.557
690.619
1327.35
2187.16
3194.39
4246.51
5258.91
6181.08
6998.28
7707.88
8313.35
8821.67
9242.95
9587.31
9865.33
10085.3
10256.6
10386.7
10481.3
10544.6
10579.5
10587.5
10570.7
10534.8
10482.8
10414.2
10325.6
10215.8
10085.3
9933.66
9755.85
9549.66
9311.84
9029.58
8684.52
8249.46
7672.6
6856.76
5694.43
4135.77
2428.34
878.367
153.386
21.488
2.18594
0.186009
0.12898
0.205487
0.402696
1.16665
8.01374
26.012
17.8527
88.7822
290.032
687.031
1321.58
2179.67
3186.2
4239.14
5252.09
6175.7
6992.83
7702.48
8306.45
8812.92
9231.54
9573.44
9848.76
10067.6
10237.4
10366.4
10460.7
10524.5
10560.8
10571.1
10556.6
10519.1
10463.9
10393.6
10307.1
10200.9
10073.1
9923.97
9752.06
9552.07
9320.8
9053.05
8732.45
8334.83
7821.75
7126.94
6140.55
4784.98
3169.34
1555.28
394.798
62.7769
8.46598
0.795603
0.117707
0.12843
0.205436
0.40196
1.17204
8.02384
25.928
17.7745
88.3417
288.627
683.661
1315.3
2171.13
3176.48
4229.3
5243.44
6167.74
6986.39
7696.07
8300.21
8805.44
9222.57
9562.09
9835.2
10051.3
10219.9
10347.5
10440.7
10504.3
10541.2
10553.1
10541
10505.8
10449.2
10376
10288.2
10184.3
10060.5
9914.69
9746.23
9552.96
9329.17
9070.45
8768.62
8401.77
7938.49
7327.39
6488.88
5315.44
3826.86
2247.18
837.975
158.316
25.7833
3.1637
0.30169
0.0977219
0.128337
0.204751
0.40222
1.18013
8.03296
25.8542
17.7063
87.9577
287.288
680.612
1309.39
2161.88
3165.46
4217.82
5232.3
6158.02
6977.43
7688.58
8292.88
8798.5
9214.64
9553.06
9824.02
10038.2
10203.9
10330.2
10422.1
10484.8
10521.5
10534.1
10523.9
10491.3
10436.9
10362.3
10272
10167.3
10046.1
9904.6
9740.22
9551.52
9335.43
9085.76
8796.52
8453.99
8029.83
7484.02
6751.58
5746.39
4402.4
2889.96
1403.26
369.605
64.0527
10.144
1.12886
0.138233
0.0922242
0.128021
0.204447
0.402826
1.18902
8.04175
25.7913
17.6488
87.6292
286.109
677.644
1304.01
2153.2
3153.58
4204.87
5219.51
6145.86
6966.78
7678.77
8284.48
8790.38
9207.18
9544.91
9815.01
10027.3
10191.2
10314.6
10405.1
10466.5
10502.5
10515.1
10505.6
10475
10423.4
10351.1
10259.4
10152.6
10031.1
9892.72
9733.05
9549.24
9339
9098.23
8820.14
8495.19
8102.46
7606.59
6957.82
6080.02
4900.03
3461.88
1997.33
726.545
145.34
26.0863
3.75693
0.400908
0.0880494
0.0905946
0.127828
0.204404
0.404115
1.20376
8.05036
25.7407
17.6015
87.3537
285.082
675.01
1298.82
2145.33
3142.48
4191.07
5205.3
6132.21
6953.81
7667.4
8273.93
8781.2
9198.45
9537.06
9806.78
10018.3
10180.7
10302.3
10389.9
10449.8
10484.6
10496.5
10487.2
10457.6
10408.2
10338.7
10249.3
10141.2
10018.2
9880.04
9723.98
9545.42
9340.99
9107.53
8840.1
8529.34
8160.65
7705.11
7119.79
6345.06
5304.9
3987.62
2557.01
1193.22
307.361
57.9614
10.1645
1.31677
0.158605
0.0736152
0.0900543
0.127804
0.205047
0.405692
1.22635
8.05927
25.6999
17.5675
87.1359
284.248
672.775
1294.19
2137.65
3132.41
4178.24
5190.35
6117.18
6939.5
7653.8
8261.95
8769.99
9188.65
9527.86
9798.72
10010.1
10171.9
10292.2
10378
10435
10468.2
10479.1
10469.2
10439.8
10391.6
10324.5
10238.1
10132.4
10008.2
9869.07
9713.9
9539.55
9341.02
9114.43
8855.96
8558.4
8208.23
7784.88
7251.05
6555.29
5633.47
4436.59
3074.88
1699.69
579.815
118.178
23.2523
3.70827
0.450459
0.0837606
0.0697049
0.0898993
0.128077
0.205865
0.412909
1.22446
8.06845
25.6702
17.5424
86.9704
283.585
670.922
1290.19
2130.79
3122.56
4166.64
5176.49
6101.66
6924.04
7639.1
8247.89
8757.53
9176.85
9517.54
9789.18
10002
10163.9
10283.7
10368.3
10423.5
10453.8
10463
10452.2
10422.4
10374.7
10309
10225.2
10122.5
10000.8
9860.61
9705.15
9532.41
9338.81
9118.9
8868.53
8582.26
8248.51
7849.67
7358.1
6727.1
5899.24
4821.44
3528.47
2196.91
950.711
232.177
46.6112
8.85039
1.27407
0.165325
0.0623373
0.0686888
0.0900774
0.128392
0.209026
0.412798
1.22651
8.07782
25.6461
17.528
86.8692
283.096
669.466
1286.97
2124.93
3113.77
4155.21
5163.95
6087.33
6908.21
7623.4
8232.97
8743.2
9164.02
9505.33
9778.47
9992.29
10155.8
10275.9
10360.2
10414.2
10442.7
10449
10436.6
10406
10357.9
10292.9
10210.7
10110.8
9992.28
9854.68
9698.47
9526.17
9335
9120.86
8878.15
8601.62
8282.29
7904.3
7444.82
6868.21
6119.05
5143.99
3941.06
2645.88
1378.84
424.922
87.9739
18.2783
3.13574
0.424612
0.0784048
0.0566336
0.0685522
0.0902406
0.129896
0.209076
0.414574
1.22846
8.08745
25.6311
17.5184
86.8177
282.789
668.379
1284.42
2120.14
3106.23
4145.08
5151.68
6074.31
6893.67
7607.56
8217.19
8728.06
9149.52
9492.19
9765.96
9981.31
10146.1
10268
10352.8
10406.5
10433.9
10438.3
10423
10390.8
10342.1
10277
10195.6
10097.6
9982.04
9847.75
9694.21
9521.53
9331.61
9120.84
8884.88
8617.19
8310.1
7950.59
7517.77
6982.63
6301.39
5415.46
4299.4
3054.39
1799.37
707.091
161.194
34.4872
6.71545
1.04439
0.150453
0.0539254
0.0553146
0.0685664
0.0911929
0.130226
0.209462
0.418517
1.22983
8.09748
25.613
17.5132
86.7855
282.642
667.737
1282.52
2116.35
3100.07
4136.34
5140.75
6061.56
6880.45
7593.05
8201.48
8712.32
9134.2
9477.53
9752.61
9968.6
10135
10258.4
10345.2
10399.6
10426.6
10430
10412.7
10377.7
10327.4
10261.8
10180.5
10083.6
9970.12
9839.08
9688.99
9519.15
9329.31
9120.73
8889.17
8629.37
8333.02
7989.04
7579.89
7078.83
6449.97
5644.61
4615.96
3416.91
2197.67
1036.42
287.659
61.1072
13.1002
2.29147
0.338413
0.0687737
0.0476293
0.0550522
0.0691484
0.0915017
0.130748
0.210524
0.422202
1.23102
8.10747
25.6029
17.5076
86.7747
282.566
667.46
1281.37
2113.55
3095.14
4129.19
5131.33
6050.42
6867.59
7579.84
8187.2
8696.8
9118.53
9462.13
9737.79
9955.15
10122.2
10247.3
10335.8
10392.4
10420.1
10423.2
10404.9
10367.9
10314.8
10247.7
10166.1
10069.5
9957.38
9828.65
9682.05
9515.82
9329.06
9121.46
8892.87
8638.53
8351.85
8021.18
7631.76
7160.95
6575.19
5833.26
4892.05
3755.17
2559.24
1390.35
472.458
104.866
23.6572
4.61265
0.736681
0.118711
0.0463911
0.0461681
0.0553757
0.0693766
0.0918605
0.131459
0.212504
0.422164
1.23215
8.11749
25.5915
17.5054
86.7609
282.54
667.289
1280.87
2111.81
3091.54
4123.46
5123.59
6040.74
6856.36
7567.06
8174.17
8682.78
9103.26
9446.52
9722.36
9940.23
10108.7
10234.6
10324.9
10383.3
10413.3
10417.2
10398.6
10360.5
10305.4
10235.5
10152.6
10055.9
9944.36
9817.3
9673.27
9510.8
9327.84
9123.65
8896.96
8646.6
8366.93
8048.35
7675.57
7229.76
6682.31
5993.26
5123.02
4059.42
2894.68
1732.92
713.647
176.539
39.7943
8.61259
1.50777
0.233946
0.0557856
0.0407907
0.0461224
0.0555493
0.0696576
0.0922416
0.132527
0.213038
0.422359
1.23338
8.12739
25.5736
17.5021
86.7569
282.516
667.237
1280.6
2111.07
3089.18
4119.09
5117.24
6032.65
6846.67
7556.07
8161.62
8670.09
9089.48
9431.5
9706.84
9924.8
10093.8
10221.2
10312.3
10372.7
10404.8
10410.9
10393.1
10354.7
10298.5
10226.6
10141.1
10043.2
9931.73
9805.51
9663.47
9503.85
9324.97
9124.83
8901.97
8654.32
8380.05
8070.8
7713.21
7288.32
6772.41
6130.79
5321.42
4323.21
3200.18
2060.92
984.405
285.743
64.3712
14.885
2.88459
0.467429
0.0843709
0.0392604
0.0397028
0.0462411
0.0557421
0.0698977
0.0930427
0.133028
0.214438
0.422536
1.23468
8.13751
25.5737
17.4943
86.7467
282.51
667.2
1280.49
2110.57
3088.11
4116.24
5112.48
6026
6838.49
7546.53
8150.99
8657.93
9077.18
9418.02
9692.03
9909.34
10078.4
10206.3
10299
10360.3
10394.4
10402.8
10387.3
10349.8
10293.3
10220.3
10132.6
10032.2
9919.82
9793.97
9653.07
9495.8
9320.08
9124.34
8905.88
8662.58
8392.04
8090.23
7744.94
7339.12
6849.54
6247.1
5493.88
4557.47
3475.56
2365.89
1275.03
434.929
101.013
24.2159
5.12919
0.89879
0.147601
0.043513
0.0354388
0.0396009
0.0463905
0.0559104
0.0704994
0.0936908
0.133819
0.21476
0.422742
1.23608
8.14743
25.5509
17.502
86.7148
282.481
667.19
1280.43
2110.35
3087.3
4114.81
5109.2
6020.95
6831.59
7538.36
8141.76
8647.65
9065.49
9406.05
9678.86
9894.7
10062.9
10190.9
10284.2
10347.2
10382.4
10392.8
10379.8
10344.5
10288.9
10215.6
10126.9
10024.3
9909.61
9783
9642.76
9486.97
9313.98
9121.75
8908.08
8669.61
8404.04
8107.5
7772.39
7382.49
6916.83
6347.26
5640.92
4765.76
3729.32
2640.49
1561.91
627.119
156.428
37.2441
8.57327
1.62475
0.269668
0.0574608
0.0334062
0.0347242
0.0396938
0.0464945
0.0562816
0.0710092
0.0944911
0.134256
0.214562
0.423036
1.23755
8.15654
25.5285
17.478
86.7755
282.405
667.122
1280.37
2110.13
3086.81
4113.62
5107.39
6017.4
6826.39
7531.46
8133.78
8638.78
9055.6
9394.87
9667.22
9881.81
10048.4
10175.5
10268.8
10332.6
10369.5
10381.1
10370.2
10337.6
10284.2
10211.8
10122.7
10019.1
9902.31
9773.59
9632.88
9478.07
9306.94
9117.84
8908.07
8674.84
8414.65
8124.09
7796.38
7420.09
6974.82
6435.04
5768.46
4945.12
3959.76
2894.15
1829.42
845.318
238.037
55.6258
13.5004
2.77238
0.482238
0.0875985
0.0343119
0.031214
0.0346891
0.0397585
0.0467282
0.0566833
0.0716284
0.0948548
0.134557
0.214448
0.423421
1.23914
8.16588
25.5083
17.4633
86.6424
282.574
666.944
1280.21
2110.01
3086.45
4112.8
5105.73
6015.26
6822.62
7526.21
8126.93
8631.08
9047.08
9385.42
9656.49
9870.46
10035.7
10161.1
10253.5
10317.3
10355
10368.5
10358.9
10328.5
10277.9
10207.7
10119.5
10015.5
9897.65
9766.96
9624.37
9469.43
9299.64
9112.81
8906.62
8677.73
8423.3
8138.99
7818.73
7452.64
7025.15
6511.17
5880.88
5102.46
4164.22
3126.48
2080.97
1073.13
348.697
81.6055
20.3359
4.4776
0.828065
0.143117
0.039594
0.0289731
0.0308679
0.0347398
0.0399367
0.0469801
0.0571122
0.0720965
0.095288
0.134493
0.214468
0.423872
1.24077
8.17454
25.4885
17.4499
86.5709
282.163
667.366
1279.89
2109.68
3086.04
4112.03
5104.49
6013.15
6820.18
7522.32
8121.74
8624.48
9039.72
9377.25
9647.47
9860.13
10024.6
10148.6
10239.2
10302
10339.9
10354.3
10346.7
10317.7
10269.4
10202
10116.1
10012.9
9894.67
9762.92
9618.5
9461.95
9292.41
9107.34
8903.87
8679.07
8429.45
8151.72
7838.93
7482.38
7068.52
6577.38
5979.05
5242.64
4348.59
3339.45
2314.8
1303.79
484.481
119.072
29.4275
6.91454
1.35825
0.236886
0.051569
0.0281549
0.0279382
0.0308799
0.0349012
0.0401403
0.0472968
0.0575498
0.0726068
0.0954468
0.13416
0.214623
0.424383
1.24254
8.18306
25.4655
17.4359
86.5033
281.932
666.395
1280.66
2109.08
3085.39
4111.28
5103.36
6011.49
6817.76
7519.63
8117.8
8619.35
9033.43
9370.26
9639.67
9851.5
10014.6
10137.6
10226.7
10287.8
10324.7
10339.4
10332.8
10305.9
10259.2
10194.2
10111.1
10010.2
9892.74
9760.57
9615.15
9456.96
9286.44
9101.76
8900.46
8678.9
8433.95
8161.71
7856.65
7509.25
7107.74
6634.41
6064.76
5366.31
4516.39
3537.92
2528.58
1527.28
644.198
170.89
41.5641
10.2218
2.13641
0.385183
0.0736309
0.0291868
0.0257532
0.0278176
0.0310187
0.0350899
0.04039
0.0476594
0.0580247
0.0729769
0.0953176
0.134002
0.214861
0.424968
1.24441
8.19124
25.4465
17.4192
86.4315
281.709
665.859
1278.82
2110.21
3084.43
4110.23
5102.17
6009.94
6815.63
7516.89
8114.93
8615.42
9028.49
9364.26
9633.03
9844.06
10006.4
10127.9
10215.9
10275.4
10310.5
10324.3
10318
10292.4
10247.8
10184.6
10104
10006
9890.71
9759.32
9613.46
9454.35
9282.46
9097.4
8896.76
8677.84
8436.69
8169.77
7871.35
7533.18
7143.1
6685.62
6138.74
5474.86
4666.67
3722.31
2727.14
1737.1
817.704
239.697
57.6114
14.5926
3.21867
0.607961
0.11028
0.0328169
0.0242982
0.0253542
0.0279164
0.031193
0.035285
0.0406406
0.0480415
0.0585264
0.0731172
0.0948913
0.13402
0.215166
0.425602
1.24641
8.19962
25.4219
17.3993
86.3397
281.471
665.328
1277.79
2107.26
3085.87
4108.78
5100.6
6008.31
6813.68
7514.44
8112.02
8612.45
9024.63
9359.56
9627.38
9837.78
9999.29
10120
10206.4
10264.6
10298.2
10310.2
10303.1
10277.9
10234.7
10173.8
10095.1
9999.6
9887.26
9758.01
9612.93
9453.39
9280.71
9094.6
8894
8676.27
8438.31
8175.81
7883.8
7553.72
7174.82
6731.76
6204.86
5569.01
4799.34
3890.4
2912.62
1934.67
996.281
326.158
78.6248
20.2034
4.67353
0.924065
0.167034
0.0400802
0.0236519
0.0233851
0.0253882
0.0280666
0.0313433
0.0354609
0.0409062
0.0485325
0.0588365
0.0729188
0.0945899
0.13416
0.215514
0.426315
1.24852
8.20803
25.3971
17.3797
86.2456
281.187
664.762
1276.81
2105.66
3081.66
4110.4
5098.71
6006.2
6811.63
7512.06
8109.27
8609.43
9021.56
9355.89
9622.97
9832.5
9993.36
10113.2
10198.8
10255.3
10287.5
10298
10289.1
10263.2
10220.6
10161.2
10084.9
9991.51
9881.69
9755.37
9612.36
9453.59
9280.52
9093.81
8892.56
8675.4
8439.16
8180.45
7893.85
7571.62
7202.58
6773.27
6264.41
5653.09
4915.31
4042.38
3083.82
2121
1176.47
428.607
106.352
27.1613
6.57974
1.35527
0.249274
0.0523077
0.0239768
0.0218459
0.0233154
0.0255178
0.0282104
0.0314787
0.0356091
0.041279
0.0489227
0.0590335
0.0724655
0.0945279
0.134367
0.215901
0.427096
1.25079
8.21698
25.3645
17.3542
86.1222
280.84
664.07
1275.71
2103.98
3079.32
4104.94
5100.35
6003.9
6809.11
7509.63
8106.56
8606.56
9018.5
9352.84
9619.56
9828.44
9988.46
10107.6
10192.4
10247.9
10278.4
10287.4
10277
10249.4
10206.2
10147.5
10072.9
9981.97
9874.45
9750.68
9610.58
9453.8
9281.54
9094.51
8892.87
8675.52
8440.47
8184.03
7902.16
7586.68
7227.24
6810.03
6318.16
5728.94
5019.46
4177.91
3242.82
2294.72
1353.23
547.283
142.805
35.7251
8.99871
1.92864
0.363135
0.0708269
0.0255178
0.0207045
0.0216027
0.0234212
0.0256642
0.0283356
0.0315878
0.0358683
0.0416702
0.0492431
0.0587174
0.0721176
0.0946137
0.134611
0.216326
0.427964
1.25321
8.22633
25.3283
17.3253
85.9983
280.463
663.308
1274.47
2102.29
3077.05
4101.97
5093.76
6005.47
6806.33
7506.73
8103.81
8603.59
9015.61
9349.79
9616.63
9825.32
9984.74
10103.1
10187.1
10241.8
10271.2
10278.4
10266.5
10237.3
10192.5
10133.4
10059.8
9970.67
9865.68
9744.36
9606.82
9452.92
9282.57
9096.4
8894.57
8677.14
8442.43
8187.84
7909.08
7599.58
7248.56
6843.03
6366.14
5797.65
5113.98
4301.59
3388.44
2455.63
1522.76
677.632
189.342
46.4615
11.9685
2.67594
0.516537
0.0971922
0.028543
0.0199587
0.0201781
0.0216735
0.0235637
0.0257941
0.0284518
0.0317899
0.0362443
0.0419782
0.0492547
0.0582771
0.0720123
0.0947727
0.134886
0.216797
0.428912
1.2558
8.23696
25.2946
17.2933
85.8376
280.019
662.361
1272.96
2100.27
3074.66
4099.02
5090.12
5997.93
6807.8
7503.63
8100.55
8600.58
9012.53
9346.91
9613.63
9822.55
9981.89
10099.7
10182.8
10236.8
10265.3
10271.4
10257.7
10226.9
10180.6
10120
10046
9958.14
9855.15
9736.44
9601.48
9450.16
9282.64
9098.33
8897.43
8679.97
8445.58
8191.97
7915.88
7610.69
7267.23
6872.14
6409.59
5859.4
5200.08
4415.24
3523.63
2601.94
1682.53
814.187
247.342
59.7895
15.5975
3.61514
0.720587
0.133459
0.0333995
0.0196302
0.0189928
0.0201938
0.0218037
0.0236991
0.0259244
0.0286244
0.0320978
0.0365308
0.0422785
0.04906
0.0578928
0.0720757
0.0949654
0.13519
0.217311
0.429951
1.2586
8.24856
25.2589
17.2611
85.6652
279.513
661.375
1271.26
2097.93
3071.84
4095.95
5086.64
5993.68
6799.41
7504.93
8097.16
8597.04
9009.34
9343.79
9610.76
9819.66
9979.33
10097.1
10179.8
10232.9
10260.6
10265.7
10250.8
10218.3
10170.3
10108.2
10032.9
9944.88
9843.32
9726.78
9594.53
9445.9
9280.94
9099.41
8900.32
8683.93
8449.73
8196.93
7922.55
7621.28
7283.62
6898.01
6448.39
5915.73
5278.02
4519.6
3649.24
2738.09
1829.35
952.019
315.85
76.647
19.9294
4.78047
0.982169
0.182627
0.0405271
0.0197691
0.0180167
0.0189271
0.0203089
0.0219348
0.0238281
0.0260707
0.0288566
0.0323045
0.0369107
0.0424018
0.0485609
0.057788
0.0722104
0.095182
0.135521
0.217876
0.431093
1.26163
8.2616
25.2217
17.2279
85.4907
278.952
660.172
1269.37
2095.27
3068.63
4092.43
5083.02
5989.71
6794.67
7495.82
8098.32
8593.36
9005.59
9340.5
9607.67
9816.86
9976.64
10094.8
10177.5
10230.1
10257
10261.3
10245.4
10211.5
10161.8
10098.1
10021.3
9932.14
9830.63
9715.75
9585.82
9439.99
9277.84
9098.84
8902.5
8687.89
8454.96
8202.66
7929.69
7631.21
7299.05
6921.07
6483.22
5966.4
5349.54
4614.64
3766.35
2864.99
1966.85
1086.19
393.338
97.6471
25.0881
6.19249
1.31061
0.246765
0.0505838
0.0204438
0.0172362
0.0178367
0.0190214
0.0204254
0.0220495
0.023958
0.026241
0.0289623
0.0326417
0.0371099
0.0420225
0.0482007
0.0578502
0.0723732
0.0954182
0.135884
0.218488
0.432323
1.26492
8.2762
25.1842
17.1936
85.3108
278.368
658.858
1267.18
2092.33
3065.04
4088.5
5078.99
5985.67
6790.33
7490.66
8088.65
8594.45
9001.64
9336.62
9604.34
9813.85
9974.03
10092.4
10175.6
10228.2
10254.5
10258
10241.2
10206.2
10155.2
10089.7
10011.3
9920.83
9818.35
9703.72
9575.7
9432.35
9273.07
9096.98
8903.16
8691.27
8460.14
8209.35
7937.3
7641.07
7313.19
6942.59
6514.55
6012.27
5414.3
4702.39
3874.84
2984.64
2095.65
1216.82
478.112
123.382
31.1574
7.87896
1.71268
0.328064
0.0640505
0.0217629
0.0166426
0.0168933
0.0179069
0.019129
0.0205272
0.0221704
0.024087
0.0262868
0.0292266
0.0328752
0.0370427
0.0415307
0.0481265
0.0579731
0.0725543
0.095678
0.136281
0.219158
0.433671
1.26849
8.29244
25.1464
17.1591
85.1245
277.774
657.498
1264.75
2088.97
3061.07
4084.11
5074.46
5981.27
6785.94
7486.04
8083.14
8584.37
9002.67
9332.48
9600.41
9810.58
9971.19
10090.1
10173.5
10226.6
10253
10255.8
10238.1
10202.3
10150.1
10083.2
10003.1
9911
9807.38
9692.01
9564.45
9423.27
9266.62
9093.47
8902.64
8693.26
8464.86
8215.95
7945.74
7650.99
7326.62
6962.18
6543.65
6053.75
5473.28
4782.44
3976.52
3097.5
2217.62
1342.01
569.751
154.008
38.2538
9.8449
2.19693
0.428056
0.0813968
0.0238043
0.0162385
0.0160783
0.0169361
0.0180064
0.0192212
0.0206467
0.0222883
0.0241252
0.0264861
0.0294996
0.0330123
0.0367418
0.0412304
0.0481984
0.0581175
0.0727529
0.095962
0.136714
0.219889
0.435134
1.27239
8.3104
25.1084
17.1237
84.9356
277.158
656.098
1262.24
2085.26
3056.59
4079.3
5069.48
5976.35
6781.28
7481.42
8078.33
8578.57
8992.32
9333.5
9596.23
9806.65
9968.03
10087.5
10171.5
10225
10251.8
10254.6
10236.3
10199.5
10146.3
10078.2
9996.77
9903
9797.78
9681.45
9553.42
9413.2
9258.7
9088.31
8900.5
8694.2
8468.3
8222.17
7954
7661.53
7339.53
6980.26
6570.17
6092.22
5526.92
4855.95
4070.64
3205.63
2333.23
1462.63
665.151
189.924
46.4699
12.1085
2.76573
0.549092
0.102876
0.0266463
0.0160211
0.0153749
0.0160842
0.0170298
0.0180971
0.0193423
0.0207687
0.0223503
0.0242924
0.0267584
0.0297596
0.0330368
0.0362163
0.0412038
0.0483148
0.0582763
0.0729694
0.0962705
0.137186
0.220684
0.436723
1.27664
8.33032
25.0698
17.0882
84.7437
276.533
654.662
1259.66
2081.38
3051.65
4073.93
5064.05
5970.98
6776.04
7476.5
8073.57
8573.64
8986.28
9322.95
9597.26
9802.53
9964.2
10084.5
10169.1
10223.3
10250.5
10253.7
10235.4
10197.9
10143.8
10074.6
9991.94
9896.77
9790.01
9672.17
9543.37
9402.99
9249.88
9081.69
8896.78