/*--------------------------------*- C++ -*----------------------------------*\
| =========                 |                                                 |
| \\      /  F ield         | OpenFOAM: The Open Source CFD Toolbox           |
|  \\    /   O peration     | Version:  v2012                                 |
|   \\  /    A nd           | Website:  www.openfoam.com                      |
|    \\/     M anipulation  |                                                 |
\*---------------------------------------------------------------------------*/
FoamFile
{
    version     2.0;
    format      ascii;
    class       volScalarField;
    location    "3900";
    object      lamda2;
}
// * * * * * * * * * * * * * * * * * * * * * * * * * * * * * * * * * * * * * //

dimensions      [0 0 0 0 0 0 0];


internalField   nonuniform List<scalar> 
29502
(
0.00384266
0.000611317
0.0806574
0.000591663
0.0150616
0.180867
0.00070128
0.0139066
0.0764237
0.224475
0.000775751
0.0161338
0.0712217
0.165971
0.222301
0.000818393
0.0175799
0.0802733
0.171183
0.256941
0.202449
0.000840467
0.0183767
0.0856896
0.187181
0.278192
0.336448
0.178312
0.000846751
0.0187563
0.0885218
0.196143
0.296176
0.365986
0.397899
0.153516
0.000845224
0.0188455
0.0896545
0.200589
0.305846
0.38119
0.427778
0.441679
0.129805
0.000837219
0.0187893
0.089737
0.202069
0.31044
0.389315
0.437943
0.467276
0.470565
0.108357
0.000825422
0.0186234
0.0893433
0.201908
0.311734
0.393078
0.443684
0.472237
0.491085
0.48824
0.0896111
0.000814855
0.0183946
0.0885812
0.201008
0.311358
0.393996
0.446339
0.475691
0.491481
0.505726
0.498099
0.0734582
0.00080722
0.0181894
0.0876691
0.199588
0.3102
0.393586
0.446911
0.477339
0.49314
0.502312
0.515617
0.502626
0.0598114
0.000800036
0.0180389
0.0868535
0.198003
0.308562
0.392518
0.4466
0.477656
0.494081
0.502655
0.509471
0.522116
0.503741
0.0483398
0.000787181
0.017899
0.0862444
0.196587
0.3068
0.391103
0.445798
0.477476
0.494235
0.503162
0.508699
0.514378
0.525931
0.50212
0.0388286
0.00077675
0.0176539
0.0856864
0.195514
0.305226
0.389587
0.444781
0.476956
0.494152
0.503208
0.508838
0.512461
0.517224
0.528146
0.498377
0.030972
0.000767141
0.0174553
0.0847517
0.194537
0.304017
0.388238
0.44368
0.476318
0.493832
0.503193
0.508799
0.512245
0.514154
0.518616
0.529168
0.492583
0.0245789
0.000761113
0.0172728
0.0839965
0.192961
0.302916
0.387175
0.442694
0.475608
0.493457
0.502982
0.508836
0.512132
0.513621
0.514525
0.519078
0.529614
0.508479
0.0193997
0.000753759
0.0171575
0.0833077
0.19169
0.301184
0.386219
0.441898
0.474963
0.493022
0.502743
0.508715
0.512212
0.513454
0.513672
0.514216
0.518965
0.530946
0.501487
0.0152218
0.000744202
0.0170181
0.0828677
0.190529
0.299793
0.384739
0.441194
0.474432
0.492637
0.502464
0.508586
0.512165
0.513552
0.513485
0.51297
0.5137
0.518768
0.534026
0.491493
0.0118963
0.000736984
0.016838
0.0823442
0.189784
0.298522
0.383541
0.440113
0.473965
0.49231
0.502233
0.5084
0.512135
0.513554
0.513567
0.512777
0.511883
0.513193
0.519189
0.538664
0.476315
0.00925229
0.000731275
0.0167037
0.0816747
0.18891
0.297697
0.382447
0.439226
0.473258
0.492025
0.50203
0.508243
0.51204
0.513586
0.51358
0.51281
0.511669
0.510645
0.512713
0.52068
0.543524
0.454792
0.00715329
0.000725228
0.0165984
0.0811817
0.187801
0.296741
0.381734
0.438414
0.472672
0.491598
0.501845
0.508085
0.511939
0.513566
0.513668
0.512824
0.511609
0.510367
0.509466
0.512312
0.522906
0.546419
0.426383
0.00550817
0.000720251
0.0164845
0.0807977
0.186993
0.295538
0.380909
0.437887
0.472128
0.491243
0.501596
0.507957
0.511827
0.513533
0.5137
0.512935
0.511627
0.510157
0.50898
0.508483
0.512139
0.525347
0.544944
0.391153
0.00421145
0.000715666
0.016392
0.0803765
0.186366
0.294673
0.379885
0.437281
0.471775
0.49091
0.501366
0.507783
0.511748
0.513474
0.513717
0.513012
0.511743
0.510167
0.508622
0.507581
0.507719
0.512438
0.528232
0.537993
0.349073
0.00320201
0.00071021
0.0163065
0.0800407
0.185673
0.293996
0.379157
0.436533
0.471373
0.490689
0.501151
0.5076
0.511616
0.513434
0.51368
0.513038
0.511824
0.510288
0.5086
0.507136
0.506287
0.507221
0.513457
0.53187
0.529491
0.301545
0.00241601
0.0007042
0.0162044
0.0797305
0.185121
0.293244
0.378579
0.435997
0.47088
0.490434
0.501009
0.507437
0.511502
0.51338
0.513682
0.513026
0.511867
0.510364
0.508702
0.507025
0.505751
0.505239
0.507116
0.515268
0.53634
0.523994
0.250651
0.00180965
0.000698665
0.0160918
0.0793604
0.18462
0.292651
0.377935
0.435568
0.470517
0.490132
0.500848
0.507316
0.511389
0.513329
0.513685
0.513053
0.511892
0.510427
0.508781
0.507068
0.505499
0.504553
0.504521
0.507488
0.517942
0.54156
0.51867
0.199931
0.00134741
0.000694701
0.015989
0.0789511
0.18402
0.292117
0.377443
0.435094
0.470226
0.489911
0.500666
0.507197
0.511291
0.513247
0.513666
0.513073
0.51192
0.510462
0.508846
0.507134
0.505472
0.504118
0.503586
0.504166
0.50843
0.521517
0.547003
0.509401
0.153086
0.00100027
0.00069212
0.0159175
0.0785804
0.18336
0.291487
0.377003
0.434736
0.469911
0.489718
0.500522
0.507065
0.511177
0.513192
0.513623
0.513094
0.511938
0.510502
0.508868
0.507209
0.505513
0.504009
0.503044
0.502899
0.504223
0.51003
0.525983
0.551193
0.494831
0.112795
0.000724062
0.000689474
0.015873
0.0783316
0.182768
0.290783
0.376473
0.434421
0.469666
0.489519
0.500386
0.506942
0.511076
0.513114
0.513584
0.513093
0.51198
0.510519
0.50891
0.507217
0.505567
0.504001
0.502899
0.502423
0.502542
0.504752
0.512393
0.531208
0.551506
0.472696
0.0798085
0.000514645
0.00068653
0.0158264
0.0781854
0.182383
0.290159
0.37588
0.43403
0.469455
0.489357
0.500246
0.506837
0.510993
0.513052
0.513555
0.513065
0.512005
0.510565
0.50892
0.507234
0.505545
0.504026
0.502856
0.502301
0.502192
0.502511
0.505815
0.515635
0.53685
0.544392
0.439022
0.054364
0.00035569
0.000683057
0.0157741
0.0780291
0.182169
0.289765
0.375347
0.4336
0.469196
0.48923
0.50014
0.506729
0.510904
0.512999
0.513534
0.513039
0.512001
0.510596
0.508984
0.507225
0.505563
0.503993
0.502853
0.502242
0.502067
0.502118
0.50282
0.507498
0.519869
0.542429
0.532771
0.389148
0.035936
0.00023195
0.000679229
0.0157117
0.0778521
0.181936
0.289555
0.375027
0.433216
0.468917
0.489071
0.500054
0.506655
0.510833
0.512933
0.513496
0.51304
0.511966
0.510604
0.509008
0.507318
0.505515
0.504008
0.502812
0.502229
0.501992
0.501946
0.502116
0.503573
0.509893
0.525187
0.547613
0.524561
0.321796
0.023953
0.000141676
0.00067502
0.015642
0.0776384
0.181669
0.289324
0.374866
0.432991
0.468669
0.488905
0.499947
0.506572
0.510779
0.512887
0.513445
0.513033
0.511962
0.510568
0.509011
0.507351
0.505627
0.503906
0.502816
0.502192
0.501965
0.501838
0.50189
0.502169
0.504867
0.513142
0.531438
0.551537
0.515994
0.246704
0.0161317
7.85652e-05
0.000670868
0.0155639
0.0773932
0.181343
0.289067
0.374683
0.432879
0.468519
0.48875
0.499837
0.506478
0.510702
0.51285
0.513414
0.513
0.511978
0.510564
0.508971
0.507332
0.505663
0.504012
0.502699
0.502174
0.501916
0.50179
0.50174
0.501885
0.502391
0.506776
0.517365
0.538054
0.551474
0.497978
0.177456
0.0108385
3.82706e-05
0.000666802
0.0154873
0.0771181
0.180963
0.288739
0.374481
0.432749
0.468437
0.488654
0.499741
0.50639
0.510633
0.512805
0.513379
0.512973
0.511966
0.510586
0.508983
0.50727
0.50564
0.504041
0.502781
0.50209
0.50188
0.501727
0.501668
0.501694
0.501949
0.503106
0.509402
0.522637
0.544308
0.543581
0.465811
0.123509
0.0070762
1.5375e-05
0.000662707
0.0154113
0.0768457
0.180527
0.288343
0.374221
0.4326
0.468353
0.488592
0.499686
0.50632
0.510593
0.512773
0.51336
0.512939
0.511933
0.510569
0.509006
0.507295
0.505554
0.504035
0.502795
0.502142
0.501809
0.501685
0.501587
0.501604
0.501702
0.502075
0.504598
0.512889
0.528977
0.549099
0.530845
0.414085
0.0843136
0.0043865
4.48101e-06
0.000659349
0.0153357
0.0765756
0.180099
0.287891
0.373896
0.432421
0.468256
0.488537
0.499637
0.506276
0.51053
0.512751
0.513348
0.512925
0.511914
0.510544
0.508975
0.507328
0.505558
0.503928
0.502792
0.502143
0.501853
0.50159
0.501527
0.5015
0.501587
0.501779
0.502436
0.50692
0.517396
0.536071
0.551253
0.520218
0.341094
0.0558208
0.00249368
8.46538e-07
0.00065707
0.0152732
0.0763071
0.179679
0.287451
0.373528
0.432201
0.468142
0.488473
0.499584
0.506216
0.510478
0.512698
0.513307
0.512919
0.511899
0.510546
0.508952
0.507303
0.505601
0.503896
0.502698
0.502132
0.501849
0.501632
0.501402
0.501418
0.501466
0.501634
0.501905
0.50352
0.510047
0.523045
0.543102
0.548606
0.505657
0.25682
0.0346428
0.00123379
2.28588e-08
0.000655701
0.0152312
0.0760816
0.179251
0.287025
0.37317
0.431944
0.468003
0.4884
0.499535
0.506166
0.510408
0.51265
0.513279
0.51289
0.511878
0.510512
0.508942
0.507262
0.505579
0.503934
0.502656
0.502069
0.501833
0.501625
0.501442
0.501274
0.501361
0.501483
0.501734
0.502167
0.505556
0.514102
0.529784
0.548766
0.53917
0.474984
0.179415
0.0195301
0.000516713
7.53041e-08
0.000655344
0.01521
0.0759399
0.178894
0.286589
0.372829
0.431693
0.46784
0.488325
0.499494
0.506146
0.510364
0.512613
0.51325
0.512885
0.511883
0.510486
0.508912
0.507232
0.505527
0.503916
0.502692
0.502048
0.501773
0.50161
0.501432
0.501312
0.501186
0.501357
0.501559
0.501885
0.502935
0.508494
0.519257
0.537215
0.55131
0.526517
0.420717
0.118061
0.00990447
0.000157748
1.53125e-07
0.000655452
0.0152062
0.0758776
0.178678
0.286209
0.37247
0.431449
0.467682
0.48823
0.49945
0.506119
0.510339
0.512561
0.513213
0.512859
0.511889
0.510508
0.508896
0.507204
0.505504
0.503858
0.502678
0.502066
0.501754
0.501536
0.501416
0.501289
0.50122
0.50116
0.501407
0.501689
0.502139
0.504701
0.512334
0.525609
0.544364
0.54809
0.513562
0.339653
0.0719565
0.00414915
4.10864e-05
2.09995e-07
0.000655544
0.0152127
0.0758855
0.178607
0.285993
0.372156
0.431184
0.467527
0.488133
0.499391
0.506065
0.510318
0.512514
0.513172
0.512786
0.511855
0.51051
0.508916
0.507179
0.505456
0.503834
0.502616
0.502052
0.501768
0.501502
0.501333
0.501262
0.501189
0.501184
0.501186
0.501518
0.501865
0.50287
0.50753
0.517212
0.532982
0.54948
0.537868
0.490467
0.243534
0.0387888
0.00133178
1.2363e-05
2.04222e-07
0.000655244
0.0152186
0.07593
0.178646
0.285949
0.371991
0.430964
0.46735
0.488041
0.499314
0.506009
0.510282
0.512498
0.513141
0.512777
0.511793
0.510482
0.50891
0.507188
0.505409
0.503788
0.502586
0.502013
0.501755
0.501523
0.501289
0.501163
0.501162
0.501144
0.501198
0.501272
0.501674
0.502163
0.504627
0.511296
0.523247
0.540603
0.550229
0.525363
0.442462
0.156088
0.0161051
0.000385645
3.03722e-06
8.81281e-08
0.000654427
0.0152172
0.0759729
0.178754
0.286021
0.371974
0.430855
0.467203
0.487931
0.499256
0.505953
0.51024
0.51248
0.513132
0.51276
0.511779
0.510445
0.508899
0.507189
0.505397
0.503737
0.502558
0.501996
0.501729
0.501511
0.501307
0.50111
0.501049
0.501108
0.501147
0.501267
0.501412
0.501871
0.502997
0.507438
0.516034
0.530367
0.546874
0.543138
0.512543
0.361129
0.0878753
0.00466989
0.000118341
2.62871e-07
7.4592e-09
0.000652903
0.0152035
0.0759863
0.178858
0.286158
0.372049
0.430842
0.46713
0.487841
0.499201
0.505913
0.510217
0.51247
0.513121
0.512741
0.511752
0.510395
0.508865
0.507184
0.505417
0.503729
0.502531
0.501977
0.501717
0.501476
0.501299
0.501127
0.500985
0.500982
0.501109
0.501203
0.501394
0.5016
0.502243
0.504844
0.511176
0.521892
0.537905
0.549234
0.530523
0.487681
0.25538
0.0378283
0.00114862
7.17635e-06
1.21587e-08
1.94255e-09
0.000650629
0.0151773
0.0759519
0.178914
0.2863
0.372182
0.430904
0.467121
0.48779
0.49915
0.505861
0.510186
0.512458
0.513122
0.512749
0.511733
0.510346
0.508789
0.507142
0.505397
0.503746
0.502527
0.50196
0.501688
0.501461
0.501257
0.501117
0.501004
0.500909
0.50097
0.501154
0.501307
0.50156
0.501823
0.50327
0.507758
0.515867
0.528773
0.544444
0.544744
0.519618
0.433443
0.14794
0.0114356
0.000407442
2.65741e-06
8.93485e-09
2.67204e-09
0.000647759
0.0151363
0.0758642
0.178878
0.28639
0.372314
0.431014
0.46716
0.48778
0.499105
0.505811
0.510129
0.512439
0.513117
0.51276
0.511734
0.510344
0.508746
0.507059
0.505343
0.50372
0.50253
0.501948
0.501659
0.501426
0.501238
0.501074
0.500984
0.500927
0.500878
0.501
0.50125
0.501461
0.501767
0.502271
0.505359
0.511554
0.521635
0.536205
0.547969
0.533929
0.50459
0.337175
0.0640177
0.00288164
0.000169844
3.37261e-06
5.65386e-12
3.47197e-11
0.000644202
0.0150806
0.0757194
0.178752
0.286373
0.372412
0.431118
0.467235
0.487801
0.49909
0.505773
0.510078
0.51241
0.513113
0.512763
0.511749
0.510344
0.508724
0.507017
0.505264
0.503661
0.502517
0.501941
0.501645
0.501384
0.501194
0.501049
0.500935
0.500902
0.500894
0.500897
0.501089
0.501397
0.501651
0.502009
0.503481
0.508451
0.516332
0.528485
0.54321
0.545056
0.522791
0.46737
0.208556
0.0198399
0.000762932
8.42188e-06
7.48616e-07
2.5358e-09
1.72315e-09
0.000640224
0.0150134
0.0755179
0.178525
0.286259
0.372418
0.4312
0.467308
0.487835
0.499091
0.505758
0.510054
0.512383
0.513081
0.512758
0.511755
0.510349
0.508738
0.506987
0.505212
0.503598
0.502481
0.501931
0.501639
0.501365
0.501143
0.500998
0.500908
0.500842
0.500871
0.50091
0.500971
0.501223
0.501583
0.501874
0.502632
0.505816
0.512462
0.522266
0.536233
0.547346
0.534585
0.511049
0.3862
0.0923984
0.00479341
0.000163913
4.33104e-06
6.50822e-08
1.41638e-09
7.58065e-09
0.000636443
0.0149377
0.0752694
0.178201
0.286028
0.372343
0.431215
0.467367
0.487878
0.499095
0.50574
0.510016
0.512345
0.513054
0.512735
0.511746
0.510359
0.508746
0.506992
0.505191
0.503555
0.502445
0.50192
0.501633
0.501365
0.501124
0.500945
0.500853
0.500813
0.500804
0.50088
0.50098
0.5011
0.501406
0.501804
0.50227
0.504292
0.509201
0.517601
0.529528
0.543438
0.544328
0.523014
0.482545
0.252052
0.0279375
0.00106366
4.62682e-06
1.17469e-05
5.02333e-07
3.46298e-08
7.60787e-09
0.000632876
0.0148639
0.0749853
0.177796
0.285688
0.372157
0.431164
0.467374
0.487913
0.499116
0.505753
0.510002
0.512299
0.513013
0.512714
0.511739
0.510349
0.508744
0.507014
0.505178
0.503533
0.502416
0.501902
0.501625
0.50136
0.501124
0.500921
0.500792
0.500755
0.500767
0.500807
0.500942
0.501103
0.501269
0.501625
0.50208
0.503359
0.507096
0.513626
0.524041
0.537493
0.546932
0.533589
0.512519
0.410925
0.112061
0.00632974
0.000160831
7.60674e-09
5.06836e-06
3.56277e-08
8.06e-09
4.85074e-09
0.000629356
0.0147941
0.0747093
0.177329
0.285259
0.371879
0.431035
0.467337
0.487918
0.499136
0.505746
0.510016
0.512277
0.512983
0.512693
0.511735
0.510355
0.508751
0.507004
0.505193
0.503527
0.502398
0.501874
0.501594
0.501349
0.501113
0.500915
0.500759
0.500679
0.500699
0.500764
0.500863
0.501055
0.501263
0.501485
0.501863
0.502794
0.505515
0.510886
0.519221
0.53162
0.544129
0.54254
0.52224
0.486978
0.276171
0.0316179
0.00114453
2.68457e-06
1.50188e-06
9.56663e-07
7.34631e-08
3.30486e-07
2.85359e-09
0.000626419
0.0147278
0.0744493
0.176872
0.284749
0.371521
0.43084
0.467258
0.487905
0.49914
0.50576
0.510003
0.512257
0.512949
0.512646
0.511717
0.51034
0.508755
0.507001
0.505196
0.503528
0.502399
0.501854
0.501566
0.501313
0.5011
0.500905
0.50075
0.50064
0.500611
0.500692
0.500813
0.500967
0.501208
0.501471
0.501735
0.50233
0.504486
0.50873
0.515735
0.526091
0.539369
0.546214
0.531071
0.512209
0.417339
0.120261
0.0062585
8.70505e-05
1.09996e-06
1.7575e-06
1.78595e-06
1.78147e-07
5.92216e-07
1.6387e-09
0.000623826
0.0146693
0.0741973
0.176437
0.284255
0.371086
0.430585
0.467138
0.48786
0.499132
0.505757
0.510009
0.512258
0.512912
0.512593
0.51167
0.510309
0.508739
0.507004
0.50518
0.503544
0.502398
0.501852
0.501546
0.50128
0.501068
0.500895
0.500746
0.500634
0.500568
0.500601
0.500734
0.500912
0.50112
0.501404
0.501709
0.50204
0.503561
0.507244
0.512941
0.521801
0.533872
0.545074
0.539593
0.520494
0.485986
0.277293
0.0305891
0.000743224
2.26585e-09
5.1946e-07
9.84703e-07
1.67775e-06
2.8057e-11
2.96389e-07
8.7278e-10
0.000621665
0.0146188
0.0739743
0.176018
0.283798
0.370662
0.430276
0.466979
0.487795
0.499111
0.505733
0.510001
0.512254
0.512894
0.512563
0.511598
0.510281
0.508689
0.507004
0.505173
0.503534
0.502403
0.501857
0.501539
0.501257
0.501033
0.500862
0.500735
0.50063
0.500559
0.500549
0.500632
0.500825
0.501059
0.50131
0.501635
0.501958
0.502792
0.505845
0.510916
0.518266
0.529064
0.541186
0.544784
0.52732
0.509942
0.411458
0.111838
0.00464166
1.47655e-05
8.17172e-08
6.36087e-07
3.14229e-06
4.8658e-08
2.49213e-07
6.37952e-08
4.17947e-10
0.000620019
0.0145771
0.0737839
0.175645
0.283341
0.370284
0.429969
0.466786
0.487705
0.49907
0.505718
0.509984
0.512248
0.512865
0.512518
0.511552
0.510228
0.508661
0.506973
0.505204
0.503518
0.502405
0.501852
0.501544
0.501242
0.500999
0.500822
0.500697
0.50062
0.500557
0.500539
0.500579
0.500713
0.500962
0.501244
0.501541
0.501874
0.50249
0.504571
0.509093
0.515597
0.524858
0.536774
0.545092
0.535126
0.518076
0.478645
0.259271
0.0232776
0.000269017
7.19598e-07
5.40023e-07
1.36678e-06
3.71853e-06
4.81943e-07
8.20884e-07
3.29182e-09
1.82632e-10
0.000618843
0.014545
0.0736259
0.175321
0.28293
0.369903
0.429693
0.466592
0.487584
0.499008
0.505693
0.50997
0.512244
0.512874
0.512489
0.51152
0.510175
0.508618
0.506916
0.505194
0.503553
0.502401
0.501849
0.501544
0.501244
0.500983
0.500783
0.500656
0.500583
0.500554
0.500536
0.500564
0.500653
0.500842
0.501143
0.50147
0.50179
0.502275
0.50387
0.507442
0.513262
0.521499
0.532426
0.543
0.540997
0.522312
0.505646
0.390359
0.0891231
0.00218881
2.22845e-07
9.36106e-07
1.85961e-06
4.79564e-06
1.65167e-06
3.84673e-07
6.01199e-07
5.07581e-09
7.37778e-11
0.000618191
0.0145232
0.0735079
0.175058
0.28258
0.369546
0.429416
0.466409
0.487461
0.498942
0.505652
0.509951
0.512226
0.512873
0.512485
0.511515
0.510133
0.508572
0.506838
0.505131
0.503548
0.502412
0.50185
0.501537
0.501245
0.500984
0.500764
0.500617
0.500539
0.500514
0.500531
0.50056
0.500633
0.500776
0.50102
0.501362
0.50172
0.502097
0.503325
0.506332
0.511221
0.518545
0.528596
0.539737
0.54423
0.529385
0.514376
0.463924
0.218123
0.012789
4.72158e-05
1.60168e-06
1.70212e-06
3.07721e-06
1.92687e-06
4.52531e-07
4.75803e-07
5.89377e-07
1.69299e-08
2.77916e-11
0.000617956
0.0145111
0.0734247
0.174864
0.282293
0.369243
0.429151
0.46622
0.487361
0.498876
0.505613
0.509935
0.512228
0.512843
0.512481
0.511478
0.510106
0.508503
0.506787
0.505042
0.503509
0.50241
0.501856
0.501535
0.501236
0.500978
0.500758
0.500586
0.500493
0.500462
0.500493
0.500558
0.500629
0.500758
0.500952
0.501232
0.501605
0.501968
0.502843
0.505407
0.509727
0.516013
0.525079
0.536169
0.543996
0.536225
0.519166
0.497347
0.351414
0.0547703
0.000454508
8.58206e-07
2.58651e-06
2.66717e-06
1.86183e-06
1.40527e-07
3.60147e-09
1.62505e-07
5.09725e-07
1.95257e-08
9.8568e-12
0.000618001
0.0145076
0.0733841
0.174733
0.282076
0.369007
0.42893
0.466049
0.487253
0.498819
0.505583
0.509912
0.512225
0.512879
0.512484
0.511473
0.510078
0.508455
0.506725
0.504972
0.503444
0.502392
0.501859
0.50155
0.501238
0.500971
0.500754
0.500574
0.500455
0.500411
0.500437
0.500516
0.500631
0.500754
0.500927
0.501161
0.501478
0.501857
0.50251
0.504575
0.508464
0.514077
0.522013
0.532553
0.542275
0.540664
0.523502
0.510682
0.437101
0.156172
0.00366376
1.64953e-06
4.25086e-06
4.09808e-06
2.1177e-06
8.69581e-08
3.40185e-08
9.31938e-07
1.82857e-09
1.5998e-07
1.30921e-08
3.24873e-12
0.000618318
0.0145096
0.0733779
0.174668
0.281934
0.368813
0.428758
0.465903
0.487139
0.498752
0.505537
0.509875
0.512227
0.512891
0.512495
0.511504
0.510071
0.508432
0.506676
0.504905
0.503375
0.502356
0.501845
0.501552
0.501255
0.500968
0.500748
0.500569
0.500441
0.500372
0.500378
0.500459
0.500589
0.500754
0.50092
0.501133
0.501411
0.501741
0.502299
0.503949
0.50734
0.51243
0.51956
0.529161
0.539629
0.543347
0.529445
0.515624
0.482172
0.286907
0.0226346
1.33991e-05
1.39349e-06
8.65021e-06
4.17342e-06
1.65399e-07
7.18194e-07
2.24027e-07
8.17211e-07
4.18898e-07
6.09899e-10
5.15346e-09
9.16753e-13
0.000618449
0.0145154
0.0733889
0.174662
0.281877
0.368687
0.42862
0.465781
0.487042
0.498685
0.505481
0.509846
0.512217
0.512901
0.512518
0.511494
0.510085
0.50841
0.506632
0.50484
0.503302
0.502322
0.501822
0.501534
0.501254
0.500984
0.500744
0.500559
0.500431
0.50035
0.50033
0.500394
0.500525
0.500712
0.500922
0.501121
0.501388
0.501683
0.502088
0.503456
0.506452
0.510987
0.517452
0.526268
0.536573
0.543298
0.535043
0.519011
0.502885
0.391093
0.083459
0.000458693
6.09794e-07
5.56066e-06
9.49448e-06
1.00831e-06
3.9164e-07
1.13261e-06
2.80485e-07
1.7156e-07
1.19392e-06
5.08405e-08
1.46231e-09
2.33063e-13
0.00061889
0.014521
0.0734148
0.174689
0.281881
0.368642
0.428526
0.465694
0.486974
0.498617
0.505434
0.50982
0.512193
0.512933
0.512535
0.511515
0.510085
0.508394
0.506608
0.504769
0.503243
0.502267
0.501802
0.501507
0.501243
0.500991
0.500765
0.500554
0.500415
0.500332
0.500304
0.500335
0.500456
0.500644
0.500872
0.501123
0.501349
0.501643
0.501948
0.502955
0.505653
0.509831
0.515624
0.523706
0.533706
0.541976
0.538788
0.522203
0.511419
0.453029
0.193418
0.00404317
8.84751e-07
4.88989e-06
1.02466e-05
1.66695e-06
2.89461e-07
7.34126e-07
2.10947e-06
2.57043e-08
8.82895e-08
1.30163e-06
7.98139e-08
3.58138e-10
5.19386e-14
0.000619298
0.0145295
0.073442
0.174738
0.281912
0.368653
0.428483
0.465635
0.486921
0.498573
0.50539
0.50978
0.512171
0.512913
0.512556
0.511544
0.510109
0.508407
0.50658
0.504765
0.503183
0.502234
0.501762
0.501483
0.501214
0.500984
0.500777
0.500578
0.500404
0.500315
0.50028
0.500304
0.500389
0.500567
0.500801
0.50107
0.501352
0.501612
0.501904
0.502561
0.50485
0.508781
0.514129
0.521453
0.530974
0.540241
0.541477
0.52692
0.514813
0.486035
0.311029
0.0231753
3.0959e-05
3.88999e-06
1.10192e-05
7.09145e-06
3.57031e-07
2.22879e-06
2.00127e-06
9.36997e-07
1.40093e-07
1.19544e-07
3.41145e-07
5.32807e-08
7.54256e-11
1.01961e-14
0.000619307
0.0145371
0.0734784
0.174794
0.28197
0.36869
0.428494
0.465603
0.486878
0.498541
0.505347
0.509734
0.512162
0.512871
0.512566
0.511544
0.510149
0.508437
0.506595
0.504757
0.503184
0.502209
0.501737
0.50145
0.501188
0.50096
0.500771
0.500591
0.500433
0.500303
0.500266
0.500279
0.500349
0.500492
0.500719
0.500999
0.501293
0.501601
0.501882
0.502407
0.50417
0.507765
0.512793
0.519548
0.528417
0.538055
0.542535
0.531988
0.517381
0.50233
0.397161
0.0892845
0.000336662
6.55669e-07
1.29267e-05
9.45689e-06
4.03346e-07
2.26478e-06
1.94822e-06
1.03161e-06
9.68324e-07
2.56714e-07
6.4473e-07
1.78496e-09
2.05528e-08
1.47281e-11
1.68504e-15
0.000619915
0.0145401
0.0735083
0.17486
0.28203
0.368734
0.428521
0.465603
0.486847
0.498507
0.505311
0.509702
0.512138
0.51289
0.512551
0.511572
0.510164
0.50848
0.506624
0.504764
0.503174
0.502199
0.501724
0.501416
0.501154
0.500933
0.500746
0.500594
0.500454
0.500335
0.500251
0.500257
0.500322
0.500441
0.500638
0.500909
0.501221
0.501539
0.501864
0.502317
0.503724
0.506875
0.511534
0.517847
0.52616
0.535672
0.542088
0.535838
0.519986
0.509844
0.449892
0.189551
0.00266292
1.07253e-06
9.86698e-06
1.1819e-05
1.19633e-06
1.97283e-06
3.94437e-06
8.8083e-07
1.41607e-09
4.54863e-07
1.0845e-08
1.86465e-06
1.25884e-07
5.06578e-09
2.36494e-12
2.27753e-16
0.00061986
0.0145498
0.0735209
0.174913
0.2821
0.36878
0.428549
0.465612
0.486844
0.49848
0.505286
0.509674
0.512106
0.5129
0.512548
0.511586
0.51018
0.508523
0.50667
0.504783
0.503168
0.50218
0.501708
0.501388
0.501113
0.500889
0.500716
0.50057
0.50046
0.500363
0.500282
0.500239
0.500297
0.500407
0.500581
0.500818
0.501129
0.501467
0.501801
0.502246
0.50342
0.506141
0.510439
0.516286
0.524107
0.533445
0.540953
0.538487
0.523266
0.513306
0.480156
0.29415
0.0158596
3.32844e-05
9.02389e-06
1.86559e-05
3.28848e-06
1.17968e-06
6.41354e-06
3.07532e-06
7.05912e-08
7.62561e-07
3.57806e-08
2.0443e-07
5.60137e-07
1.3419e-07
8.16861e-10
3.04981e-13
2.45916e-17
0.000619777
0.0145506
0.0735637
0.174939
0.282166
0.368838
0.428584
0.465632
0.486852
0.49847
0.505266
0.509651
0.512068
0.512875
0.512556
0.511572
0.510199
0.508553
0.506727
0.504821
0.503178
0.502169
0.501691
0.501374
0.501071
0.500844
0.50067
0.500539
0.500438
0.500376
0.500314
0.500274
0.500274
0.500383
0.500538
0.500755
0.501031
0.501373
0.501734
0.502144
0.503204
0.505582
0.509505
0.514936
0.52223
0.531308
0.539695
0.540495
0.52722
0.515449
0.497499
0.37545
0.059574
6.63148e-05
3.62701e-06
2.24389e-05
6.85311e-06
1.14808e-07
6.34721e-06
4.32224e-06
3.37041e-07
7.34481e-10
2.5354e-07
2.43059e-08
8.94033e-07
2.28201e-09
5.36455e-08
9.90681e-11
3.11261e-14
2.04596e-18
0.00061967
0.0145488
0.0735669
0.175007
0.282201
0.368903
0.428633
0.465656
0.486867
0.49846
0.505251
0.509624
0.512064
0.512834
0.512548
0.511571
0.510221
0.508577
0.506779
0.504882
0.503204
0.502178
0.501689
0.501357
0.501058
0.5008
0.500622
0.500492
0.500411
0.500358
0.500334
0.500309
0.50031
0.50035
0.50051
0.500711
0.50096
0.501267
0.501646
0.50203
0.50297
0.505168
0.508734
0.513772
0.520569
0.529255
0.538112
0.541562
0.531196
0.517356
0.506232
0.430401
0.14649
0.000942064
1.59274e-06
2.08804e-05
1.17448e-05
4.37566e-10
4.46377e-06
6.45115e-06
5.07066e-07
3.12547e-08
4.48913e-08
1.64488e-07
3.89946e-09
1.46885e-06
1.20236e-07
1.17224e-08
9.59458e-12
2.40325e-15
1.22653e-19
0.000619537
0.0145465
0.0735592
0.175022
0.282276
0.368946
0.428676
0.465686
0.486869
0.498465
0.505224
0.509607
0.512052
0.512817
0.512534
0.511567
0.510218
0.508599
0.506809
0.504932
0.503254
0.502203
0.501689
0.501349
0.501036
0.500781
0.500571
0.500439
0.50036
0.500335
0.50032
0.500334
0.500348
0.500388
0.500469
0.500688
0.50091
0.501195
0.501536
0.501912
0.502714
0.504763
0.508112
0.512781
0.519115
0.527339
0.536296
0.541462
0.534309
0.519369
0.51066
0.46415
0.240861
0.00591853
3.54828e-06
1.75908e-05
1.51546e-05
1.72026e-07
3.5382e-06
5.85422e-06
1.20729e-06
1.65147e-08
6.69214e-08
6.02745e-09
1.17697e-07
7.30973e-08
3.98411e-07
1.29641e-07
1.54569e-09
7.13409e-13
1.2527e-16
4.70768e-21
0.000619196
0.0145435
0.0735483
0.175007
0.282285
0.369004
0.428702
0.465708
0.486878
0.498471
0.505212
0.509587
0.512031
0.51281
0.512509
0.51157
0.510215
0.508599
0.506817
0.504965
0.503295
0.502233
0.501706
0.501346
0.501024
0.500755
0.500546
0.500384
0.5003
0.50028
0.500297
0.500326
0.500383
0.500435
0.500508
0.500614
0.500874
0.501138
0.501462
0.501809
0.502469
0.504344
0.507536
0.51193
0.51786
0.525608
0.534443
0.540722
0.536535
0.521687
0.513019
0.48489
0.324016
0.0238224
2.33634e-05
1.40449e-05
1.91961e-05
5.1658e-07
3.6731e-06
7.08468e-06
1.99671e-06
1.68782e-07
6.75488e-09
5.67368e-10
3.32374e-07
3.81824e-07
1.87252e-06
6.09151e-08
3.51051e-08
1.20501e-10
3.43257e-14
3.96703e-18
9.01951e-23
0.000618992
0.014538
0.0735347
0.174985
0.282275
0.368998
0.428747
0.465717
0.486894
0.498467
0.505222
0.509573
0.512001
0.512798
0.512472
0.511558
0.510199
0.508599
0.506812
0.50499
0.503328
0.502253
0.501728
0.501358
0.501023
0.500736
0.500514
0.500353
0.500241
0.500212
0.500243
0.500309
0.500382
0.500474
0.500557
0.500661
0.500818
0.501102
0.501405
0.50174
0.502292
0.503926
0.506986
0.511152
0.516751
0.524102
0.532731
0.53974
0.538263
0.52462
0.514592
0.497691
0.3862
0.069003
0.000170529
1.14959e-05
2.31606e-05
2.14393e-06
3.11594e-06
9.20133e-06
3.65596e-06
3.62906e-07
1.15731e-09
4.26131e-09
3.84799e-07
8.63827e-09
8.64747e-08
3.71393e-07
1.85157e-07
4.47385e-09
5.6834e-12
9.61283e-16
4.43551e-20
8.55723e-25
0.00061849
0.0145314
0.0735094
0.174958
0.282245
0.368988
0.428744
0.46575
0.486897
0.498465
0.505221
0.509562
0.511968
0.512775
0.512459
0.511518
0.510174
0.508578
0.506812
0.504988
0.503358
0.50227
0.501741
0.501381
0.501031
0.500727
0.50049
0.500311
0.500206
0.500146
0.500173
0.500254
0.500369
0.50048
0.500603
0.500711
0.500849
0.501054
0.501366
0.501688
0.502158
0.503538
0.506431
0.510439
0.51574
0.522758
0.531204
0.538792
0.53961
0.527785
0.515889
0.504991
0.429509
0.147975
0.00105936
2.83283e-07
2.88596e-05
4.30591e-06
2.40741e-06
9.38872e-06
4.48711e-06
5.73928e-07
2.9457e-08
2.29222e-08
1.47039e-11
1.25854e-07
2.69018e-08
1.52509e-06
6.09195e-12
8.29173e-08
2.58758e-10
1.59539e-13
9.18723e-18
1.96216e-23
2.83181e-26
0.000617988
0.0145216
0.0734854
0.174916
0.282211
0.368961
0.428732
0.465748
0.486907
0.49846
0.5052
0.509557
0.511954
0.512732
0.512447
0.511477
0.510153
0.508557
0.506816
0.504991
0.503373
0.502294
0.501752
0.501402
0.501054
0.50074
0.500476
0.500285
0.500157
0.500106
0.5001
0.500182
0.50031
0.500471
0.500615
0.500759
0.500901
0.501081
0.501321
0.501656
0.502049
0.5032
0.505848
0.509762
0.514825
0.521513
0.529754
0.537751
0.540465
0.530698
0.517394
0.509
0.45818
0.231354
0.00458539
9.4088e-07
3.13401e-05
7.51558e-06
9.00161e-07
9.99345e-06
5.20584e-06
4.62793e-07
1.10096e-08
1.73469e-07
3.39036e-08
5.33133e-08
1.8875e-07
7.35066e-07
1.06783e-06
2.33698e-07
7.92404e-09
6.32024e-12
1.74457e-15
9.83794e-20
9.36111e-26
5.36293e-28
0.000617056
0.0145086
0.0734377
0.17486
0.282163
0.368932
0.42871
0.46574
0.486899
0.498476
0.505188
0.509552
0.511939
0.512694
0.512415
0.511449
0.510105
0.508552
0.50682
0.505001
0.503377
0.502303
0.501769
0.501411
0.501073
0.50076
0.500481
0.500263
0.500122
0.500052
0.500052
0.500101
0.500234
0.500414
0.500608
0.500779
0.500953
0.501132
0.501344
0.501617
0.50196
0.502912
0.50531
0.509072
0.51397
0.520369
0.528353
0.536551
0.540594
0.53305
0.518885
0.511373
0.477164
0.302573
0.0163829
3.75456e-05
2.68136e-05
1.35927e-05
8.69111e-07
8.68754e-06
6.25415e-06
7.03024e-07
1.46659e-07
6.76803e-08
2.21579e-07
9.71033e-09
4.88698e-07
4.51401e-08
1.27901e-07
4.52332e-09
9.19714e-08
2.61283e-10
1.63304e-14
9.15847e-18
1.82521e-21
1.47385e-25
1.02965e-29
0.000616008
0.0144911
0.0733869
0.17478
0.282096
0.368893
0.428689
0.465724
0.486904
0.498459
0.505213
0.509539
0.511938
0.512679
0.512377
0.511443
0.510084
0.508526
0.506818
0.505013
0.503377
0.502307
0.501782
0.501432
0.501091
0.500777
0.500506
0.500265
0.500097
0.50001
0.499991
0.500044
0.500145
0.500332
0.500552
0.500776
0.500979
0.501189
0.501394
0.50163
0.501905
0.502658
0.504832
0.50841
0.513147
0.519278
0.527017
0.535256
0.540246
0.534843
0.520561
0.512881
0.490079
0.358998
0.0442361
0.000100196
2.07058e-05
1.69178e-05
1.77248e-07
9.75872e-06
8.17769e-06
6.45634e-07
5.78333e-08
2.21256e-07
4.07533e-07
1.8744e-08
3.46441e-08
3.99424e-09
2.05268e-07
1.47457e-12
2.32838e-07
6.30048e-09
3.01263e-13
9.05651e-17
1.32907e-20
6.0769e-23
1.74149e-26
2.92572e-31
0.000615012
0.0144703
0.0733128
0.174675
0.281993
0.368818