/*--------------------------------*- C++ -*----------------------------------*\
| =========                 |                                                 |
| \\      /  F ield         | OpenFOAM: The Open Source CFD Toolbox           |
|  \\    /   O peration     | Version:  v2012                                 |
|   \\  /    A nd           | Website:  www.openfoam.com                      |
|    \\/     M anipulation  |                                                 |
\*---------------------------------------------------------------------------*/
FoamFile
{
    version     2.0;
    format      ascii;
    class       volScalarField;
    location    "3900";
    object      lamda1;
}
// * * * * * * * * * * * * * * * * * * * * * * * * * * * * * * * * * * * * * //

dimensions      [0 0 0 0 0 0 0];


internalField   nonuniform List<scalar> 
29502
(
0.00384779
0.00061131
0.0807143
0.000591663
0.0150611
0.181019
0.00070128
0.0139066
0.07642
0.22471
0.000775751
0.0161338
0.0712217
0.16596
0.222586
0.000818393
0.0175799
0.0802733
0.171183
0.256921
0.202752
0.000840467
0.0183767
0.0856896
0.187181
0.278192
0.33642
0.178622
0.000846751
0.0187563
0.0885218
0.196143
0.296176
0.365986
0.397863
0.153775
0.000845224
0.0188455
0.0896545
0.200589
0.305846
0.38119
0.427777
0.441635
0.130021
0.000837219
0.0187893
0.089737
0.202069
0.31044
0.389315
0.437943
0.467275
0.470513
0.108537
0.000825422
0.0186234
0.0893433
0.201908
0.311734
0.393078
0.443684
0.472238
0.491083
0.488181
0.0897632
0.000814855
0.0183946
0.0885812
0.201008
0.311358
0.393996
0.446339
0.475691
0.491482
0.505723
0.498031
0.0735885
0.00080722
0.0181894
0.0876691
0.199588
0.3102
0.393586
0.446911
0.477339
0.49314
0.502313
0.515613
0.502549
0.0599242
0.000800036
0.0180389
0.0868535
0.198003
0.308562
0.392518
0.4466
0.477656
0.494081
0.502655
0.509472
0.522111
0.503654
0.0484385
0.000787181
0.017899
0.0862444
0.196587
0.3068
0.391103
0.445798
0.477476
0.494235
0.503162
0.5087
0.514379
0.525923
0.502022
0.0389158
0.00077675
0.0176539
0.0856864
0.195514
0.305226
0.389587
0.444781
0.476956
0.494152
0.503208
0.508838
0.512462
0.517224
0.528135
0.498267
0.0310497
0.000767141
0.0174553
0.0847517
0.194537
0.304017
0.388238
0.44368
0.476318
0.493832
0.503193
0.508799
0.512246
0.514155
0.518616
0.529155
0.492458
0.0246483
0.000761113
0.0172728
0.0839965
0.192961
0.302916
0.387175
0.442694
0.475608
0.493457
0.502982
0.508836
0.512132
0.513622
0.514527
0.519078
0.529598
0.508349
0.0194613
0.000753759
0.0171575
0.0833077
0.19169
0.301184
0.386219
0.441898
0.474963
0.493022
0.502744
0.508715
0.512212
0.513455
0.513673
0.514219
0.518965
0.530925
0.501338
0.0152762
0.000744202
0.0170181
0.0828677
0.190529
0.299793
0.384739
0.441194
0.474432
0.492637
0.502464
0.508586
0.512165
0.513553
0.513485
0.512971
0.513704
0.518767
0.534001
0.491321
0.0119442
0.000736984
0.016838
0.0823442
0.189784
0.298522
0.383541
0.440113
0.473965
0.49231
0.502233
0.508401
0.512135
0.513554
0.513567
0.512777
0.511884
0.513197
0.519187
0.538632
0.476114
0.00929412
0.000731275
0.0167037
0.0816747
0.18891
0.297697
0.382447
0.439226
0.473258
0.492025
0.50203
0.508243
0.51204
0.513586
0.513581
0.51281
0.51167
0.510647
0.512717
0.520677
0.543485
0.454557
0.00718965
0.000725228
0.0165984
0.0811817
0.187801
0.296741
0.381734
0.438414
0.472672
0.491598
0.501845
0.508085
0.511939
0.513566
0.513668
0.512824
0.51161
0.510369
0.509469
0.512317
0.522902
0.546371
0.426113
0.00553962
0.000720251
0.0164845
0.0807977
0.186993
0.295538
0.38091
0.437887
0.472128
0.491243
0.501596
0.507957
0.511827
0.513533
0.5137
0.512935
0.511628
0.510158
0.508982
0.508487
0.512144
0.525342
0.544887
0.390853
0.0042386
0.000715666
0.016392
0.0803765
0.186366
0.294673
0.379885
0.437281
0.471775
0.49091
0.501366
0.507783
0.511748
0.513474
0.513717
0.513012
0.511743
0.510168
0.508624
0.507583
0.507724
0.512444
0.528226
0.537929
0.348744
0.00322539
0.00071021
0.0163065
0.0800406
0.185673
0.293996
0.379157
0.436533
0.471373
0.490689
0.501151
0.5076
0.511616
0.513434
0.51368
0.513038
0.511824
0.510289
0.508601
0.507138
0.50629
0.507226
0.513462
0.531861
0.529424
0.301193
0.00243664
0.0007042
0.0162044
0.0797305
0.185121
0.293244
0.378579
0.435997
0.47088
0.490434
0.501009
0.507437
0.511502
0.51338
0.513682
0.513026
0.511867
0.510364
0.508703
0.507027
0.505753
0.505243
0.507122
0.515272
0.536323
0.523933
0.250295
0.00182856
0.000698665
0.0160918
0.0793604
0.18462
0.292651
0.377935
0.435568
0.470517
0.490132
0.500848
0.507316
0.511389
0.513329
0.513685
0.513053
0.511892
0.510427
0.508781
0.507069
0.505501
0.504555
0.504526
0.507496
0.517945
0.541533
0.518625
0.199606
0.00136508
0.000694701
0.015989
0.0789511
0.18402
0.292117
0.377442
0.435094
0.470226
0.489911
0.500666
0.507197
0.511291
0.513247
0.513666
0.513074
0.51192
0.510462
0.508846
0.507135
0.505473
0.50412
0.503589
0.504172
0.508439
0.521517
0.546966
0.509388
0.152839
0.00101748
0.00069212
0.0159175
0.0785804
0.18336
0.291487
0.377003
0.434736
0.469911
0.489718
0.500522
0.507065
0.511177
0.513192
0.513623
0.513094
0.511938
0.510503
0.508868
0.507209
0.505513
0.504011
0.503047
0.502903
0.504229
0.510039
0.525982
0.551146
0.494868
0.112687
0.000741211
0.000689474
0.015873
0.0783316
0.182768
0.290783
0.376473
0.434421
0.469666
0.489519
0.500386
0.506942
0.511076
0.513114
0.513584
0.513093
0.511979
0.510519
0.508911
0.507217
0.505566
0.504002
0.502901
0.502426
0.502547
0.504759
0.512402
0.531204
0.551444
0.472794
0.0799044
0.000533082
0.00068653
0.0158264
0.0781854
0.182383
0.290159
0.37588
0.43403
0.469455
0.489357
0.500245
0.506837
0.510993
0.513052
0.513555
0.513065
0.512005
0.510565
0.508921
0.507235
0.505545
0.504026
0.502856
0.502304
0.502196
0.502517
0.505823
0.515643
0.536844
0.544311
0.439168
0.0547485
0.000377107
0.000683057
0.0157741
0.0780291
0.182169
0.289765
0.375347
0.4336
0.469196
0.48923
0.50014
0.506729
0.510904
0.512999
0.513534
0.513039
0.512001
0.510595
0.508984
0.507225
0.505564
0.503993
0.502853
0.502242
0.50207
0.502123
0.502827
0.507507
0.519877
0.54242
0.532684
0.389294
0.0365903
0.000251847
0.000679229
0.0157117
0.0778521
0.181936
0.289555
0.375027
0.433216
0.468917
0.489071
0.500054
0.506655
0.510833
0.512933
0.513496
0.51304
0.511966
0.510604
0.509008
0.507317
0.505516
0.504009
0.502813
0.502229
0.501993
0.501949
0.502122
0.50358
0.509902
0.525193
0.547601
0.524508
0.321861
0.0246021
0.000157281
0.00067502
0.015642
0.0776384
0.181669
0.289324
0.374866
0.432991
0.468669
0.488905
0.499947
0.506572
0.510779
0.512887
0.513445
0.513033
0.511962
0.510568
0.509011
0.507351
0.505627
0.503906
0.502817
0.502192
0.501965
0.501839
0.501894
0.502176
0.504876
0.513151
0.531442
0.551518
0.516057
0.246622
0.0166936
9.11888e-05
0.000670868
0.0155639
0.0773932
0.181343
0.289067
0.374683
0.432879
0.468519
0.48875
0.499837
0.506478
0.510702
0.51285
0.513414
0.513
0.511977
0.510564
0.508971
0.507332
0.505663
0.504012
0.5027
0.502176
0.501916
0.50179
0.501741
0.501889
0.502398
0.506786
0.517374
0.538058
0.551444
0.49829
0.177173
0.011305
4.78096e-05
0.000666802
0.0154873
0.0771181
0.180963
0.288739
0.374481
0.432749
0.468437
0.488654
0.499741
0.50639
0.510633
0.512805
0.513379
0.512973
0.511966
0.510586
0.508983
0.50727
0.50564
0.50404
0.50278
0.502091
0.501883
0.501727
0.501668
0.501696
0.501954
0.503115
0.509413
0.522646
0.544313
0.543544
0.466508
0.122955
0.0074213
2.23284e-05
0.000662707
0.0154113
0.0768457
0.180527
0.288343
0.374221
0.4326
0.468353
0.488592
0.499686
0.50632
0.510593
0.512773
0.51336
0.512939
0.511933
0.510569
0.509006
0.507295
0.505554
0.504035
0.502794
0.502141
0.50181
0.501688
0.501587
0.501605
0.501704
0.502081
0.504608
0.5129
0.528985
0.549105
0.530832
0.415254
0.0836632
0.004602
9.1482e-06
0.000659349
0.0153357
0.0765756
0.180099
0.287891
0.373896
0.432421
0.468256
0.488537
0.499637
0.506276
0.51053
0.512751
0.513348
0.512924
0.511913
0.510544
0.508975
0.507328
0.505559
0.503929
0.502792
0.502142
0.501852
0.501591
0.501531
0.501501
0.501588
0.501781
0.502444
0.506931
0.517408
0.536079
0.551259
0.520325
0.342452
0.0552442
0.00258891
4.2519e-06
0.00065707
0.0152732
0.0763071
0.179679
0.287451
0.373528
0.432201
0.468142
0.488473
0.499584
0.506217
0.510479
0.512698
0.513307
0.512919
0.511898
0.510545
0.508951
0.507303
0.505601
0.503896
0.502699
0.502132
0.501847
0.501631
0.501403
0.501423
0.501467
0.501634
0.501907
0.503529
0.510058
0.523057
0.543111
0.548611
0.506134
0.257702
0.0343881
0.00125181
3.79075e-06
0.000655701
0.0152312
0.0760816
0.179251
0.287025
0.37317
0.431944
0.468003
0.4884
0.499535
0.506166
0.510408
0.51265
0.513279
0.51289
0.511878
0.510511
0.508941
0.507261
0.505579
0.503934
0.502656
0.50207
0.501833
0.501624
0.50144
0.501276
0.501366
0.501484
0.501735
0.50217
0.505565
0.514115
0.529796
0.54878
0.539193
0.476259
0.179374
0.0197154
0.000525558
4.85383e-06
0.000655344
0.01521
0.0759398
0.178894
0.286589
0.372829
0.431693
0.46784
0.488325
0.499494
0.506146
0.510364
0.512613
0.51325
0.512885
0.511883
0.510486
0.508912
0.507231
0.505527
0.503916
0.502691
0.502048
0.501775
0.50161
0.50143
0.50131
0.501189
0.501364
0.501561
0.501885
0.502938
0.508504
0.51927
0.537229
0.55133
0.526635
0.423358
0.117526
0.0102042
0.000155362
6.39481e-06
0.000655452
0.0152062
0.0758776
0.178678
0.286209
0.37247
0.431449
0.467682
0.48823
0.49945
0.506119
0.510339
0.512561
0.513213
0.512859
0.511889
0.510508
0.508896
0.507203
0.505503
0.503857
0.502678
0.502066
0.501754
0.501538
0.501416
0.501287
0.501217
0.501163
0.501416
0.501691
0.502139
0.504704
0.512346
0.525624
0.544382
0.54812
0.513981
0.343245
0.0717096
0.0046068
3.63312e-05
8.96041e-06
0.000655544
0.0152127
0.0758855
0.178607
0.285993
0.372156
0.431184
0.467527
0.488133
0.499391
0.506065
0.510318
0.512514
0.513172
0.512787
0.511855
0.51051
0.508916
0.507179
0.505456
0.503833
0.502616
0.502052
0.501767
0.501502
0.501335
0.501263
0.501187
0.50118
0.501189
0.501528
0.501868
0.50287
0.507535
0.517225
0.532999
0.549507
0.537929
0.49186
0.246362
0.0385846
0.00212079
1.34121e-05
1.21161e-05
0.000655244
0.0152186
0.07593
0.178646
0.285949
0.371991
0.430964
0.46735
0.488041
0.499314
0.506009
0.510282
0.512498
0.513141
0.512777
0.511793
0.510482
0.50891
0.507188
0.505409
0.503788
0.502585
0.502012
0.501755
0.501522
0.501289
0.501166
0.501163
0.501142
0.501194
0.501276
0.501686
0.502166
0.504627
0.511301
0.523262
0.540625
0.550271
0.525552
0.44591
0.157369
0.015946
0.00137282
5.94442e-06
1.23587e-05
0.000654427
0.0152172
0.0759729
0.178754
0.286021
0.371974
0.430855
0.467203
0.487931
0.499256
0.505953
0.51024
0.51248
0.513132
0.51276
0.511779
0.510446
0.508899
0.507189
0.505397
0.503737
0.502558
0.501995
0.501728
0.501511
0.501305
0.501109
0.501052
0.501109
0.501144
0.501262
0.501418
0.501885
0.503001
0.507438
0.51604
0.530385
0.546905
0.543205
0.513098
0.36623
0.087953
0.00457589
0.000947943
5.97255e-06
1.1885e-05
0.000652903
0.0152035
0.0759863
0.178858
0.286158
0.372049
0.430842
0.46713
0.487841
0.499201
0.505913
0.510217
0.51247
0.51312
0.512741
0.511752
0.510395
0.508865
0.507184
0.505416
0.503729
0.502532
0.501977
0.501715
0.501475
0.501299
0.501125
0.500984
0.500987
0.50111
0.5012
0.501389
0.501607
0.50226
0.504849
0.511175
0.5219
0.537928
0.549283
0.530671
0.489628
0.259844
0.038648
0.0011285
0.000686311
9.13969e-06
1.05663e-05
0.000650629
0.0151773
0.0759519
0.178914
0.2863
0.372182
0.430904
0.467121
0.48779
0.49915
0.50586
0.510186
0.512457
0.513122
0.512749
0.511733
0.510346
0.508789
0.507143
0.505397
0.503745
0.502527
0.501961
0.501688
0.50146
0.501256
0.501117
0.501001
0.500908
0.500975
0.501156
0.501303
0.501554
0.501831
0.50329
0.507762
0.515867
0.528783
0.544477
0.54482
0.519999
0.438727
0.150346
0.0117278
0.000599579
0.000567881
1.47107e-05
8.86075e-06
0.000647759
0.0151363
0.0758642
0.178878
0.28639
0.372314
0.431014
0.46716
0.48778
0.499105
0.505811
0.510129
0.512439
0.513116
0.51276
0.511734
0.510344
0.508746
0.507059
0.505343
0.50372
0.50253
0.501948
0.50166
0.501427
0.501237
0.501073
0.500983
0.500923
0.500877
0.501006
0.501253
0.501458
0.50176
0.50228
0.505382
0.51156
0.521635
0.536221
0.548019
0.534059
0.505662
0.34567
0.0644861
0.00293557
0.000553864
0.00040619
2.30255e-05
6.68119e-06
0.000644202
0.0150806
0.0757194
0.178752
0.286373
0.372412
0.431118
0.467235
0.487801
0.49909
0.505773
0.510078
0.51241
0.513113
0.512762
0.511749
0.510344
0.508724
0.507018
0.505264
0.503662
0.502516
0.50194
0.501645
0.501385
0.501195
0.501048
0.500934
0.500901
0.50089
0.500895
0.501096
0.5014
0.501647
0.502001
0.503493
0.508478
0.516339
0.528487
0.543236
0.545137
0.523091
0.470893
0.215363
0.0206458
0.000772731
0.000843985
0.000218694
3.43247e-05
4.49328e-06
0.000640224
0.0150134
0.0755179
0.178525
0.286259
0.372418
0.4312
0.467308
0.487835
0.499091
0.505758
0.510054
0.512382
0.513081
0.512758
0.511755
0.510349
0.508738
0.506987
0.505212
0.503599
0.502482
0.50193
0.501638
0.501365
0.501145
0.501
0.500907
0.500841
0.50087
0.500904
0.500968
0.501232
0.501586
0.50187
0.502624
0.50583
0.512493
0.522275
0.536239
0.547391
0.534726
0.511861
0.395224
0.0947782
0.00557881
0.000155284
0.00120926
7.94022e-05
5.62644e-05
2.50086e-06
0.000636443
0.0149377
0.0752694
0.178201
0.286028
0.372343
0.431215
0.467367
0.487878
0.499095
0.50574
0.510016
0.512345
0.513054
0.512735
0.511746
0.510359
0.508745
0.506991
0.505192
0.503555
0.502446
0.501921
0.501632
0.501364
0.501124
0.500948
0.500856
0.500812
0.500803
0.500879
0.500973
0.501096
0.501417
0.501808
0.502265
0.504283
0.509218
0.517636
0.529541
0.543454
0.544407
0.523319
0.485213
0.264814
0.028187
0.00129111
1.75552e-05
0.00159492
8.46911e-06
0.0001019
9.23948e-07
0.000632876
0.0148639
0.0749853
0.177796
0.285688
0.372157
0.431164
0.467374
0.487914
0.499116
0.505753
0.510002
0.512299
0.513013
0.512713
0.511739
0.510349
0.508744
0.507014
0.505178
0.503533
0.502417
0.501902
0.501626
0.501359
0.501122
0.500921
0.500795
0.500759
0.500766
0.500806
0.500942
0.501094
0.501265
0.501638
0.502084
0.503354
0.507087
0.513646
0.524083
0.537514
0.546965
0.533731
0.513296
0.419577
0.118463
0.00683849
0.00034934
3.80327e-05
0.00185351
2.51019e-07
0.000201465
3.17549e-07
0.000629356
0.0147941
0.0747093
0.177329
0.285259
0.371879
0.431035
0.467338
0.487918
0.499136
0.505746
0.510016
0.512277
0.512983
0.512693
0.511735
0.510354
0.508751
0.507004
0.505193
0.503527
0.502398
0.501875
0.501595
0.50135
0.501112
0.500912
0.500759
0.500683
0.500704
0.500763
0.500862
0.501055
0.501253
0.50148
0.501878
0.5028
0.50551
0.510876
0.519245
0.531671
0.544163
0.542608
0.522548
0.489267
0.293234
0.0324127
0.00165426
6.85429e-05
0.000101581
0.00157104
2.19091e-06
0.000239818
1.256e-07
0.000626419
0.0147278
0.0744493
0.176872
0.284749
0.371521
0.43084
0.467258
0.487905
0.49914
0.50576
0.510003
0.512257
0.512949
0.512645
0.511717
0.51034
0.508755
0.507
0.505195
0.503528
0.502399
0.501855
0.501567
0.501314
0.5011
0.500903
0.500747
0.50064
0.500616
0.500698
0.500813
0.500966
0.501208
0.501459
0.501729
0.502348
0.504492
0.508725
0.515725
0.526121
0.539434
0.546273
0.531211
0.513
0.42558
0.132351
0.00645746
0.000374224
2.23595e-05
0.000225751
0.00112242
1.47733e-05
0.000241158
6.01675e-08
0.000623826
0.0146693
0.0741973
0.176437
0.284255
0.371085
0.430585
0.467138
0.48786
0.499132
0.505758
0.510009
0.512258
0.512912
0.512592
0.51167
0.510309
0.508738
0.507003
0.50518
0.503543
0.502397
0.501852
0.501546
0.50128
0.501069
0.500895
0.500743
0.50063
0.500568
0.500608
0.500742
0.500912
0.501119
0.501405
0.501695
0.502033
0.503582
0.507251
0.512936
0.521792
0.533912
0.545161
0.5397
0.520828
0.488167
0.297792
0.03242
0.00089322
0.000363021
1.46636e-07
0.000683174
0.000671178
5.2931e-05
0.000193184
2.9485e-08
0.000621665
0.0146188
0.0739743
0.176018
0.283798
0.370662
0.430276
0.466979
0.487795
0.499111
0.505734
0.510001
0.512254
0.512894
0.512563
0.511597
0.510281
0.508688
0.507003
0.505173
0.503534
0.502403
0.501856
0.501539
0.501257
0.501033
0.500862
0.500735
0.500625
0.500554
0.50055
0.50064
0.500834
0.501059
0.50131
0.501637
0.501943
0.502785
0.50587
0.510925
0.518262
0.529059
0.54124
0.54491
0.527529
0.510915
0.419689
0.129011
0.00472977
0.000155254
0.000221324
1.40808e-06
0.00139274
0.000302259
0.000128529
0.000136716
1.43652e-08
0.000620019
0.0145771
0.0737839
0.175645
0.283341
0.370284
0.429969
0.466786
0.487705
0.49907
0.505718
0.509985
0.512248
0.512866
0.512519
0.511552
0.510228
0.508661
0.506972
0.505203
0.503517
0.502404
0.501851
0.501543
0.501242
0.501
0.500823
0.500698
0.500619
0.500551
0.500532
0.500579
0.500722
0.500974
0.501244
0.501542
0.501877
0.502473
0.504563
0.509123
0.515608
0.524858
0.536774
0.545172
0.535326
0.518541
0.481542
0.282811
0.0263125
0.000328339
0.000155044
0.000218195
9.08578e-06
0.00194538
7.08821e-05
0.000320076
8.23379e-05
6.78747e-09
0.000618843
0.014545
0.0736259
0.175321
0.28293
0.369903
0.429693
0.466592
0.487584
0.499009
0.505693
0.50997
0.512244
0.512874
0.512489
0.511521
0.510175
0.508618
0.506916
0.505193
0.503551
0.5024
0.501849
0.501544
0.501244
0.500983
0.500784
0.500657
0.500584
0.500552
0.500528
0.500556
0.500652
0.500852
0.501156
0.50147
0.501791
0.50228
0.503853
0.507434
0.513298
0.521513
0.532431
0.543012
0.541123
0.52267
0.506958
0.400548
0.109607
0.00224155
3.05438e-05
0.000242971
8.08284e-05
5.54045e-05
0.00214458
1.778e-08
0.000678894
4.38576e-05
3.04362e-09
0.000618191
0.0145232
0.0735079
0.175058
0.28258
0.369546
0.429416
0.466409
0.487461
0.498942
0.505652
0.509951
0.512226
0.512873
0.512486
0.511516
0.510133
0.508572
0.506837
0.50513
0.503547
0.50241
0.501849
0.501537
0.501245
0.500984
0.500764
0.500618
0.50054
0.500515
0.500529
0.50055
0.500623
0.500775
0.501032
0.501378
0.501721
0.502099
0.503332
0.506313
0.511214
0.518589
0.528617
0.539753
0.544263
0.529589
0.515122
0.468299
0.245903
0.0157638
5.66233e-05
6.41343e-05
0.000234411
2.86283e-05
0.000192619
0.00173096
7.76571e-06
0.000937325
1.90641e-05
1.26562e-09
0.000617956
0.0145111
0.0734247
0.174864
0.282293
0.369243
0.429151
0.46622
0.487361
0.498876
0.505613
0.509935
0.512228
0.512843
0.512482
0.511478
0.510107
0.508504
0.506787
0.505041
0.503508
0.502409
0.501855
0.501534
0.501236
0.500978
0.500758
0.500587
0.500495
0.500464
0.500494
0.500554
0.500617
0.500746
0.500951
0.501247
0.501623
0.501969
0.502845
0.505417
0.509708
0.516007
0.525134
0.536199
0.544034
0.536303
0.519542
0.499278
0.366792
0.0763896
0.000451587
2.69892e-05
0.000111861
0.000317456
1.41325e-06
0.000783157
0.000927349
6.13139e-05
0.000968431
7.26107e-06
4.6562e-10
0.000618001
0.0145076
0.0733841
0.174733
0.282076
0.369007
0.42893
0.466049
0.487252
0.498819
0.505583
0.509912
0.512226
0.512879
0.512485
0.511474
0.510079
0.508455
0.506726
0.504972
0.503443
0.502391
0.501857
0.501548
0.501236
0.500971
0.500754
0.500575
0.500457
0.500413
0.500439
0.500517
0.500626
0.500738
0.500912
0.50116
0.501495
0.501878
0.502511
0.504578
0.508478
0.514058
0.52201
0.532622
0.542322
0.540744
0.523691
0.511533
0.444298
0.190715
0.00624125
5.35582e-06
4.34223e-05
0.000179878
0.000220164
3.18084e-06
0.00164611
0.000298735
0.000296711
0.000757512
2.2885e-06
1.48308e-10
0.000618318
0.0145096
0.0733779
0.174668
0.281934
0.368813
0.428758
0.465903
0.487139
0.498752
0.505537
0.509875
0.512227
0.512891
0.512495
0.511505
0.510071
0.508433
0.506677
0.504906
0.503374
0.502355
0.501843
0.50155
0.501252
0.500967
0.500748
0.50057
0.500442
0.500374
0.500381
0.500461
0.500591
0.500749
0.500901
0.501115
0.501409
0.501759
0.502323
0.50395
0.507344
0.512448
0.519544
0.529163
0.539721
0.543422
0.529603
0.516133
0.484504
0.312394
0.0404021
0.000153659
2.92827e-06
6.78887e-05
0.000255369
0.000128819
1.41559e-05
0.0025475
1.92353e-05
0.000890578
0.000464829
6.39369e-07
4.30507e-11
0.000618449
0.0145154
0.0733889
0.174662
0.281877
0.368687
0.42862
0.465781
0.487042
0.498685
0.505481
0.509846
0.512217
0.512901
0.512519
0.511495
0.510086
0.508411
0.506633
0.50484
0.503303
0.502322
0.501821
0.501533
0.501251
0.500981
0.500742
0.50056
0.500432
0.500352
0.500334
0.500398
0.500528
0.500714
0.500916
0.5011
0.501366
0.50168
0.502108
0.503483
0.506453
0.510992
0.517476
0.526256
0.536584
0.543426
0.535176
0.519341
0.504461
0.401193
0.120806
0.00170764
4.17433e-05
7.0614e-06
8.9781e-05
0.000317825
3.47231e-05
0.000175777
0.00213936
1.41574e-05
0.00207244
0.000219178
1.85554e-07
1.13366e-11
0.00061889
0.014521
0.0734148
0.174689
0.281881
0.368642
0.428526
0.465694
0.486973
0.498617
0.505434
0.50982
0.512193
0.512933
0.512535
0.511515
0.510086
0.508395
0.506609
0.50477
0.503243
0.502267
0.501802
0.501505
0.50124
0.500987
0.500761
0.500553
0.500415
0.500334
0.500306
0.500339
0.500461
0.500648
0.500875
0.501115
0.501323
0.501617
0.501945
0.502978
0.505683
0.509833
0.51563
0.523738
0.533703
0.542004
0.538983
0.522469
0.512213
0.45866
0.231337
0.0112597
7.7135e-05
3.92892e-05
1.17889e-05
0.000167777
0.000338312
1.1391e-05
0.00115479
0.00124035
0.000101203
0.00250382
7.81641e-05
5.08259e-08
2.68936e-12
0.000619298
0.0145295
0.073442
0.174738
0.281912
0.368653
0.428483
0.465635
0.486921
0.498573
0.505389
0.50978
0.512171
0.512913
0.512556
0.511544
0.51011
0.508407
0.506581
0.504766
0.503184
0.502235
0.501763
0.501482
0.501212
0.500981
0.500772
0.500574
0.500402
0.500315
0.500282
0.500308
0.500395
0.500573
0.500807
0.501074
0.501344
0.501582
0.501875
0.502557
0.504876
0.508815
0.514131
0.521461
0.531017
0.540254
0.54153
0.527225
0.515421
0.488301
0.332694
0.0566735
6.74265e-05
1.46665e-05
3.7437e-05
2.15675e-05
0.000328326
0.000367025
3.83848e-05
0.00221588
0.000455643
0.000340517
0.00211778
2.26552e-05
1.24386e-08
5.58733e-13
0.000619307
0.0145371
0.0734784
0.174794
0.28197
0.36869
0.428494
0.465603
0.486878
0.498541
0.505347
0.509733
0.512161
0.512871
0.512566
0.511544
0.510149
0.508437
0.506596
0.504759
0.503186
0.502211
0.501739
0.50145
0.501187
0.500957
0.500768
0.500586
0.500428
0.500301
0.500267
0.500282
0.500354
0.5005
0.500728
0.501006
0.501298
0.501592
0.501848
0.502373
0.504165
0.507793
0.512831
0.519552
0.528429
0.538115
0.542575
0.532098
0.517909
0.504072
0.407117
0.134858
0.00287251
1.21957e-05
2.02256e-05
2.49291e-05
2.97634e-05
0.0005789
0.000296816
5.16179e-05
0.00281708
5.42349e-06
0.00225181
0.00121376
5.45022e-06
2.56736e-09
1.01055e-13
0.000619915
0.0145401
0.0735083
0.17486
0.28203
0.368734
0.428521
0.465603
0.486847
0.498506
0.505311
0.509702
0.512138
0.512889
0.51255
0.511572
0.510164
0.50848
0.506624
0.504765
0.503176
0.502201
0.501726
0.501418
0.501155
0.500932
0.500742
0.50059
0.500448
0.500328
0.500248
0.500258
0.500326
0.500448
0.500647
0.500919
0.50123
0.501547
0.501855
0.502278
0.503686
0.506871
0.511566
0.517892
0.526167
0.535689
0.542175
0.535938
0.520219
0.510904
0.456299
0.231821
0.0163027
9.09213e-07
2.68183e-05
1.96758e-05
1.59447e-05
6.9061e-05
0.000535172
0.000172779
0.000403992
0.00167522
7.61346e-05
0.00421456
0.000487306
1.07721e-06
4.57842e-10
1.57193e-14
0.00061986
0.0145498
0.0735209
0.174913
0.2821
0.36878
0.428549
0.465612
0.486844
0.49848
0.505286
0.509674
0.512106
0.5129
0.512548
0.511586
0.510179
0.508523
0.50667
0.504784
0.503169
0.502182
0.501711
0.50139
0.501115
0.50089
0.500715
0.500566
0.500454
0.500355
0.500274
0.500236
0.500299
0.500412
0.500589
0.50083
0.501142
0.501479
0.501812
0.502238
0.503377
0.506099
0.510434
0.516323
0.52416
0.533458
0.540982
0.538622
0.523485
0.513941
0.483045
0.320829
0.0593074
0.000389095
1.05893e-05
3.61645e-05
1.0599e-05
1.68572e-05
7.75618e-05
0.000238052
7.01837e-07
0.00175855
0.000432047
0.000688026
0.00444351
0.000139128
1.92219e-07
7.02382e-11
2.02351e-15
0.000619777
0.0145506
0.0735637
0.174939
0.282166
0.368838
0.428584
0.465632
0.486852
0.49847
0.505266
0.509651
0.512068
0.512875
0.512556
0.511572
0.510198
0.508552
0.506727
0.504822
0.503179
0.502171
0.501694
0.501378
0.501074
0.500846
0.500671
0.500537
0.500432
0.500368
0.500304
0.500265
0.500271
0.500385
0.500545
0.500765
0.501046
0.50139
0.501749
0.502159
0.503197
0.505536
0.509459
0.514933
0.522275
0.531374
0.539723
0.540542
0.527439
0.515941
0.499325
0.388288
0.117356
0.00427532
1.90719e-05
2.86268e-05
1.3662e-05
1.30647e-06
1.44089e-05
0.000107623
2.22835e-05
0.000286368
0.00267996
1.18363e-05
0.00303869
0.00278131
2.92951e-05
3.00985e-08
8.9849e-12
2.10424e-16
0.00061967
0.0145488
0.0735669
0.175007
0.282201
0.368903
0.428633
0.465656
0.486867
0.49846
0.505251
0.509624
0.512063
0.512833
0.512548
0.51157
0.51022
0.508576
0.506779
0.504882
0.503204
0.502179
0.501691
0.501361
0.501062
0.500803
0.500625
0.500493
0.500409
0.500352
0.500325
0.500296
0.500298
0.500346
0.500513
0.500719
0.500972
0.501286
0.501667
0.50205
0.502989
0.505162
0.508685
0.513725
0.52057
0.52931
0.5382
0.541616
0.531292
0.517747
0.507541
0.437504
0.197854
0.0156904
0.000245693
3.75042e-05
1.33393e-05
1.42742e-06
1.25644e-05
3.67391e-05
0.000235105
3.17291e-05
0.00130455
0.00235567
1.92898e-05
0.00679706
0.00110382
4.68342e-06
3.87941e-09
9.2315e-13
1.73945e-17
0.000619537
0.0145465
0.0735592
0.175022
0.282276
0.368946
0.428676
0.465686
0.486869
0.498465
0.505224
0.509607
0.512052
0.512817
0.512534
0.511566
0.510217
0.508599
0.506809
0.504931
0.503254
0.502204
0.501691
0.501352
0.50104
0.500786
0.500575
0.500442
0.500362
0.500332
0.500312
0.500322
0.500333
0.500374
0.500463
0.500691
0.500918
0.501209
0.501558
0.501937
0.502738
0.504788
0.50811
0.512731
0.519068
0.527346
0.536368
0.541588
0.534426
0.519576
0.511541
0.468913
0.275039
0.0429765
0.000525251
5.55414e-05
2.32093e-05
9.81896e-07
1.03946e-05
9.76176e-05
0.000496718
0.00046866
1.7097e-05
0.00272309
0.000677362
0.00160864
0.00679267
0.000278596
5.81337e-07
3.99127e-10
7.34499e-14
1.09113e-18
0.000619196
0.0145435
0.0735483
0.175007
0.282285
0.369004
0.428702
0.465708
0.486878
0.498471
0.505212
0.509587
0.512031
0.51281
0.512509
0.51157
0.510215
0.508599
0.506817
0.504964
0.503294
0.502232
0.501707
0.501348
0.501027
0.50076
0.500552
0.500389
0.500304
0.500282
0.500294
0.500317
0.500369
0.500416
0.500491
0.500607
0.500878
0.501148
0.50148
0.501836
0.502499
0.504375
0.507567
0.511933
0.51781
0.525565
0.534461
0.540821
0.536732
0.521937
0.513616
0.487475
0.344836
0.079034
0.00187321
3.84919e-05
3.22376e-05
3.39843e-06
4.60185e-06
8.76991e-06
0.000164327
0.000950584
0.000716645
6.99936e-05
0.00253137
1.20685e-06
0.00585984
0.0037758
4.66018e-05
5.77895e-08
3.24097e-11
4.28358e-15
4.80569e-20
0.000618992
0.014538
0.0735347
0.174985
0.282275
0.368998
0.428747
0.465717
0.486894
0.498467
0.505222
0.509573
0.512001
0.512798
0.512471
0.511557
0.510199
0.508598
0.506811
0.504989
0.503327
0.502252
0.501728
0.501358
0.501025
0.50074
0.500521
0.500359
0.500247
0.500217
0.500245
0.500305
0.50037
0.500457
0.500534
0.50064
0.50081
0.501107
0.501417
0.50176
0.502323
0.503962
0.507023
0.511191
0.51676
0.524057
0.532696
0.53978
0.538408
0.524943
0.515148
0.499405
0.397749
0.129142
0.00587868
4.53199e-05
3.75941e-05
2.98449e-06
7.29545e-06
1.82379e-05
5.16643e-06
0.00012145
0.0009262
0.000317745
0.000875236
0.00111486
0.000199156
0.00910385
0.00117137
5.36857e-06
4.63593e-09
1.96457e-12
1.68603e-16
1.36972e-21
0.00061849
0.0145314
0.0735094
0.174958
0.282245
0.368988
0.428744
0.46575
0.486897
0.498465
0.505221
0.509562
0.511968
0.512774
0.512459
0.511517
0.510173
0.508577
0.506811
0.504987
0.503357
0.502269
0.50174
0.50138
0.501032
0.500731
0.500495
0.500319
0.500214
0.500153
0.500179
0.500256
0.500365
0.500465
0.500583
0.500683
0.500824
0.501044
0.501371
0.501702
0.502182
0.503575
0.506473
0.510484
0.515787
0.522775
0.531167
0.538773
0.53968
0.528014
0.516448
0.506467
0.43672
0.201467
0.018015
2.10485e-05
5.54157e-05
1.06793e-05
1.56221e-06
1.69802e-05
5.59571e-05
4.7599e-05
9.38931e-05
0.000217475
7.2503e-05
0.00296127
9.02693e-05
0.00408883
0.00804863
0.000207969
4.36072e-07
2.77379e-10
8.59547e-14
3.89722e-18
2.36936e-23
0.000617988
0.0145216
0.0734854
0.174916
0.282211
0.368961
0.428732
0.465748
0.486907
0.49846
0.5052
0.509557
0.511954
0.512732
0.512446
0.511477
0.510152
0.508556
0.506815
0.50499
0.503371
0.502293
0.501751
0.501401
0.501054
0.500742
0.50048
0.500292
0.500167
0.500116
0.500109
0.500189
0.500313
0.500465
0.500598
0.500734
0.500867
0.501051
0.501309
0.501661
0.502065
0.503227
0.50589
0.509812
0.514878
0.52157
0.529782
0.53773
0.540469
0.530839
0.517798
0.510212
0.463902
0.270545
0.0487117
0.000292113
5.61195e-05
2.78227e-05
7.70798e-08
1.07019e-05
2.2959e-05
9.36247e-05
6.86445e-05
6.67088e-05
2.74948e-05
0.00175768
0.00246049
0.000377156
0.0129561
0.00286564
2.20473e-05
2.5548e-08
1.18855e-11
2.58489e-15
6.08557e-20
2.13616e-25
0.000617056
0.0145086
0.0734377
0.17486
0.282163
0.368932
0.42871
0.46574
0.486899
0.498476
0.505188
0.509552
0.511939
0.512694
0.512415
0.511449
0.510105
0.508551
0.506819
0.504999
0.503376
0.502301
0.501768
0.501409
0.501072
0.50076
0.500482
0.500268
0.50013
0.500064
0.500065
0.500112
0.500242
0.500419
0.500601
0.500758
0.500922
0.501091
0.501307
0.501602
0.501965
0.50293
0.505342
0.509121
0.51403
0.520433
0.528422
0.536596
0.5406
0.533114
0.51917
0.51229
0.480818
0.329432
0.0824178
0.00304157
3.67704e-05
0.00011764
2.8276e-05
1.49271e-05
6.63591e-06
2.58729e-05
6.94837e-06
8.38664e-06
0.000219164
0.000252476
0.00357522
0.000525702
0.00351429
0.0108036
0.000564032
1.45352e-06
1.06023e-09
3.21325e-13
5.38544e-17
7.35361e-22
9.45362e-28
0.000616008
0.0144911
0.0733869
0.17478
0.282096
0.368893
0.428689
0.465724
0.486904
0.498459
0.505213
0.509539
0.511938
0.512679
0.512377
0.511443
0.510083
0.508525
0.506817
0.505012
0.503376
0.502305
0.50178
0.501431
0.50109
0.500776
0.500506
0.500268
0.500103
0.50002
0.500006
0.500059
0.500157
0.500342
0.500558
0.500768
0.500954
0.501152
0.501346
0.501586
0.501885
0.502663
0.504853
0.508446
0.513204
0.519348
0.527094
0.535339
0.54032
0.534905
0.52074
0.513573
0.49264
0.375663
0.11649
0.00951749
0.000348349
0.000264257
0.000172134
5.83369e-05
8.22637e-06
1.92601e-08
1.3394e-06
1.46925e-05
0.000571516
0.000388762
0.000408492
0.00217572
8.43075e-06
0.0115448
0.00552015
5.1636e-05
6.13054e-08
2.78798e-11
6.09843e-15
8.85101e-19
3.80385e-24
1.05144e-29
0.000615012
0.0144703
0.0733128
0.174675
0.281993
0.368818
0.428648
0.465704
0.486898
0.498471
0.505184
0.509542
0.511933
0.512661
0.512356