/*--------------------------------*- C++ -*----------------------------------*\
| =========                 |                                                 |
| \\      /  F ield         | OpenFOAM: The Open Source CFD Toolbox           |
|  \\    /   O peration     | Version:  v2012                                 |
|   \\  /    A nd           | Website:  www.openfoam.com                      |
|    \\/     M anipulation  |                                                 |
\*---------------------------------------------------------------------------*/
FoamFile
{
    version     2.0;
    format      ascii;
    class       volScalarField;
    location    "3900";
    object      Mg;
}
// * * * * * * * * * * * * * * * * * * * * * * * * * * * * * * * * * * * * * //

dimensions      [0 0 0 0 0 0 0];


internalField   nonuniform List<scalar> 
29502
(
0.00052075
4.183e-05
0.00131148
4.44772e-05
9.1565e-05
0.00154401
5.33991e-05
0.000173729
0.000148285
0.00146687
5.94904e-05
0.000228334
0.00100641
0.000213521
0.00129034
6.28283e-05
0.000259822
0.00135899
0.00347577
0.000328202
0.00112624
6.44593e-05
0.000276329
0.00154726
0.00467511
0.00836631
0.000512584
0.00099198
6.49929e-05
0.000284064
0.00164133
0.00529329
0.0111267
0.0157952
0.000753473
0.000875181
6.48239e-05
0.000286326
0.00167985
0.00559013
0.012504
0.020614
0.0249555
0.00102066
0.00077084
6.42674e-05
0.000285241
0.00168662
0.00569671
0.013142
0.0229366
0.0317791
0.0345087
0.00129063
0.000678646
6.3401e-05
0.000282378
0.00167502
0.00570354
0.0133478
0.0239787
0.0349535
0.0428109
0.0433247
0.00153462
0.000598061
6.26238e-05
0.000278252
0.00165437
0.00565226
0.0133431
0.0242909
0.0363407
0.0465495
0.0524404
0.0509802
0.00173584
0.000527444
6.20028e-05
0.000274598
0.00162848
0.00557673
0.0132116
0.0242716
0.0367415
0.0481487
0.0564551
0.0603927
0.0575549
0.00189407
0.000465904
6.14477e-05
0.000271715
0.00160574
0.0054883
0.0130366
0.0240403
0.0367236
0.0486103
0.0581566
0.0644952
0.0670403
0.0630735
0.00200623
0.000411814
6.05174e-05
0.000269045
0.00158771
0.00541107
0.0128387
0.0237516
0.0364148
0.0486177
0.0586578
0.0662424
0.0711061
0.0726002
0.0675348
0.00208102
0.000364367
5.97471e-05
0.000264553
0.00157117
0.00534912
0.0126661
0.0234262
0.036045
0.0482768
0.0587034
0.0667698
0.0728533
0.0765025
0.0770695
0.0711216
0.00212125
0.00032241
5.90172e-05
0.000261014
0.0015444
0.00529288
0.0125259
0.0231432
0.0356229
0.0478803
0.0583629
0.0668572
0.0733983
0.0782065
0.0807149
0.0805955
0.0739231
0.00212715
0.000285505
5.85227e-05
0.000257651
0.00152366
0.00520518
0.0123993
0.0229077
0.0352544
0.0474161
0.0579775
0.0665291
0.0735267
0.0787604
0.0823485
0.083968
0.0833481
0.0761045
0.0023002
0.000252855
5.79481e-05
0.000255397
0.0015041
0.00513743
0.0122066
0.022697
0.0349399
0.0470089
0.0575112
0.0661642
0.0732206
0.078927
0.0829077
0.0855068
0.0865044
0.0854755
0.0780571
0.00224425
0.00022385
5.72371e-05
0.000252701
0.00149091
0.00507367
0.0120583
0.0223816
0.0346604
0.0466516
0.0571043
0.0657104
0.0728851
0.0786484
0.0831025
0.0860745
0.0879138
0.0885365
0.0871727
0.080046
0.00211207
0.000198238
5.66933e-05
0.0002494
0.00147529
0.00503041
0.0119186
0.0221383
0.0342475
0.046335
0.0567365
0.0653182
0.0724484
0.07835
0.0828494
0.0862825
0.0884901
0.0897563
0.0901974
0.0887057
0.0820192
0.00190191
0.000175481
5.62488e-05
0.000246982
0.00145644
0.00497997
0.0118228
0.0219083
0.0339278
0.0458726
0.0564106
0.0649533
0.0720697
0.07794
0.0825837
0.0860462
0.0886964
0.0903344
0.0911784
0.0915468
0.0902554
0.083529
0.00164401
0.00015514
5.57829e-05
0.000245003
0.0014429
0.00491974
0.0117124
0.0217492
0.0336229
0.0455147
0.0559398
0.0646282
0.0717049
0.077578
0.0822038
0.0858135
0.0884725
0.0905204
0.0917421
0.0923075
0.092643
0.0917407
0.0838149
0.00136461
0.000137096
5.53854e-05
0.000242855
0.00143186
0.00487695
0.0115821
0.0215664
0.0334094
0.0451686
0.0555763
0.0641681
0.0713846
0.0772207
0.0818686
0.085461
0.0882628
0.090309
0.0918864
0.0928097
0.093238
0.0935645
0.0930014
0.0820553
0.00110889
0.000120878
5.50196e-05
0.000241075
0.00141971
0.00484207
0.0114903
0.0213537
0.0331656
0.0449224
0.0552203
0.0638089
0.0709317
0.0769098
0.0815268
0.0851506
0.0879368
0.0901145
0.0916824
0.0929113
0.0936117
0.0940169
0.0944167
0.0940915
0.0779838
0.000889451
0.000106397
5.45955e-05
0.00023943
0.00140986
0.00480356
0.011415
0.0212047
0.0328854
0.0446421
0.0549608
0.0634537
0.0705746
0.076464
0.0812282
0.0848195
0.0876405
0.0898023
0.0915019
0.0927057
0.0936907
0.0942281
0.0946891
0.0952955
0.0950779
0.0728523
0.000719922
9.33957e-05
5.41451e-05
0.000237482
0.00140074
0.00477241
0.0113315
0.0210808
0.0326885
0.0443246
0.0546655
0.0631899
0.0702203
0.0761214
0.0808061
0.0845375
0.0873232
0.0895222
0.091199
0.0925294
0.0934646
0.0942853
0.0947387
0.095317
0.0962291
0.0959316
0.0677045
0.000584381
8.17746e-05
5.37285e-05
0.000235408
0.00138992
0.00474393
0.0112645
0.0209434
0.0325222
0.0440998
0.0543375
0.0628911
0.0699491
0.0757741
0.0804831
0.084138
0.087054
0.0892228
0.0909355
0.0922378
0.0932781
0.0940215
0.0947585
0.0951963
0.0959412
0.0972306
0.0965401
0.061756
0.000476659
7.14684e-05
5.34216e-05
0.000233539
0.0013784
0.00471007
0.0112034
0.020834
0.032339
0.0439066
0.0541054
0.0625656
0.0696476
0.0755008
0.080144
0.0838294
0.0866672
0.0889601
0.0906463
0.0919844
0.0929917
0.0938206
0.094444
0.0951517
0.0956309
0.0965967
0.0982861
0.0965872
0.054139
0.000389676
6.2498e-05
5.32004e-05
0.00023222
0.00136816
0.00467423
0.0111315
0.0207351
0.0321928
0.0436959
0.0538992
0.0623324
0.0693228
0.0751924
0.0798784
0.0835046
0.0863772
0.08858
0.090393
0.0916977
0.09275
0.0935343
0.0942252
0.0948134
0.0955006
0.096069
0.0973099
0.0993471
0.0953771
0.044979
0.000318761
5.38052e-05
5.29784e-05
0.000231326
0.00136122
0.00464266
0.011055
0.0206176
0.0320614
0.0435251
0.0536768
0.0621207
0.0690853
0.0748697
0.0795756
0.083243
0.08607
0.0883032
0.0900192
0.0914502
0.0924646
0.0932939
0.093931
0.094592
0.0951992
0.0958365
0.0965362
0.0981014
0.100286
0.0918441
0.0346963
0.000258409
4.58229e-05
5.2734e-05
0.000230361
0.00135672
0.00462181
0.0109882
0.0204933
0.0319039
0.0433724
0.0534942
0.0618926
0.0688711
0.0746367
0.0792619
0.0829536
0.0858128
0.0880101
0.0897508
0.0910804
0.0922138
0.0930051
0.0936887
0.0942945
0.0949966
0.0955965
0.0961663
0.0970511
0.0989858
0.100876
0.0849691
0.0241435
0.000207679
3.8683e-05
5.24601e-05
0.000229289
0.00135168
0.00460867
0.0109451
0.0203846
0.0317394
0.0431899
0.0533323
0.0617058
0.0686403
0.0744197
0.0790352
0.0826527
0.0855251
0.0877623
0.0894653
0.0908236
0.0918435
0.0927588
0.0934018
0.0940503
0.0947019
0.0954074
0.0959399
0.096499
0.0976317
0.0999577
0.100807
0.0762594
0.0147475
0.000166326
3.18068e-05
5.21628e-05
0.000228058
0.00134606
0.00459369
0.0109182
0.0203158
0.0315962
0.0430022
0.0531392
0.0615379
0.0684513
0.0741915
0.0788208
0.082431
0.0852343
0.0874738
0.0892242
0.0905422
0.0916022
0.0923815
0.0931587
0.0937668
0.0944619
0.0951175
0.0957529
0.0962044
0.0968663
0.0982934
0.10098
0.0997788
0.0678016
0.00787818
0.000134021
2.53231e-05
5.18496e-05
0.000226727
0.00133952
0.00457689
0.0108872
0.0202729
0.0315061
0.0428393
0.0529434
0.0613391
0.0682749
0.0740013
0.0785961
0.0822193
0.0850233
0.0871853
0.0889369
0.0903021
0.0913289
0.0921512
0.0927687
0.093524
0.0941849
0.0948809
0.0954645
0.0960229
0.0963861
0.0972932
0.0990492
0.101902
0.0972675
0.0584807
0.00383203
0.00010925
1.93601e-05
5.15427e-05
0.00022529
0.00133236
0.00455732
0.0108526
0.0202229
0.0314482
0.0427354
0.0527721
0.0611396
0.0680693
0.0738196
0.0784069
0.0819978
0.0848173
0.0869838
0.0886524
0.090016
0.0910847
0.091884
0.0925411
0.0931336
0.0939393
0.0946062
0.0952306
0.0957358
0.0962146
0.0965195
0.0977892
0.0998961
0.102373
0.0921583
0.0468661
0.00178441
8.93925e-05
1.40303e-05
5.12455e-05
0.000223907
0.00132465
0.00453569
0.0108121
0.0201671
0.0313803
0.0426643
0.0526615
0.0609664
0.0678658
0.0736136
0.0782295
0.0818073
0.0845971
0.0867854
0.0884559
0.0897405
0.0907941
0.0916414
0.0922762
0.0929016
0.0935635
0.0943589
0.0949581
0.0955056
0.0959341
0.0963342
0.0967067
0.0983642
0.100786
0.101932
0.0834383
0.033895
0.000837091
7.22201e-05
9.51006e-06
5.09433e-05
0.00022256
0.00131718
0.00451215
0.0107667
0.0201022
0.0313041
0.0425833
0.0525803
0.060854
0.0676907
0.0734164
0.0780292
0.0816351
0.0844059
0.0865642
0.0882575
0.0895471
0.0905265
0.0913457
0.0920425
0.0926365
0.093325
0.0939921
0.0947142
0.0952363
0.0957124
0.0960607
0.0963764
0.0970283
0.0990274
0.101622
0.0999546
0.0728544
0.0215125
0.000406991
5.6875e-05
5.91891e-06
5.06913e-05
0.000221228
0.00130993
0.00448953
0.0107175
0.020029
0.0312177
0.0424921
0.0524896
0.0607655
0.0675744
0.0732376
0.0778342
0.0814393
0.0842344
0.0863773
0.08804
0.0893463
0.0903394
0.0910754
0.0917426
0.0924067
0.0930592
0.0937533
0.0943448
0.0949928
0.0954464
0.095849
0.0961194
0.0963929
0.0974824
0.0997776
0.102142
0.0958306
0.0622896
0.0119808
0.000214354
4.26831e-05
3.78437e-06
5.05079e-05
0.000220133
0.00130282
0.00446783
0.0106706
0.0199504
0.0311219
0.0423911
0.0523884
0.0606647
0.0674754
0.0731139
0.0776549
0.0812377
0.08404
0.0862054
0.0878603
0.0891305
0.0901422
0.0908939
0.091464
0.0921137
0.0928297
0.0934896
0.0941086
0.09462
0.095204
0.0955913
0.0959212
0.0961008
0.0965325
0.0980275
0.100572
0.10184
0.0887904
0.0504918
0.00607413
0.000126924
2.96812e-05
3.36933e-06
5.03858e-05
0.000219358
0.00129691
0.0044461
0.0106259
0.0198758
0.0310193
0.0422804
0.0522782
0.0605558
0.0673675
0.073005
0.0775279
0.0810639
0.0838419
0.0860071
0.0876828
0.0889482
0.0899222
0.0906997
0.0912837
0.0918345
0.092549
0.0932616
0.0938478
0.0943866
0.0948326
0.0953517
0.0956711
0.0959233
0.0960259
0.0968521
0.0986557
0.101269
0.0999891
0.078746
0.0367118
0.00295524
8.22269e-05
1.90926e-05
3.77476e-06
5.03232e-05
0.000218913
0.00129301
0.00442826
0.0105812
0.0198054
0.0309219
0.0421636
0.0521613
0.0604416
0.0672574
0.0728921
0.0774224
0.0809395
0.0836743
0.0858197
0.0874834
0.0887724
0.0897348
0.0904779
0.091093
0.0916556
0.0922787
0.0929846
0.0936235
0.0941293
0.094603
0.0949803
0.0954382
0.0956875
0.0958498
0.0960059
0.0973056
0.0993511
0.101551
0.0957325
0.0673997
0.0231336
0.00140511
5.46776e-05
1.02738e-05
4.33709e-06
5.02944e-05
0.000218714
0.00129096
0.00441673
0.0105435
0.0197338
0.0308299
0.0420529
0.0520386
0.0603203
0.0671394
0.0727744
0.0773021
0.08083
0.0835491
0.0856557
0.0873024
0.0885772
0.0895603
0.0902938
0.090871
0.0914682
0.0920963
0.0927174
0.093345
0.0939089
0.0943464
0.0947544
0.0950716
0.0954635
0.0956357
0.0957105
0.0961828
0.097846
0.10004
0.100826
0.088231
0.0556063
0.0126085
0.000641547
3.46051e-05
4.949e-06
5.14868e-06
5.02625e-05
0.000218667
0.00129042
0.0044115
0.0105201
0.0196738
0.0307353
0.041949
0.051922
0.0601949
0.0670085
0.0726529
0.0771733
0.0807084
0.083426
0.0855269
0.0871381
0.0883969
0.0893634
0.0901142
0.0906878
0.091247
0.0919107
0.092535
0.0930756
0.0936308
0.0941275
0.094502
0.0948502
0.0951045
0.0954273
0.0955069
0.0956166
0.0965493
0.0984496
0.100503
0.0981886
0.0777216
0.0421178
0.00615588
0.000273818
2.16204e-05
2.8962e-06
6.01778e-06
5.02065e-05
0.000218577
0.00129061
0.00441071
0.0105107
0.0196371
0.0306572
0.0418406
0.051814
0.0600728
0.066878
0.0725206
0.0770491
0.0805801
0.0833108
0.0854041
0.0870101
0.0882306
0.0891811
0.0899118
0.0905099
0.0910629
0.0916976
0.0923516
0.0928976
0.0933612
0.0938487
0.0942889
0.0946023
0.0948886
0.0950797
0.09532
0.0953179
0.0957269
0.0970175
0.0990557
0.100246
0.0926304
0.0661664
0.0275369
0.0028181
0.000104785
1.60295e-05
1.82332e-06
6.10576e-06
5.01156e-05
0.00021837
0.00129056
0.00441251
0.0105108
0.0196237
0.0306097
0.0417514
0.0517009
0.0599637
0.0667551
0.0723894
0.0769181
0.0804549
0.0831836
0.0852855
0.0868934
0.0881071
0.0890177
0.0897241
0.0903077
0.0908917
0.0915188
0.0921442
0.0927166
0.0931846
0.0935794
0.0940107
0.0943931
0.0946462
0.0948704
0.094992
0.095134
0.0951906
0.0960194
0.0975307
0.0994911
0.0984211
0.0833663
0.0541368
0.0152774
0.00121667
3.67626e-05
1.2815e-05
1.67208e-06
6.03224e-06
4.9986e-05
0.000217961
0.00128977
0.00441345
0.0105157
0.0196242
0.0305907
0.0416956
0.0516079
0.0598528
0.0666452
0.0722711
0.0767932
0.0803239
0.0830537
0.0851532
0.0867617
0.0879901
0.0888956
0.089567
0.0901223
0.0906984
0.0913513
0.0919679
0.0925079
0.0930072
0.0934054
0.0937423
0.0941177
0.094445
0.0946355
0.0947942
0.0948332
0.094903
0.0952575
0.0964051
0.0980388
0.0993152
0.0938956
0.071992
0.0402822
0.00732915
0.000457335
1.40354e-05
1.0694e-05
2.02862e-06
5.73467e-06
4.98095e-05
0.000217395
0.00128784
0.0044121
0.0105192
0.0196331
0.0305901
0.0416714
0.0515464
0.0597599
0.0665298
0.0721601
0.0766757
0.0802011
0.0829272
0.0850218
0.086621
0.087849
0.0887756
0.0894401
0.0899651
0.090515
0.0911626
0.0917985
0.0923323
0.0927985
0.0932301
0.0935718
0.0938514
0.0941736
0.0944413
0.0945661
0.0946493
0.0945915
0.0947671
0.0955019
0.0968222
0.098364
0.0977644
0.0858356
0.0604947
0.0254908
0.00307669
0.000142695
8.52975e-06
9.74912e-06
2.57778e-06
5.28492e-06
4.96014e-05
0.000216575
0.00128485
0.00440666
0.0105178
0.0196387
0.0306007
0.0416662
0.0515165
0.0596928
0.0664327
0.0720398
0.0765662
0.0800847
0.0828069
0.0848928
0.0864937
0.0877088
0.0886309
0.0893156
0.0898362
0.0903539
0.0909776
0.0916074
0.0921618
0.0926226
0.0930234
0.0933968
0.0936847
0.0939078
0.094175
0.0943825
0.0944355
0.0944287
0.0943169
0.0948323
0.0958132
0.0972087
0.0981425
0.0938385
0.0750875
0.047792
0.0133477
0.00110623
4.22307e-05
7.30831e-06
8.2086e-06
3.23461e-06
4.60998e-06
4.93518e-05
0.000215564
0.00128035
0.00439788
0.0105071
0.0196374
0.0306063
0.0416735
0.0515047
0.059657
0.0663624
0.0719387
0.0764508
0.0799784
0.0826925
0.084774
0.0863643
0.0875751
0.0884907
0.0891718
0.0897098
0.0902283
0.0908131
0.0914222
0.0919677
0.0924509
0.0928477
0.0931911
0.0935119
0.0937454
0.0939135
0.0941266
0.0942656
0.0942327
0.0941221
0.0941645
0.0950418
0.0961473
0.0974188
0.0967345
0.0864416
0.0637221
0.0328797
0.00572061
0.00034951
1.38573e-05
8.58331e-06
5.97532e-06
3.95871e-06
3.79695e-06
4.90806e-05
0.000214403
0.00127478
0.00438412
0.0104893
0.0196203
0.0306024
0.0416747
0.0515028
0.0596359
0.0663216
0.0718678
0.0763533
0.0798613
0.0825856
0.0846608
0.0862429
0.0874499
0.0883535
0.0890279
0.0895707
0.0901089
0.090688
0.091258
0.0917818
0.0922558
0.0926752
0.0930168
0.0933059
0.0935779
0.0937562
0.0938704
0.094021
0.0940814
0.0939491
0.093828
0.0942213
0.0953108
0.0964532
0.0971579
0.0930018
0.0759109
0.0516153
0.0184866
0.00201817
0.000103172
4.52484e-06
1.03308e-05
3.55742e-06
5.08441e-06
2.85772e-06
4.88248e-05
0.000213135
0.00126829
0.00436692
0.0104604
0.0195923
0.0305787
0.041666
0.0514964
0.0596241
0.0662907
0.0718168
0.0762757
0.0797627
0.0824707
0.0845526
0.0861312
0.0873298
0.088226
0.0888939
0.0894291
0.0899781
0.0905761
0.0911335
0.0916197
0.0920709
0.0924812
0.0928453
0.0931338
0.0933738
0.0935923
0.0937192
0.0937753
0.0938554
0.0938223
0.093619
0.093733
0.0944193
0.0956219
0.096617
0.0956409
0.0856167
0.0645593
0.0371312
0.00815324
0.000604231
2.92295e-05
1.07528e-06
1.1898e-05
1.16366e-06
6.90856e-06
1.7456e-06
4.8587e-05
0.000211938
0.00126113
0.00434678
0.0104241
0.0195454
0.0305398
0.0416331
0.0514793
0.0596079
0.0662759
0.0717812
0.076218
0.0796815
0.082373
0.0844424
0.0860227
0.087215
0.0881113
0.0887613
0.0892948
0.089841
0.0904508
0.0910224
0.0914951
0.0919089
0.0922963
0.0926511
0.0929641
0.0932023
0.0933912
0.0935596
0.0936316
0.0936204
0.0936188
0.0934851
0.0933914
0.0938379
0.09469
0.0959085
0.0961954
0.0915286
0.075083
0.05272
0.0217314
0.00280338
0.000169568
8.74772e-06
1.45405e-06
1.2816e-05
2.34215e-07
9.77673e-06
1.02619e-06
4.8352e-05
0.000210834
0.00125446
0.00432448
0.0103814
0.019487
0.0304771
0.0415849
0.0514387
0.0595827
0.0662474
0.0717615
0.0761754
0.0796247
0.0822957
0.0843498
0.0859169
0.0871117
0.0879941
0.088645
0.0891649
0.0897079
0.0903142
0.0908934
0.0913828
0.0917822
0.0921328
0.0924647
0.0927675
0.0930328
0.0932219
0.0933627
0.0934774
0.093485
0.0934016
0.0932983
0.093179
0.0933575
0.0940398
0.0949802
0.095938
0.0942112
0.0836096
0.063831
0.0384417
0.00978469
0.000786579
4.72804e-05
2.37592e-06
2.36067e-06
1.17681e-05
6.26144e-07
1.07318e-05
6.49463e-07
4.81563e-05
0.000209794
0.00124837
0.0043036
0.0103337
0.0194182
0.0304003
0.0415113
0.0513856
0.0595354
0.0662153
0.0717257
0.0761419
0.0795738
0.082231
0.0842719
0.0858213
0.0870062
0.0878882
0.0885322
0.0890454
0.0895806
0.0901806
0.0907566
0.0912525
0.0916692
0.0920062
0.0923013
0.0925815
0.0928356
0.0930555
0.0931965
0.0932852
0.0933389
0.0932783
0.0931077
0.0929493
0.0930522
0.093474
0.0942863
0.0951832
0.0951304
0.0893365
0.0728838
0.0520637
0.0226028
0.00329058
0.000199435
1.2188e-05
1.03636e-06
3.50087e-06
9.8858e-06
1.5278e-06
1.08457e-05
4.51778e-07
4.79807e-05
0.000208887
0.00124252
0.00428446
0.0102892
0.0193408
0.0303103
0.0414243
0.051306
0.0594766
0.0661604
0.0716859
0.0761039
0.0795304
0.0821705
0.0842049
0.0857387
0.0869102
0.087783
0.0884229
0.0889371
0.0894609
0.0900529
0.0906229
0.0911144
0.0915404
0.0918943
0.0921765
0.0924202
0.0926511
0.0928616
0.0930327
0.0931237
0.0931562
0.0931412
0.0929986
0.0927352
0.0927229
0.0930998
0.0936585
0.0945156
0.0949746
0.0924333
0.0805608
0.0617395
0.0376868
0.010037
0.000854956
4.25152e-05
6.848e-06
9.35045e-08
6.11492e-06
7.5771e-06
2.91369e-06
9.76457e-06
3.1732e-07
4.78313e-05
0.000208101
0.00123742
0.00426629
0.0102494
0.019269
0.0302101
0.0413233
0.0512155
0.0593942
0.0660927
0.0716244
0.0760561
0.0794823
0.0821246
0.0841348
0.0856753
0.0868211
0.0876923
0.0883152
0.0888299
0.0893499
0.0899354
0.0904942
0.0909803
0.0914022
0.0917657
0.0920646
0.0922957
0.0924903
0.0926774
0.09284
0.0929635
0.0930009
0.092968
0.0928745
0.0926306
0.0923938
0.0926829
0.0932217
0.0938564
0.0945574
0.0936156
0.0864156
0.0695975
0.0497452
0.0216389
0.00322457
0.000184739
9.0124e-06
3.59912e-06
2.61018e-07
8.80694e-06
5.02367e-06
4.57752e-06
8.25054e-06
2.21993e-07
4.77122e-05
0.000207448
0.00123308
0.00425033
0.0102106
0.0192057
0.0301171
0.0412125
0.0511117
0.0593013
0.0660065
0.0715536
0.0759907
0.0794231
0.0820645
0.0840807
0.0856083
0.0867565
0.0876085
0.0882343
0.0887198
0.0892466
0.0898215
0.0903776
0.0908497
0.0912654
0.0916269
0.0919356
0.092185
0.0923673
0.0925182
0.0926597
0.0927733
0.0928451
0.0928206
0.0927158
0.0925227
0.0922487
0.0922433
0.0927581
0.0933713
0.0939841
0.0939296
0.0898389
0.0765735
0.0585935
0.0348173
0.00913804
0.000750414
2.78733e-05
5.1101e-06
2.84538e-06
6.26737e-07
1.04343e-05
2.40026e-06
7.30146e-06
6.44283e-06
1.52705e-07
4.76221e-05
0.00020693
0.00122946
0.00423647
0.0101762
0.019144
0.0300355
0.0411104
0.0509981
0.0591962
0.0659134
0.0714637
0.0759194
0.0793575
0.0820004
0.0840204
0.0855487
0.0866901
0.0875339
0.0881571
0.0886407
0.0891405
0.0897171
0.0902657
0.090733
0.0911351
0.0914893
0.0917974
0.0920572
0.0922595
0.0923963
0.0925021
0.092596
0.0926595
0.092673
0.0925787
0.0923844
0.092125
0.0920119
0.0922677
0.0928691
0.093506
0.093751
0.0916978
0.0822819
0.0654172
0.046071
0.0188338
0.00269514
0.000124193
4.17996e-06
4.03874e-06
1.56844e-06
1.50785e-06
1.09487e-05
4.56966e-08
1.07625e-05
4.7449e-06
1.02219e-07
4.75642e-05
0.000206569
0.0012267
0.00422528
0.0101471
0.0190885
0.0299559
0.0410205
0.0508948
0.0590866
0.0658092
0.0713694
0.0758255
0.0792843
0.0819281
0.0839598
0.0854817
0.0866303
0.0874553
0.0880794
0.0885653
0.0890542
0.0896125
0.0901597
0.0906216
0.0910188
0.091359
0.0916607
0.0919192
0.0921323
0.0922894
0.0923813
0.0924408
0.0924868
0.0924958
0.0924408
0.0922626
0.0919783
0.0918169
0.0919615
0.0923528
0.0929852
0.0934554
0.0924841
0.0864987
0.0718265
0.0544332
0.0303916
0.00723681
0.000519274
1.12695e-05
3.465e-06
2.87851e-06
9.04423e-07
2.71391e-06
9.77448e-06
8.07237e-07
1.28627e-05
3.12453e-06
6.58386e-08
4.75308e-05
0.000206348
0.00122468
0.00421673
0.0101231
0.019041
0.0298838
0.0409317
0.0508072
0.0589889
0.0657035
0.0712696
0.0757352
0.079185
0.0818517
0.0838743
0.0854118
0.0865526
0.087392
0.0879959
0.088494
0.0889798
0.0895247
0.0900546
0.0905149
0.0909059
0.0912418
0.0915281
0.0917819
0.0919936
0.0921644
0.092277
0.0923226
0.0923369
0.09233
0.0922723
0.0921369
0.0918567
0.0916029
0.0916905
0.0920023
0.0924521
0.0930133
0.0927541
0.0889746
0.0774183
0.0610605
0.0410435
0.0149327
0.00185716
5.03049e-05
3.77735e-06
2.77871e-06
2.8975e-06
2.32959e-07
5.48354e-06
7.07324e-06
2.27319e-06
1.31341e-05
1.92975e-06
3.98819e-08
4.75134e-05
0.00020625
0.00122364
0.00421068
0.0101047
0.0190032
0.0298227
0.0408534
0.0507204
0.0589055
0.0656124
0.0711671
0.0756383
0.0791036
0.08176
0.0837959
0.0853266
0.0864733
0.0873142
0.0879256
0.088417
0.0889145
0.0894513
0.0899692
0.0904111
0.0908003
0.0911298
0.0914102
0.0916488
0.0918564
0.0920264
0.0921532
0.0922218
0.0922217
0.0921836
0.0921152
0.0919827
0.09175
0.0914417
0.0914035
0.0916855
0.092072
0.0925125
0.0926549
0.0904753
0.0818354
0.0665532
0.0495495
0.0246883
0.00499288
0.000264893
2.72218e-06
2.80041e-06
2.4338e-06
2.29072e-06
3.0147e-07
8.04738e-06
3.97549e-06
5.04298e-06
1.16471e-05
1.08429e-06
2.25068e-08
4.75134e-05
0.000206223
0.00122328
0.0042075
0.0100917
0.018973
0.0297738
0.0407862
0.0506415
0.0588226
0.0655306
0.0710745
0.0755431
0.0790108
0.0816714
0.0837116
0.0852455
0.0863877
0.0872327
0.0878447
0.0883456
0.0888455
0.0893866
0.0898954
0.090326
0.090695
0.0910251
0.0912988
0.0915315
0.0917248
0.0918892
0.0920174
0.0921006
0.0921238
0.0920721
0.0919753
0.0918385
0.0916154
0.0913257
0.0911831
0.0913585
0.0917215
0.0921273
0.0923441
0.0912062
0.0852626
0.0716628
0.0558783
0.0347596
0.0105267
0.00103905
2.12942e-05
1.29075e-06
2.09612e-06
2.40938e-06
1.73029e-06
6.26288e-07
1.01423e-05
9.93728e-07
8.8759e-06
9.14057e-06
5.73667e-07
1.21372e-08
4.75009e-05
0.000206244
0.00122326
0.0042065
0.0100856
0.0189517
0.0297348
0.040731
0.0505737
0.0587488
0.0654487
0.0709969
0.0754582
0.0789198
0.0815829
0.0836166
0.0851557
0.0863009
0.0871387
0.0877564
0.0882617
0.088784
0.0893215
0.0898292
0.0902512
0.0906091
0.0909194
0.0911933
0.0914196
0.091607
0.0917571
0.0918809
0.0919658
0.0920059
0.0919788
0.0918678
0.0917089
0.0914882
0.0911809
0.091008
0.0911007
0.0913673
0.0917568
0.0920496
0.0914243
0.0874121
0.0761949
0.0610331
0.0431925
0.0182908
0.00287538
0.000106429
6.32207e-06
1.16396e-06
1.61987e-06
2.53308e-06
9.11456e-07
2.24861e-06
9.24918e-06
8.65722e-07
1.38437e-05
6.27758e-06
3.09325e-07
6.23385e-09
4.75062e-05
0.000206252
0.0012235
0.00420672
0.0100842
0.0189419
0.0297066
0.040688
0.0505198
0.058683
0.0653794
0.0709225
0.075383
0.0788483
0.0814952
0.0835282
0.0850635
0.0862013
0.0870502
0.0876534
0.088174
0.0887046
0.0892641
0.0897619
0.0901866
0.0905367
0.0908349
0.0910873
0.0913127
0.091494
0.0916399
0.091748
0.0918313
0.0918737
0.0918626
0.0917793
0.091602
0.0913651
0.0910455
0.0907985
0.0908688
0.0910883
0.0913863
0.0917188
0.0914701
0.08873
0.0799035
0.065428
0.0497912
0.0270036
0.00637149
0.000395944
1.22697e-05
3.55263e-06
8.82234e-07
1.80705e-06
2.58467e-06
5.51138e-07
5.89469e-06
6.96574e-06
2.31756e-06
1.54453e-05
3.7335e-06
1.61959e-07
3.03754e-09
4.75077e-05
0.000206295
0.00122368
0.0042076
0.0100845
0.0189396
0.0296922
0.040657
0.0504766
0.0586309
0.0653178
0.0708553
0.0753112
0.0787757
0.0814229
0.0834457
0.0849767
0.0861125
0.0869463
0.0875701
0.0880734
0.0886242
0.0891888
0.089703
0.0901188
0.0904729
0.0907638
0.0910036
0.0912053
0.0913874
0.0915266
0.0916321
0.0916991
0.0917406
0.0917341
0.0916679
0.0915211
0.0912714
0.0909355
0.0906058
0.090599
0.0908313
0.0910898
0.0913662
0.091351
0.0895863
0.0829031
0.0696494
0.054903
0.0352404
0.0117265
0.00132613
1.71876e-05
3.20176e-06
2.02345e-06
7.37494e-07
2.39065e-06
2.6977e-06
9.48868e-07
8.27458e-06
4.15827e-06
4.31912e-06
1.42266e-05
2.00513e-06
8.01331e-08
1.38449e-09
4.74867e-05
0.000206319
0.00122399
0.00420842
0.0100863
0.0189405
0.029689
0.0406394
0.0504427
0.0585883
0.0652648
0.0707937
0.0752536
0.0787001
0.0813611
0.0833692
0.0848993
0.0860283
0.0868584
0.0874717
0.0879912
0.0885333
0.08911
0.0896295
0.0900588
0.0904063
0.0907003
0.0909326
0.0911228
0.0912802
0.091422
0.0915203
0.0915835
0.0916098
0.091604
0.0915446
0.0914141
0.0911942
0.0908562
0.0904796
0.0903465
0.0905414
0.0908188
0.0910688
0.0911234
0.0900142
0.085089
0.073521
0.0592246
0.0421999
0.0185307
0.00315793
0.000143312
3.92742e-06
2.2954e-06
9.98893e-07
6.98082e-07
3.15779e-06
2.41667e-06
1.09726e-06
9.3752e-06
4.36249e-07
1.14706e-05
1.07249e-05
9.82255e-07
3.64116e-08
5.88874e-10
4.75053e-05
0.000206276
0.00122415
0.00420944
0.0100879
0.0189426
0.0296888
0.040633
0.0504221
0.0585536
0.0652199
0.070743
0.0751986
0.0786525
0.0812947
0.0833149
0.0848285
0.0859531
0.0867741
0.0873813
0.087892
0.0884473
0.0890224
0.0895478
0.0899855
0.0903463
0.090633
0.0908715
0.0910544
0.0911983
0.0913142
0.0914146
0.0914736
0.0914943
0.0914758
0.0914173
0.0912973
0.0910948
0.0907874
0.0903943
0.0901545
0.0902633
0.0905179
0.0907909
0.0908998
0.090159
0.0865158
0.0768008
0.0629615
0.0478674
0.0258188
0.00622037
0.000472295
1.47121e-06
3.55248e-06
1.28104e-06
5.36869e-07
1.04889e-06
3.04182e-06
1.83511e-06
3.12213e-06
7.16478e-06
1.6949e-06
1.61255e-05
6.7307e-06
4.3643e-07
1.53829e-08
2.32249e-10
4.74781e-05
0.000206376
0.00122393
0.00420991
0.0100897
0.0189441
0.0296896
0.0406293
0.050413
0.0585313
0.0651857
0.0706986
0.0751479
0.0786086
0.0812437
0.0832594
0.0847726
0.0858924
0.0867011
0.0872945
0.0877974
0.0883445
0.088934
0.0894554
0.0899009
0.0902697
0.090572
0.0908047
0.090994
0.0911319
0.091232
0.0913069
0.0913687
0.0913848
0.0913629
0.0912918
0.0911762
0.0909862
0.0906982
0.0903227
0.0900231
0.0900151
0.0902309
0.0904865
0.0906666
0.0902099
0.0874724
0.0794936
0.0663658
0.0523931
0.0328014
0.0106009
0.0012853
3.83772e-05
3.25662e-06
2.32556e-06
5.63828e-07
5.08777e-07
1.15728e-06
2.04574e-06
1.16457e-07
6.61744e-06
3.5818e-06
5.22752e-06
1.6689e-05
3.56364e-06
1.84342e-07
6.02796e-09
8.33151e-11
4.7449e-05
0.000206224
0.0012247
0.0042094
0.0100907
0.0189458
0.0296896
0.0406277
0.0504069
0.0585187
0.0651632
0.070664
0.0751011
0.0785605
0.0812011
0.0832069
0.0847209
0.0858423
0.0866459
0.0872198
0.0877078
0.0882483
0.0888318
0.0893672
0.0898042
0.0901841
0.0904949
0.0907432
0.0909273
0.0910735
0.0911667
0.091226
0.0912604
0.0912828
0.0912545
0.0911819
0.0910551
0.0908724
0.0906004
0.0902342
0.0899242
0.0898331
0.089968
0.0901988
0.0903942
0.0901722
0.0881853
0.0817566
0.0695941
0.0561051
0.0390257
0.0160399
0.00257167
0.000165022
4.90446e-06
2.86161e-06
8.25256e-07
1.40992e-07
5.1083e-07
1.34089e-06
6.96859e-07
2.37255e-06
8.22962e-06
5.93717e-07
1.13574e-05
1.30976e-05
1.6262e-06
7.29514e-08
2.15673e-09
2.68607e-11
4.74214e-05
0.000206102
0.0012237
0.00421155
0.0100894
0.0189467
0.0296908
0.0406257
0.0504027
0.058506
0.0651472
0.0706385
0.0750704
0.0785124
0.0811591
0.0831634
0.0846809
0.0857943
0.0866039
0.0871669
0.0876298
0.0881584
0.0887376
0.0892647
0.089716
0.0900866
0.090409
0.0906665
0.0908681
0.0910086
0.0911107
0.0911614
0.0911799
0.0911725
0.0911537
0.0910777
0.0909486
0.0907563
0.0904986
0.0901339
0.0898118
0.0896968
0.0897591
0.0899306
0.0901213
0.0900321
0.0886268
0.0835465
0.0725711
0.0593232
0.0440969
0.0221549
0.00481503
0.000415831
2.1621e-05
4.04128e-06
1.06937e-06
1.61896e-07
3.96316e-07
7.26021e-07
1.88914e-06
7.6244e-07
5.16905e-06
7.6864e-06
7.45499e-07
1.76027e-05
8.10743e-06
6.48462e-07
2.61941e-08
6.91558e-10
7.71956e-12
4.7393e-05
0.000205983
0.00122298
0.00420842
0.0100942
0.0189448
0.0296893
0.0406229
0.0503944
0.0584975
0.0651277
0.0706197
0.0750477
0.0784787
0.081119
0.0831237
0.0846383
0.0857564
0.0865593
0.0871252
0.0875744
0.0880803
0.0886447
0.0891686
0.089612
0.0899971
0.09031
0.0905792
0.0907907
0.0909505
0.0910472
0.091107
0.0911168
0.0910934
0.0910425
0.090982
0.0908473
0.0906565
0.0903902
0.0900342
0.089683
0.0895539
0.0895925
0.0897087
0.0898575
0.0898406
0.0888254
0.0848053
0.0751718
0.062197
0.0482868
0.0280477
0.00791612
0.000914121
3.95058e-05
6.05885e-06
1.72261e-06
1.46819e-07
3.60692e-07
1.06832e-06
2.56403e-06
2.65016e-06
5.31544e-07
7.59475e-06
4.02766e-06
7.07093e-06
1.77061e-05
4.00818e-06
2.28277e-07
8.4046e-09
1.95158e-10
1.93202e-12
4.73538e-05
0.000205857
0.00122225
0.00420594
0.0100863
0.0189517
0.0296838
0.0406165
0.0503855
0.0584869
0.0651128
0.0705994
0.075026
0.0784565
0.0810827
0.0830899
0.0846005
0.0857158
0.0865186
0.087083
0.0875307
0.0880189
0.088564
0.0890743
0.0895144
0.0898915
0.0902184
0.0904798
0.0907019
0.0908727
0.0909899
0.0910456
0.0910655
0.0910332
0.0909649
0.0908647
0.0907525
0.0905597
0.0902985
0.0899392
0.0895587
0.0893955
0.0894272
0.0895195
0.0896327
0.0896271
0.0888841
0.0856752
0.0773738
0.0648447
0.0517704
0.0335075
0.0119366
0.00163549
9.27934e-05
6.64539e-06
2.63002e-06
3.23568e-07
2.83204e-07
3.52836e-07
1.38562e-06
3.58482e-06
3.29459e-06
1.11941e-06
7.34016e-06
1.72771e-07
1.42082e-05
1.29792e-05
1.62351e-06
7.19698e-08
2.39617e-09
4.71563e-11
4.05154e-13
4.73236e-05
0.000205695
0.00122147
0.00420338
0.0100806
0.0189357
0.0296921
0.0406058
0.0503752
0.0584723
0.0651002
0.0705807
0.0750008
0.0784358
0.0810514
0.0830573
0.0845616
0.0856797
0.0864778
0.0870484
0.0874892
0.0879691
0.0885002
0.0889917
0.0894205
0.0897918
0.0901117
0.0903867
0.090602
0.0907828
0.0909131
0.0909909
0.0910065
0.090984
0.0909057
0.0907909
0.090645
0.0904702
0.0902091
0.089859
0.0894544
0.0892371
0.0892559
0.089335
0.0894324
0.0894393
0.0888718
0.0863108
0.0792475
0.0673938
0.0547451
0.0383924
0.0165119
0.00279642
0.000203775
8.89197e-06
3.7433e-06
4.42488e-07
3.46827e-07
4.91338e-07
2.82875e-07
1.19479e-06
3.5507e-06
2.17879e-06
3.96594e-06
4.79992e-06
2.23439e-06
1.81544e-05
7.02732e-06
5.48794e-07
2.03925e-08
5.90319e-10
9.3639e-12
6.83533e-14
4.72768e-05
0.000205506
0.00122042
0.00420063
0.0100744
0.0189251
0.0296675
0.0406137
0.0503594
0.0584544
0.0650828
0.0705605
0.0749746
0.0784104
0.0810296
0.0830247
0.0845259
0.0856405
0.0864428
0.0870098
0.0874577
0.0879238
0.088448
0.0889278
0.0893367
0.0896956
0.0900105
0.0902776
0.0905088
0.0906819
0.0908241
0.0909152
0.0909542
0.0909276
0.0908595
0.0907331
0.0905683
0.0903692
0.0901253
0.0897803
0.0893665
0.0890855