/*--------------------------------*- C++ -*----------------------------------*\
| =========                 |                                                 |
| \\      /  F ield         | OpenFOAM: The Open Source CFD Toolbox           |
|  \\    /   O peration     | Version:  v2012                                 |
|   \\  /    A nd           | Website:  www.openfoam.com                      |
|    \\/     M anipulation  |                                                 |
\*---------------------------------------------------------------------------*/
FoamFile
{
    version     2.0;
    format      ascii;
    class       volScalarField;
    location    "3900";
    object      nk;
}
// * * * * * * * * * * * * * * * * * * * * * * * * * * * * * * * * * * * * * //

dimensions      [0 0 0 0 0 0 0];


internalField   nonuniform List<scalar> 
29502
(
0.0514801
0.0535653
0.00141567
0.0549437
0.00111704
0.000311847
0.0553474
0.00380072
0.00015433
0.000129377
0.0554605
0.00462619
0.00662952
5.4038e-05
7.6169e-05
0.0555029
0.00487016
0.00854335
0.0112732
3.6523e-05
5.44401e-05
0.0555196
0.00497289
0.00908225
0.0145232
0.0163812
3.45337e-05
4.32206e-05
0.0555218
0.00502147
0.00928913
0.0154047
0.0209914
0.0213544
3.61448e-05
3.62737e-05
0.0555188
0.00503208
0.00937188
0.015719
0.0221923
0.0271305
0.0256592
3.79991e-05
3.13951e-05
0.0555145
0.00503153
0.00937592
0.0158251
0.0225912
0.0285541
0.0322401
0.0289056
3.96038e-05
2.77007e-05
0.0555115
0.00501709
0.00935713
0.0158086
0.022706
0.0289921
0.0337448
0.0359054
0.0309506
4.01522e-05
2.47788e-05
0.0555083
0.00500216
0.00931517
0.0157571
0.0226616
0.0291016
0.0341653
0.0373674
0.038094
0.0318708
3.94181e-05
2.24044e-05
0.0555045
0.00499043
0.00927568
0.0156765
0.0225746
0.0290344
0.034261
0.0377284
0.0394517
0.0390397
0.0318743
3.77545e-05
2.04361e-05
0.0554996
0.0049833
0.00924415
0.0156046
0.0224571
0.0289235
0.0341841
0.0378083
0.0397388
0.0402908
0.0390335
0.0312392
3.51559e-05
1.87779e-05
0.0554912
0.00497242
0.00922403
0.0155472
0.0223562
0.028786
0.0340715
0.0377346
0.0398059
0.0405097
0.0402129
0.0383948
0.0301566
3.2169e-05
1.73611e-05
0.0554883
0.00494995
0.00919669
0.0155091
0.0222759
0.0286728
0.0339386
0.03764
0.0397425
0.040569
0.0403858
0.0395474
0.0373263
0.0287657
2.89519e-05
1.61359e-05
0.0554839
0.00493768
0.00914517
0.0154608
0.0222217
0.0285837
0.033837
0.0375325
0.0396757
0.0405179
0.0404438
0.0396938
0.0385009
0.035971
0.0271665
2.5633e-05
1.50648e-05
0.0554806
0.00492528
0.00911742
0.0153754
0.0221547
0.0285235
0.033759
0.0374608
0.039602
0.0404807
0.0404036
0.039755
0.0386397
0.037216
0.0344305
0.0254348
2.27885e-05
1.41201e-05
0.0554759
0.00491825
0.00908984
0.0153291
0.0220406
0.0284485
0.0337086
0.0374101
0.0395675
0.0404405
0.0403906
0.039724
0.0387086
0.0373654
0.0357891
0.032776
0.0236017
1.92801e-05
1.32798e-05
0.0554722
0.00490594
0.00907398
0.0152838
0.0219795
0.028322
0.0336398
0.0373818
0.0395502
0.0404416
0.040377
0.0397306
0.0386853
0.0374459
0.035967
0.0342837
0.0310593
0.0216906
1.54832e-05
1.25277e-05
0.055472
0.00489097
0.0090473
0.0152575
0.0219204
0.0282573
0.0335225
0.0373315
0.0395495
0.0404558
0.0404066
0.0397372
0.0387073
0.0374299
0.0360627
0.0345085
0.0327389
0.0293094
0.0197138
1.17814e-05
1.18506e-05
0.0554717
0.00488273
0.0090155
0.0152148
0.0218859
0.0281946
0.0334703
0.0372413
0.0395228
0.0404812
0.0404474
0.0397883
0.0387293
0.037464
0.0360547
0.0346232
0.0330309
0.0311788
0.0275371
0.0176777
8.6127e-06
1.1238e-05
0.0554688
0.00487526
0.0089989
0.0151646
0.0218304
0.028159
0.0334188
0.0372136
0.0394668
0.0404778
0.0404951
0.0398486
0.0387956
0.0374972
0.0360991
0.0346251
0.0331686
0.0315588
0.029618
0.0257412
0.0155983
6.07744e-06
1.06825e-05
0.0554654
0.00486546
0.00898395
0.0151394
0.0217664
0.0280994
0.033391
0.0371844
0.039468
0.0404549
0.0405126
0.0399134
0.0388704
0.0375743
0.0361403
0.0346786
0.0331836
0.0317247
0.0301052
0.0280639
0.0239198
0.0135082
4.30926e-06
1.01773e-05
0.05546
0.00485849
0.0089637
0.0151169
0.0217357
0.028032
0.0333386
0.0371717
0.0394657
0.0404828
0.0405171
0.0399463
0.0389478
0.037659
0.0362245
0.034726
0.033246
0.0317574
0.0303068
0.0286757
0.026517
0.0220706
0.0114623
3.13772e-06
9.7171e-06
0.0554536
0.00485184
0.00895049
0.0150856
0.0217081
0.0280022
0.0332812
0.0371351
0.0394707
0.0405053
0.0405681
0.0399716
0.0389924
0.0377456
0.0363159
0.0348146
0.0332986
0.031829
0.0303618
0.0289232
0.0272713
0.0249731
0.0201894
0.00950901
2.45197e-06
9.29862e-06
0.055449
0.00484216
0.00893756
0.0150659
0.0216686
0.0279751
0.0332606
0.0370975
0.0394535
0.040527
0.0406124
0.0400396
0.0390331
0.0377989
0.0364093
0.0349108
0.0333904
0.0318865
0.0304441
0.0290052
0.0275764
0.0258894
0.023424
0.0182711
0.00762945
2.03202e-06
8.91908e-06
0.0554474
0.00483152
0.00891847
0.0150471
0.0216454
0.027934
0.0332401
0.0370926
0.0394399
0.0405287
0.0406482
0.0400995
0.0391129
0.0378502
0.0364687
0.0350088
0.0334896
0.0319807
0.0305073
0.0291005
0.0276905
0.0262651
0.0245249
0.0218588
0.0163095
0.00585356
1.78147e-06
8.58079e-06
0.0554485
0.00482319
0.00889723
0.0150185
0.0216231
0.0279119
0.0332056
0.0370844
0.0394526
0.0405373
0.0406658
0.0401463
0.0391845
0.0379384
0.036527
0.0350725
0.0335907
0.0320822
0.0306039
0.0291709
0.0278023
0.0264172
0.0249853
0.02317
0.0202651
0.0143026
0.00422796
1.62838e-06
8.2918e-06
0.0554539
0.00481858
0.0088813
0.0149865
0.0215883
0.0278909
0.0331897
0.0370624
0.0394583
0.0405657
0.0406927
0.0401756
0.0392395
0.0380185
0.0366205
0.0351354
0.0336575
0.0321855
0.0307072
0.0292703
0.027882
0.0265498
0.0251826
0.0237311
0.0218153
0.0186299
0.0122577
0.00281357
1.53272e-06
7.97191e-06
0.0554554
0.00481717
0.00887375
0.0149634
0.0215484
0.0278547
0.0331746
0.0370574
0.0394512
0.0405851
0.0407346
0.040216
0.0392783
0.0380795
0.0367065
0.0352319
0.0337233
0.0322545
0.0308122
0.0293755
0.0279852
0.0266412
0.0253395
0.0239819
0.0224952
0.02045
0.0169418
0.0102073
0.00167594
1.45787e-06
7.62513e-06
0.0554555
0.00481293
0.00887303
0.014954
0.0215208
0.0278136
0.0331443
0.0370519
0.0394585
0.0405923
0.0407656
0.0402677
0.0393284
0.0381248
0.0367719
0.0353214
0.0338212
0.032322
0.0308832
0.0294823
0.0280928
0.0267497
0.025445
0.0241665
0.0228092
0.021269
0.0190615
0.0151937
0.00822639
0.000863725
1.39418e-06
7.33203e-06
0.0554535
0.00480796
0.00886595
0.0149556
0.0215121
0.0277869
0.0331092
0.0370326
0.0394637
0.0406113
0.0407854
0.0403072
0.039387
0.0381818
0.0368216
0.0353899
0.0339127
0.0324204
0.0309518
0.0295553
0.0282019
0.0268606
0.0255603
0.0242887
0.0230257
0.0216582
0.020043
0.0176367
0.0133887
0.00642029
0.000377013
1.34249e-06
7.1107e-06
0.0554508
0.00480097
0.00885739
0.0149467
0.0215175
0.027782
0.0330901
0.0370092
0.0394569
0.0406259
0.0408139
0.0403359
0.0394329
0.0382453
0.0368829
0.0354427
0.0339831
0.032513
0.0310499
0.0296249
0.0282769
0.0269723
0.0256756
0.0244129
0.0231679
0.0219121
0.0205213
0.0188062
0.0161614
0.0115395
0.00476973
0.00014229
1.28378e-06
6.94561e-06
0.0554467
0.00479396
0.00884462
0.0149356
0.0215087
0.0277927
0.033092
0.037001
0.0394468
0.0406307
0.0408366
0.0403711
0.039468
0.0382959
0.0369497
0.0355067
0.0340381
0.0325846
0.0311429
0.0297221
0.0283478
0.0270498
0.0257906
0.0245339
0.0233033
0.022078
0.0208204
0.0193898
0.0175466
0.0146231
0.0096663
0.00329521
4.93931e-05
1.23722e-06
6.82006e-06
0.0554428
0.00478559
0.00883173
0.0149179
0.021497
0.0277862
0.0331081
0.037011
0.0394509
0.0406325
0.0408513
0.0403999
0.0395078
0.0383355
0.0370037
0.0355753
0.0341037
0.0326409
0.0312154
0.029815
0.0284439
0.0271226
0.0258712
0.0246531
0.0234315
0.0222273
0.0210142
0.0197455
0.0182544
0.0162511
0.0130138
0.00780775
0.00205802
1.66967e-05
1.20156e-06
6.74707e-06
0.0554392
0.00477813
0.00881616
0.0148998
0.0214767
0.0277756
0.0331057
0.0370325
0.0394691
0.0406475
0.0408637
0.0404222
0.0395414
0.0383786
0.0370464
0.0356314
0.0341731
0.0327073
0.0312727
0.0298885
0.0285367
0.0272178
0.025946
0.0247375
0.023556
0.0223646
0.0211804
0.0199719
0.0186806
0.0171045
0.0149058
0.0113365
0.00604278
0.00112768
5.70978e-06
1.17628e-06
6.72308e-06
0.0554368
0.00477079
0.00880206
0.0148772
0.021456
0.0277561
0.033099
0.0370353
0.0394955
0.0406724
0.0408874
0.0404421
0.0395689
0.0384151
0.0370917
0.0356762
0.0342304
0.0327769
0.0313391
0.0299467
0.0286109
0.0273104
0.0260409
0.0248149
0.0236451
0.0224956
0.0213291
0.0201585
0.018946
0.0176167
0.0159285
0.0134979
0.00961034
0.0044739
0.000531694
2.09516e-06
1.15837e-06
6.72743e-06
0.0554355
0.00476432
0.00878849
0.0148573
0.021429
0.0277367
0.0330832
0.0370339
0.0395028
0.0407026
0.040917
0.0404717
0.0395933
0.0384462
0.0371303
0.0357231
0.0342767
0.0328351
0.0314086
0.0300127
0.0286701
0.0273854
0.0261336
0.0249099
0.0237259
0.0225906
0.0214683
0.0203209
0.019157
0.0179315
0.0165437
0.0147135
0.0120182
0.00787361
0.00309375
0.000222517
9.24773e-07
1.14353e-06
6.71151e-06
0.0554351
0.00476022
0.00877709
0.0148383
0.0214058
0.0277098
0.0330686
0.0370236
0.0395065
0.0407141
0.04095
0.0405044
0.0396275
0.0384743
0.0371636
0.0357628
0.0343243
0.0328822
0.0314674
0.0300817
0.0287357
0.0274457
0.0262096
0.0250031
0.0238216
0.0226756
0.0215702
0.0204699
0.0193358
0.0181712
0.016921
0.0154507
0.013446
0.010466
0.00618193
0.00193076
8.81156e-05
5.54373e-07
1.12159e-06
6.72903e-06
0.0554366
0.0047581
0.00876972
0.0148224
0.0213837
0.027687
0.0330461
0.0370156
0.0395023
0.0407226
0.0409653
0.0405397
0.0396625
0.0385115
0.0371943
0.0357974
0.0343649
0.0329301
0.0315151
0.0301408
0.0288041
0.0275112
0.0262708
0.0250803
0.0239157
0.0227727
0.0216605
0.0205803
0.0194967
0.0183695
0.0171964
0.0159049
0.0143256
0.0121135
0.00885585
0.00462719
0.00105155
3.45544e-05
4.38869e-07
1.1035e-06
6.69861e-06
0.0554382
0.0047576
0.00876745
0.0148129
0.0213663
0.0276655
0.0330281
0.0370006
0.0395015
0.0407238
0.0409777
0.0405577
0.0396996
0.038548
0.0372334
0.0358299
0.0344004
0.0329711
0.0315631
0.030189
0.0288635
0.027579
0.0263361
0.0251425
0.0239944
0.0228681
0.0217599
0.0206771
0.0196171
0.0185447
0.0174178
0.0162269
0.0148725
0.0131555
0.0107077
0.00722407
0.00326798
0.00049227
1.35264e-05
4.02995e-07
1.07777e-06
6.67461e-06
0.0554401
0.00475912
0.00876865
0.0148114
0.0213564
0.0276492
0.0330113
0.0369899
0.0394944
0.0407283
0.0409829
0.0405717
0.0397196
0.0385856
0.0372707
0.0358699
0.0344337
0.0330072
0.0316044
0.0302371
0.0289121
0.0276386
0.0264035
0.0252078
0.024058
0.0229488
0.0218573
0.0207797
0.0197219
0.018677
0.0176097
0.0164761
0.0152538
0.0138122
0.0119273
0.00923055
0.00563867
0.00210676
0.000206001
5.22183e-06
3.87571e-07
1.05481e-06
6.69668e-06
0.0554411
0.00476038
0.00877416
0.0148162
0.0213575
0.0276426
0.0330007
0.0369805
0.0394915
0.0407284
0.0409919
0.0405797
0.0397355
0.0386075
0.037309
0.0359076
0.0344738
0.0330408
0.0316407
0.0302785
0.0289601
0.0276876
0.0264633
0.0252751
0.0241236
0.0230141
0.0219404
0.0208799
0.0198289
0.0187913
0.017756
0.0166877
0.0155392
0.0142664
0.0127117
0.0106298
0.00770128
0.0041879
0.00119083
8.28825e-05
2.00672e-06
3.77187e-07
1.04574e-06
6.75073e-06
0.0554418
0.00476043
0.00877862
0.0148271
0.0213667
0.0276479
0.0329997
0.0369781
0.0394898
0.0407324
0.0409977
0.0405923
0.0397453
0.0386248
0.037332
0.0359468
0.0345119
0.0330808
0.0316741
0.0303151
0.0290018
0.0277357
0.0265129
0.0253352
0.0241909
0.0230803
0.0220078
0.0209659
0.0199326
0.0189038
0.0178815
0.0168502
0.0157743
0.0145986
0.0132537
0.0115579
0.00925891
0.00616382
0.00292149
0.000575216
3.34648e-05
8.18053e-07
3.70581e-07
1.04576e-06
6.81289e-06
0.0554419
0.00475919
0.00878069
0.0148366
0.0213842
0.0276616
0.0330099
0.0369846
0.0394962
0.0407373
0.0410082
0.0406026
0.03976
0.0386358
0.0373502
0.0359702
0.0345514
0.0331187
0.0317138
0.0303483
0.0290386
0.0277775
0.026561
0.0253853
0.0242515
0.023148
0.0220751
0.0210361
0.0200222
0.0190121
0.018001
0.0169889
0.0159556
0.0148644
0.0136442
0.0122034
0.0103394
0.00782462
0.00470354
0.00184704
0.0002462
1.36011e-05
3.98253e-07
3.67063e-07
1.04758e-06
6.86522e-06
0.0554417
0.00475688
0.00877987
0.0148423
0.0213992
0.0276845
0.0330275
0.0369997
0.0395102
0.0407514
0.0410184
0.0406171
0.0397731
0.0386522
0.0373619
0.0359889
0.0345753
0.0331585
0.0317515
0.0303875
0.0290718
0.0278145
0.0266029
0.0254335
0.0243022
0.0232092
0.0221434
0.0211049
0.0200957
0.019106
0.018115
0.0171171
0.0161096
0.0150681
0.0139495
0.0126649
0.0111033
0.00904992
0.00636127
0.00340686
0.0010127
0.00010011
5.40831e-06
2.54428e-07
3.65037e-07
1.04888e-06
6.90853e-06
0.0554404
0.00475348
0.0087767
0.0148433
0.0214091
0.0277048
0.0330542
0.0370202
0.0395296
0.0407713
0.0410371
0.0406304
0.0397901
0.0386671
0.0373791
0.0360014
0.0345946
0.033183
0.0317912
0.0304248
0.0291103
0.0278475
0.02664
0.0254755
0.0243507
0.0232608
0.0222056
0.0211743
0.0201667
0.0191837
0.0182142
0.017238
0.0162482
0.0152396
0.0141821
0.0130198
0.0116494
0.00994202
0.00769613
0.00493954
0.00227711
0.000472356
4.04324e-05
2.08718e-06
2.06978e-07
3.64189e-07
1.04959e-06
6.9466e-06
0.0554382
0.00474728
0.00877077
0.0148399
0.0214127
0.027718
0.0330769
0.0370483
0.0395517
0.0407942
0.0410614
0.0406534
0.0398058
0.0386855
0.037395
0.0360188
0.0346074
0.033203
0.0318166
0.0304644
0.0291472
0.0278853
0.0266729
0.0255128
0.0243929
0.0233096
0.0222582
0.0212377
0.0202376
0.0192575
0.0182967
0.0173433
0.0163775
0.0153908
0.0143751
0.013289
0.0120646
0.0105858
0.00871343
0.00629959
0.00364053
0.00134563
0.000196998
1.64522e-05
8.15371e-07
1.91762e-07
3.63856e-07
1.04973e-06
6.98889e-06
0.0554357
0.00474027
0.00875863
0.0148322
0.0214103
0.0277243
0.0330923
0.0370707
0.0395794
0.040817
0.0410871
0.0406808
0.039831
0.0387024
0.0374141
0.036035
0.034625
0.033216
0.031837
0.0304907
0.0291869
0.0279218
0.0267102
0.0255457
0.0244304
0.0233523
0.0223076
0.0212916
0.0203025
0.0193303
0.018374
0.0174317
0.0164902
0.0155301
0.0145411
0.0135099
0.0123792
0.011073
0.00946334
0.00741628
0.00492417
0.00250162
0.00067345
8.05543e-05
6.56724e-06
3.51521e-07
1.86922e-07
3.63383e-07
1.04949e-06
7.04e-06
0.0554323
0.00473245
0.00874448
0.0148144
0.0214019
0.0277234
0.0330995
0.0370854
0.0395997
0.0408432
0.0411103
0.040708
0.0398605
0.0387292
0.0374315
0.0360544
0.0346412
0.0332335
0.0318505
0.0305117
0.029214
0.0279616
0.0267463
0.0255825
0.0244634
0.0233901
0.0223509
0.0213419
0.020358
0.0193972
0.0184494
0.0175134
0.0165854
0.0156515
0.0146923
0.0136951
0.0126354
0.0114421
0.0100333
0.0082715
0.00607255
0.00365646
0.001537
0.00028832
3.31772e-05
2.50937e-06
1.90924e-07
1.85445e-07
3.62806e-07
1.05199e-06
7.17197e-06
0.0554295
0.00472369
0.00872883
0.014793
0.0213802
0.027715
0.0330996
0.0370923
0.0396126
0.0408619
0.0411353
0.0407307
0.0398884
0.0387597
0.0374593
0.0360718
0.0346604
0.0332496
0.0318675
0.0305254
0.0292355
0.0279894
0.0267859
0.0256184
0.0245
0.0234235
0.0223893
0.021386
0.0204096
0.0194547
0.0185187
0.0175919
0.0166724
0.0157546
0.0148237
0.0138603
0.0128455
0.0117416
0.0104664
0.00893257
0.00701327
0.00474988
0.00253937
0.000801986
0.000116496
1.35348e-05
9.35611e-07
1.38266e-07
1.85096e-07
3.63083e-07
1.0639e-06
7.25677e-06
0.055427
0.00471658
0.00871094
0.0147693
0.0213533
0.0276919
0.0330921
0.0370931
0.0396176
0.040872
0.0411523
0.0407546
0.0399116
0.0387884
0.0374907
0.0361
0.0346778
0.0332682
0.0318834
0.0305423
0.0292496
0.0280113
0.0268143
0.0256579
0.0245356
0.0234599
0.0224232
0.0214252
0.0204547
0.0195078
0.0185787
0.0176641
0.0167548
0.0158479
0.0149359
0.0140033
0.013029
0.0119832
0.0108179
0.0094402
0.00776446
0.00571563
0.00352826
0.00158072
0.000351516
4.78656e-05
5.32093e-06
3.64164e-07
1.21897e-07
1.85592e-07
3.6694e-07
1.06265e-06
7.26784e-06
0.055425
0.00471035
0.00869659
0.0147419
0.0213235
0.0276628
0.0330703
0.0370874
0.0396188
0.0408751
0.0411602
0.0407696
0.0399343
0.0388115
0.0375197
0.0361314
0.0347057
0.0332854
0.0319017
0.0305577
0.0292663
0.0280256
0.0268367
0.0256868
0.024575
0.0234954
0.0224596
0.0214597
0.020495
0.0195543
0.0186337
0.0177271
0.0168306
0.015935
0.0150367
0.0141261
0.0131865
0.0121903
0.0110985
0.00985293
0.00835348
0.00653631
0.00444485
0.00244778
0.000835788
0.000141115
1.95929e-05
1.98964e-06
1.69232e-07
1.17347e-07
1.87089e-07
3.66917e-07
1.06244e-06
7.27987e-06
0.0554231
0.0047046
0.00868416
0.0147199
0.0212889
0.027631
0.033043
0.0370689
0.0396149
0.040876
0.0411612
0.0407763
0.0399477
0.0388335
0.0375429
0.0361605
0.0347371
0.0333127
0.0319183
0.0305756
0.0292815
0.0280422
0.0268514
0.0257096
0.0246044
0.0235346
0.0224951
0.0214963
0.0205304
0.0195959
0.0186819
0.0177844
0.0168971
0.016015
0.0151294
0.0142354
0.0133216
0.0123662
0.0113353
0.0101806
0.0088353
0.00720193
0.00527657
0.00327921
0.0015168
0.000367415
5.73731e-05
7.70921e-06
7.23954e-07
1.07092e-07
1.16856e-07
1.87069e-07
3.66276e-07
1.0668e-06
7.28849e-06
0.0554218
0.00470003
0.00867276
0.014701
0.0212612
0.0275942
0.0330137
0.0370462
0.0396003
0.040873
0.0411616
0.0407756
0.0399532
0.0388463
0.0375643
0.036184
0.034766
0.0333439
0.0319449
0.0305918
0.0292988
0.0280571
0.0268678
0.0257247
0.0246277
0.0235646
0.0225342
0.021532
0.0205675
0.0196326
0.0187252
0.0178348
0.0169572
0.0160856
0.0152143
0.0143347
0.0134407
0.012517
0.0115343
0.0104539
0.00921803
0.00775597
0.00599537
0.00405786
0.00224535
0.000793993
0.000145415
2.34982e-05
2.87932e-06
2.74518e-07
8.89104e-08
1.1678e-07
1.86484e-07
3.665e-07
1.07359e-06
7.29634e-06
0.0554211
0.00469641
0.00866346
0.0146843
0.0212383
0.0275652
0.0329803
0.0370228
0.0395829
0.0408618
0.0411596
0.0407758
0.0399513
0.0388508
0.0375767
0.0362056
0.0347897
0.0333729
0.0319757
0.0306175
0.0293146
0.0280739
0.0268826
0.0257411
0.0246433
0.0235885
0.0225648
0.0215712
0.0206034
0.0196703
0.0187634
0.0178801
0.0170102
0.0161492
0.0152897
0.0144255
0.0135478
0.0126487
0.0117049
0.0106816
0.00953521
0.00819998
0.00661397
0.00477431
0.0029545
0.00135793
0.000342835
5.84797e-05
9.2348e-06
1.02728e-06
1.25781e-07
8.39098e-08
1.16506e-07
1.86234e-07
3.67005e-07
1.08119e-06
7.30397e-06
0.0554208
0.00469387
0.00865643
0.0146702
0.0212177
0.0275408
0.0329556
0.0369966
0.0395664
0.0408491
0.0411509
0.0407746
0.039951
0.0388481
0.0375811
0.0362179
0.0348116
0.0333965
0.0320049
0.0306477
0.0293395
0.0280893
0.0268989
0.0257557
0.0246598
0.0236047
0.0225894
0.0216024
0.0206429
0.0197067
0.0188021
0.0179201
0.0170578
0.0162052
0.0153573
0.0145065
0.0136454
0.0127654
0.011853
0.0108765
0.00979782
0.00856791
0.00711995
0.00542627
0.00361482
0.0019744
0.000684019
0.000133215
2.37612e-05
3.41908e-06
3.64829e-07
8.01172e-08
8.24292e-08
1.16352e-07
1.86208e-07
3.68084e-07
1.09419e-06
7.31151e-06
0.0554212
0.00469234
0.00865167
0.0146596
0.0212001
0.0275204
0.0329346
0.0369794
0.0395489
0.0408391
0.0411423
0.0407678
0.0399503
0.0388475
0.0375784
0.0362224
0.0348244
0.0334186
0.0320285
0.0306768
0.0293688
0.0281134
0.0269139
0.0257717
0.0246743
0.0236213
0.0226064
0.0216278
0.0206748
0.0197465
0.0188392
0.0179602
0.0171002
0.0162557
0.015417
0.0145788
0.0137328
0.0128714
0.0119822
0.0110451
0.0100221
0.00887197
0.00754252
0.00598301
0.00424998
0.00257845
0.00114373
0.00028384
5.28594e-05
9.25157e-06
1.19833e-06
1.44332e-07
6.69834e-08
8.19421e-08
1.16349e-07
1.86791e-07
3.69399e-07
1.11439e-06
7.31939e-06
0.0554219
0.00469182
0.00864939
0.014653
0.0211878
0.0275027
0.0329177
0.0369655
0.0395405
0.0408302
0.0411381
0.0407618
0.0399448
0.038847
0.037577
0.0362197
0.034829
0.0334319
0.0320509
0.0307008
0.0293977
0.0281419
0.0269372
0.0257863
0.0246901
0.023636
0.0226233
0.0216456
0.020701
0.0197793
0.0188794
0.0179982
0.0171418
0.0163007
0.015471
0.0146427
0.0138105
0.012966
0.0120987
0.0111903
0.0102157
0.00913145
0.00789356
0.00645649
0.0048168
0.00316057
0.00165963
0.00054179
0.00010806
2.117e-05
3.37477e-06
4.09942e-07
7.62224e-08
6.34268e-08
8.18105e-08
1.16617e-07
1.87529e-07
3.75822e-07
1.11243e-06
7.32759e-06
0.0554228
0.00469229
0.00864857
0.0146501
0.0211803
0.0274907
0.0329043
0.036956
0.0395348
0.0408303
0.0411356
0.0407613
0.0399411
0.0388427
0.0375766
0.0362183
0.0348263
0.0334373
0.0320649
0.0307239
0.029422
0.0281704
0.0269649
0.0258089
0.0247043
0.0236515
0.0226381
0.021663
0.0207199
0.0198065
0.0189132
0.0180391
0.0171811
0.0163444
0.0155191
0.0147007
0.0138794
0.01305
0.0122024
0.0113199
0.0103808
0.00935496
0.00819384
0.00685593
0.00532285
0.00369122
0.00218386
0.000901566
0.000213415
4.24648e-05
8.05479e-06
1.15949e-06
1.50455e-07
5.67278e-08
6.25039e-08
8.19757e-08
1.16918e-07
1.90394e-07
3.75547e-07
1.11412e-06
7.33601e-06
0.0554239
0.0046936
0.00865069
0.0146498
0.0211778
0.0274848
0.0328963
0.0369495
0.0395339
0.0408313
0.0411418
0.0407636
0.039943
0.0388396
0.0375734
0.0362178
0.0348251
0.0334351
0.0320711
0.0307386
0.0294457
0.0281949
0.0269931
0.0258358
0.0247262
0.0236656
0.0226535
0.0216781
0.0207378
0.0198264
0.0189416
0.018074
0.0172229
0.0163852
0.0155651
0.0147524
0.013942
0.0131247
0.0122942
0.0114353
0.0105268
0.00954437
0.00845245
0.00720026
0.00576332
0.00419161
0.00267405
0.00132874
0.000393951
8.02711e-05
1.66369e-05
2.85379e-06
3.86433e-07
7.13541e-08
5.15378e-08
6.23816e-08
8.21301e-08
1.18299e-07
1.9042e-07
3.76975e-07
1.11578e-06
7.34471e-06
0.0554249
0.00469531
0.00865424
0.0146539
0.0211784
0.0274846
0.0328934
0.0369477
0.0395354
0.0408376
0.0411485
0.0407737
0.0399481
0.0388431
0.0375705
0.0362149
0.0348247
0.0334341
0.0320697
0.0307457
0.0294614
0.028219
0.0270176
0.0258636
0.0247524
0.0236868
0.0226675
0.0216936
0.0207534
0.0198452
0.0189628
0.0181037
0.0172591
0.0164282
0.0156079
0.0148013
0.0139978
0.0131926
0.0123755
0.0115369
0.0106567
0.00971075
0.00867094
0.00749813
0.00614864
0.00464166
0.00313524
0.0017613
0.00066322
0.000147549
3.13983e-05
6.1116e-06
9.50492e-07
1.36929e-07
4.9077e-08
5.03379e-08
6.23936e-08
8.30057e-08
1.18599e-07
1.90731e-07
3.80397e-07
1.11697e-06
7.35379e-06
0.0554261
0.00469708
0.00865854
0.0146604
0.0211852
0.0274874
0.0328973
0.0369501
0.0395403
0.0408469
0.0411609
0.0407842
0.0399615
0.0388499
0.0375744
0.0362122
0.0348217
0.0334338
0.032069
0.0307452
0.0294696
0.0282356
0.027042
0.0258881
0.0247797
0.0237122
0.0226881
0.0217076
0.0207691
0.0198614
0.0189826
0.0181264
0.0172903
0.0164658
0.0156523
0.0148464
0.0140503
0.0132531
0.0124494
0.0116267
0.0107707
0.00985841
0.00886197
0.00775016
0.00648634
0.00505262
0.00355777
0.00218286
0.000985024
0.000264785
5.56727e-05
1.19225e-05
2.08543e-06
3.07994e-07
6.25942e-08
4.33475e-08
5.00974e-08
6.29227e-08
8.33002e-08
1.19076e-07
1.91632e-07
3.8362e-07
1.11801e-06
7.36284e-06
0.0554273
0.00469807
0.00866287
0.0146682
0.0211954
0.0274963
0.0329038
0.0369583
0.0395485
0.0408584
0.0411759
0.0408008
0.0399744
0.0388645
0.0375821
0.036216
0.034819
0.0334306
0.032069
0.030745
0.0294701
0.0282449
0.0270594
0.0259128
0.0248043
0.0237392
0.0227129
0.0217277
0.0207832
0.0198775
0.0189996
0.0181473
0.0173146
0.0164988
0.0156917
0.0148926
0.0140985
0.0133096
0.0125152
0.0117081
0.0108712
0.00998753
0.00903108
0.0079702
0.00677416
0.00542314
0.00396362
0.00257651
0.00133926
0.000438486
9.5689e-05
2.15322e-05
4.19783e-06
6.70452e-07
1.08044e-07
4.22242e-08
4.20168e-08
5.03904e-08
6.31298e-08
8.36371e-08
1.19722e-07
1.93333e-07
3.83499e-07
1.11902e-06
7.37193e-06
0.0554284
0.0046998
0.00866601
0.0146755
0.0212066
0.0275095
0.0329154
0.0369685
0.0395614
0.0408711
0.0411928
0.0408201
0.0399933
0.0388794
0.0375969
0.0362241
0.0348226
0.0334278
0.032066
0.0307453
0.0294709
0.0282464
0.0270698
0.0259309
0.0248292
0.0237638
0.0227395
0.0217518
0.0208029
0.0198919
0.0190162
0.0181653
0.0173369
0.0165249
0.0157265
0.014934
0.0141471
0.0133615
0.0125764
0.0117806
0.0109624
0.0101013
0.00917852
0.00816469
0.00702626
0.00574329
0.00433993
0.00295186
0.00169084
0.000669042
0.000161585
3.62281e-05
7.83808e-06
1.37219e-06
2.1292e-07
5.07751e-08
3.71263e-08
4.19732e-08
5.05463e-08
6.33912e-08
8.39946e-08
1.20683e-07
1.93711e-07
3.83624e-07
1.12012e-06
7.38092e-06
0.055429
0.00470137
0.0086696
0.0146814
0.0212169
0.027524
0.0329306
0.0369828
0.0395747
0.0408872
0.0412094
0.0408405
0.0400155
0.0389002
0.0376129
0.0362388
0.0348302
0.0334308
0.0320629
0.0307425
0.0294714
0.0282478
0.0270722
0.0259423
0.0248479
0.0237888
0.0227641
0.0217781
0.0208266
0.0199114
0.0190311
0.0181827
0.0173561
0.0165489
0.0157548
0.0149711
0.0141909
0.0134128
0.0126322
0.0118473
0.0110436
0.0102045
0.00930851
0.00833407
0.00724951
0.0060266
0.00467557
0.00330322
0.00203542
0.00093304
0.00026282
5.86355e-05
1.35468e-05
2.6252e-06
4.25411e-07
7.67915e-08
3.57349e-08
3.61348e-08
4.20789e-08
5.07205e-08
6.36213e-08
8.47242e-08
1.21109e-07
1.94889e-07
3.83756e-07
1.12129e-06
7.39011e-06
0.0554301
0.00470151
0.00867297
0.0146875
0.0212256
0.0275369
0.0329466
0.0369994
0.0395911
0.0409038
0.0412284
0.0408598
0.0400387
0.0389237
0.0376351
0.0362547
0.0348447
0.0334377
0.0320651
0.0307391
0.0294686
0.0282486
0.0270743
0.0259457
0.0248603
0.0238082
0.0227893
0.0218027
0.0208525
0.0199346
0.0190505
0.0181982
0.0173745
0.0165695
0.0157806
0.0150016
0.0142304
0.0134594
0.0126866
0.0119076
0.0111173
0.0102964
0.0094262
0.00848351
0.00744426
0.00627967
0.00498149
0.00362798
0.00236356
0.00122201
0.000402758
9.21249e-05
2.204e-05
4.66797e-06
8.17987e-07
1.34339e-07
3.96051e-08
3.22558e-08
3.60399e-08
4.22135e-08
5.08756e-08
6.4179e-08
8.53135e-08
1.2177e-07
1.95114e-07
3.83929e-07
1.12256e-06
7.39911e-06
0.0554288
0.00470472
0.00867427
0.0146932
0.021234
0.0275483
0.0329616
0.0370164
0.0396084
0.0409225
0.0412473
0.0408807
0.0400598
0.0389483
0.037659
0.0362774
0.0348603
0.0334515
0.0320711
0.0307405
0.029465
0.028246
0.0270754
0.0259485
0.0248648
0.0238215
0.0228092
0.021828
0.0208771
0.0199602
0.0190733
0.0182177
0.0173908
0.016589
0.0158029
0.0150296
0.0142635
0.0135017
0.0127365
0.0119659
0.0111835
0.0103794
0.00953111
0.00861861
0.00761643
0.0065016
0.00526026
0.00393436
0.00266606
0.00151339
0.000585485
0.000142989
3.39023e-05
7.80237e-06
1.47868e-06
2.45435e-07
5.22997e-08
3.04058e-08
3.16035e-08
3.61218e-08
4.23072e-08
5.122e-08
6.46541e-08
8.60377e-08
1.22094e-07
1.94893e-07
3.84189e-07
1.12389e-06
7.40739e-06
0.0554288
0.00470173
0.00868148
0.0146963
0.0212421
0.0275591
0.0329747
0.0370319
0.0396256
0.0409401
0.0412674
0.0409012
0.0400819
0.0389708
0.0376839
0.0363017
0.0348828
0.0334666
0.0320838
0.0307455
0.0294657
0.0282422
0.027073
0.0259499
0.0248682
0.023827
0.0228234
0.0218485
0.0209025
0.0199848
0.0190987
0.0182403
0.0174105
0.0166064
0.0158239
0.0150539
0.014294
0.0135378
0.012782
0.0120194
0.0112466
0.0104532
0.00962546
0.00873912
0.00777202
0.00669874
0.00550669
0.004219
0.00295167
0.00179069
0.000796366
0.000218371
5.06522e-05
1.22863e-05
2.52311e-06
4.38901e-07
7.97307e-08
3.12304e-08
2.84094e-08
3.15689e-08
3.61782e-08
4.252e-08
5.1594e-08
6.52202e-08
8.63511e-08
1.22299e-07
1.94769e-07
3.84536e-07
1.12534e-06
7.41586e-06
0.0554287
0.00470193
0.00867487
0.0147077
0.0212471
0.0275684
0.0329865
0.0370455
0.0396411
0.0409566
0.0412852
0.0409222
0.0401035
0.0389942
0.0377073
0.0363267
0.034907
0.0334885
0.0320979
0.0307569
0.0294697
0.0282422
0.0270693
0.0259479
0.0248701
0.0238313
0.0228301
0.0218636
0.0209236
0.0200103
0.0191233
0.0182655
0.0174331
0.0166266
0.0158425
0.0150765
0.0143205
0.0135709
0.0128213
0.0120685
0.0113048
0.0105226
0.00970893
0.00884716
0.00791092
0.0068772
0.00572767
0.00447723
0.00321882
0.0020564
0.00102022
0.00032151
7.43606e-05
1.85074e-05
4.07496e-06
7.53637e-07
1.30262e-07
3.60384e-08
2.63707e-08
2.80928e-08
3.1613e-08
3.63391e-08
4.27508e-08
5.19922e-08
6.56483e-08
8.66971e-08
1.2219e-07
1.94777e-07
3.84944e-07
1.12682e-06
7.42373e-06
0.0554286
0.00470207
0.00867538
0.0146971
0.0212633
0.0275745
0.0329962
0.0370569
0.0396543
0.040971
0.0413021
0.04094
0.0401252
0.039016
0.0377315
0.0363503
0.0349317
0.0335119
0.0321189
0.0307699
0.0294798
0.0282454
0.0270687
0.0259442
0.0248685
0.0238337
0.0228352
0.0218714
0.0209395
0.0200319
0.019149
0.0182901
0.0174582
0.0166493
0.0158634
0.0150967
0.0143451
0.0136
0.0128575
0.0121114
0.0113583
0.0105866
0.00978641
0.00894237
0.00803519
0.007037
0.00592928
0.00471464
0.00346847
0.00230804
0.00125064
0.000449474
0.000108648
2.67833e-05
6.29266e-06
1.23615e-06
2.15606e-07
4.69379e-08
2.56263e-08
2.54279e-08
2.81026e-08
3.17586e-08
3.65231e-08
4.30429e-08
5.23973e-08
6.61065e-08
8.67904e-08
1.21859e-07
1.94914e-07
3.85408e-07
1.12843e-06
7.43147e-06
0.0554284
0.00470201
0.00867565
0.0146981
0.021248
0.027595
0.0330024
0.0370665
0.0396649
0.0409842
0.0413159
0.0409569
0.040143
0.0390377
0.037754
0.0363747
0.0349552
0.0335361
0.0321416
0.0307896
0.0294914
0.0282543
0.027071
0.0259432
0.0248648
0.0238326
0.0228382
0.0218774
0.0209484
0.0200487
0.019171
0.0183159
0.0174829
0.0166744
0.0158865
0.015119
0.0143671
0.0136269
0.0128895
0.0121511
0.0114054
0.0106456
0.00985771
0.00903005
0.0081446
0.00718006
0.00611113
0.00493526
0.00370526
0.0025424
0.00147767
0.000601772
0.000156274
3.78354e-05
9.30238e-06
1.94431e-06
3.50572e-07
6.70177e-08
2.65655e-08
2.34395e-08
2.53176e-08
2.82284e-08
3.19297e-08
3.67509e-08
4.33778e-08
5.28307e-08
6.64253e-08
8.66203e-08
1.21703e-07
1.95129e-07
3.85938e-07
1.13012e-06
7.4389e-06
0.0554275
0.00470112
0.00867543
0.0146985
0.0212496
0.0275761
0.0330257
0.0370729
0.0396738
0.0409943
0.0413279
0.0409703
0.04016
0.0390556
0.0377758
0.0363973
0.0349796
0.0335594
0.0321651
0.0308115
0.02951
0.0282648
0.0270788
0.0259447
0.0248636
0.0238291
0.0228376
0.0218811
0.0209554
0.0200588
0.0191887
0.0183385
0.0175089
0.0166992
0.0159117
0.0151427
0.0143909
0.013651
0.0129189
0.0121863
0.011449
0.0106982
0.00992362
0.00911048
0.00824468
0.0073061
0.00627441
0.00513683
0.00392947
0.00276375
0.00169429
0.000769402
0.000219884
5.24606e-05
1.328e-05
2.92921e-06
5.53324e-07
1.00374e-07
2.98691e-08
2.2115e-08
2.30754e-08
2.5407e-08
2.83863e-08
3.21074e-08
3.69823e-08
4.37364e-08
5.32843e-08
6.65046e-08
8.62004e-08
1.21713e-07
1.95405e-07
3.86514e-07
1.13194e-06
7.44651e-06
0.0554271
0.00470016
0.00867352
0.0146981
0.0212502
0.0275778
0.0330044
0.0370971
0.03968
0.0410019
0.0413376
0.0409817
0.0401731
0.0390729
0.0377933
0.0364196
0.0350023
0.0335838
0.032188
0.0308344
0.0295308
0.028282
0.0270882
0.0259514
0.0248644
0.0238276
0.0228345
0.0218812
0.02096
0.0200668
0.0191999
0.018357