/*--------------------------------*- C++ -*----------------------------------*\
| =========                 |                                                 |
| \\      /  F ield         | OpenFOAM: The Open Source CFD Toolbox           |
|  \\    /   O peration     | Version:  v2012                                 |
|   \\  /    A nd           | Website:  www.openfoam.com                      |
|    \\/     M anipulation  |                                                 |
\*---------------------------------------------------------------------------*/
FoamFile
{
    version     2.0;
    format      ascii;
    class       volScalarField;
    location    "3900";
    object      nut;
}
// * * * * * * * * * * * * * * * * * * * * * * * * * * * * * * * * * * * * * //

dimensions      [0 2 -1 0 0 0 0];


internalField   nonuniform List<scalar> 
29502
(
3.92587e-07
1.28715e-08
3.75229e-07
1.37518e-08
1.24925e-08
3.47568e-07
1.64874e-08
4.31729e-08
1.31886e-08
3.15451e-07
1.82309e-08
6.22369e-08
5.77064e-07
1.73127e-08
2.9501e-07
1.91495e-08
7.18977e-08
8.78782e-07
3.80965e-06
3.07738e-08
2.86512e-07
1.95608e-08
7.6631e-08
1.01786e-06
5.78213e-06
1.49252e-05
6.1103e-08
2.86313e-07
1.96513e-08
7.8633e-08
1.07977e-06
6.63766e-06
2.24224e-05
4.16255e-05
1.14687e-07
2.87927e-07
1.95611e-08
7.89188e-08
1.09968e-06
6.9852e-06
2.54861e-05
6.162e-05
9.11913e-05
1.92568e-07
2.88765e-07
1.93528e-08
7.83322e-08
1.096e-06
7.05914e-06
2.66205e-05
6.92804e-05
0.000132737
0.000167007
2.94207e-07
2.88695e-07
1.90699e-08
7.71951e-08
1.08137e-06
6.99546e-06
2.67394e-05
7.18506e-05
0.000147598
0.00023942
0.000267421
4.10476e-07
2.8814e-07
1.88148e-08
7.57987e-08
1.06088e-06
6.87123e-06
2.63942e-05
7.18388e-05
0.000152074
0.000263648
0.000379503
0.000383139
5.29634e-07
2.87445e-07
1.86078e-08
7.45724e-08
1.03887e-06
6.72266e-06
2.58546e-05
7.07479e-05
0.000151539
0.000270137
0.000414919
0.000547713
0.000498238
6.44959e-07
2.86796e-07
1.84156e-08
7.36145e-08
1.01978e-06
6.5743e-06
2.52629e-05
6.92183e-05
0.000149072
0.000268574
0.000423345
0.000596276
0.000721547
0.000621786
7.43121e-07
2.86261e-07
1.8128e-08
7.26775e-08
1.00488e-06
6.44689e-06
2.47002e-05
6.76386e-05
0.000145847
0.000264111
0.000420302
0.000605699
0.000787196
0.000912396
0.000752482
8.33016e-07
2.8585e-07
1.78849e-08
7.12415e-08
9.90609e-07
6.3465e-06
2.42182e-05
6.61826e-05
0.000142656
0.000258569
0.000413358
0.000600844
0.000799772
0.00100123
0.00112092
0.000887693
9.04552e-07
2.85545e-07
1.76617e-08
7.01305e-08
9.69723e-07
6.25236e-06
2.38364e-05
6.49405e-05
0.00013979
0.000253264
0.000405062
0.000591148
0.000793552
0.00101867
0.00124016
0.00134595
0.00102721
9.5858e-07
2.85323e-07
1.75067e-08
6.91027e-08
9.53962e-07
6.12124e-06
2.34825e-05
6.39465e-05
0.000137348
0.000248602
0.000397335
0.00058027
0.000781003
0.00101149
0.00126486
0.00150353
0.00158537
0.00117466
1.0123e-06
2.85167e-07
1.73339e-08
6.8411e-08
9.39521e-07
6.0223e-06
2.30076e-05
6.30336e-05
0.000135377
0.000244639
0.000390669
0.000570419
0.000767093
0.00099605
0.00125742
0.00153906
0.00178872
0.00183469
0.00130712
1.02827e-06
2.85057e-07
1.71245e-08
6.7592e-08
9.2978e-07
5.93251e-06
2.26495e-05
6.18451e-05
0.000133574
0.000241414
0.000385021
0.000561978
0.000754614
0.000978949
0.0012393
0.00153237
0.00183993
0.00209279
0.0020901
0.00142033
9.86504e-07
2.84984e-07
1.69578e-08
6.66117e-08
9.18402e-07
5.87165e-06
2.23268e-05
6.09506e-05
0.000131292
0.000238468
0.000380398
0.000554601
0.000744389
0.000963663
0.00121899
0.00151216
0.00183583
0.00216718
0.00241255
0.00234274
0.001516
8.86076e-07
2.84943e-07
1.68195e-08
6.58878e-08
9.05019e-07
5.80209e-06
2.21065e-05
6.01467e-05
0.00012958
0.00023484
0.000376168
0.000548535
0.000735855
0.000951246
0.00120081
0.00148889
0.00181468
0.00216836
0.00251904
0.00274487
0.00258291
0.00159377
7.54188e-07
2.84931e-07
1.66805e-08
6.52844e-08
8.95429e-07
5.72152e-06
2.18596e-05
5.95965e-05
0.000128047
0.000232132
0.0003711
0.000542984
0.000728893
0.000941037
0.00118607
0.00146777
0.00178883
0.00214809
0.00252953
0.00289231
0.00308486
0.00280245
0.00165722
6.11218e-07
2.84953e-07
1.65609e-08
6.4643e-08
8.87451e-07
5.66453e-06
2.15775e-05
5.89863e-05
0.000126988
0.000229712
0.00036734
0.000536483
0.000722455
0.000932707
0.00117402
0.00145067
0.00176511
0.00212029
0.0025128
0.00291853
0.00328258
0.00342381
0.00299344
0.00171598
4.91194e-07
2.85012e-07
1.64513e-08
6.4121e-08
8.78845e-07
5.61723e-06
2.13797e-05
5.82996e-05
0.00012583
0.000228031
0.000363997
0.000531706
0.000715128
0.00092497
0.00116423
0.00143676
0.00174569
0.00209438
0.00248425
0.00290844
0.0033336
0.00368471
0.00375064
0.0031474
0.00177813
3.99735e-07
2.85113e-07
1.63273e-08
6.3642e-08
8.72086e-07
5.56616e-06
2.12157e-05
5.78214e-05
0.000124545
0.00022621
0.000361657
0.000527484
0.000709943
0.000916356
0.00115514
0.00142558
0.00173019
0.00207301
0.00245674
0.00288099
0.00333366
0.00377104
0.00409256
0.00405425
0.00325458
0.00180064
3.44324e-07
2.853e-07
1.61959e-08
6.30746e-08
8.65872e-07
5.52641e-06
2.10379e-05
5.7424e-05
0.000123657
0.000224221
0.000359146
0.000524515
0.000705392
0.000910246
0.00114502
0.00141506
0.00171764
0.00205597
0.00243385
0.00285309
0.00331027
0.00378664
0.0042256
0.0044975
0.00432293
0.00330598
0.00165182
3.10125e-07
2.85651e-07
1.60744e-08
6.24698e-08
8.58479e-07
5.49064e-06
2.09021e-05
5.69923e-05
0.000122911
0.000222858
0.00035645
0.000521352
0.000702191
0.000904961
0.00113793
0.00140338
0.00170576
0.00204203
0.00241549
0.00282919
0.00328393
0.00377131
0.00426428
0.00469084
0.00488909
0.00454435
0.00329582
0.00143957
2.91724e-07
2.86487e-07
1.59835e-08
6.19339e-08
8.50583e-07
5.44779e-06
2.07804e-05
5.66671e-05
0.000122107
0.000221702
0.000354619
0.000518011
0.000698782
0.00090129
0.00113196
0.00139538
0.0016927
0.00202899
0.00240054
0.00281009
0.00326009
0.00374879
0.00426194
0.00476246
0.00515898
0.00525517
0.00470698
0.00322644
0.00117543
2.8293e-07
2.8877e-07
1.59164e-08
6.15604e-08
8.43751e-07
5.4022e-06
2.06359e-05
5.63803e-05
0.000121506
0.000220459
0.000353056
0.000515777
0.000695246
0.000897456
0.00112777
0.00138868
0.00168377
0.00201468
0.00238642
0.00279467
0.00324083
0.00372647
0.00424618
0.00477742
0.00527522
0.00562023
0.00558222
0.00480071
0.00311508
0.000881235
2.79838e-07
2.86096e-07
1.58513e-08
6.13121e-08
8.39271e-07
5.36334e-06
2.04811e-05
5.60369e-05
0.000120984
0.000219546
0.000351377
0.000513856
0.000693019
0.000893465
0.00112342
0.00138407
0.00167633
0.00200494
0.00237096
0.00277984
0.00322552
0.00370837
0.00422754
0.00477132
0.00530834
0.0057941
0.00606273
0.00585536
0.00481924
0.00299468
0.000589978
2.7593e-07
2.79422e-07
1.57806e-08
6.10363e-08
8.36523e-07
5.33913e-06
2.03519e-05
5.56726e-05
0.000120358
0.000218761
0.000350167
0.000511798
0.000691091
0.000890965
0.00111895
0.00137914
0.00167141
0.00199687
0.00236064
0.00276347
0.00321066
0.00369413
0.00421209
0.00475865
0.00531317
0.00585093
0.00631118
0.00647282
0.0060591
0.00476118
0.00290984
0.00034064
2.69737e-07
2.75198e-07
1.57023e-08
6.07335e-08
8.33257e-07
5.3252e-06
2.02753e-05
5.53716e-05
0.000119693
0.000217816
0.000349142
0.000510342
0.000689009
0.000888855
0.00111623
0.00137417
0.00166616
0.00199163
0.00235221
0.00275262
0.00319383
0.00367958
0.00419972
0.00474765
0.00530825
0.00587483
0.00640789
0.00681775
0.00683481
0.00617831
0.00462906
0.00284525
0.000165488
2.64897e-07
2.74482e-07
1.56168e-08
6.03814e-08
8.29645e-07
5.30795e-06
2.0234e-05
5.52032e-05
0.000119159
0.000216819
0.000347897
0.000509132
0.000687575
0.000886519
0.00111395
0.00137131
0.00166079
0.0019862
0.00234683
0.00274413
0.0031826
0.00366298
0.00418633
0.00473847
0.00530357
0.00588244
0.00645796
0.00697223
0.00729544
0.00713171
0.00619981
0.00442486
0.00243037
6.86614e-05
2.6291e-07
2.75494e-07
1.55264e-08
6.00041e-08
8.25351e-07
5.28878e-06
2.01805e-05
5.51184e-05
0.000118875
0.000216033
0.00034659
0.000507647
0.000686461
0.000884983
0.0011114
0.00136895
0.00165778
0.00198065
0.00234131
0.00273898
0.00317415
0.00365183
0.00417083
0.00472747
0.00529854
0.0058871
0.00648319
0.00705718
0.00753493
0.0077287
0.007345
0.00611753
0.00416198
0.00191902
2.59522e-05
2.62973e-07
2.77088e-07
1.54379e-08
5.95891e-08
8.20671e-07
5.26568e-06
2.01207e-05
5.50023e-05
0.000118744
0.000215651
0.000345593
0.000506091
0.000685041
0.000883859
0.00110981
0.00136626
0.00165536
0.00197759
0.00233567
0.00273355
0.00316969
0.00364387
0.00416061
0.00471335
0.00529129
0.00588919
0.00650099
0.00710645
0.00766537
0.00808464
0.00809954
0.00745728
0.00593672
0.00388638
0.00137391
9.40602e-06
2.64114e-07
2.80316e-07
1.53526e-08
5.91952e-08
8.15535e-07
5.24015e-06
2.00478e-05
5.48712e-05
0.000118552
0.000215493
0.000345158
0.000504951
0.00068354
0.000882332
0.00110865
0.00136473
0.00165266
0.00197514
0.00233276
0.00272781
0.00316479
0.00364027
0.00415377
0.00470517
0.00527735
0.00588744
0.00651315
0.00714222
0.00774661
0.00827322
0.00859211
0.00838835
0.00745376
0.00566795
0.00366203
0.000865248
3.40475e-06
2.66706e-07
2.84766e-07
1.5265e-08
5.88131e-08
8.10607e-07
5.2115e-06
1.99659e-05
5.47113e-05
0.000118333
0.000215234
0.000345014
0.000504532
0.000682519
0.000880648
0.00110698
0.00136358
0.0016513
0.00197259
0.00233061
0.00272527
0.00315916
0.00363624
0.00415118
0.0047002
0.00527323
0.00587708
0.00651925
0.0071682
0.00780637
0.00839608
0.00886898
0.00902666
0.00857419
0.00732335
0.00533115
0.00342473
0.000467514
1.30698e-06
2.70543e-07
2.88706e-07
1.51929e-08
5.84392e-08
8.0587e-07
5.18446e-06
1.98729e-05
5.45275e-05
0.000118058
0.000214931
0.000344721
0.000504461
0.0006823
0.00087967
0.00110523
0.00136186
0.00165032
0.00197141
0.00232823
0.00272366
0.0031571
0.00363134
0.00414838
0.00469942
0.00527102
0.00587686
0.00651428
0.00718512
0.00785086
0.00848727
0.00904503
0.00943821
0.00937262
0.00863641
0.00706645
0.00494906
0.00274068
0.000220995
5.97562e-07
2.74347e-07
2.87743e-07
1.51403e-08
5.814e-08
8.01303e-07
5.15879e-06
1.97859e-05
5.43167e-05
0.000117744
0.000214552
0.00034437
0.000504186
0.000682502
0.000879665
0.00110434
0.00136024
0.00164867
0.00197071
0.00232726
0.00272166
0.00315605
0.00363004
0.00414482
0.00469781
0.00527278
0.00587825
0.00651954
0.00718794
0.00788237
0.00855614
0.00917665
0.00968104
0.00993206
0.00961152
0.00855755
0.00669848
0.00456505
0.00199422
9.63493e-05
3.67499e-07
2.74718e-07
2.88119e-07
1.51041e-08
5.79333e-08
7.97594e-07
5.13342e-06
1.97038e-05
5.4122e-05
0.000117378
0.000214107
0.000343918
0.000503839
0.00068244
0.000880144
0.0011046
0.00135944
0.00164713
0.00196935
0.00232713
0.00272133
0.00315481
0.00362981
0.00414477
0.00469569
0.00527152
0.0058835
0.00652584
0.00720066
0.00789604
0.00860692
0.00927707
0.00986387
0.0102889
0.0103236
0.00972096
0.0083284
0.0062479
0.00422729
0.00127586
4.06223e-05
2.95174e-07
2.74969e-07
2.82239e-07
1.50866e-08
5.78216e-08
7.95345e-07
5.11331e-06
1.96231e-05
5.3941e-05
0.000117044
0.000213586
0.000343376
0.000503366
0.000682205
0.000880241
0.00110528
0.00135998
0.00164647
0.00196779
0.00232612
0.00272175
0.00315544
0.00362954
0.00414566
0.00469734
0.00527046
0.00588494
0.00653579
0.00721357
0.00791873
0.00863531
0.00935293
0.0100045
0.0105355
0.0108374
0.0105972
0.00967871
0.00795333
0.00575436
0.00370346
0.000700182
1.67523e-05
2.7366e-07
2.70832e-07
2.76591e-07
1.50783e-08
5.77844e-08
7.9433e-07
5.1018e-06
1.95585e-05
5.37591e-05
0.000116739
0.00021312
0.000342737
0.000502781
0.000681831
0.000880158
0.00110565
0.00136106
0.00164745
0.0019674
0.00232471
0.00272109
0.00315661
0.00363107
0.00414659
0.0046997
0.00527491
0.00588634
0.00654088
0.00722967
0.00794038
0.0086711
0.00940085
0.0101125
0.0107267
0.0111752
0.0112644
0.0107325
0.00946806
0.00745553
0.00527506
0.00280331
0.00033566
6.68292e-06
2.64606e-07
2.65702e-07
2.74063e-07
1.50702e-08
5.7785e-08
7.94451e-07
5.09852e-06
1.95251e-05
5.3618e-05
0.000116431
0.000212703
0.000342178
0.000502077
0.000681382
0.00087988
0.00110585
0.00136171
0.0016492
0.00196899
0.00232479
0.00272011
0.00315665
0.00363344
0.00414939
0.00470212
0.00527906
0.00589367
0.00654562
0.00723971
0.00796448
0.00870418
0.00945369
0.010186
0.0108754
0.0114289
0.0117517
0.0115578
0.0107056
0.00908544
0.00687952
0.00484834
0.00188666
0.000149163
2.61336e-06
2.58402e-07
2.62681e-07
2.73808e-07
1.50558e-08
5.77718e-08
7.94929e-07
5.10132e-06
1.95207e-05
5.35517e-05
0.000116193
0.000212277
0.000341694
0.000501489
0.000680825
0.000879482
0.00110572
0.00136213
0.00165012
0.00197131
0.00232705
0.00272084
0.00315634
0.00363455
0.00415295
0.0047066
0.00528225
0.00590041
0.00655663
0.00724884
0.00798105
0.00873861
0.00950154
0.0102607
0.0109817
0.0116284
0.0120932
0.0121926
0.0117
0.0104967
0.00855026
0.00628389
0.00421787
0.00109214
6.42561e-05
1.07363e-06
2.54422e-07
2.61889e-07
2.73789e-07
1.50319e-08
5.77243e-08
7.95233e-07
5.1068e-06
1.9539e-05
5.35602e-05
0.000116102
0.000211961
0.000341195
0.000501005
0.000680414
0.000878978
0.0011054
0.0013622
0.00165082
0.00197277
0.0023299
0.00272381
0.00315776
0.00363525
0.00415514
0.00471107
0.00528817
0.00590596
0.0065667
0.00726456
0.00799599
0.00876368
0.00954917
0.0103275
0.0110843
0.0117763
0.012355
0.0126798
0.012488
0.0116688
0.010097
0.00790815
0.00574988
0.00315708
0.000549179
2.72166e-05
5.23559e-07
2.5272e-07
2.61808e-07
2.73777e-07
1.49951e-08
5.76172e-08
7.94996e-07
5.11106e-06
1.9565e-05
5.36193e-05
0.000116149
0.000211872
0.000340849
0.000500502
0.000680088
0.000878602
0.00110492
0.00136205
0.00165126
0.00197401
0.00233231
0.00272751
0.00316167
0.00363737
0.00415676
0.00471375
0.00529442
0.00591433
0.00657528
0.00727889
0.00801765
0.00878616
0.00958528
0.0103919
0.0111751
0.011914
0.0125551
0.0130353
0.0131179
0.0126185
0.011441
0.00952295
0.00722979
0.00526009
0.00209082
0.000251248
1.10651e-05
3.34733e-07
2.52123e-07
2.61852e-07
2.73762e-07
1.49461e-08
5.746e-08
7.93974e-07
5.11217e-06
1.95872e-05
5.36998e-05
0.000116292
0.000211998
0.000340812
0.000500187
0.000679769
0.000878399
0.00110467
0.0013617
0.00165125
0.00197484
0.00233432
0.002731
0.00316651
0.00364269
0.00416007
0.00471649
0.00529867
0.00592289
0.00658672
0.00729131
0.00803738
0.00881531
0.00961747
0.0104421
0.0112605
0.0120349
0.0127364
0.0132996
0.0136128
0.0133948
0.0125608
0.0110071
0.00881764
0.006591
0.00423734
0.00118821
0.000109223
4.30744e-06
2.72532e-07
2.51999e-07
2.61931e-07
2.73749e-07
1.48881e-08
5.72257e-08
7.92094e-07
5.10772e-06
1.95984e-05
5.37684e-05
0.000116468
0.000212269
0.000341062
0.000500259
0.000679676
0.000878245
0.00110462
0.00136164
0.00165109
0.00197521
0.00233554
0.00273368
0.00317108
0.00364891
0.00416692
0.00472146
0.00530296
0.00592913
0.00659814
0.00730657
0.00805466
0.00884186
0.00965606
0.0104867
0.0113288
0.0121467
0.0128948
0.0135347
0.0139876
0.0140264
0.0134927
0.0122906
0.0103761
0.00804575
0.00600027
0.00301068
0.000587879
4.63138e-05
1.68727e-06
2.53046e-07
2.52111e-07
2.62057e-07
2.73786e-07
1.48159e-08
5.69316e-08
7.89098e-07
5.0981e-06
1.95887e-05
5.38123e-05
0.000116626
0.000212587
0.000341509
0.000500694
0.000680016
0.000878354
0.00110459
0.00136178
0.00165127
0.00197532
0.0023363
0.0027357
0.00317464
0.00365463
0.00417469
0.00472965
0.00530964
0.00593535
0.00660686
0.00732154
0.00807465
0.00886527
0.00969115
0.0105372
0.0113892
0.0122376
0.0130392
0.0137391
0.0142879
0.0145481
0.014264
0.0133835
0.0117928
0.00958546
0.0073035
0.00511112
0.00185737
0.000270021
1.8854e-05
7.28673e-07
2.47181e-07
2.52305e-07
2.62356e-07
2.74503e-07
1.47369e-08
5.65938e-08
7.85302e-07
5.08158e-06
1.95596e-05
5.37993e-05
0.00011673
0.000212869
0.000342003
0.000501354
0.000680718
0.000878911
0.00110487
0.00136202
0.00165174
0.00197583
0.00233689
0.00273687
0.00317753
0.00365936
0.00418159
0.00473821
0.00531984
0.00594411
0.00661548
0.00733338
0.00809404
0.00889116
0.0097223
0.010583
0.0114544
0.0123179
0.0131584
0.0139237
0.0145485
0.0149691
0.0149231
0.0143025
0.013039
0.0110731
0.00871833
0.00663865
0.00375745
0.000978844
0.000118804
7.26357e-06
3.96527e-07
2.45528e-07
2.5265e-07
2.64318e-07
2.81625e-07
1.46618e-08
5.62204e-08
7.80843e-07
5.05997e-06
1.95061e-05
5.37385e-05
0.000116729
0.000213074
0.00034245
0.000502072
0.000681683
0.000879978
0.0011058
0.00136263
0.00165226
0.00197672
0.00233781
0.00273793
0.00317945
0.00366309
0.00418743
0.00474573
0.00533037
0.00595669
0.00662677
0.00734496
0.00810974
0.008916
0.00975552
0.0106238
0.0115135
0.0124014
0.0132636
0.0140778
0.0147818
0.0152993
0.0154665
0.0151005
0.0141101
0.0124433
0.0101858
0.00790196
0.0057562
0.00242461
0.00046253
5.00635e-05
2.71625e-06
2.87577e-07
2.45289e-07
2.54275e-07
2.68048e-07
2.85423e-07
1.45911e-08
5.58688e-08
7.75835e-07
5.0343e-06
1.94343e-05
5.36172e-05
0.00011663
0.000213098
0.000342774
0.000502707
0.000682619
0.000881257
0.00110729
0.00136398
0.00165325
0.00197753
0.00233921
0.0027395
0.00318097
0.00366601
0.00419228
0.00475234
0.0053397
0.00596952
0.00664217
0.00735932
0.00812499
0.00893653
0.00978709
0.0106661
0.0115663
0.012477
0.0133697
0.0142138
0.0149788
0.0155914
0.0159218
0.0157705
0.0150547
0.0136603
0.0116173
0.00924074
0.00717363
0.00427759
0.00133584
0.000208074
1.99451e-05
1.05881e-06
2.53781e-07
2.46384e-07
2.57638e-07
2.65395e-07
2.84423e-07
1.45189e-08
5.55431e-08
7.71226e-07
5.00525e-06
1.93479e-05
5.34507e-05
0.000116418
0.000212968
0.000342851
0.000503188
0.000683492
0.000882477
0.00110897
0.00136587
0.00165499
0.00197889
0.00234039
0.00274134
0.00318329
0.00366838
0.00419607
0.00475816
0.00534797
0.00598103
0.00665775
0.00737806
0.00814308
0.00895632
0.00981361
0.0107059
0.0116199
0.0125448
0.0134656
0.0143478
0.0151528
0.0158404
0.0163132
0.0163482
0.0158596
0.0147554
0.0129463
0.0106378
0.00837153
0.00619179
0.00280433
0.000646579
8.89323e-05
7.49972e-06
4.92615e-07
2.44561e-07
2.49077e-07
2.5655e-07
2.64125e-07
2.84334e-07
1.44596e-08
5.52352e-08
7.66999e-07
4.97834e-06
1.92491e-05
5.3248e-05
0.000116121
0.000212663
0.00034271
0.000503338
0.000684114
0.000883625
0.00111068
0.0013681
0.00165753
0.00198122
0.0023424
0.00274308
0.00318594
0.00367135
0.00419956
0.004763
0.00535534
0.00599129
0.00667183
0.00739692
0.00816582
0.00897897
0.00983905
0.01074
0.01167
0.0126122
0.0135519
0.0144687
0.0153208
0.0160607
0.0166367
0.0168437
0.0165629
0.0157025
0.0141776
0.0120061
0.0096253
0.00758347
0.00458482
0.00157044
0.000293435
3.56313e-05
2.73514e-06
3.11994e-07
2.43825e-07
2.49034e-07
2.55564e-07
2.63963e-07
2.84297e-07
1.4406e-08
5.49656e-08
7.62907e-07
4.9535e-06
1.91571e-05
5.30149e-05
0.000115755
0.000212225
0.000342327
0.000503208
0.000684367
0.00088448
0.0011121
0.00137035
0.00166046
0.00198443
0.00234554
0.0027458
0.00318837
0.003675
0.00420329
0.00476761
0.00536154
0.00600052
0.00668447
0.00741407
0.00818856
0.00900647
0.00986724
0.0107724
0.0117132
0.0126749
0.0136363
0.0145777
0.015472
0.0162699
0.0169129
0.0172788
0.01717
0.0165387
0.0152663
0.0133285
0.0109325
0.00872024
0.00638317
0.00299268
0.000763578
0.000126586
1.34017e-05
1.03836e-06
2.59252e-07
2.4352e-07
2.48365e-07
2.55455e-07
2.63984e-07
2.84268e-07
1.43604e-08
5.47351e-08
7.5933e-07
4.9299e-06
1.90744e-05
5.27978e-05
0.000115331
0.00021168
0.000341766
0.000502773
0.00068434
0.000884879
0.00111324
0.00137224
0.00166322
0.00198818
0.00234942
0.00274998
0.00319174
0.00367835
0.00420785
0.00477272
0.00536748
0.00600835
0.0066959
0.00742951
0.00820936
0.00903383
0.00990042
0.0108073
0.0117542
0.0127296
0.0137145
0.0146828
0.0156088
0.0164578
0.0171718
0.0176679
0.0177128
0.0172675
0.0162406
0.0145356
0.0122684
0.00987416
0.00787287
0.00463786
0.00166495
0.000346205
5.0819e-05
4.795e-06
4.76209e-07
2.44673e-07
2.42871e-07
2.48177e-07
2.5571e-07
2.64318e-07
2.84244e-07
1.43241e-08
5.45464e-08
7.56351e-07
4.90899e-06
1.89934e-05
5.26013e-05
0.00011494
0.000211047
0.000341057
0.000502116
0.000683927
0.000884914
0.00111381
0.00137382
0.00166573
0.00199174
0.00235385
0.00275479
0.00319671
0.0036823
0.00421229
0.00477829
0.00537389
0.00601587
0.00670568
0.00744356
0.00822816
0.00905899
0.00993332
0.0108473
0.0117974
0.0127811
0.0137832
0.0147799
0.0157393
0.0166283
0.0174036
0.0179981
0.0182069
0.0179216
0.0170993
0.0156385
0.0135399
0.0111234
0.00895633
0.00634403
0.00294744
0.000801379
0.000148566
1.89702e-05
1.70522e-06
3.0336e-07
2.40355e-07
2.42552e-07
2.48473e-07
2.57208e-07
2.67789e-07
2.84225e-07
1.42968e-08
5.43994e-08
7.53916e-07
4.89111e-06
1.89206e-05
5.24108e-05
0.000114588
0.000210469
0.000340232
0.000501286
0.000683281
0.000884522
0.00111391
0.00137454
0.00166774
0.00199477
0.00235827
0.00276009
0.00320289
0.00368813
0.00421726
0.00478356
0.00538081
0.00602383
0.0067151
0.0074557
0.00824536
0.00908183
0.00996369
0.0108868
0.0118455
0.0128344
0.0138477
0.0148658
0.0158594
0.0167896
0.0176149
0.0182823
0.0186345
0.01852
0.0178739
0.0166269
0.0147343
0.0123676
0.0100673
0.00801165
0.00446293
0.00159273
0.000358321
5.91269e-05
6.67004e-06
6.74919e-07
2.53634e-07
2.38953e-07
2.42674e-07
2.49832e-07
2.56576e-07
2.75846e-07
2.84212e-07
1.42783e-08
5.43026e-08
7.5212e-07
4.87724e-06
1.88611e-05
5.22389e-05
0.000114242
0.000209953
0.000339491
0.000500311
0.000682453
0.000883839
0.00111359
0.00137476
0.00166878
0.0019971
0.00236208
0.00276538
0.00320967
0.00369566
0.0042243
0.00479031
0.00538733
0.0060323
0.00672487
0.00746732
0.00826031
0.00910278
0.00999135
0.0109234
0.011893
0.0128923
0.0139134
0.0149463
0.0159664
0.0169376
0.0178132
0.0185426
0.0190142
0.0190467
0.0185824
0.017528
0.0158327
0.0135859
0.0111698
0.00911269
0.00607365
0.00271488
0.000747803
0.000151106
2.17495e-05
2.28433e-06
3.56476e-07
2.40145e-07
2.38574e-07
2.4375e-07
2.49996e-07
2.6118e-07
2.72564e-07
2.84202e-07
1.42681e-08
5.42439e-08
7.50854e-07
4.86701e-06
1.88137e-05
5.20952e-05
0.000113929
0.00020944
0.000338838
0.000499448
0.00068148
0.000882923
0.00111283
0.00137458
0.00166923
0.00199871
0.00236516
0.00277026
0.00321612
0.00370384
0.00423296
0.00479877
0.00539556
0.00604029
0.00673518
0.0074793
0.00827463
0.00912111
0.0100168
0.0109568
0.011937
0.0129492
0.0139829
0.0150269
0.0160662
0.0170701
0.0179948
0.0187851
0.0193625
0.0195193
0.0192121
0.0183545
0.0168518
0.014746
0.0123246
0.0101135
0.00768535
0.00407782
0.0014018
0.000327088
5.86699e-05
7.49476e-06
8.38646e-07
2.65291e-07
2.36659e-07
2.39234e-07
2.44205e-07
2.53909e-07
2.58832e-07
2.72021e-07
2.84196e-07
1.42626e-08
5.42255e-08
7.50313e-07
4.86025e-06
1.87798e-05
5.19862e-05
0.000113673
0.000208976
0.000338178
0.000498697
0.00068062
0.000881854
0.00111184
0.00137369
0.00166899
0.00199942
0.00236715
0.00277425
0.00322191
0.00371177
0.00424221
0.00480839
0.00540565
0.00605022
0.00674491
0.00749177
0.00828919
0.00913866
0.0100392
0.0109877
0.0119773
0.0130021
0.0140511
0.0151104
0.0161652
0.0171935
0.0181582
0.0190069
0.0196744
0.0199548
0.0197808
0.019094
0.0177962
0.0158484
0.0134631
0.0111401
0.00909885
0.00558488
0.00233839
0.000637783
0.000133825
2.0943e-05
2.50015e-06
3.97741e-07
2.41023e-07
2.36348e-07
2.39587e-07
2.47372e-07
2.53275e-07
2.58593e-07
2.71843e-07
2.84193e-07
1.42633e-08
5.42277e-08
7.50289e-07
4.85739e-06
1.87573e-05
5.19095e-05
0.000113479
0.000208602
0.000337589
0.000497946
0.000679931
0.000881006
0.00111066
0.00137261
0.00166827
0.00199913
0.00236818
0.0027767
0.00322674
0.00371875
0.00425159
0.00481821
0.00541704
0.00606219
0.00675676
0.00750351
0.00830423
0.00915631
0.0100606
0.011015
0.0120146
0.0130507
0.0141147
0.0151921
0.0162652
0.017315
0.0183101
0.0192074
0.0199439
0.0203499
0.0203058
0.0197654
0.0186492
0.0168911
0.014585
0.0121497
0.0100711
0.00708296
0.00353496
0.00114103
0.00027194
4.99859e-05
6.99316e-06
8.8606e-07
2.73552e-07
2.35487e-07
2.36403e-07
2.42163e-07
2.47791e-07
2.5408e-07
2.61647e-07
2.71731e-07
2.84191e-07
1.42591e-08
5.4244e-08
7.50475e-07
4.85776e-06
1.875e-05
5.18599e-05
0.000113345
0.000208324
0.000337122
0.000497266
0.000679254
0.000880292
0.00110972
0.00137137
0.00166713
0.00199862
0.00236821
0.00277826
0.00323004
0.00372475
0.00425991
0.00482806
0.00542857
0.00607562
0.00677092
0.00751764
0.00831836
0.00917438
0.010082
0.011041
0.0120479
0.0130958
0.0141733
0.0152685
0.0163632
0.0174344
0.0184587
0.0193937
0.0201886
0.0207062
0.0207835
0.0203863
0.019429
0.0178472
0.0156803
0.0132129
0.0109921
0.00854906
0.00484124
0.00188814
0.000502961
0.00010676
1.71583e-05
2.26772e-06
4.05014e-07
2.41658e-07
2.34369e-07
2.3842e-07
2.42956e-07
2.48963e-07
2.53853e-07
2.65005e-07
2.71657e-07
2.8419e-07
1.42628e-08
5.42558e-08
7.50847e-07
4.85971e-06
1.87546e-05
5.18466e-05
0.000113265
0.000208136
0.000336784
0.000496748
0.000678667
0.000879552
0.00110903
0.00137025
0.00166584
0.00199752
0.00236775
0.00277882
0.00323209
0.00372912
0.00426695
0.00483666
0.00544018
0.00608912
0.00678667
0.00753429
0.00833511
0.00919135
0.0101036
0.0110668
0.0120795
0.0131362
0.0142276
0.015339
0.0164549
0.017552
0.0186015
0.0195733
0.020416
0.0210382
0.0212216
0.0209517
0.0201519
0.0187313
0.0167035
0.0142839
0.0119455
0.00987285
0.00622665
0.00282861
0.000865626
0.000207205
3.80616e-05
5.52694e-06
7.95589e-07
2.73221e-07
2.34244e-07
2.3576e-07
2.39154e-07
2.44171e-07
2.49337e-07
2.55667e-07
2.63325e-07
2.71613e-07
2.84189e-07
1.42654e-08
5.42825e-08
7.51159e-07
4.86232e-06
1.87625e-05
5.18619e-05
0.000113251
0.000208039
0.000336573
0.000496395
0.000678252
0.00087897
0.00110831
0.0013696
0.00166482
0.00199615
0.00236665
0.00277842
0.00323313
0.00373151
0.00427201
0.00484401
0.00545033
0.00610272
0.00680243
0.0075527
0.00835464
0.00921116
0.0101239
0.0110928
0.0121105
0.0131745
0.0142765
0.0154045
0.0165397
0.017662
0.0187428
0.0197468
0.0206328
0.0213423
0.021633
0.0214727
0.0208126
0.0195571
0.0176669
0.0153062
0.0128915
0.010786
0.00759811
0.00393682
0.00139599
0.000366977
7.72546e-05
1.24948e-05
1.75604e-06
3.73882e-07
2.40224e-07
2.34e-07
2.36506e-07
2.40219e-07
2.44737e-07
2.51171e-07
2.54777e-07
2.62853e-07
2.71589e-07
2.84189e-07
1.42594e-08
5.43046e-08
7.51595e-07
4.86483e-06
1.87729e-05
5.18871e-05
0.000113293
0.000208038
0.000336469
0.000496182
0.000678015
0.00087864
0.00110769
0.00136905
0.00166411
0.00199532
0.00236522
0.00277734
0.00323292
0.00373271
0.00427498
0.00484908
0.00545908
0.00611468
0.00681831
0.00757109
0.00837608
0.009234
0.0101473
0.011117
0.0121417
0.0132118
0.0143229
0.0154638
0.0166186
0.0177638
0.0188744
0.0199149
0.0208416
0.0216032
0.0220143
0.0219622
0.0214222
0.020317
0.0185815
0.0162997
0.0138308
0.011652
0.00895202
0.00512656
0.00209549
0.000609026
0.000143202
2.60983e-05
3.87836e-06
6.33361e-07
2.63103e-07
2.33798e-07
2.34578e-07
2.37408e-07
2.40733e-07
2.46647e-07
2.52361e-07
2.57695e-07
2.62591e-07
2.71577e-07
2.84189e-07
1.42683e-08
5.43023e-08
7.51953e-07
4.8678e-06
1.87834e-05
5.19158e-05
0.000113347
0.000208124
0.00033651
0.000496125
0.000677944
0.000878472
0.00110738
0.00136839
0.00166352
0.00199461
0.00236437
0.00277593
0.00323197
0.00373288
0.00427671
0.00485284
0.00546519
0.00612501
0.00683234
0.00758952
0.00839746
0.00925896
0.010174
0.0111446
0.0121706
0.0132491
0.0143678
0.0155199
0.0166902
0.0178586
0.0189967
0.0200722
0.0210416
0.0218531
0.0223611
0.0224183
0.0219955
0.0210211
0.0194321
0.017266
0.0147882
0.0125027
0.0102635
0.0063954
0.00293448
0.00095076
0.000246405
5.01365e-05
8.15368e-06
1.22503e-06
3.26608e-07
2.37452e-07
2.33164e-07
2.35391e-07
2.37856e-07
2.42592e-07
2.48333e-07
2.52398e-07
2.57538e-07
2.62435e-07
2.71571e-07
2.84189e-07
1.42605e-08
5.43528e-08
7.51991e-07
4.87019e-06
1.87949e-05
5.19459e-05
0.00011341
0.000208224
0.000336663
0.000496234
0.000678013
0.000878469
0.00110733
0.00136803
0.00166307
0.00199392
0.00236388
0.00277495
0.00323062
0.00373223
0.00427743
0.00485499
0.00546985
0.00613237
0.00684451
0.00760596
0.00841888
0.00928374
0.0102029
0.0111757
0.0122031
0.0132837
0.0144126
0.0155739
0.0167579
0.0179451
0.0191105
0.0202186
0.0212292
0.0220908
0.0226812
0.0228426
0.02253
0.0216838
0.0202263
0.0181749
0.0157397
0.0133611
0.0112473
0.00767136
0.00392277
0.00141518
0.000394834
8.96468e-05
1.59663e-05
2.44818e-06
4.76864e-07
2.50694e-07
2.32607e-07
2.33732e-07
2.35757e-07
2.39297e-07
2.4447e-07
2.4937e-07
2.51935e-07
2.56549e-07
2.62355e-07
2.71568e-07
2.84189e-07
1.42532e-08
5.43018e-08
7.5291e-07
4.87114e-06
1.8804e-05
5.19755e-05
0.000113468
0.000208328
0.000336828
0.00049648
0.000678275
0.000878662
0.00110752
0.00136812
0.00166288
0.0019937
0.0023633
0.00277448
0.00322962
0.00373112
0.00427714
0.00485608
0.00547274
0.00613812
0.00685334
0.00762028
0.00843807
0.00930857
0.0102317
0.0112093
0.0122394
0.013322
0.0144537
0.0156277
0.0168229
0.0180268
0.0192149
0.0203551
0.0214042
0.0223139
0.0229759
0.0232335
0.0230288
0.0223023
0.0209773
0.0190345
0.0166444
0.0142043
0.0120531
0.00890182
0.00499557
0.00201451
0.000602962
0.000149556
2.92712e-05
4.74639e-06
7.95324e-07
2.84689e-07
2.34166e-07
2.3236e-07
2.34026e-07
2.36901e-07
2.41044e-07
2.45814e-07
2.49964e-07
2.53019e-07
2.56054e-07
2.62318e-07
2.71568e-07
2.84189e-07
1.42461e-08
5.42762e-08
7.52082e-07
4.87631e-06
1.88078e-05
5.19984e-05
0.000113531
0.000208439
0.000336991
0.000496725
0.00067868
0.000879088
0.00110781
0.00136852
0.00166308
0.00199377
0.00236299
0.00277401
0.00322914
0.00373026
0.00427644
0.00485627
0.00547437
0.00614184
0.00686038
0.00763085
0.00845487
0.00933094
0.0102604
0.0112425
0.0122782
0.0133642
0.0144989
0.0156764
0.0168876
0.0181049
0.0193133
0.0204808
0.0215676
0.0225226
0.0232562
0.0235912
0.0234912
0.02288
0.0216826
0.0198585
0.017523
0.0150313
0.012823
0.0100991
0.00610593
0.00273304
0.000884012
0.000236285
5.04105e-05
8.76905e-06
1.40909e-06
3.59418e-07
2.40316e-07
2.31511e-07
2.32614e-07
2.35021e-07
2.38288e-07
2.42354e-07
2.46884e-07
2.49949e-07
2.52789e-07
2.55788e-07
2.62303e-07
2.71567e-07
2.84189e-07
1.42387e-08
5.425e-08
7.51742e-07
4.87153e-06
1.88285e-05
5.20104e-05
0.000113579
0.000208541
0.000337152
0.000496964
0.000679091
0.000879662
0.00110837
0.00136907
0.00166358
0.0019942
0.00236331
0.00277394
0.0032288
0.00373006
0.00427599
0.00485627
0.00547495
0.00614415
0.00686512
0.00763941
0.00846748
0.00935062
0.0102865
0.0112758
0.0123167
0.0134092
0.0145481
0.0157298
0.0169452
0.0181831
0.019407
0.0205992
0.0217186
0.0227178
0.0235238
0.0239302
0.0239165
0.0234169
0.0223435
0.0206419
0.0183862
0.0158732
0.0135805