/*--------------------------------*- C++ -*----------------------------------*\
| =========                 |                                                 |
| \\      /  F ield         | OpenFOAM: The Open Source CFD Toolbox           |
|  \\    /   O peration     | Version:  v2012                                 |
|   \\  /    A nd           | Website:  www.openfoam.com                      |
|    \\/     M anipulation  |                                                 |
\*---------------------------------------------------------------------------*/
FoamFile
{
    version     2.0;
    format      ascii;
    class       volScalarField;
    location    "3900";
    object      omega;
}
// * * * * * * * * * * * * * * * * * * * * * * * * * * * * * * * * * * * * * //

dimensions      [0 0 -1 0 0 0 0];


internalField   nonuniform List<scalar> 
29502
(
1.38943e+09
1.63074e+09
2.914e+08
1.76041e+09
2.80784e+08
1.28751e+08
1.75921e+09
3.14426e+08
9.83345e+07
8.65807e+07
1.76242e+09
3.14889e+08
1.11432e+08
5.00611e+07
7.16799e+07
1.76175e+09
3.16405e+08
1.11898e+08
5.55977e+07
3.0864e+07
6.49037e+07
1.7617e+09
3.17063e+08
1.12883e+08
5.60456e+07
3.38741e+07
2.16663e+07
6.07298e+07
1.76669e+09
3.17812e+08
1.13503e+08
5.67812e+07
3.43071e+07
2.35336e+07
1.67385e+07
5.78885e+07
1.76995e+09
3.1927e+08
1.14145e+08
5.72846e+07
3.49097e+07
2.39152e+07
1.789e+07
1.39036e+07
5.57872e+07
1.77559e+09
3.20289e+08
1.1495e+08
5.77752e+07
3.53294e+07
2.44227e+07
1.81667e+07
1.44611e+07
1.21883e+07
5.40431e+07
1.78035e+09
3.21567e+08
1.15534e+08
5.82968e+07
3.57129e+07
2.47791e+07
1.85826e+07
1.45881e+07
1.2185e+07
1.11072e+07
5.24547e+07
1.78404e+09
3.22534e+08
1.16133e+08
5.86771e+07
3.60834e+07
2.5088e+07
1.88829e+07
1.49087e+07
1.21395e+07
1.05653e+07
1.03967e+07
5.09366e+07
1.78488e+09
3.2329e+08
1.16547e+08
5.90261e+07
3.63488e+07
2.53683e+07
1.91364e+07
1.51559e+07
1.23648e+07
1.03469e+07
9.34546e+06
9.90442e+06
4.94497e+07
1.78539e+09
3.23522e+08
1.16874e+08
5.92524e+07
3.65744e+07
2.55642e+07
1.93589e+07
1.53653e+07
1.25623e+07
1.04815e+07
8.96781e+06
8.38172e+06
9.53809e+06
4.79855e+07
1.78936e+09
3.23662e+08
1.17007e+08
5.94291e+07
3.67093e+07
2.57205e+07
1.95112e+07
1.55475e+07
1.2735e+07
1.06328e+07
9.01866e+06
7.86486e+06
7.59185e+06
9.23765e+06
4.65429e+07
1.79155e+09
3.24349e+08
1.17088e+08
5.95083e+07
3.68133e+07
2.58062e+07
1.96272e+07
1.5671e+07
1.28867e+07
1.07741e+07
9.12746e+06
7.84093e+06
6.95842e+06
6.92672e+06
8.96364e+06
4.51275e+07
1.79339e+09
3.24722e+08
1.17334e+08
5.95551e+07
3.68593e+07
2.587e+07
1.96855e+07
1.57624e+07
1.29895e+07
1.09012e+07
9.24118e+06
7.91046e+06
6.86946e+06
6.19906e+06
6.35477e+06
8.68732e+06
4.37398e+07
1.79304e+09
3.25014e+08
1.17464e+08
5.96659e+07
3.68835e+07
2.5896e+07
1.97273e+07
1.58054e+07
1.30642e+07
1.09878e+07
9.3472e+06
7.99954e+06
6.90335e+06
6.05608e+06
5.55469e+06
5.85569e+06
8.40855e+06
4.23845e+07
1.79392e+09
3.24928e+08
1.17559e+08
5.97208e+07
3.69343e+07
2.59062e+07
1.97418e+07
1.58352e+07
1.30983e+07
1.10504e+07
9.42054e+06
8.08674e+06
6.97017e+06
6.0576e+06
5.36855e+06
5.00319e+06
5.41246e+06
7.98442e+06
4.10644e+07
1.79631e+09
3.25033e+08
1.17523e+08
5.97553e+07
3.6954e+07
2.59268e+07
1.97446e+07
1.58438e+07
1.3121e+07
1.10784e+07
9.47345e+06
8.14843e+06
7.04008e+06
6.10411e+06
5.34097e+06
4.78368e+06
4.52833e+06
5.0055e+06
7.55181e+06
3.97818e+07
1.79704e+09
3.25381e+08
1.17541e+08
5.97289e+07
3.69608e+07
2.5928e+07
1.97503e+07
1.58431e+07
1.31265e+07
1.10965e+07
9.4971e+06
8.19304e+06
7.09115e+06
6.15803e+06
5.36876e+06
4.73034e+06
4.28371e+06
4.11732e+06
4.62135e+06
7.16206e+06
3.85386e+07
1.79694e+09
3.25437e+08
1.17634e+08
5.97232e+07
3.69353e+07
2.59208e+07
1.97427e+07
1.58423e+07
1.31246e+07
1.11001e+07
9.51175e+06
8.21322e+06
7.12836e+06
6.19924e+06
5.40784e+06
4.74073e+06
4.20811e+06
3.85469e+06
3.75972e+06
4.26297e+06
6.82034e+06
3.73357e+07
1.79754e+09
3.25344e+08
1.17623e+08
5.97471e+07
3.69184e+07
2.58946e+07
1.97289e+07
1.58314e+07
1.31213e+07
1.10975e+07
9.51403e+06
8.22527e+06
7.1454e+06
6.22957e+06
5.43988e+06
4.76608e+06
4.2022e+06
3.76039e+06
3.48598e+06
3.45138e+06
3.93911e+06
6.5189e+06
3.61762e+07
1.79743e+09
3.2539e+08
1.17562e+08
5.97223e+07
3.69148e+07
2.58724e+07
1.97034e+07
1.58156e+07
1.31097e+07
1.10935e+07
9.51125e+06
8.22669e+06
7.15522e+06
6.24362e+06
5.46375e+06
4.78956e+06
4.21502e+06
3.73915e+06
3.376e+06
3.17014e+06
3.1895e+06
3.65057e+06
6.24946e+06
3.50606e+07
1.79719e+09
3.25297e+08
1.17551e+08
5.9675e+07
3.6885e+07
2.58562e+07
1.96795e+07
1.57916e+07
1.3094e+07
1.10821e+07
9.50696e+06
8.22391e+06
7.15586e+06
6.25129e+06
5.47479e+06
4.80735e+06
4.23044e+06
3.74058e+06
3.34041e+06
3.04585e+06
2.89973e+06
2.964e+06
3.39535e+06
6.01345e+06
3.39907e+07
1.79764e+09
3.25179e+08
1.17487e+08
5.96512e+07
3.68437e+07
2.58249e+07
1.96583e+07
1.57684e+07
1.30721e+07
1.10673e+07
9.49632e+06
8.21981e+06
7.15301e+06
6.25117e+06
5.48038e+06
4.81538e+06
4.24252e+06
3.74843e+06
3.3314e+06
2.99677e+06
2.7617e+06
2.66684e+06
2.76695e+06
3.17225e+06
5.80824e+06
3.29667e+07
1.79866e+09
3.25175e+08
1.17415e+08
5.96032e+07
3.68161e+07
2.57872e+07
1.96276e+07
1.57464e+07
1.30505e+07
1.10472e+07
9.48259e+06
8.21016e+06
7.14914e+06
6.24814e+06
5.47947e+06
4.81893e+06
4.24758e+06
3.75515e+06
3.33215e+06
2.97802e+06
2.70007e+06
2.5166e+06
2.4659e+06
2.59331e+06
2.98146e+06
5.63614e+06
3.19853e+07
1.79938e+09
3.25267e+08
1.17376e+08
5.95489e+07
3.67749e+07
2.57587e+07
1.95934e+07
1.57176e+07
1.30296e+07
1.10275e+07
9.46436e+06
8.19768e+06
7.14044e+06
6.24441e+06
5.47612e+06
4.8172e+06
4.24917e+06
3.75732e+06
3.33385e+06
2.97213e+06
2.6722e+06
2.44351e+06
2.30501e+06
2.29191e+06
2.43801e+06
2.81521e+06
5.49209e+06
3.1034e+07
1.79917e+09
3.25302e+08
1.17369e+08
5.9509e+07
3.67303e+07
2.57219e+07
1.95654e+07
1.56867e+07
1.30033e+07
1.10082e+07
9.44632e+06
8.18111e+06
7.1291e+06
6.23646e+06
5.47232e+06
4.8134e+06
4.24652e+06
3.75699e+06
3.3332e+06
2.96916e+06
2.6602e+06
2.40712e+06
2.22149e+06
2.12218e+06
2.14022e+06
2.29541e+06
2.66507e+06
5.37092e+06
3.00575e+07
1.79786e+09
3.25175e+08
1.17341e+08
5.94828e+07
3.66916e+07
2.56828e+07
1.95323e+07
1.56606e+07
1.29756e+07
1.09843e+07
9.4288e+06
8.16469e+06
7.11403e+06
6.22619e+06
5.46498e+06
4.80937e+06
4.24217e+06
3.75335e+06
3.33098e+06
2.9658e+06
2.65295e+06
2.38949e+06
2.17712e+06
2.02924e+06
1.96394e+06
2.00644e+06
2.15858e+06
2.52421e+06
5.26954e+06
2.94367e+07
1.79708e+09
3.24861e+08
1.17256e+08
5.94463e+07
3.66609e+07
2.56466e+07
1.94975e+07
1.56308e+07
1.29518e+07
1.09594e+07
9.40725e+06
8.14883e+06
7.09916e+06
6.21244e+06
5.45559e+06
4.80243e+06
4.23783e+06
3.74838e+06
3.32636e+06
2.96175e+06
2.64698e+06
2.37829e+06
2.15414e+06
1.97738e+06
1.86268e+06
1.82661e+06
1.88629e+06
2.02066e+06
2.38702e+06
5.2126e+06
2.90667e+07
1.79643e+09
3.24646e+08
1.1711e+08
5.93841e+07
3.66239e+07
2.56147e+07
1.94641e+07
1.55998e+07
1.29251e+07
1.09378e+07
9.38489e+06
8.12952e+06
7.08487e+06
6.19894e+06
5.44298e+06
4.79373e+06
4.23111e+06
3.74366e+06
3.32073e+06
2.95613e+06
2.64117e+06
2.36982e+06
2.13916e+06
1.94906e+06
1.80379e+06
1.71826e+06
1.70686e+06
1.77579e+06
1.87868e+06
2.25244e+06
5.20651e+06
2.85883e+07
1.79635e+09
3.24451e+08
1.17e+08
5.92947e+07
3.65739e+07
2.55794e+07
1.94337e+07
1.55696e+07
1.28975e+07
1.09139e+07
9.36527e+06
8.10945e+06
7.06753e+06
6.18607e+06
5.4306e+06
4.78207e+06
4.2229e+06
3.73706e+06
3.31558e+06
2.94985e+06
2.63459e+06
2.36232e+06
2.12825e+06
1.93038e+06
1.77006e+06
1.65287e+06
1.59291e+06
1.60149e+06
1.67154e+06
1.74004e+06
2.12414e+06
5.19411e+06
2.79752e+07
1.79645e+09
3.24345e+08
1.16895e+08
5.9223e+07
3.65103e+07
2.55371e+07
1.94007e+07
1.55415e+07
1.28704e+07
1.08891e+07
9.34388e+06
8.09172e+06
7.0495e+06
6.17049e+06
5.41893e+06
4.77064e+06
4.21203e+06
3.72921e+06
3.30897e+06
2.94427e+06
2.62765e+06
2.35478e+06
2.11909e+06
1.91703e+06
1.74773e+06
1.61373e+06
1.52166e+06
1.48387e+06
1.50738e+06
1.57054e+06
1.61094e+06
2.01034e+06
5.07599e+06
2.73715e+07
1.79708e+09
3.24269e+08
1.16818e+08
5.91525e+07
3.64573e+07
2.54875e+07
1.9364e+07
1.55116e+07
1.28449e+07
1.08648e+07
9.32153e+06
8.07249e+06
7.03349e+06
6.15427e+06
5.4049e+06
4.75995e+06
4.20141e+06
3.71896e+06
3.30137e+06
2.93754e+06
2.6217e+06
2.34718e+06
2.11058e+06
1.90623e+06
1.73196e+06
1.58778e+06
1.47723e+06
1.40753e+06
1.38855e+06
1.42136e+06
1.46946e+06
1.48784e+06
1.9037e+06
4.94871e+06
2.68382e+07
1.79769e+09
3.24293e+08
1.16752e+08
5.90943e+07
3.64042e+07
2.5445e+07
1.93231e+07
1.54793e+07
1.2818e+07
1.08419e+07
9.29977e+06
8.0524e+06
7.01612e+06
6.13973e+06
5.39029e+06
4.74725e+06
4.19156e+06
3.70903e+06
3.29166e+06
2.93011e+06
2.61478e+06
2.34087e+06
2.1023e+06
1.89671e+06
1.71952e+06
1.56957e+06
1.44764e+06
1.35817e+06
1.30817e+06
1.30446e+06
1.34022e+06
1.36416e+06
1.3653e+06
1.81688e+06
4.83313e+06
2.63326e+07
1.79838e+09
3.24307e+08
1.16718e+08
5.90413e+07
3.63573e+07
2.54022e+07
1.92875e+07
1.54443e+07
1.27894e+07
1.08177e+07
9.27915e+06
8.03295e+06
6.99807e+06
6.12399e+06
5.37702e+06
4.73403e+06
4.17997e+06
3.6999e+06
3.28231e+06
2.92086e+06
2.60744e+06
2.33371e+06
2.09559e+06
1.88774e+06
1.70895e+06
1.55547e+06
1.42696e+06
1.32489e+06
1.25448e+06
1.22144e+06
1.22913e+06
1.26085e+06
1.25254e+06
1.2429e+06
1.74685e+06
4.72493e+06
2.58902e+07
1.79915e+09
3.24346e+08
1.16683e+08
5.9004e+07
3.6313e+07
2.53625e+07
1.92513e+07
1.54135e+07
1.27589e+07
1.07922e+07
9.25741e+06
8.01449e+06
6.98073e+06
6.10774e+06
5.36273e+06
4.72185e+06
4.16791e+06
3.68924e+06
3.27374e+06
2.91203e+06
2.59858e+06
2.3264e+06
2.08819e+06
1.88058e+06
1.69928e+06
1.54383e+06
1.41118e+06
1.30169e+06
1.21749e+06
1.16415e+06
1.14531e+06
1.16004e+06
1.18037e+06
1.14077e+06
1.12667e+06
1.69287e+06
4.61883e+06
2.55916e+07
1.7995e+09
3.24386e+08
1.16657e+08
5.89656e+07
3.62777e+07
2.53245e+07
1.92173e+07
1.53824e+07
1.27318e+07
1.07651e+07
9.23452e+06
7.99493e+06
6.9641e+06
6.09218e+06
5.34803e+06
4.70886e+06
4.15672e+06
3.6782e+06
3.26387e+06
2.90392e+06
2.59023e+06
2.31785e+06
2.08087e+06
1.87293e+06
1.69164e+06
1.53343e+06
1.39842e+06
1.28417e+06
1.19168e+06
1.1237e+06
1.08532e+06
1.07779e+06
1.09458e+06
1.09648e+06
1.03297e+06
1.0276e+06
1.65229e+06
4.52158e+06
2.56362e+07
1.79908e+09
3.24381e+08
1.1663e+08
5.89303e+07
3.62416e+07
2.5292e+07
1.91841e+07
1.53528e+07
1.27046e+07
1.0741e+07
9.21033e+06
7.9743e+06
6.94655e+06
6.07715e+06
5.334e+06
4.69552e+06
4.14485e+06
3.66786e+06
3.25373e+06
2.89473e+06
2.58252e+06
2.30991e+06
2.07255e+06
1.86556e+06
1.6837e+06
1.52526e+06
1.38726e+06
1.27025e+06
1.17237e+06
1.09519e+06
1.04192e+06
1.01626e+06
1.01682e+06
1.0301e+06
1.00719e+06
925434
954039
1.62462e+06
4.44756e+06
2.56784e+07
1.79816e+09
3.24249e+08
1.16599e+08
5.88981e+07
3.62076e+07
2.5259e+07
1.91546e+07
1.53237e+07
1.26785e+07
1.07169e+07
9.18857e+06
7.95258e+06
6.92789e+06
6.06137e+06
5.32042e+06
4.6828e+06
4.1327e+06
3.65695e+06
3.24416e+06
2.88538e+06
2.57389e+06
2.30257e+06
2.06493e+06
1.85741e+06
1.67623e+06
1.51701e+06
1.37853e+06
1.25829e+06
1.15722e+06
1.074e+06
1.0107e+06
970546
955285
960260
963941
914714
818690
901566
1.61208e+06
4.3851e+06
2.60937e+07
1.79634e+09
3.24002e+08
1.1652e+08
5.88647e+07
3.61753e+07
2.52274e+07
1.91248e+07
1.52973e+07
1.2653e+07
1.06938e+07
9.16705e+06
7.93293e+06
6.90843e+06
6.04452e+06
5.30624e+06
4.67054e+06
4.12114e+06
3.64586e+06
3.23409e+06
2.87647e+06
2.56521e+06
2.2944e+06
2.05789e+06
1.85002e+06
1.6682e+06
1.5094e+06
1.36993e+06
1.24895e+06
1.14442e+06
1.05756e+06
987549
936913
908049
900689
905833
893632
822538
720667
865854
1.60467e+06
4.35658e+06
2.65282e+07
1.7944e+09
3.23635e+08
1.16405e+08
5.88112e+07
3.61448e+07
2.51975e+07
1.90961e+07
1.52706e+07
1.26294e+07
1.06711e+07
9.14655e+06
7.91357e+06
6.89068e+06
6.02699e+06
5.29099e+06
4.65772e+06
4.11e+06
3.63533e+06
3.22392e+06
2.86718e+06
2.55693e+06
2.28631e+06
2.05012e+06
1.8432e+06
1.66097e+06
1.50144e+06
1.36215e+06
1.23998e+06
1.13444e+06
1.04387e+06
969737
911729
872480
852973
850652
851194
818740
729570
644066
845218
1.60175e+06
4.35032e+06
2.68568e+07
1.79255e+09
3.23235e+08
1.16248e+08
5.87399e+07
3.61039e+07
2.51694e+07
1.90685e+07
1.52448e+07
1.26056e+07
1.06501e+07
9.12638e+06
7.89519e+06
6.87319e+06
6.01095e+06
5.27522e+06
4.64393e+06
4.09837e+06
3.62514e+06
3.21429e+06
2.85784e+06
2.54831e+06
2.27858e+06
2.04251e+06
1.83577e+06
1.65432e+06
1.49432e+06
1.3542e+06
1.23198e+06
1.12505e+06
1.03319e+06
955089
892451
845413
816058
803831
803229
794004
741243
635416
592845
835937
1.59967e+06
4.36508e+06
2.70937e+07
1.7911e+09
3.22852e+08
1.16085e+08
5.86526e+07
3.60543e+07
2.51361e+07
1.90434e+07
1.522e+07
1.25826e+07
1.06288e+07
9.1075e+06
7.87719e+06
6.85664e+06
5.99516e+06
5.26066e+06
4.62976e+06
4.08588e+06
3.61456e+06
3.20493e+06
2.84901e+06
2.53972e+06
2.27056e+06
2.03526e+06
1.82857e+06
1.64719e+06
1.4878e+06
1.34714e+06
1.224e+06
1.11679e+06
1.02334e+06
943657
876775
824594
787445
766350
759060
756339
732074
662177
546321
561966
833151
1.59814e+06
4.37985e+06
2.73413e+07
1.78998e+09
3.22533e+08
1.15925e+08
5.85612e+07
3.59959e+07
2.50979e+07
1.90149e+07
1.51973e+07
1.25605e+07
1.06083e+07
9.08847e+06
7.86033e+06
6.84057e+06
5.98023e+06
5.2464e+06
4.61651e+06
4.07316e+06
3.60321e+06
3.19528e+06
2.84039e+06
2.53162e+06
2.26262e+06
2.02776e+06
1.82172e+06
1.64034e+06
1.4809e+06
1.3407e+06
1.21695e+06
1.10873e+06
1.01477e+06
933294
864520
807803
765179
736633
722051
716978
707833
666573
580788
475404
543495
833805
1.59467e+06
4.38958e+06
2.75546e+07
1.78959e+09
3.22295e+08
1.15788e+08
5.84719e+07
3.5937e+07
2.50556e+07
1.89839e+07
1.51726e+07
1.254e+07
1.05885e+07
9.07011e+06
7.84339e+06
6.82552e+06
5.96585e+06
5.23285e+06
4.60354e+06
4.06107e+06
3.59176e+06
3.18494e+06
2.83155e+06
2.52368e+06
2.25516e+06
2.02038e+06
1.81467e+06
1.63382e+06
1.47433e+06
1.33399e+06
1.21056e+06
1.10165e+06
1.00659e+06
924378
853596
794650
747221
713176
691833
681801
675805
655803
599554
497084
428882
534266
834227
1.59022e+06
4.39437e+06
2.77382e+07
1.7899e+09
3.22163e+08
1.15677e+08
5.83928e+07
3.58788e+07
2.50131e+07
1.89506e+07
1.51463e+07
1.25181e+07
1.05701e+07
9.05239e+06
7.82695e+06
6.81038e+06
5.95236e+06
5.21996e+06
4.59128e+06
4.04927e+06
3.58074e+06
3.1746e+06
2.82211e+06
2.51554e+06
2.2478e+06
2.01346e+06
1.80776e+06
1.62716e+06
1.4681e+06
1.32765e+06
1.20399e+06
1.09526e+06
999433
916020
844283
783107
733079
694141
667533
651894
644153
633771
600242
529759
418944
402298
531155
834087
1.58707e+06
4.3961e+06
2.79031e+07
1.79056e+09
3.22147e+08
1.15609e+08
5.83277e+07
3.5826e+07
2.49714e+07
1.89179e+07
1.51187e+07
1.24954e+07
1.05505e+07
9.03577e+06
7.81108e+06
6.79565e+06
5.93879e+06
5.20784e+06
4.57967e+06
4.03814e+06
3.57005e+06
3.1646e+06
2.81275e+06
2.5069e+06
2.24029e+06
2.00662e+06
1.8013e+06
1.62066e+06
1.46177e+06
1.32166e+06
1.19783e+06
1.08879e+06
993002
908747
835700
773346
720851
678980
647626
627225
615617
607616
588421
542222
455967
359773
388238
530463
832732
1.58453e+06
4.39487e+06
2.80786e+07
1.79185e+09
3.22228e+08
1.15578e+08
5.82823e+07
3.57812e+07
2.49325e+07
1.88854e+07
1.50919e+07
1.24716e+07
1.05303e+07
9.01816e+06
7.79603e+06
6.78144e+06
5.92554e+06
5.19565e+06
4.56871e+06
4.02768e+06
3.55991e+06
3.15489e+06
2.80368e+06
2.49842e+06
2.23234e+06
1.99964e+06
1.79492e+06
1.6146e+06
1.45563e+06
1.31562e+06
1.19203e+06
1.08277e+06
986588
902239
828269
764494
710590
665995
631558
606732
591224
581736
569868
539617
481486
380708
323985
381829
529961
831168
1.58096e+06
4.38939e+06
2.82181e+07
1.7936e+09
3.22382e+08
1.15578e+08
5.82536e+07
3.57477e+07
2.48991e+07
1.88553e+07
1.50654e+07
1.24487e+07
1.05094e+07
9e+06
7.78016e+06
6.76789e+06
5.91284e+06
5.18371e+06
4.55773e+06
4.01774e+06
3.55043e+06
3.14566e+06
2.79487e+06
2.4902e+06
2.22463e+06
1.99231e+06
1.78843e+06
1.60862e+06
1.44992e+06
1.30977e+06
1.18623e+06
1.07712e+06
980660
895840
821645
756857
701414
655177
617825
589954
570533
558442
548286
529038
488744
416454
315850
305202
379265
529157
830067
1.57611e+06
4.36781e+06
2.80253e+07
1.79506e+09
3.22619e+08
1.15606e+08
5.82399e+07
3.57228e+07
2.48725e+07
1.88284e+07
1.50405e+07
1.24261e+07
1.04894e+07
8.98136e+06
7.76374e+06
6.75353e+06
5.90059e+06
5.17235e+06
4.54694e+06
4.00781e+06
3.54142e+06
3.13702e+06
2.78645e+06
2.48219e+06
2.21714e+06
1.98525e+06
1.78163e+06
1.60256e+06
1.44429e+06
1.30436e+06
1.18065e+06
1.07151e+06
975124
889965
815221
750079
693529
645622
606391
575582
553297
537951
527297
513627
485656
435160
346919
273565
296393
378419
528488
829128
1.56721e+06
4.35635e+06
2.79826e+07
1.79642e+09
3.22831e+08
1.15663e+08
5.82381e+07
3.57056e+07
2.48506e+07
1.88064e+07
1.50182e+07
1.2405e+07
1.04696e+07
8.96355e+06
7.74696e+06
6.73865e+06
5.88759e+06
5.1613e+06
4.53678e+06
3.99804e+06
3.53239e+06
3.12882e+06
2.7786e+06
2.47451e+06
2.20984e+06
1.9784e+06
1.77515e+06
1.59625e+06
1.43862e+06
1.29905e+06
1.17549e+06
1.06614e+06
969668
884504
809359
743589
686555
637436
596394
563551
538446
520655
507884
496398
476541
440291
377040
282194
251527
292902
377995
527971
827459
1.56317e+06
4.39539e+06
2.81265e+07
1.79789e+09
3.23028e+08
1.1571e+08
5.82503e+07
3.56947e+07
2.48332e+07
1.87871e+07
1.49993e+07
1.23859e+07
1.04512e+07
8.946e+06
7.73096e+06
6.7235e+06
5.87413e+06
5.14957e+06
4.52682e+06
3.98893e+06
3.52355e+06
3.12063e+06
2.77108e+06
2.46734e+06
2.2028e+06
1.9717e+06
1.76885e+06
1.59026e+06
1.43272e+06
1.29371e+06
1.17044e+06
1.0612e+06
964477
879165
803941
737705
679956
630224
587853
553099
525927
505588
491092
479241
464525
437177
392188
313218
237227
241621
291469
377595
527396
824992
1.56966e+06
4.41704e+06
2.81842e+07
1.79895e+09
3.23212e+08
1.15753e+08
5.82589e+07
3.56916e+07
2.48193e+07
1.87707e+07
1.49824e+07
1.23695e+07
1.04345e+07
8.92965e+06
7.71523e+06
6.70895e+06
5.86041e+06
5.1374e+06
4.5162e+06
3.97994e+06
3.51534e+06
3.11258e+06
2.76364e+06
2.46046e+06
2.19624e+06
1.96523e+06
1.76269e+06
1.58444e+06
1.42716e+06
1.28818e+06
1.16538e+06
1.05637e+06
959698
874110
798681
732292
674012
623472
580349
544160
515064
492751
476175
463642
450694
430159
396073
339224
251394
213938
237600
290882
377272
526727
824935
1.57284e+06
4.44017e+06
2.82235e+07
1.79981e+09
3.23375e+08
1.15796e+08
5.82672e+07
3.56872e+07
2.48099e+07
1.87564e+07
1.49675e+07
1.23546e+07
1.042e+07
8.91494e+06
7.70052e+06
6.69477e+06
5.84715e+06
5.12494e+06
4.50522e+06
3.97031e+06
3.50722e+06
3.10515e+06
2.75631e+06
2.45366e+06
2.18992e+06
1.9592e+06
1.75671e+06
1.57875e+06
1.42176e+06
1.28299e+06
1.16018e+06
1.05156e+06
955060
869471
793732
727079
668573
617434
573401
536304
505743
481572
463265
449342
437153
420760
393804
352048
280008
207335
203681
236067
290544
376938
527008
824395
1.57453e+06
4.47046e+06
2.82584e+07
1.80038e+09
3.23491e+08
1.15836e+08
5.82746e+07
3.56819e+07
2.48e+07
1.8745e+07
1.49539e+07
1.23412e+07
1.04069e+07
8.90196e+06
7.68739e+06
6.68151e+06
5.83431e+06
5.11291e+06
4.49398e+06
3.96039e+06
3.49852e+06
3.09782e+06
2.74957e+06
2.44698e+06
2.18369e+06
1.95339e+06
1.75115e+06
1.57322e+06
1.4165e+06
1.27797e+06
1.15532e+06
1.04665e+06
950472
864990
789196
722200
663374
611931
567234
529111
497534
471942
451927
436690
424092
410316
388585
355948
302566
221992
185014
199610
235425
290279
376928
527114
823796
1.57532e+06
4.49845e+06
2.82918e+07
1.80055e+09
3.23556e+08
1.15858e+08
5.82828e+07
3.56779e+07
2.47905e+07
1.87333e+07
1.49426e+07
1.23289e+07
1.0395e+07
8.89023e+06
7.67579e+06
6.66971e+06
5.82225e+06
5.10125e+06
4.48302e+06
3.95028e+06
3.48953e+06
3.08998e+06
2.74292e+06
2.44086e+06
2.17758e+06
1.94766e+06
1.74579e+06
1.56808e+06
1.41137e+06
1.27307e+06
1.15061e+06
1.04206e+06
945799
860577
784839
717738
658533
606711
561633
522779
490060
463441
442094
425419
412149
399299
381733
354700
314835
246501
181363
175587
198044
235106
290247
376920
527015
822639
1.57116e+06
4.49519e+06
2.83239e+07
1.80046e+09
3.23561e+08
1.15867e+08
5.82857e+07
3.56759e+07
2.47815e+07
1.8722e+07
1.49309e+07
1.23183e+07
1.03839e+07
8.87964e+06
7.66527e+06
6.6593e+06
5.81161e+06
5.0903e+06
4.47245e+06
3.94035e+06
3.48043e+06
3.08185e+06
2.73584e+06
2.43479e+06
2.172e+06
1.94205e+06
1.74052e+06
1.56312e+06
1.4066e+06
1.2683e+06
1.14604e+06
1.03764e+06
941448
856119
780573
713477
654116
601876
556354
517036
483534
455731
433382
415540
401269
388649
373721
351342
319162
267363
192978
161758
171909
197416
234999
290242
376871
526649
820739
1.58118e+06
4.44578e+06
2.83566e+07
1.79992e+09
3.23511e+08
1.15854e+08
5.82805e+07
3.56699e+07
2.47744e+07
1.87115e+07
1.49196e+07
1.23074e+07
1.03742e+07
8.86984e+06
7.6559e+06
6.64982e+06
5.80225e+06
5.08066e+06
4.46255e+06
3.93077e+06
3.47145e+06
3.07365e+06
2.7285e+06
2.42838e+06
2.16645e+06
1.93695e+06
1.73536e+06
1.55825e+06
1.402e+06
1.26386e+06
1.14159e+06
1.03335e+06
937269
851966
776291
709323
649921
597477
551495
511668
477602
448953
425485
406734
391581
378605
365062
346186
319700
279847
213569
158033
153880
170499
197195
234968
290262
376820
525443
823474
1.58094e+06
4.49239e+06
2.83898e+07
1.79913e+09
3.23399e+08
1.15829e+08
5.82668e+07
3.56613e+07
2.47661e+07
1.87028e+07
1.49091e+07
1.22969e+07
1.03644e+07
8.86117e+06
7.64719e+06
6.64151e+06
5.79373e+06
5.07216e+06
4.45379e+06
3.92175e+06
3.46278e+06
3.06552e+06
2.72115e+06
2.42174e+06
2.16062e+06
1.93186e+06
1.73068e+06
1.55349e+06
1.39748e+06
1.25957e+06
1.13743e+06
1.02917e+06
933227
847996
772310
705192
645850
593322
547086
506751
472105
442839
418503
398730
382854
369438
356439
340144
317195
285857
233142
165628
142503
150851
169995
197133
234977
290244
376524
525754
823231
1.59485e+06
4.50888e+06
2.84234e+07
1.79814e+09
3.23243e+08
1.15777e+08
5.82472e+07
3.56482e+07
2.47559e+07
1.86933e+07
1.49001e+07
1.22871e+07
1.03549e+07
8.85243e+06
7.63957e+06
6.63384e+06
5.78628e+06
5.06455e+06
4.44606e+06
3.91381e+06
3.45458e+06
3.05769e+06
2.71381e+06
2.41517e+06
2.15461e+06
1.92654e+06
1.726e+06
1.54917e+06
1.39307e+06
1.25537e+06
1.13342e+06
1.02527e+06
929288
844165
768512
701348
641843
589299
542937
502301
467100
437198
412228
391611
374867
361038
348232
333676
313696
287137
246888
181716
137937
136584
149728
169835
197125
234972
290047
376651
525106
825492
1.60319e+06
4.51901e+06
2.84577e+07
1.797e+09
3.23052e+08
1.15712e+08
5.82183e+07
3.56331e+07
2.47434e+07
1.86832e+07
1.48907e+07
1.22785e+07
1.03459e+07
8.84382e+06
7.63179e+06
6.62707e+06
5.77951e+06
5.05778e+06
4.43919e+06
3.9068e+06
3.44738e+06
3.05027e+06
2.70675e+06
2.40855e+06
2.14868e+06
1.92107e+06
1.72114e+06
1.54487e+06
1.38909e+06
1.25127e+06
1.1295e+06
1.0215e+06
925616
840439
764863
697697
638107
585392
538934
498131
462577
432072
406453
385214
367709
353252
340498
326954
309285
286257
254042
200028
141270
126819
134347
149344
169800
197131
234894
290040
376577
525546
824392
1.59955e+06
4.52592e+06
2.84931e+07
1.79625e+09
3.22859e+08
1.15641e+08
5.81836e+07
3.56125e+07
2.47304e+07
1.86718e+07
1.4881e+07
1.22696e+07
1.0338e+07
8.83578e+06
7.62409e+06
6.62026e+06
5.77348e+06
5.05172e+06
4.43304e+06
3.90052e+06
3.441e+06
3.04373e+06
2.70003e+06
2.40219e+06
2.14272e+06
1.91571e+06
1.71614e+06
1.54041e+06
1.38511e+06
1.24757e+06
1.12568e+06
1.01784e+06
922065
836960
761321
694200
634573
581740
535109
494115
458354
427438
401200
379335
361258
346200
333173
320332
304489
283704
257066
214081
152350
121495
122707
133548
149231
169806
197094
234895
290028
376618
525170
829314
1.59319e+06
4.53152e+06
2.85284e+07
1.79509e+09
3.22686e+08
1.15569e+08
5.81447e+07
3.55891e+07
2.47146e+07
1.86602e+07
1.48707e+07
1.22606e+07
1.03298e+07
8.82858e+06
7.61692e+06
6.6134e+06
5.76747e+06
5.04635e+06
4.42757e+06
3.89494e+06
3.43526e+06
3.03795e+06
2.69411e+06
2.39612e+06
2.13697e+06
1.9103e+06
1.71127e+06
1.53583e+06
1.381e+06
1.24388e+06
1.12223e+06
1.01426e+06
918617
833603
758013
690814
631204
578296
531509
490362
454336
423126
396447
373982
355324
339803
326431
313818
299536
280770
257271
223290
167028
121145
114173
121189
133289
149211
169793
197094
234881
290092
376214
527235
831175
1.6032e+06
4.53643e+06
2.85637e+07
1.79396e+09
3.22486e+08
1.15503e+08
5.81081e+07
3.55651e+07
2.46978e+07
1.86471e+07
1.48603e+07
1.22513e+07
1.03216e+07
8.82119e+06
7.61056e+06
6.60699e+06
5.7614e+06
5.04094e+06
4.42276e+06
3.89e+06
3.43017e+06
3.03271e+06
2.68885e+06
2.39079e+06
2.13147e+06
1.90508e+06
1.70635e+06
1.53139e+06
1.3768e+06
1.24009e+06
1.11879e+06
1.01102e+06
915249
830344
754820
687653
627949
575027
528132
486782
450552
419070
392035
369132
349910
333893
320244
307661
294269
277395
256318
228072
181275
126462
108438
111483
120672
133224
149206
169803
197104
234875
289976
376901
527637
836175
1.60682e+06
4.54135e+06
2.85986e+07
1.79346e+09
3.22295e+08
1.1543e+08
5.80731e+07
3.55425e+07
2.46805e+07
1.86337e+07
1.48491e+07
1.22421e+07
1.03132e+07
8.81372e+06
7.60387e+06
6.60132e+06
5.75569e+06
5.03555e+06
4.4179e+06
3.88564e+06
3.42568e+06
3.02804e+06
2.68408e+06
2.38599e+06
2.12665e+06
1.90007e+06
1.70161e+06
1.5269e+06
1.37273e+06
1.23622e+06
1.11528e+06
1.00781e+06
912210
827166
751731
684602
624909
571881
524942
483449
447002
415243
387907
364636
344995
328484
314482
301905
289040
273563
254384
230218
192021
136361
105695
103944
110528
120522
133211
149221
169817
197124
234794
290354
377230
527133
832139
1.60911e+06
4.54636e+06
2.86342e+07
1.79235e+09
3.22165e+08
1.15362e+08
5.80365e+07
3.55207e+07
2.46647e+07
1.86204e+07
1.48379e+07
1.22322e+07
1.03048e+07
8.80603e+06
7.59705e+06
6.59541e+06
5.75061e+06
5.03056e+06
4.41307e+06
3.88128e+06
3.42169e+06
3.02392e+06
2.67979e+06
2.38164e+06
2.12226e+06
1.8957e+06
1.69704e+06
1.52259e+06
1.36864e+06
1.23249e+06
1.11171e+06
1.00455e+06
909197
824298
748714
681659
621981
568944
521881
480313
443693
411688
384021
360433
340441
323553
309174
296467
284015
269621
251876
230514
199366
148213
106245
98276.7
102305
110231
120487
133227
149246
169841
197078
235060
290609
377279
530191
833898
1.61084e+06
4.55159e+06
2.86691e+07
1.79172e+09
3.22007e+08
1.15314e+08
5.80021e+07
3.54985e+07
2.46492e+07
1.86083e+07
1.48269e+07
1.22223e+07
1.0296e+07
8.79849e+06
7.59014e+06
6.58927e+06
5.74538e+06
5.02598e+06
4.40871e+06
3.87695e+06
3.41775e+06
3.02024e+06
2.67599e+06
2.37769e+06
2.11827e+06
1.89168e+06
1.69304e+06
1.51842e+06
1.36469e+06
1.22873e+06
1.10827e+06
1.00124e+06
906149
821456
745997
678780
619161
566119
519025
477316
440589
408382
380432
356484
336188
318980
304305
291400
279141
265721
249173
229636
203603
159866
110536
94328.5
95633.8
101761
110150
120497
133255
149282
169826
197213
235196
290462
378919
532899
836337
1.61246e+06
4.55706e+06
2.87012e+07
1.79107e+09
3.21868e+08
1.15253e+08
5.79751e+07
3.54776e+07
2.46342e+07
1.85968e+07
1.48171e+07
1.22128e+07
1.02872e+07
8.79051e+06
7.5833e+06
6.58292e+06
5.73985e+06
5.02127e+06
4.40458e+06
3.87305e+06
3.41386e+06
3.01665e+06
2.67258e+06
2.37418e+06
2.11463e+06
1.888e+06
1.68936e+06
1.51475e+06
1.36087e+06
1.22511e+06
1.10481e+06
998050
903065
818597
743305
676198
616399
563404
516284
474520
437633
405287
377104
352848
332192
314710
299776
286710
274511
261707
246327
228189
205510
169213
118161
92254.3
90269.9
94713.7
101601
110142
120524
133299
149290
169889
197248
235158
291392
379475
531804
837512
1.61415e+06
4.56293e+06
2.8734e+07
1.79054e+09
3.21749e+08
1.15203e+08
5.79483e+07
3.5461e+07
2.46201e+07
1.85853e+07
1.48075e+07
1.22045e+07
1.02788e+07
8.7826e+06
7.57612e+06
6.57675e+06
5.73417e+06
5.01631e+06
4.40032e+06
3.86936e+06
3.41037e+06
3.0131e+06
2.66927e+06
2.37101e+06
2.11139e+06
1.88465e+06
1.68598e+06
1.51136e+06
1.35751e+06
1.2216e+06
1.10148e+06
994861
900107
815715
740610
673636
613940
560731
513654
471842
434877
402349
373993
349482
328513
310693
295539
282319
270158
257749
243318
226284
206054
175753
127586
92312.7
86065.1
88822.7
94430.5
101567
110161
120563
133332
149346
169928
197157
235656
292025
381230
532035
838459
1.61596e+06
4.56893e+06
2.87645e+07
1.79008e+09
3.21657e+08
1.1516e+08
5.79208e+07
3.54445e+07
2.46083e+07
1.85746e+07
1.47983e+07
1.21964e+07
1.02714e+07
8.77503e+06
7.56893e+06
6.57029e+06
5.7285e+06
5.01123e+06
4.39586e+06
3.86551e+06
3.40701e+06
3.00996e+06
2.66601e+06
2.36793e+06
2.10844e+06
1.88166e+06
1.68288e+06
1.50825e+06
1.35438e+06
1.21851e+06
1.09826e+06
991792
897154
812956
737903
671080
611482
558387
511045
469281
432244
399614
371050
346344
325112
306990
291540
278189
266034
253943
240271
224168
205654
179992
136948
94830.2
82938.7
83902
88359.4
94361.4
101576
110198
120602
133410
149417
169865
197519
236152
293212
382640
533212
839463
1.61794e+06
4.57544e+06
2.87945e+07
1.78992e+09
3.21575e+08
1.15128e+08
5.78986e+07
3.54276e+07
2.45967e+07
1.85654e+07
1.47896e+07
1.21884e+07
1.02642e+07
8.76821e+06
7.56205e+06
6.56376e+06
5.72265e+06
5.00612e+06
4.39129e+06
3.86148e+06
3.40351e+06
3.00688e+06
2.66312e+06
2.36488e+06
2.10558e+06
1.87891e+06
1.6801e+06
1.50537e+06
1.3515e+06
1.21562e+06
1.0954e+06
988816
894315
810209
735317
668526
609049
556015
508821
466771
429731
397007
368315
343381
321947
303565
287848
274274
262122
250275
237282
221988
204655
182393
145314
99605
80938.1
79818.9
83182
88237.1
94360.4
101606
110228
120679
133489
149399
170114
197940
237010
293312
380567
533804
840545
1.62018e+06
4.58229e+06
2.88232e+07
1.7895e+09
3.21523e+08
1.151e+08
5.78827e+07
3.54137e+07
2.45853e+07
1.85567e+07
1.4782e+07
1.2181e+07
1.02572e+07
8.76178e+06
7.55586e+06
6.55756e+06
5.71672e+06
5.00076e+06
4.38667e+06
3.85738e+06
3.39987e+06
3.0037e+06
2.66031e+06
2.36224e+06
2.10276e+06
1.87626e+06
1.67756e+06
1.5028e+06
1.34884e+06
1.21296e+06
1.09273e+06
986175
891561
807572
732752
666092
606627
553682
506507
464552
427294
394525
365713
340623
318965
300381
284426
270641
258385
246734
234323
219775
203373
183454
151913
106065
80150.6
76476.4
78747.2
82980.5
88222.1
94385.8
101639
110292
120755
133503
149556
170381
198509
237501
294113
381951
534439
841784
1.6226e+06
4.58965e+06
2.88527e+07
1.78943e+09
3.21479e+08
1.15084e+08
5.78686e+07
3.54038e+07
2.45754e+07
1.85483e+07
1.47746e+07
1.21745e+07
1.02506e+07
8.75554e+06
7.5499e+06
6.55178e+06
5.71109e+06
4.99532e+06
4.38184e+06
3.85317e+06
3.39618e+06
3.0004e+06
2.65741e+06
2.35964e+06
2.1003e+06
1.87364e+06
1.67508e+06
1.50042e+06
1.34644e+06
1.21047e+06
1.09025e+06
983688
889109
805017
730295