/*--------------------------------*- C++ -*----------------------------------*\
| =========                 |                                                 |
| \\      /  F ield         | OpenFOAM: The Open Source CFD Toolbox           |
|  \\    /   O peration     | Version:  v2012                                 |
|   \\  /    A nd           | Website:  www.openfoam.com                      |
|    \\/     M anipulation  |                                                 |
\*---------------------------------------------------------------------------*/
FoamFile
{
    version     2.0;
    format      ascii;
    class       volScalarField;
    location    "3900";
    object      p;
}
// * * * * * * * * * * * * * * * * * * * * * * * * * * * * * * * * * * * * * //

dimensions      [1 -1 -2 0 0 0 0];


internalField   nonuniform List<scalar> 
29502
(
3530.4
2983.39
3533.53
2755.85
2983.49
3531.22
2762.63
2755.86
2983.56
3530.15
2776.36
2762.62
2755.85
2983.73
3525.19
2794.81
2776.35
2762.61
2755.85
2983.98
3521.95
2811.41
2794.79
2776.36
2762.6
2755.83
2984.33
3517.08
2817.22
2811.4
2794.79
2776.35
2762.59
2755.82
2984.64
3513.83
2823.09
2817.22
2811.4
2794.79
2776.34
2762.58
2755.79
2984.98
3509.64
2822.54
2823.09
2817.22
2811.4
2794.79
2776.34
2762.56
2755.77
2985.27
3504.97
2821.05
2822.55
2823.09
2817.22
2811.4
2794.78
2776.33
2762.55
2755.78
2985.66
3499.65
2820.09
2821.05
2822.55
2823.09
2817.2
2811.38
2794.77
2776.32
2762.52
2755.82
2986.06
3493.83
2822.74
2820.08
2821.05
2822.55
2823.08
2817.21
2811.38
2794.77
2776.3
2762.5
2755.85
2986.48
3487.42
2825
2822.74
2820.09
2821.05
2822.55
2823.08
2817.2
2811.37
2794.75
2776.29
2762.48
2755.91
2987.07
3480.5
2820.94
2825
2822.74
2820.09
2821.05
2822.55
2823.08
2817.2
2811.36
2794.74
2776.28
2762.46
2755.95
2987.69
3473.03
2819.17
2820.94
2825
2822.74
2820.09
2821.06
2822.55
2823.08
2817.19
2811.35
2794.73
2776.26
2762.46
2755.98
2988.46
3464.96
2817.5
2819.17
2820.94
2824.99
2822.74
2820.09
2821.06
2822.55
2823.08
2817.18
2811.34
2794.71
2776.24
2762.47
2756.04
2989.39
3456.26
2818.88
2817.51
2819.17
2820.94
2825
2822.74
2820.09
2821.06
2822.56
2823.07
2817.17
2811.33
2794.7
2776.22
2762.48
2756.16
2990.45
3446.65
2817.96
2818.88
2817.51
2819.16
2820.94
2825.01
2822.74
2820.1
2821.07
2822.56
2823.07
2817.16
2811.31
2794.68
2776.2
2762.53
2756.37
2991.73
3436.49
2814.37
2817.97
2818.88
2817.51
2819.17
2820.94
2825
2822.74
2820.1
2821.07
2822.56
2823.06
2817.15
2811.29
2794.66
2776.17
2762.51
2756.49
2993.28
3425.5
2813.09
2814.37
2817.97
2818.88
2817.51
2819.17
2820.94
2824.99
2822.74
2820.1
2821.08
2822.56
2823.06
2817.14
2811.27
2794.63
2776.15
2762.55
2756.68
2995.09
3413.72
2813.14
2813.08
2814.37
2817.97
2818.88
2817.51
2819.17
2820.94
2824.99
2822.74
2820.11
2821.09
2822.57
2823.05
2817.13
2811.25
2794.61
2776.15
2762.61
2756.88
2997.25
3401.06
2811.84
2813.14
2813.07
2814.37
2817.97
2818.88
2817.51
2819.17
2820.94
2824.99
2822.73
2820.12
2821.09
2822.57
2823.05
2817.11
2811.23
2794.58
2776.15
2762.67
2757.11
3000
3387.5
2811.67
2811.84
2813.14
2813.07
2814.37
2817.97
2818.88
2817.52
2819.17
2820.94
2824.98
2822.73
2820.12
2821.1
2822.58
2823.04
2817.1
2811.21
2794.56
2776.14
2762.96
2757.41
3003.34
3372.95
2811.44
2811.67
2811.84
2813.14
2813.07
2814.37
2817.97
2818.88
2817.52
2819.17
2820.93
2824.98
2822.73
2820.13
2821.12
2822.58
2823.03
2817.08
2811.19
2794.55
2776.12
2763.23
2757.84
3007.45
3357.69
2810.03
2811.44
2811.68
2811.84
2813.14
2813.08
2814.36
2817.97
2818.88
2817.52
2819.17
2820.93
2824.97
2822.73
2820.14
2821.13
2822.59
2823.02
2817.06
2811.17
2794.54
2776.13
2763.41
2758.31
3012.29
3341.39
2807.64
2810.04
2811.44
2811.68
2811.84
2813.14
2813.08
2814.38
2817.97
2818.89
2817.53
2819.18
2820.93
2824.97
2822.73
2820.16
2821.14
2822.59
2823.01
2817.04
2811.15
2794.53
2776.22
2763.47
2758.81
3018.11
3324.49
2805.6
2807.66
2810.04
2811.44
2811.68
2811.84
2813.14
2813.09
2814.38
2817.97
2818.89
2817.53
2819.18
2820.93
2824.96
2822.73
2820.17
2821.16
2822.6
2823.01
2817.03
2811.13
2794.54
2776.34
2763.62
2759.29
3024.97
3306.25
2804.87
2805.61
2807.65
2810.04
2811.45
2811.68
2811.85
2813.14
2813.09
2814.38
2817.97
2818.89
2817.54
2819.18
2820.93
2824.96
2822.74
2820.18
2821.17
2822.61
2823
2817.01
2811.12
2794.55
2776.54
2763.79
2759.75
3032.99
3287.66
2805.92
2804.87
2805.61
2807.65
2810.04
2811.45
2811.67
2811.85
2813.15
2813.08
2814.37
2817.97
2818.9
2817.55
2819.19
2820.93
2824.95
2822.74
2820.2
2821.19
2822.62
2822.99
2817
2811.13
2794.59
2776.87
2764.19
2760.15
3042.19
3267.99
2806.22
2805.91
2804.87
2805.6
2807.65
2810.04
2811.45
2811.67
2811.86
2813.15
2813.07
2814.37
2817.97
2818.9
2817.55
2819.19
2820.93
2824.94
2822.74
2820.22
2821.21
2822.63
2822.99
2817
2811.13
2794.61
2777.03
2764.61
2760.47
3052.72
3248.44
2806.19
2806.2
2805.91
2804.87
2805.6
2807.65
2810.04
2811.46
2811.68
2811.87
2813.15
2813.07
2814.37
2817.97
2818.91
2817.56
2819.2
2820.93
2824.94
2822.75
2820.24
2821.23
2822.64
2822.98
2817
2811.17
2794.78
2777.22
2765.23
2760.79
3064.18
3227.64
2805.2
2806.18
2806.2
2805.91
2804.86
2805.6
2807.65
2810.04
2811.46
2811.69
2811.87
2813.16
2813.07
2814.37
2817.97
2818.91
2817.58
2819.21
2820.93
2824.93
2822.75
2820.26
2821.26
2822.65
2822.99
2817.01
2811.18
2795
2777.51
2766.08
2761.15
3077.04
3210.89
2803.94
2805.2
2806.18
2806.21
2805.9
2804.86
2805.6
2807.65
2810.05
2811.47
2811.7
2811.88
2813.17
2813.06
2814.36
2817.97
2818.92
2817.59
2819.22
2820.93
2824.93
2822.76
2820.28
2821.28
2822.67
2823
2817.05
2811.35
2795.14
2777.76
2767.18
2761.94
3088.87
3192.18
2801.89
2803.94
2805.2
2806.18
2806.2
2805.9
2804.85
2805.59
2807.64
2810.05
2811.48
2811.71
2811.9
2813.17
2813.06
2814.36
2817.97
2818.93
2817.61
2819.23
2820.94
2824.92
2822.77
2820.31
2821.31
2822.68
2823.01
2817.09
2811.42
2795.39
2778.05
2768.37
2763.11
3099.97
3173.04
2799.81
2801.89
2803.94
2805.2
2806.18
2806.2
2805.89
2804.85
2805.59
2807.64
2810.05
2811.49
2811.73
2811.91
2813.18
2813.06
2814.36
2817.97
2818.93
2817.62
2819.24
2820.94
2824.92
2822.78
2820.34
2821.34
2822.7
2823.04
2817.15
2811.61
2795.67
2778.43
2769.62
2765.99
3111.34
3152.91
2797.44
2799.82
2801.89
2803.94
2805.2
2806.19
2806.2
2805.89
2804.84
2805.58
2807.64
2810.05
2811.5
2811.75
2811.93
2813.19
2813.05
2814.36
2817.97
2818.94
2817.64
2819.25
2820.95
2824.93
2822.79
2820.38
2821.38
2822.72
2823.08
2817.27
2811.78
2795.99
2779.08
2770.41
2768.88
3118.86
3131.37
2795.42
2797.44
2799.82
2801.9
2803.94
2805.2
2806.19
2806.19
2805.88
2804.83
2805.57
2807.63
2810.06
2811.51
2811.77
2811.94
2813.2
2813.05
2814.36
2817.98
2818.95
2817.66
2819.27
2820.96
2824.93
2822.81
2820.41
2821.43
2822.75
2823.13
2817.38
2812.06
2796.33
2779.99
2770.81
2775.11
3127.01
3109.22
2793.82
2795.43
2797.44
2799.82
2801.89
2803.96
2805.22
2806.18
2806.19
2805.87
2804.82
2805.56
2807.63
2810.06
2811.52
2811.79
2811.96
2813.21
2813.05
2814.36
2817.98
2818.97
2817.68
2819.29
2820.98
2824.94
2822.84
2820.45
2821.48
2822.8
2823.24
2817.56
2812.35
2796.64
2781.42
2771.09
2782.03
3129.31
3084.43
2793.39
2793.83
2795.43
2797.45
2799.83
2801.9
2803.95
2805.21
2806.18
2806.18
2805.86
2804.81
2805.55
2807.62
2810.07
2811.54
2811.82
2811.99
2813.22
2813.05
2814.36
2817.98
2818.98
2817.7
2819.31
2820.99
2824.96
2822.87
2820.5
2821.54
2822.87
2823.35
2817.77
2812.71
2796.95
2782.74
2769.77
2793.81
3132.2
3057.75
2794.06
2793.4
2793.83
2795.43
2797.45
2799.83
2801.9
2803.95
2805.2
2806.18
2806.18
2805.85
2804.79
2805.54
2807.62
2810.07
2811.55
2811.85
2812.01
2813.24
2813.05
2814.37
2817.99
2818.99
2817.73
2819.34
2821.01
2824.98
2822.9
2820.55
2821.6
2822.96
2823.52
2818.06
2813.09
2797.7
2785.31
2771.66
2807.18
3127.44
3029.14
2795.8
2794.06
2793.39
2793.83
2795.43
2797.45
2799.83
2801.91
2803.95
2805.21
2806.18
2806.17
2805.83
2804.78
2805.53
2807.61
2810.08
2811.57
2811.88
2812.04
2813.25
2813.05
2814.37
2818
2819.01
2817.75
2819.37
2821.04
2825.01
2822.95
2820.62
2821.68
2823.07
2823.72
2818.39
2813.48
2798.48
2785.97
2769.61
2825.46
3126.35
2997.23
2797.91
2795.8
2794.06
2793.39
2793.83
2795.43
2797.46
2799.84
2801.91
2803.96
2805.21
2806.18
2806.16
2805.82
2804.76
2805.52
2807.61
2810.08
2811.59
2811.91
2812.07
2813.27
2813.06
2814.38
2818
2819.03
2817.78
2819.41
2821.07
2825.04
2823
2820.69
2821.78
2823.22
2823.97
2818.77
2813.8
2800.24
2788.59
2773.02
2844.61
3122.54
2959.27
2799.87
2797.91
2795.8
2794.06
2793.39
2793.83
2795.43
2797.46
2799.85
2801.92
2803.97
2805.22
2806.18
2806.16
2805.81
2804.74
2805.51
2807.6
2810.09
2811.61
2811.95
2812.1
2813.29
2813.07
2814.39
2818.01
2819.05
2817.81
2819.45
2821.11
2825.09
2823.06
2820.78
2821.9
2823.4
2824.28
2819.19
2814.48
2801.09
2782.95
2772.38
2868.52
3121.57
2919.33
2801.18
2799.87
2797.91
2795.79
2794.05
2793.39
2793.83
2795.44
2797.47
2799.85
2801.93
2803.98
2805.23
2806.18
2806.15
2805.79
2804.73
2805.49
2807.59
2810.09
2811.63
2811.98
2812.13
2813.31
2813.09
2814.41
2818.03
2819.07
2817.85
2819.5
2821.15
2825.15
2823.14
2820.9
2822.05
2823.63
2824.64
2819.59
2815.33
2806.13
2786.36
2778.75
2891.01
3119.07
2873.39
2801.95
2801.18
2799.87
2797.91
2795.79
2794.05
2793.39
2793.83
2795.44
2797.48
2799.86
2801.94
2803.99
2805.24
2806.18
2806.14
2805.77
2804.71
2805.48
2807.58
2810.1
2811.65
2812.02
2812.16
2813.34
2813.11
2814.43
2818.04
2819.1
2817.88
2819.56
2821.21
2825.22
2823.24
2821.05
2822.24
2823.9
2825.06
2820.01
2816.8
2805.89
2776.46
2779.13
2915.4
3115.05
2826.48
2802
2801.96
2801.18
2799.87
2797.91
2795.79
2794.05
2793.39
2793.83
2795.45
2797.48
2799.87
2801.96
2804
2805.25
2806.18
2806.13
2805.76
2804.69
2805.47
2807.57
2810.1
2811.68
2812.06
2812.2
2813.37
2813.13
2814.46
2818.06
2819.13
2817.93
2819.63
2821.27
2825.31
2823.36
2821.22
2822.47
2824.24
2825.49
2820.56
2818.24
2809.11
2779.13
2785.5
2937.96
3109.05
2776.65
2800.95
2802
2801.95
2801.18
2799.86
2797.9
2795.78
2794.04
2793.39
2793.84
2795.45
2797.49
2799.89
2801.97
2804.02
2805.26
2806.18
2806.12
2805.74
2804.67
2805.45
2807.57
2810.11
2811.7
2812.1
2812.23
2813.4
2813.17
2814.49
2818.08
2819.16
2817.97
2819.72
2821.34
2825.42
2823.52
2821.44
2822.74
2824.61
2825.91
2821.8
2822.45
2804.57
2777.69
2790.87
2962.06
3098.3
2727.36
2798.87
2800.95
2802
2801.95
2801.18
2799.86
2797.9
2795.78
2794.04
2793.39
2793.84
2795.46
2797.51
2799.9
2801.99
2804.03
2805.27
2806.18
2806.11
2805.72
2804.65
2805.44
2807.56
2810.12
2811.72
2812.14
2812.27
2813.44
2813.21
2814.53
2818.11
2819.2
2818.03
2819.81
2821.43
2825.57
2823.7
2821.7
2823.06
2825.04
2826.19
2822.37
2822.72
2806.94
2778.07
2800.37
2982.06
3084.24
2678.96
2796.33
2798.87
2800.95
2802
2801.95
2801.18
2799.86
2797.89
2795.77
2794.04
2793.39
2793.84
2795.47
2797.52
2799.92
2802.01
2804.05
2805.29
2806.19
2806.11
2805.71
2804.63
2805.43
2807.55
2810.12
2811.74
2812.18
2812.31
2813.48
2813.26
2814.58
2818.14
2819.24
2818.09
2819.93
2821.53
2825.74
2823.92
2822.01
2823.42
2825.45
2827.33
2826.27
2824.15
2797.72
2777.8
2811.38
3001.84
3062.93
2634.62
2793.14
2796.33
2798.87
2800.95
2802
2801.95
2801.17
2799.85
2797.89
2795.77
2794.03
2793.39
2793.85
2795.48
2797.53
2799.94
2802.03
2804.07
2805.3
2806.19
2806.1
2805.69
2804.62
2805.42
2807.55
2810.13
2811.76
2812.22
2812.35
2813.53
2813.32
2814.64
2818.18
2819.3
2818.16
2820.06
2821.65
2825.95
2824.19
2822.39
2823.86
2825.84
2827.87
2828.17
2819.39
2798.58
2778.63
2829.11
3015.31
3037
2595.57
2790.08
2793.14
2796.33
2798.87
2800.95
2802
2801.95
2801.17
2799.85
2797.88
2795.76
2794.03
2793.39
2793.85
2795.49
2797.55
2799.96
2802.05
2804.09
2805.32
2806.2
2806.1
2805.68
2804.61
2805.41
2807.54
2810.13
2811.78
2812.25
2812.39
2813.58
2813.39
2814.71
2818.23
2819.37
2818.24
2820.23
2821.78
2826.2
2824.51
2822.82
2824.23
2826.46
2830.39
2830.57
2822.59
2794.18
2778.93
2848.13
3025.65
3001.43
2564.75
2787.17
2790.08
2793.14
2796.34
2798.87
2800.95
2802
2801.95
2801.17
2799.84
2797.87
2795.75
2794.02
2793.39
2793.86
2795.51
2797.57
2799.98
2802.08
2804.12
2805.34
2806.21
2806.1
2805.68
2804.6
2805.4
2807.54
2810.13
2811.8
2812.29
2812.43
2813.63
2813.48
2814.79
2818.28
2819.45
2818.35
2820.42
2821.94
2826.48
2824.88
2823.35
2824.69
2827.51
2832.46
2829.03
2814.69
2792.34
2781.43
2873.5
3027.15
2960.45
2545.5
2784.74
2787.17
2790.08
2793.14
2796.34
2798.87
2800.96
2802
2801.95
2801.16
2799.84
2797.87
2795.74
2794.02
2793.39
2793.87
2795.52
2797.59
2800
2802.1
2804.14
2805.36
2806.22
2806.1
2805.68
2804.59
2805.4
2807.54
2810.14
2811.81
2812.32
2812.47
2813.69
2813.58
2814.88
2818.35
2819.56
2818.47
2820.66
2822.11
2826.8
2825.31
2823.9
2825.02
2828.58
2835.75
2828.13
2816.54
2790.06
2783.71
2900.48
3026.33
2897.97
2534.66
2782.53
2784.74
2787.17
2790.08
2793.15
2796.34
2798.87
2800.96
2802
2801.94
2801.16
2799.83
2797.86
2795.73
2794.01
2793.39
2793.87
2795.54
2797.61
2800.03
2802.13
2804.17
2805.39
2806.24
2806.11
2805.68
2804.59
2805.41
2807.55
2810.14
2811.83
2812.36
2812.52
2813.75
2813.69
2814.98
2818.43
2819.69
2818.63
2820.96
2822.3
2827.15
2825.8
2824.54
2826.5
2831.32
2834.22
2827.69
2810.59
2788.2
2791.57
2924.75
3022.92
2830.64
2527.7
2780.81
2782.53
2784.74
2787.17
2790.09
2793.15
2796.34
2798.87
2800.96
2801.99
2801.94
2801.16
2799.83
2797.85
2795.72
2794
2793.39
2793.88
2795.55
2797.63
2800.06
2802.16
2804.2
2805.41
2806.26
2806.13
2805.69
2804.6
2805.42
2807.56
2810.15
2811.84
2812.39
2812.56
2813.82
2813.82
2815.1
2818.52
2819.85
2818.81
2821.31
2822.52
2827.5
2826.32
2825.15
2827.06
2835.08
2833.27
2825.36
2809.31
2788.39
2800.37
2949.15
3013.75
2758.9
2522.41
2779.55
2780.82
2782.54
2784.75
2787.17
2790.09
2793.15
2796.34
2798.88
2800.96
2801.99
2801.94
2801.15
2799.82
2797.84
2795.71
2794
2793.4
2793.89
2795.57
2797.66
2800.08
2802.19
2804.23
2805.44
2806.28
2806.14
2805.71
2804.62
2805.44
2807.58
2810.16
2811.86
2812.43
2812.6
2813.9
2813.98
2815.24
2818.64
2820.05
2819.04
2821.75
2822.74
2827.88
2826.85
2826.89
2829.29
2835.4
2832.33
2824.53
2803.71
2788.25
2818.03
2963.77
2994.91
2694.44
2518.35
2778.94
2779.56
2780.82
2782.54
2784.75
2787.18
2790.09
2793.15
2796.35
2798.88
2800.96
2801.99
2801.94
2801.15
2799.81
2797.83
2795.7
2793.99
2793.4
2793.9
2795.59
2797.68
2800.11
2802.22
2804.26
2805.48
2806.31
2806.17
2805.73
2804.65
2805.47
2807.6
2810.17
2811.87
2812.47
2812.65
2813.98
2814.15
2815.4
2818.77
2820.29
2819.31
2822.3
2822.98
2828.14
2827.54
2827.97
2834.1
2833.88
2831.79
2821.22
2800.99
2789.6
2838.19
2977.87
2964.42
2638.57
2515.3
2778.78
2778.94
2779.56
2780.82
2782.54
2784.75
2787.18
2790.1
2793.16
2796.35
2798.88
2800.96
2801.99
2801.93
2801.14
2799.8
2797.82
2795.69
2793.98
2793.4
2793.91
2795.61
2797.71
2800.15
2802.26
2804.3
2805.51
2806.34
2806.2
2805.76
2804.68
2805.51
2807.63
2810.18
2811.89
2812.51
2812.7
2814.06
2814.35
2815.57
2818.93
2820.59
2819.63
2822.95
2823.21
2828.53
2828.8
2829.08
2834.2
2834.07
2830.46
2819.22
2797.53
2791.04
2866.57
2977.42
2917.68
2594.97
2513.08
2779.31
2778.78
2778.94
2779.56
2780.82
2782.54
2784.75
2787.18
2790.1
2793.16
2796.36
2798.89
2800.96
2801.99
2801.93
2801.14
2799.79
2797.81
2795.68
2793.98
2793.41
2793.93
2795.63
2797.73
2800.18
2802.29
2804.34
2805.55
2806.38
2806.24
2805.81
2804.74
2805.57
2807.68
2810.2
2811.91
2812.56
2812.75
2814.16
2814.58
2815.77
2819.12
2820.94
2820.02
2823.81
2823.33
2828.95
2830.35
2834.36
2834.96
2833.34
2829.37
2814.49
2795.13
2797.47
2896.08
2977.18
2852.22
2562.77
2511.53
2780.23
2779.31
2778.78
2778.94
2779.56
2780.82
2782.54
2784.75
2787.19
2790.11
2793.17
2796.36
2798.89
2800.97
2801.99
2801.93
2801.13
2799.78
2797.8
2795.67
2793.97
2793.41
2793.94
2795.65
2797.76
2800.21
2802.33
2804.37
2805.59
2806.43
2806.29
2805.86
2804.81
2805.64
2807.73
2810.24
2811.94
2812.62
2812.81
2814.27
2814.84
2815.99
2819.32
2821.38
2820.45
2824.66
2823.33
2829.88
2831.54
2833.78
2835
2833.78
2827.25
2811.38
2794.25
2805.45
2920.89
2967.09
2777.02
2540.81
2510.49
2781.55
2780.23
2779.31
2778.78
2778.94
2779.56
2780.82
2782.54
2784.76
2787.19
2790.11
2793.18
2796.37
2798.9
2800.97
2801.99
2801.93
2801.13
2799.78
2797.79
2795.66
2793.97
2793.42
2793.95
2795.68
2797.79
2800.24
2802.37
2804.42
2805.64
2806.48
2806.34
2805.93
2804.89
2805.72
2807.81
2810.28
2811.97
2812.7
2812.88
2814.39
2815.15
2816.25
2819.54
2821.85
2820.98
2825.93
2824.22
2830.75
2834.18
2834.31
2836.07
2833.36
2825.41
2805.66
2794.52
2826.29
2939.51
2956.12
2701.08
2526.65
2509.84
2782.94
2781.55
2780.23
2779.3
2778.78
2778.94
2779.56
2780.82
2782.55
2784.76
2787.2
2790.12
2793.18
2796.37
2798.9
2800.98
2801.99
2801.93
2801.12
2799.77
2797.78
2795.65
2793.96
2793.43
2793.97
2795.7
2797.81
2800.27
2802.4
2804.46
2805.69
2806.53
2806.41
2806
2805
2805.83
2807.9
2810.34
2812.03
2812.8
2812.97
2814.53
2815.49
2816.54
2819.78
2822.45
2821.37
2826.94
2824.56
2833.92
2832.56
2834.34
2836.24
2833.27
2821.53
2802.64
2795.57
2847.03
2950
2916.22
2634.68
2518.62
2509.45
2784.43
2782.94
2781.55
2780.23
2779.3
2778.78
2778.94
2779.56
2780.82
2782.55
2784.77
2787.2
2790.12
2793.19
2796.38
2798.91
2800.98
2801.99
2801.93
2801.11
2799.76
2797.77
2795.64
2793.96
2793.43
2793.99
2795.72
2797.84
2800.3
2802.44
2804.5
2805.74
2806.59
2806.48
2806.09
2805.12
2805.97
2808.01
2810.42
2812.1
2812.93
2813.07
2814.69
2815.88
2816.94
2819.99
2823.01
2821.94
2829.26
2825.82
2833.86
2832.16
2834.22
2836.47
2832.37
2817.99
2798.23
2800.34
2883.05
2948.71
2863.07
2584.02
2514.21
2509.23
2785.87
2784.43
2782.94
2781.55
2780.22
2779.3
2778.78
2778.94
2779.56
2780.82
2782.55
2784.77
2787.21
2790.13
2793.2
2796.39
2798.92
2800.99
2802
2801.93
2801.11
2799.75
2797.76
2795.63
2793.96
2793.44
2794
2795.75
2797.86
2800.33
2802.48
2804.54
2805.79
2806.66
2806.56
2806.19
2805.27
2806.13
2808.15
2810.52
2812.2
2813.09
2813.2
2814.88
2816.34
2817.3
2820.22
2823.87
2822.45
2830.48
2831.65
2833.14
2831.84
2834.08
2836.21
2830.91
2812.45
2797.45
2808.49
2903.79
2948.88
2781.82
2550.04
2511.68
2509.11
2787.28
2785.87
2784.43
2782.94
2781.55
2780.22
2779.3
2778.78
2778.94
2779.56
2780.83
2782.56
2784.78
2787.22
2790.14
2793.21
2796.4
2798.93
2800.99
2802
2801.93
2801.11
2799.75
2797.75
2795.63
2793.96
2793.46
2794.02
2795.77
2797.89
2800.36
2802.51
2804.59
2805.85
2806.73
2806.64
2806.31
2805.45
2806.32
2808.31
2810.65
2812.33
2813.31
2813.37
2815.08
2816.84
2817.98
2820.26
2824.61
2824.23
2832.09
2831.45
2832.16
2831.61
2833.96
2836.03
2828.49
2808.12
2795.16
2824.96
2926.44
2927.49
2696.59
2529.83
2510.28
2509.05
2788.49
2787.28
2785.87
2784.43
2782.93
2781.54
2780.22
2779.3
2778.77
2778.94
2779.56
2780.83
2782.56
2784.78
2787.23
2790.15
2793.22
2796.41
2798.94
2801
2802
2801.93
2801.1
2799.74
2797.75
2795.62
2793.96
2793.47
2794.05
2795.8
2797.91
2800.39
2802.55
2804.63
2805.9
2806.8
2806.74
2806.44
2805.65
2806.54
2808.5
2810.82
2812.5
2813.59
2813.57
2815.37
2817.45
2818.33
2820.19
2826.1
2824.84
2833.9
2833.02
2832.37
2831.83
2833.86
2835.46
2825.94
2804.6
2797.06
2854.47
2926.77
2889.54
2621.76
2518.77
2509.57
2509.02
2789.64
2788.49
2787.28
2785.87
2784.42
2782.93
2781.54
2780.22
2779.29
2778.77
2778.94
2779.56
2780.83
2782.57
2784.79
2787.24
2790.16
2793.24
2796.42
2798.95
2801.01
2802
2801.93
2801.1
2799.73
2797.75
2795.62
2793.97
2793.49
2794.07
2795.82
2797.94
2800.42
2802.59
2804.67
2805.96
2806.88
2806.83
2806.58
2805.88
2806.79
2808.72
2811.02
2812.72
2813.92
2813.88
2815.62
2818.12
2819.58
2820.27
2827.38
2831.41
2833.83
2832.89
2832.6
2832.03
2833.41
2834.28
2821.14
2804.9
2808.46
2882.92
2924.36
2813.04
2568.86
2513.27
2509.23
2509.01
2790.82
2789.64
2788.48
2787.28
2785.87
2784.42
2782.93
2781.54
2780.21
2779.29
2778.77
2778.94
2779.56
2780.84
2782.57
2784.8
2787.25
2790.18
2793.25
2796.44
2798.96
2801.02
2802.01
2801.93
2801.1
2799.73
2797.74
2795.62
2793.98
2793.51
2794.1
2795.85
2797.97
2800.45
2802.62
2804.71
2806.02
2806.95
2806.93
2806.73
2806.14
2807.09
2808.97
2811.25
2813.01
2814.34
2814.19
2816.07
2818.83
2819.79
2820.63
2828.41
2830.93
2833.39
2834.1
2832.9
2832.33
2832.77
2830.86
2816.78
2807.12
2824.09
2909
2921.34
2719.89
2537.03
2510.76
2509.09
2509
2791.87
2790.82
2789.64
2788.48
2787.27
2785.86
2784.42
2782.93
2781.53
2780.21
2779.29
2778.77
2778.94
2779.57
2780.84
2782.58
2784.81
2787.26
2790.19
2793.27
2796.45
2798.98
2801.03
2802.02
2801.94
2801.1
2799.73
2797.74
2795.63
2793.99
2793.54
2794.13
2795.88
2797.99
2800.48
2802.66
2804.75
2806.07
2807.03
2807.03
2806.89
2806.43
2807.43
2809.27
2811.52
2813.32
2814.85
2814.81
2816.26
2819.74
2822.99
2821.13
2829.88
2830.83
2833.65
2833.93
2833.26
2832.87
2831.22
2825.36
2808.46
2807.2
2854.96
2918.51
2878.47
2632.22
2520.68
2509.67
2509.03
2509
2792.76
2791.87
2790.82
2789.64
2788.48
2787.27
2785.86
2784.41
2782.92
2781.53
2780.21
2779.29
2778.77
2778.94
2779.57
2780.85
2782.59
2784.82
2787.27
2790.21
2793.29
2796.47
2798.99
2801.04
2802.02
2801.94
2801.11
2799.73
2797.75
2795.64
2794.01
2793.57
2794.17
2795.91
2798.02
2800.51
2802.69
2804.79
2806.13
2807.1
2807.13
2807.06
2806.76
2807.8
2809.61
2811.8
2813.71
2815.49
2815.17
2816.92
2820.47
2821.38
2826.15
2828.49
2831.38
2833.04
2833.86
2833.91
2833.14
2828.86
2816.07
2802.03
2811.96
2879.07
2916.79
2800.22
2569.63
2513.35
2509.23
2509.01
2509
2793.58
2792.76
2791.86
2790.82
2789.63
2788.48
2787.27
2785.86
2784.41
2782.92
2781.53
2780.2
2779.28
2778.77
2778.94
2779.57
2780.85
2782.6
2784.83
2787.29
2790.23
2793.31
2796.49
2799.01
2801.06
2802.03
2801.95
2801.11
2799.74
2797.76
2795.65
2794.04
2793.61
2794.21
2795.95
2798.06
2800.54
2802.73
2804.83
2806.18
2807.18
2807.24
2807.24
2807.13
2808.23
2809.98
2812.16
2814.03
2816.21
2816.46
2817.13
2823.56
2826.38
2825.62
2828.81
2831.15
2833.2
2833.82
2834.53
2834.58
2827.22
2810.32
2796.81
2825.37
2903.41
2897.39
2699.21
2534.28
2510.45
2509.07
2509
2509
2794.24
2793.59
2792.76
2791.86
2790.82
2789.63
2788.47
2787.27
2785.85
2784.41
2782.91
2781.52
2780.2
2779.28
2778.77
2778.94
2779.58
2780.86
2782.61
2784.85
2787.31
2790.25
2793.33
2796.51
2799.03
2801.07
2802.04
2801.96
2801.12
2799.74
2797.77
2795.68
2794.07
2793.66
2794.26
2795.99
2798.09
2800.59
2802.78
2804.88
2806.24
2807.25
2807.34
2807.44
2807.53
2808.69
2810.47
2812.43
2814.54
2816.96
2816.81
2819.36
2824.04
2825.93
2826.47
2829.43
2831.62
2832.85
2834.13
2835.29
2837.05
2826.09
2807.44
2801.84
2855.18
2904.19
2863.21
2608.33
2517.93
2509.44
2509.02
2509
2509
2794.72
2794.24
2793.58
2792.76
2791.86
2790.82
2789.63
2788.47
2787.26
2785.85
2784.4
2782.91
2781.52
2780.19
2779.28
2778.77
2778.95
2779.58
2780.87
2782.62
2784.86
2787.33
2790.27
2793.36
2796.54
2799.06
2801.09
2802.05
2801.97
2801.13
2799.76
2797.79
2795.71
2794.12
2793.72
2794.33
2796.04
2798.14
2800.64
2802.83
2804.92
2806.3
2807.33
2807.44
2807.65
2807.98
2809.22
2810.87
2812.94
2814.66
2817.91
2819.8
2819.76
2828.1
2826.47
2828.04
2830.39
2831.9
2832.88
2834.15
2836.3
2837.54
2824.16
2808.86
2818.13
2885.57
2905.51
2747
2550.62
2511.7
2509.11
2509
2509
2509
2794.96
2794.72
2794.23
2793.58
2792.76
2791.86
2790.81
2789.63
2788.47
2787.26
2785.85
2784.4
2782.91
2781.51
2780.19
2779.28
2778.77
2778.95
2779.59
2780.88
2782.64
2784.88
2787.35
2790.3
2793.38
2796.57
2799.08
2801.11
2802.07
2801.98
2801.14
2799.77
2797.81
2795.75
2794.18
2793.8
2794.41
2796.1
2798.2
2800.7
2802.89
2804.98
2806.36
2807.4
2807.54
2807.88
2808.46
2809.73
2811.53
2813.03
2815.08
2818.39
2819.39
2826.69
2828.06
2827.56
2829.47
2831.42
2832.04
2832.82
2833.79
2835.73
2835.07
2816.7
2812.63
2844.6
2902.84
2846.78
2647.04
2522.98
2509.7
2509.03
2509
2509
2509
2795.03
2794.96
2794.72
2794.23
2793.58
2792.76
2791.86
2790.81
2789.62
2788.47
2787.26
2785.84
2784.4
2782.9
2781.51
2780.19
2779.27
2778.77
2778.95
2779.6
2780.89
2782.65
2784.9
2787.37
2790.33
2793.41
2796.6
2799.11
2801.13
2802.08
2802
2801.16
2799.8
2797.85
2795.79
2794.25
2793.89
2794.5
2796.18
2798.27
2800.77
2802.96
2805.04
2806.44
2807.48
2807.66
2808.1
2809.01
2810.38
2811.77
2813.77
2814.86
2821.15
2824.41
2826.5
2828.01
2828.87
2830.99
2832.22
2832.59
2832.45
2832.41
2832.73
2824.6
2811.28
2815.16
2874.5
2897.76
2799.15
2565.17
2512.79
2509.15
2509
2509
2509
2509
2794.85
2795.03
2794.96
2794.72
2794.23
2793.58
2792.76
2791.86
2790.81
2789.62
2788.46
2787.25
2785.84
2784.39
2782.9
2781.5
2780.18
2779.27
2778.77
2778.96
2779.61
2780.9
2782.67
2784.93
2787.4
2790.36
2793.45
2796.63
2799.14
2801.15
2802.1
2802.02
2801.17
2799.82
2797.89
2795.86
2794.33
2794
2794.62
2796.27
2798.36
2800.86
2803.05
2805.12
2806.52
2807.58
2807.78
2808.38
2809.57
2810.95
2812.73
2813.61
2816.11
2820.86
2823.78
2826.81
2828.35
2830
2831.91
2832.82
2832.6
2831.46
2831.03
2827.51
2815.26
2799.62
2829.68
2888.72
2890.14
2665.49
2526.93
2509.84
2509.03
2509
2509
2509
2509
2794.56
2794.86
2795.03
2794.96
2794.72
2794.23
2793.58
2792.75
2791.85
2790.81
2789.62
2788.46
2787.25
2785.84
2784.39
2782.89
2781.5
2780.18
2779.27
2778.78
2778.96
2779.62
2780.92
2782.69
2784.95
2787.43
2790.39
2793.48
2796.66
2799.17
2801.18
2802.12
2802.04
2801.2
2799.85
2797.93
2795.94
2794.44
2794.14
2794.76
2796.39
2798.47
2800.99
2803.17
2805.22
2806.62
2807.67
2807.96
2808.62
2810.35
2811.72
2812.79
2816.01
2815.77
2822.73
2823.14
2826.48
2827.76
2830.21
2832.22
2833.27
2832.44
2831.53
2829.73
2822.69
2805.67
2801.8
2857.28
2890.72
2796.21
2575.94
2513.21
2509.15
2509
2509
2509
2509
2509
2794.09
2794.56
2794.85
2795.03
2794.96
2794.71
2794.23
2793.58
2792.75
2791.85
2790.8
2789.61
2788.46
2787.24
2785.83
2784.38
2782.89
2781.49
2780.18
2779.27
2778.78
2778.97
2779.63
2780.94
2782.71
2784.98
2787.46
2790.43
2793.52
2796.7
2799.2
2801.2
2802.14
2802.06
2801.22
2799.89
2797.99
2796.03
2794.57
2794.31
2794.93
2796.54
2798.61
2801.13
2803.31
2805.33
2806.72
2807.83
2808.07
2809.1
2810.83
2812.5
2814.64
2813.91
2820.32
2819.91
2822.94
2825.23
2827.41
2830.13
2832.42
2833.06
2833.37
2832.95
2830.86
2819.53
2807.59
2829.99
2883.54
2867.4
2678.79
2527.67
2509.76
2509.02
2509
2509
2509
2509
2509
2793.57
2794.1
2794.56
2794.85
2795.03
2794.96
2794.71
2794.23
2793.57
2792.75
2791.85
2790.8
2789.61
2788.45
2787.24
2785.83
2784.38
2782.88
2781.49
2780.17
2779.27
2778.79
2778.98
2779.64
2780.96
2782.74
2785.01
2787.5
2790.47
2793.57
2796.74
2799.24
2801.23
2802.16
2802.08
2801.25
2799.94
2798.06
2796.14
2794.72
2794.51
2795.14
2796.72
2798.77
2801.31
2803.49
2805.47
2806.88
2807.94
2808.39
2809.3
2811.91
2813.4
2814.31
2819.14
2817.79
2819.89
2822.45
2824.79
2827.22
2830.44
2832.58
2833.95
2835.27
2837.87
2832.18
2817.78
2820.84
2860.98
2896.46
2795.64
2573.35
2512.75
2509.11
2509
2509
2509
2509
2509
2509
2792.97
2793.57
2794.1
2794.56
2794.85
2795.03
2794.96
2794.71
2794.23
2793.57
2792.75
2791.85
2790.79
2789.61
2788.45
2787.24
2785.82
2784.37
2782.88
2781.48
2780.17
2779.27
2778.8
2778.99
2779.66
2780.98
2782.76
2785.04
2787.54
2790.52
2793.61
2796.79
2799.27
2801.26
2802.18
2802.11
2801.28
2799.99
2798.14
2796.27
2794.91
2794.75
2795.39
2796.95
2798.97
2801.52
2803.71
2805.65
2807
2808.22
2808.48
2809.99
2812.26
2816.03
2818.79
2817.06
2818.29
2819.96
2822.81
2824.52
2827.8
2831.08
2833.38
2835.05
2838.2
2838.94
2827.5
2818.28
2831.14
2886.47
2881.31
2670.92
2524.98
2509.52
2509.01
2509
2509
2509
2509
2509
2509
2792.33
2792.97
2793.57
2794.1
2794.56
2794.85
2795.03
2794.96
2794.71
2794.22
2793.57
2792.74
2791.84
2790.79
2789.6
2788.45
2787.23
2785.82
2784.37
2782.87
2781.48
2780.17
2779.27
2778.8
2779.01
2779.68
2781
2782.79
2785.08
2787.58
2790.56
2793.66
2796.83
2799.31
2801.28
2802.21
2802.13
2801.32
2800.05
2798.24
2796.42
2795.13
2795.04
2795.69
2797.23
2799.22
2801.78
2803.95
2805.85
2807.25
2808.23
2809.18
2810.25
2815.43
2817.6
2818.43
2818.46
2819.27
2821.74
2823.4
2825.8
2829.08
2832.21
2833.81
2836.51
2836.69
2833.17
2816.9
2813.41
2852.45
2884.47
2788.53
2562.78
2511.48
2509.06
2509
2509
2509
2509
2509
2509
2509
2791.62
2792.33
2792.97
2793.57
2794.1
2794.56
2794.85
2795.02
2794.96
2794.71
2794.22
2793.57
2792.74
2791.84
2790.79
2789.6
2788.44
2787.23
2785.81
2784.37
2782.87
2781.48
2780.17
2779.28
2778.82
2779.03
2779.7
2781.03
2782.83
2785.12
2787.63
2790.62
2793.72
2796.88
2799.35
2801.31
2802.23
2802.16
2801.35
2800.11
2798.34
2796.6
2795.38
2795.37
2796.06
2797.56
2799.52
2802.05
2804.26
2806.08
2807.37
2808.83
2809.29
2812.39
2816.07
2819.79
2819.84
2819.2
2821.87
2823.36
2825.68
2827.27
2830.7
2832.22
2833.37
2832.21
2831.87
2817.21
2802.68
2815.27
2878.75
2837.79
2644.85
2519.79
2509.27
2509.01
2509
2509
2509
2509
2509
2509
2509
2790.86
2791.62
2792.33
2792.97
2793.57
2794.1
2794.56
2794.85
2795.02
2794.96
2794.71
2794.22
2793.57
2792.74
2791.84
2790.78
2789.59
2788.44
2787.22
2785.81
2784.36
2782.86
2781.47
2780.17
2779.28
2778.83
2779.05
2779.73
2781.06
2782.87
2785.16
2787.68
2790.67
2793.77
2796.93
2799.39
2801.33
2802.25
2802.18
2801.39
2800.19
2798.47
2796.81
2795.68
2795.77
2796.49
2797.96
2799.86
2802.43
2804.55
2806.36
2807.76
2808.63
2811.8
2813.15
2820.47
2821.62
2820.62
2822.62
2823.75
2826.51
2827.18
2830.23
2831.26
2832.32
2830.16
2831
2819.67
2808.58
2801.35
2864.67
2858.29
2766.47
2547.16
2510.22
2509.03
2509
2509
2509
2509
2509
2509
2509
2509
2790.04
2790.86
2791.62
2792.33
2792.97
2793.57
2794.1
2794.56
2794.85
2795.02
2794.95
2794.71
2794.22
2793.56
2792.74
2791.84
2790.78
2789.59
2788.43
2787.22
2785.81
2784.36
2782.86
2781.48
2780.17
2779.29
2778.85
2779.07
2779.76
2781.1
2782.91
2785.21
2787.73
2790.73
2793.83
2796.98
2799.42
2801.35
2802.26
2802.21
2801.43
2800.26
2798.61
2797.05
2796.03
2796.24
2797
2798.43
2800.3
2802.75
2805.1
2806.51
2807.94
2810.24
2810.9
2819.17
2821.64
2821.09
2823.25
2824.04
2827.26
2827.5
2830.29
2830.88
2832.56
2831.3
2831.82
2826.79
2823.23
2807.52
2847.24
2881.18
2857.33
2609.5
2514.31
2509.13
2509
2509
2509
2509
2509
2509
2509
2509
2509
2789.2
2790.04
2790.86
2791.62
2792.33
2792.97
2793.57
2794.1
2794.56
2794.85
2795.02
2794.95
2794.71
2794.22
2793.56
2792.74
2791.83
2790.77
2789.59
2788.43
2787.22
2785.8
2784.36
2782.86
2781.48
2780.18
2779.3
2778.87
2779.1
2779.79
2781.14
2782.96
2785.27
2787.79
2790.8
2793.9
2797.03
2799.46
2801.37
2802.27
2802.23
2801.47
2800.34
2798.76
2797.32
2796.44
2796.79
2797.59
2799.02
2800.75
2803.3
2805.29
2806.81
2808.52
2809.41
2816.56
2818.28
2821.26
2822.69
2823.91
2826.52
2827.97
2829.91
2831.24
2833.33
2833.51
2834.49