/*--------------------------------*- C++ -*----------------------------------*\
| =========                 |                                                 |
| \\      /  F ield         | OpenFOAM: The Open Source CFD Toolbox           |
|  \\    /   O peration     | Version:  v2012                                 |
|   \\  /    A nd           | Website:  www.openfoam.com                      |
|    \\/     M anipulation  |                                                 |
\*---------------------------------------------------------------------------*/
FoamFile
{
    version     2.0;
    format      ascii;
    class       volScalarField;
    location    "3900";
    object      Prt;
}
// * * * * * * * * * * * * * * * * * * * * * * * * * * * * * * * * * * * * * //

dimensions      [0 0 0 0 0 0 0];


internalField   nonuniform List<scalar> 
29502
(
0.332358
0.334363
0.333436
0.334333
0.334253
0.33382
0.334279
0.334085
0.334319
0.333965
0.334243
0.334006
0.333646
0.334343
0.334021
0.334226
0.333966
0.333448
0.333014
0.334347
0.334042
0.334217
0.333947
0.333358
0.332664
0.332277
0.33434
0.334047
0.334214
0.333938
0.333317
0.332508
0.331756
0.331485
0.334323
0.334045
0.334215
0.333936
0.3333
0.332439
0.331526
0.330788
0.330682
0.334306
0.334041
0.334218
0.333937
0.333296
0.332413
0.331427
0.330486
0.329825
0.329911
0.334286
0.334035
0.334222
0.333939
0.3333
0.332409
0.331393
0.330357
0.329458
0.32892
0.329203
0.334268
0.334029
0.334226
0.333944
0.333308
0.332419
0.331389
0.330316
0.329303
0.328502
0.328109
0.328577
0.334252
0.334023
0.33423
0.333947
0.333318
0.332433
0.331407
0.330312
0.329256
0.328328
0.327654
0.327406
0.328035
0.334236
0.334015
0.334233
0.33395
0.333326
0.332451
0.331429
0.330336
0.329252
0.328275
0.327467
0.326926
0.326808
0.327564
0.334225
0.334008
0.334237
0.333953
0.333334
0.332467
0.331456
0.330366
0.329281
0.328269
0.327409
0.326729
0.326311
0.326298
0.327158
0.334216
0.334
0.334241
0.333958
0.333341
0.33248
0.331479
0.330401
0.329316
0.328301
0.3274
0.326667
0.326108
0.325788
0.325863
0.326812
0.334208
0.333991
0.334245
0.333962
0.333351
0.332493
0.331499
0.330432
0.329357
0.328339
0.327434
0.326656
0.326043
0.325582
0.325344
0.325493
0.32652
0.334202
0.333982
0.334248
0.333965
0.33336
0.332511
0.331517
0.330458
0.329393
0.328384
0.327472
0.326689
0.326028
0.325513
0.325136
0.324968
0.325181
0.326279
0.334197
0.333972
0.334251
0.333968
0.333368
0.332526
0.331545
0.330482
0.329425
0.328424
0.327519
0.326726
0.326061
0.325496
0.325065
0.324758
0.324649
0.32492
0.326092
0.334197
0.333958
0.334255
0.333971
0.333373
0.33254
0.331565
0.330518
0.329454
0.32846
0.32756
0.326773
0.326096
0.325528
0.325045
0.324685
0.324438
0.324379
0.324704
0.325961
0.334203
0.333938
0.334258
0.333975
0.33338
0.33255
0.331586
0.330545
0.329496
0.328491
0.327598
0.326814
0.326143
0.325562
0.325075
0.324664
0.324364
0.324168
0.324153
0.32453
0.325886
0.334216
0.333906
0.33426
0.333977
0.333388
0.332561
0.3316
0.330571
0.329528
0.328537
0.327631
0.326853
0.326183
0.325607
0.325108
0.324692
0.324341
0.324092
0.323939
0.323963
0.324395
0.325873
0.334233
0.333856
0.334263
0.33398
0.333394
0.332575
0.331617
0.33059
0.329559
0.328573
0.327679
0.326888
0.326222
0.325647
0.325152
0.324723
0.324368
0.324068
0.323862
0.323746
0.323805
0.324299
0.325924
0.334252
0.333778
0.334265
0.333982
0.333399
0.332584
0.331637
0.330612
0.329582
0.328607
0.327716
0.326936
0.326257
0.325686
0.325191
0.324766
0.324398
0.324094
0.323837
0.323667
0.323583
0.323677
0.324239
0.326041
0.334269
0.333667
0.334267
0.333984
0.333404
0.332592
0.33165
0.330637
0.329608
0.328633
0.327753
0.326974
0.326305
0.32572
0.325229
0.324804
0.324439
0.324122
0.323862
0.323641
0.323503
0.323447
0.323577
0.324216
0.326231
0.334283
0.333519
0.33427
0.333986
0.333408
0.332601
0.331662
0.330654
0.329637
0.328662
0.32778
0.327011
0.326343
0.325768
0.325263
0.324842
0.324476
0.324163
0.323889
0.323665
0.323475
0.323364
0.323334
0.323503
0.324235
0.326509
0.334289
0.333273
0.334272
0.333988
0.333413
0.332609
0.331675
0.330669
0.329658
0.328694
0.327811
0.32704
0.32638
0.325806
0.325311
0.324875
0.324513
0.324198
0.323928
0.323691
0.323499
0.323335
0.323248
0.323244
0.323458
0.324303
0.326906
0.33429
0.332846
0.334274
0.333991
0.333417
0.332616
0.331685
0.330686
0.329676
0.328717
0.327845
0.327072
0.326409
0.325843
0.325348
0.324923
0.324546
0.324235
0.323963
0.32373
0.323523
0.323357
0.323217
0.323151
0.323174
0.323441
0.324426
0.327422
0.334287
0.331858
0.334276
0.333993
0.333423
0.332624
0.331695
0.330699
0.329695
0.328737
0.32787
0.327107
0.326442
0.325873
0.325385
0.324959
0.324593
0.324268
0.323999
0.323763
0.323561
0.323381
0.323238
0.323118
0.323073
0.323125
0.323458
0.324615
0.328067
0.334281
0.328692
0.334278
0.333995
0.333427
0.332632
0.331707
0.330712
0.329711
0.328759
0.327891
0.327132
0.326477
0.325906
0.325415
0.324996
0.324629
0.324314
0.324032
0.323799
0.323594
0.323418
0.323261
0.323138
0.323037
0.323013
0.323098
0.323513
0.324881
0.32885
0.334272
0.320181
0.334279
0.333996
0.33343
0.33264
0.331719
0.330727
0.329726
0.328777
0.327915
0.327154
0.326502
0.325941
0.325448
0.325026
0.324665
0.324349
0.324077
0.323831
0.32363
0.32345
0.323297
0.323159
0.323054
0.322971
0.322969
0.323095
0.323614
0.325235
0.329766
0.334264
0.303789
0.334281
0.333997
0.333432
0.332645
0.331729
0.330742
0.329744
0.328793
0.327934
0.327178
0.326525
0.325966
0.325483
0.325059
0.324695
0.324385
0.324111
0.323876
0.323661
0.323485
0.323328
0.323194
0.323075
0.322987
0.32292
0.322943
0.32312
0.323769
0.325678
0.330771
0.334255
0.298573
0.334282
0.333998
0.333435
0.332648
0.331736
0.330755
0.329761
0.328813
0.327951
0.327198
0.32655
0.325989
0.325508
0.325094
0.324728
0.324414
0.324147
0.32391
0.323706
0.323516
0.323362
0.323225
0.323109
0.323005
0.322933
0.322884
0.322937
0.323178
0.32399
0.326212
0.331766
0.334247
0.298538
0.334284
0.334
0.333438
0.332652
0.331741
0.330764
0.329777
0.328832
0.327972
0.327217
0.32657
0.326014
0.325532
0.325119
0.324763
0.324448
0.324177
0.323945
0.323739
0.32356
0.323393
0.323259
0.323139
0.323039
0.322949
0.322891
0.322863
0.322952
0.323278
0.32429
0.326888
0.332622
0.33424
0.300029
0.334286
0.334001
0.333441
0.332657
0.331746
0.33077
0.329787
0.32885
0.327993
0.327238
0.326589
0.326035
0.325557
0.325142
0.324788
0.324482
0.32421
0.323975
0.323774
0.323593
0.323437
0.323289
0.323172
0.323067
0.322981
0.322905
0.322863
0.322859
0.322994
0.323429
0.324684
0.327712
0.333263
0.334235
0.302586
0.334287
0.334003
0.333444
0.332662
0.331753
0.330777
0.329794
0.328861
0.328011
0.32726
0.326611
0.326054
0.325578
0.325167
0.324811
0.324507
0.324244
0.324008
0.323803
0.323628
0.323469
0.323332
0.323202
0.3231
0.323008
0.322935
0.322873
0.322848
0.322873
0.323067
0.323642
0.325185
0.328679
0.333701
0.334229
0.309694
0.334289
0.334005
0.333448
0.332667
0.33176
0.330785
0.329803
0.328869
0.328023
0.327279
0.326633
0.326076
0.325597
0.325189
0.324836
0.32453
0.324268
0.324041
0.323836
0.323657
0.323503
0.323365
0.323245
0.323129
0.32304
0.322961
0.3229
0.322853
0.322848
0.322909
0.323181
0.323933
0.325794
0.329761
0.333982
0.334224
0.319801
0.334291
0.334006
0.333451
0.332673
0.331767
0.330793
0.329812
0.328879
0.328032
0.327291
0.326652
0.326099
0.32562
0.325208
0.324858
0.324555
0.324292
0.324066
0.323869
0.323689
0.323532
0.323398
0.323277
0.323172
0.323069
0.322992
0.322925
0.322877
0.322845
0.322865
0.322973
0.323347
0.324316
0.326511
0.330872
0.334155
0.334218
0.328364
0.334292
0.334008
0.333454
0.332678
0.331775
0.330803
0.329822
0.328889
0.328043
0.327301
0.326665
0.326118
0.325642
0.325231
0.324878
0.324577
0.324317
0.324089
0.323894
0.323723
0.323565
0.323427
0.32331
0.323203
0.323111
0.32302
0.322954
0.322899
0.322866
0.322851
0.322903
0.32307
0.323577
0.324806
0.327383
0.331861
0.33425
0.334214
0.330622
0.334293
0.334009
0.333457
0.332683
0.331782
0.330813
0.329833
0.328901
0.328054
0.327312
0.326675
0.326131
0.325662
0.325254
0.324901
0.324597
0.324338
0.324114
0.323917
0.323747
0.323598
0.323459
0.323338
0.323236
0.323142
0.323061
0.322981
0.322927
0.322885
0.322866
0.322873
0.322965
0.323212
0.323887
0.325414
0.328405
0.332639
0.334294
0.334211
0.32633
0.334294
0.33401
0.33346
0.332688
0.331789
0.330822
0.329845
0.328913
0.328066
0.327324
0.326687
0.326142
0.325676
0.325273
0.324923
0.32462
0.324358
0.324136
0.323942
0.32377
0.323622
0.323492
0.323371
0.323264
0.323174
0.323092
0.323021
0.322953
0.32291
0.322881
0.322878
0.322915
0.323056
0.323409
0.324294
0.326136
0.329542
0.33321
0.33431
0.334208
0.312474
0.334295
0.334011
0.333462
0.332693
0.331796
0.330831
0.329856
0.328925
0.32808
0.327337
0.3267
0.326154
0.325687
0.325287
0.324943
0.324642
0.324381
0.324156
0.323963
0.323795
0.323644
0.323516
0.323403
0.323296
0.323202
0.323123
0.323051
0.322992
0.322934
0.322904
0.322889
0.322906
0.322979
0.323187
0.323678
0.324813
0.326981
0.330705
0.333619
0.334314
0.334208
0.300963
0.334295
0.334011
0.333463
0.332696
0.331802
0.33084
0.329866
0.328937
0.328093
0.327351
0.326713
0.326167
0.3257
0.325299
0.324957
0.324662
0.324404
0.324179
0.323983
0.323816
0.323669
0.323538
0.323427
0.323328
0.323233
0.32315
0.323083
0.323021
0.322972
0.322926
0.322909
0.32291
0.322953
0.323071
0.323369
0.324035
0.32545
0.327984
0.331725
0.3339
0.334315
0.334208
0.298168
0.334296
0.334011
0.333463
0.332697
0.331806
0.330847
0.329876
0.328948
0.328106
0.327365
0.326727
0.326181
0.325713
0.325312
0.324969
0.324676
0.324424
0.324201
0.324006
0.323836
0.323691
0.323563
0.323449
0.323352
0.323265
0.323182
0.323109
0.323052
0.323
0.322962
0.322928
0.322925
0.322945
0.323023
0.3232
0.323615
0.324497
0.326201
0.329129
0.332521
0.334111
0.334315
0.334204
0.297978
0.334296
0.334012
0.333464
0.332698
0.331808
0.330852
0.329884
0.32896
0.328117
0.327378
0.326741
0.326196
0.325727
0.325326
0.324982
0.324689
0.324438
0.324221
0.324029
0.323859
0.323711
0.323585
0.323474
0.323374
0.323289
0.323213
0.32314
0.323077
0.32303
0.322989
0.322961
0.322941
0.322953
0.323
0.32312
0.323377
0.323944
0.325081
0.327085
0.330333
0.333122
0.334239
0.334315
0.334203
0.297971
0.334297
0.334012
0.333464
0.332698
0.331809
0.330854
0.32989
0.328969
0.328129
0.32739
0.326755
0.32621
0.325742
0.325341
0.324997
0.324702
0.324451
0.324236
0.324049
0.323882
0.323734
0.323605
0.323496
0.323399
0.323311
0.323236
0.323171
0.323107
0.323055
0.323017
0.322987
0.322971
0.322965
0.322998
0.323077
0.323253
0.323616
0.324373
0.32578
0.328132
0.331406
0.333554
0.334309
0.334315
0.334197
0.297966
0.334298
0.334013
0.333465
0.332699
0.33181
0.330855
0.329893
0.328975
0.328139
0.327402
0.326767
0.326224
0.325757
0.325356
0.325012
0.324717
0.324465
0.324249
0.324064
0.323902
0.323756
0.323628
0.323516
0.32342
0.323335
0.323258
0.323193
0.323138
0.323084
0.323041
0.323014
0.322995
0.322992
0.323003
0.323061
0.323183
0.323432
0.323933
0.324917
0.326592
0.329315
0.332269
0.333814
0.33434
0.334315
0.334186
0.297965
0.334299
0.334014
0.333466
0.3327
0.33181
0.330856
0.329894
0.328979
0.328146
0.327412
0.326779
0.326236
0.32577
0.32537
0.325027
0.324732
0.32448
0.324263
0.324077
0.323917
0.323776
0.32365
0.323538
0.32344
0.323356
0.323282
0.323215
0.32316
0.323114
0.32307
0.323037
0.32302
0.323013
0.323024
0.323056
0.323148
0.323323
0.323671
0.324346
0.325578
0.327571
0.330531
0.332937
0.334089
0.334353
0.334316
0.334158
0.29797
0.3343
0.334015
0.333468
0.332702
0.331812
0.330856
0.329895
0.32898
0.32815
0.327419
0.32679
0.326249
0.325783
0.325384
0.325041
0.324748
0.324495
0.324278
0.324091
0.32393
0.323791
0.32367
0.323561
0.323463
0.323376
0.323303
0.323239
0.323181
0.323136
0.323099
0.323064
0.323041
0.323036
0.323042
0.32307
0.32313
0.323264
0.323511
0.323987
0.324876
0.326359
0.328712
0.331573
0.333439
0.334233
0.334357
0.334316
0.334074
0.298034
0.334301
0.334016
0.33347
0.332705
0.331814
0.330858
0.329896
0.328981
0.328152
0.327424
0.326797
0.326259
0.325795
0.325396
0.325055
0.324762
0.32451
0.324293
0.324106
0.323944
0.323805
0.323685
0.323581
0.323485
0.323399
0.323323
0.32326
0.323205
0.323156
0.32312
0.323092
0.323067
0.323055
0.323062
0.323083
0.323133
0.323228
0.323417
0.32376
0.324403
0.325526
0.327289
0.329955
0.332388
0.333789
0.334314
0.334359
0.334316
0.333795
0.298847
0.334303
0.334017
0.333473
0.332708
0.331818
0.330862
0.329898
0.328983
0.328153
0.327426
0.326802
0.326267
0.325806
0.325409
0.325068
0.324776
0.324525
0.324309
0.324122
0.32396
0.323819
0.323699
0.323596
0.323505
0.323421
0.323345
0.323279
0.323226
0.32318
0.32314
0.323112
0.323093
0.323079
0.323079
0.3231
0.323139
0.323218
0.323357
0.323619
0.32409
0.324937
0.32629
0.328396
0.331116
0.333028
0.334042
0.334355
0.334359
0.334317
0.331932
0.312012
0.334304
0.334019
0.333476
0.332712
0.331823
0.330866
0.329902
0.328985
0.328155
0.327428
0.326805
0.326272
0.325814
0.32542
0.325081
0.324788
0.324539
0.324323
0.324137
0.323975
0.323835
0.323713
0.32361
0.32352
0.323441
0.323367
0.323301
0.323245
0.3232
0.323162
0.323131
0.323113
0.323104
0.3231
0.323114
0.32315
0.323213
0.323329
0.323526
0.323887
0.324522
0.325585
0.327201
0.329636
0.332045
0.333516
0.334213
0.334373
0.33436
0.334316
0.315099
0.33269
0.334305
0.33402
0.333479
0.332717
0.331829
0.330872
0.329907
0.32899
0.328158
0.327431
0.326807
0.326276
0.32582
0.325428
0.325091
0.324801
0.324551
0.324337
0.324152
0.323991
0.32385
0.323729
0.323624
0.323534
0.323456
0.323387
0.323323
0.323267
0.323219
0.323182
0.323154
0.323131
0.323122
0.323123
0.323132
0.32316
0.323217
0.323311
0.323473
0.323749
0.32424
0.32507
0.326348
0.328299
0.330859
0.332762
0.33386
0.334308
0.334379
0.33436
0.334314
0.298662
0.333674
0.334306
0.334021
0.333481
0.332722
0.331835
0.33088
0.329915
0.328996
0.328163
0.327434
0.326811
0.326279
0.325824
0.325434
0.3251
0.324812
0.324564
0.32435
0.324166
0.324006
0.323866
0.323745
0.32364
0.323549
0.32347
0.323403
0.323343
0.323288
0.32324
0.323201
0.323173
0.323153
0.32314
0.32314
0.323153
0.323175
0.323221
0.323305
0.323437
0.323661
0.324042
0.324695
0.325732
0.327261
0.329541
0.331855
0.333325
0.334093
0.33436
0.334381
0.33436
0.334313
0.298423
0.333736
0.334307
0.334022
0.333484
0.332727
0.331842
0.330888
0.329923
0.329004
0.32817
0.32744
0.326815
0.326283
0.325828
0.325439
0.325106
0.324821
0.324575
0.324363
0.324178
0.324019
0.323881
0.32376
0.323656
0.323564
0.323485
0.323416
0.323359
0.323308
0.323262
0.323222
0.323191
0.323171
0.32316
0.323157
0.323168
0.323193
0.323231
0.323301
0.323418
0.3236
0.323908
0.324423
0.325268
0.326509
0.328369
0.330795
0.332614
0.33374
0.334242
0.334383
0.334382
0.33436
0.334309
0.298402
0.333745
0.334308
0.334023
0.333486
0.332731
0.331849
0.330897
0.329933
0.329014
0.328179
0.327447
0.326822
0.326288
0.325832
0.325443
0.325111
0.324828
0.324584
0.324374
0.324191
0.324032
0.323895
0.323775
0.323671
0.32358
0.3235
0.323431
0.323372
0.323323
0.323281
0.323243
0.323211
0.323189
0.323178
0.323176
0.323183
0.323206
0.323245
0.323304
0.323403
0.323562
0.323812
0.32423
0.324913
0.325954
0.327451
0.329619
0.331823
0.333218
0.33402
0.334328
0.334391
0.334382
0.33436
0.334289
0.298452
0.333748
0.334309
0.334024
0.333488
0.332735
0.331855
0.330905
0.329943
0.329024
0.328189
0.327457
0.326829
0.326295
0.325838
0.325448
0.325116
0.324833
0.324591
0.324383
0.324203
0.324045
0.323907
0.323789
0.323686
0.323596
0.323516
0.323447
0.323387
0.323337
0.323296
0.323262
0.323232
0.323209
0.323195
0.323193
0.323201
0.323219
0.323255
0.323312
0.323397
0.323533
0.323748
0.324089
0.324648
0.325519
0.326759
0.328593
0.330877
0.332593
0.33367
0.334201
0.334374
0.334394
0.334383
0.33436
0.334169
0.298951
0.333749
0.33431
0.334025
0.33349
0.332738
0.33186
0.330912
0.329952
0.329035
0.3282
0.327467
0.326839
0.326303
0.325845
0.325454
0.325121
0.324838
0.324597
0.32439
0.324212
0.324056
0.32392
0.323802
0.3237
0.32361
0.323531
0.323462
0.323402
0.323352
0.32331
0.323277
0.323251
0.323229
0.323214
0.323209
0.323217
0.323235
0.323266
0.323317
0.323398
0.323516
0.323699
0.32399
0.324448
0.325178
0.326237
0.327749
0.329874
0.331905
0.333206
0.33398
0.334309
0.334392
0.334395
0.334383
0.33436
0.331934
0.306319
0.33375
0.33431
0.334025
0.333492
0.332741
0.331865
0.330919
0.32996
0.329045
0.328212
0.327479
0.326849
0.326313
0.325853
0.325462
0.325128
0.324844
0.324602
0.324396
0.324219
0.324065
0.323932
0.323815
0.323713
0.323624
0.323546
0.323478
0.323418
0.323367
0.323325
0.323291
0.323266
0.323247
0.323233
0.323227
0.323231
0.32325
0.32328
0.323325
0.323397
0.323506
0.323666
0.323913
0.324304
0.32491
0.32582
0.327086
0.328944
0.331112
0.332668
0.333668
0.33418
0.334367
0.3344
0.334395
0.334383
0.334358
0.306477
0.328437
0.33375
0.334311
0.334026
0.333493
0.332743
0.331869
0.330925
0.329968
0.329054
0.328222
0.32749
0.326861
0.326323
0.325864
0.32547
0.325136
0.324851
0.324609
0.324402
0.324225
0.324073
0.323941
0.323826
0.323726
0.323637
0.32356
0.323492
0.323433
0.323382
0.32334
0.323305
0.32328
0.323262
0.323251
0.323245
0.323249
0.323263
0.323293
0.323337
0.3234
0.323498
0.323644
0.323858
0.324191
0.32471
0.325489
0.326575
0.328143
0.330253
0.332096
0.333271
0.333984
0.3343
0.334395
0.334403
0.334396
0.334383
0.334357
0.299345
0.333709
0.33375
0.334311
0.334026
0.333494
0.332745
0.331872
0.33093
0.329975
0.329062
0.328231
0.327501
0.326872
0.326335
0.325874
0.325481
0.325145
0.32486
0.324616
0.324408
0.324231
0.324079
0.323948
0.323835
0.323737
0.32365
0.323573
0.323506
0.323447
0.323398
0.323355
0.32332
0.323294
0.323275
0.323266
0.323263
0.323266
0.323279
0.323305
0.323347
0.323407
0.323495
0.323625
0.323818
0.324106
0.324551
0.325226
0.326178
0.327494
0.329401
0.331445
0.332825
0.333721
0.334185
0.334366
0.334404
0.334404
0.334397
0.334383
0.33435
0.298875
0.33413
0.333749
0.334311
0.334026
0.333494
0.332747
0.331875
0.330934
0.329981
0.32907
0.328239
0.327509
0.326882
0.326346
0.325886
0.325492
0.325156
0.324869
0.324625
0.324416
0.324238
0.324085
0.323955
0.323843
0.323746
0.323661
0.323586
0.323519
0.323461
0.323412
0.32337
0.323335
0.323309
0.323289
0.323279
0.323277
0.323282
0.323295
0.323319
0.323356
0.323414
0.323496
0.323614
0.323786
0.324042
0.324428
0.325011
0.325854
0.326988
0.32863
0.330722
0.332346
0.333401
0.334023
0.334305
0.334398
0.334408
0.334404
0.334397
0.334383
0.334269
0.299794
0.334178
0.333749
0.334311
0.334026
0.333494
0.332748
0.331877
0.330937
0.329986
0.329076
0.328247
0.327518
0.326891
0.326356
0.325897
0.325503
0.325167
0.32488
0.324634
0.324425
0.324246
0.324092
0.323961
0.32385
0.323754
0.32367
0.323597
0.323531
0.323474
0.323425
0.323384
0.32335
0.323323
0.323304
0.323293
0.32329
0.323296
0.32331
0.323333
0.323369
0.323421
0.323498
0.323608
0.323764
0.323991
0.324332
0.324842
0.325588
0.326593
0.328001
0.329934
0.33183
0.333029
0.333817
0.334212
0.334372
0.33441
0.334409
0.334405
0.334397
0.334382
0.33221
0.310838
0.334186
0.333749
0.334312
0.334026
0.333495
0.332748
0.331878
0.33094
0.32999
0.329081
0.328253
0.327525
0.326899
0.326364
0.325907
0.325514
0.325178
0.324891
0.324645
0.324435
0.324255
0.3241
0.323968
0.323856
0.323761
0.323678
0.323606
0.323543
0.323487
0.323438
0.323397
0.323364
0.323338
0.323318
0.323307
0.323303
0.323308
0.323323
0.323348
0.323381
0.32343
0.323501
0.323604
0.323748
0.323953
0.324254
0.324705
0.325366
0.326273
0.327492
0.329238
0.331217
0.332631
0.333561
0.334089
0.334323
0.334403
0.334413
0.33441
0.334405
0.334397
0.33438
0.304239
0.33172
0.334187
0.333748
0.334312
0.334026
0.333495
0.332748
0.331878
0.330941
0.329993
0.329085
0.328259
0.327532
0.326906
0.326373
0.325915
0.325524
0.325189
0.324902
0.324656
0.324446
0.324265
0.32411
0.323977
0.323864
0.323767
0.323685
0.323614
0.323552
0.323498
0.323451
0.32341
0.323377
0.323351
0.323332
0.323321
0.323317
0.323321
0.323335
0.323359
0.323394
0.323441
0.323507
0.323602
0.323736
0.323924
0.324196
0.324594
0.325181
0.326
0.32708
0.328617
0.330585
0.332215
0.333259
0.333929
0.334254
0.334383
0.334415
0.334413
0.334411
0.334406
0.334397
0.334374
0.299764
0.33415
0.334188
0.333748
0.334312
0.334026
0.333495
0.332748
0.331879
0.330942
0.329994
0.329089
0.328263
0.327537
0.326913
0.326379
0.325923
0.325532
0.325198
0.324913
0.324668
0.324457
0.324276
0.32412
0.323987
0.323872
0.323775
0.323692
0.323621
0.32356
0.323508
0.323462
0.323423
0.32339
0.323364
0.323346
0.323334
0.32333
0.323334
0.323347
0.32337
0.323405
0.323452
0.323514
0.323602
0.323726
0.323901
0.324149
0.324508
0.32503
0.325769
0.326744
0.328096
0.329935
0.331757
0.332938
0.333731
0.334161
0.334348
0.33441
0.334417
0.334413
0.334411
0.334406
0.334396
0.33435
0.30079
0.334287
0.334188
0.333747
0.334312
0.334027
0.333495
0.332748
0.331879
0.330942
0.329995
0.329091
0.328267
0.327542
0.326918
0.326385
0.325929
0.325539
0.325206
0.324922
0.324678
0.324468
0.324288
0.324132
0.323997
0.323882
0.323784
0.323699
0.323628
0.323567
0.323515
0.323472
0.323434
0.323402
0.323377
0.323358
0.323347
0.323344
0.323347
0.32336
0.323382
0.323415
0.323461
0.323522
0.323605
0.323721
0.323882
0.324109
0.324437
0.324909
0.325577
0.326466
0.327661
0.32935
0.331244
0.332602
0.333503
0.334042
0.334298
0.334397
0.33442
0.334417
0.334413
0.334411
0.334406
0.334395
0.329792
0.318571
0.334301
0.334188
0.333747
0.334312
0.334027
0.333495
0.332749
0.331879
0.330943
0.329996
0.329092
0.328269
0.327545
0.326923
0.326391
0.325935
0.325546
0.325213
0.324929
0.324687
0.324479
0.324299
0.324143
0.324008
0.323892
0.323794
0.323708
0.323635
0.323574
0.323523
0.323479
0.323444
0.323414
0.323389
0.323371
0.32336
0.323356
0.32336
0.323372
0.323394
0.323426
0.32347
0.323529
0.323609
0.323718
0.323868
0.324078
0.324377
0.324806
0.325416
0.326232
0.327297
0.328814
0.33072
0.332261
0.333248
0.333899
0.334231
0.334373
0.334418
0.334422
0.334417
0.334414
0.334412
0.334406
0.334392
0.303956
0.333485
0.334304
0.334188
0.333746
0.334313
0.334027
0.333495
0.332749
0.33188
0.330943
0.329996
0.329092
0.32827
0.327547
0.326926
0.326395
0.32594
0.325552
0.32522
0.324937
0.324695
0.324488
0.324309
0.324154
0.32402
0.323904
0.323804
0.323718
0.323644
0.323581
0.323529
0.323487
0.323451
0.323423
0.323401
0.323383
0.323371
0.323368
0.323372
0.323384
0.323405
0.323436
0.323479
0.323536
0.323613
0.323717
0.323858
0.324053
0.324328
0.32472
0.325276
0.326031
0.327003
0.328353
0.330164
0.331892
0.332987
0.333733
0.334149
0.334339
0.33441
0.334424
0.334422
0.334418
0.334416
0.334412
0.334405
0.334355
0.301183
0.334304
0.334305
0.334188
0.333746
0.334313
0.334027
0.333495
0.33275
0.33188
0.330944
0.329997
0.329093
0.328271
0.327549
0.326928
0.326399
0.325945
0.325556
0.325225
0.324943
0.324702
0.324495
0.324318
0.324165
0.324031
0.323916
0.323816
0.323729
0.323654
0.32359
0.323537
0.323493
0.323459
0.323431
0.32341
0.323394
0.323384
0.323379
0.323383
0.323395
0.323416
0.323447
0.323489
0.323544
0.323618
0.323717
0.323851
0.324033
0.324287
0.324648
0.325157
0.325856
0.326757
0.327971
0.32965
0.331473
0.332718
0.333549
0.33405
0.334295
0.334395
0.334423
0.334426
0.334422
0.334419
0.334417
0.334412
0.334404
0.33242
0.315772
0.334346
0.334305
0.334188
0.333746
0.334313
0.334027
0.333496
0.332749
0.331881
0.330944
0.329998
0.329094
0.328272
0.32755
0.32693
0.326401
0.325949
0.325561
0.32523
0.324948
0.324707
0.324502
0.324325
0.324174
0.324042
0.323927
0.323827
0.323741
0.323665
0.3236
0.323546
0.323501
0.323465
0.323439
0.323418
0.323404
0.323395
0.323392
0.323395
0.323406
0.323427
0.323457
0.323498
0.323553
0.323624
0.323719
0.323846
0.324017
0.324254
0.324588
0.325058
0.325705
0.326545
0.327646
0.329191
0.331024
0.332445
0.333348
0.333937
0.334241
0.334375
0.33442
0.334427
0.334425
0.334422
0.33442
0.334417
0.334412
0.334403
0.305363
0.333405
0.334351
0.334305
0.334188
0.333745
0.334313
0.334028
0.333497
0.332751
0.331881
0.330945
0.329999
0.329095
0.328273
0.327551
0.326932
0.326403
0.325951
0.325564
0.325234
0.324953
0.324713
0.324508
0.324332
0.324181
0.32405
0.323937
0.323839
0.323752
0.323677
0.323611
0.323556
0.32351
0.323473
0.323445
0.323425
0.323412
0.323404
0.323403
0.323406
0.323417
0.323437
0.323467
0.323508
0.323561
0.32363
0.323722
0.323843
0.324005
0.324227
0.324536
0.324972
0.325573
0.326359
0.327366
0.328779
0.330585
0.332149
0.33314
0.333808
0.334177
0.334348
0.334413
0.334428
0.334427
0.334423
0.33442
0.33442
0.334417
0.334412
0.334313
0.303213
0.334336
0.334352
0.334305
0.334187
0.333745
0.334314
0.334028
0.333497
0.332752
0.331883
0.330945
0.33
0.329097
0.328275
0.327553
0.326933
0.326405
0.325953
0.325567
0.325238
0.324957
0.324717
0.324513
0.324338
0.324187
0.324057
0.323946
0.323849
0.323763
0.323688
0.323623
0.323566
0.32352
0.323482
0.323453
0.323432
0.323419
0.323412
0.323412
0.323417
0.323428
0.323447
0.323476
0.323516
0.323568
0.323636
0.323725
0.323842
0.323997
0.324205
0.324494
0.324898
0.325457
0.326196
0.327131
0.328418
0.330143
0.331832
0.332925
0.333667
0.334102
0.334314
0.334402
0.334427
0.33443
0.334427
0.334422
0.334419
0.33442
0.334417
0.33441
0.329018
0.325448
0.334373
0.334352
0.334305
0.334187
0.333745
0.334314
0.334028
0.333498
0.332753
0.331884
0.330948
0.33
0.329098
0.328277
0.327555
0.326935
0.326407
0.325955
0.325569
0.32524
0.32496
0.324721
0.324517
0.324342
0.324193
0.324064
0.323953
0.323858
0.323774
0.323699
0.323634
0.323578
0.32353
0.323492
0.323461
0.323439
0.323426
0.32342
0.32342
0.323426
0.323439
0.323458
0.323486
0.323524
0.323576
0.323642
0.323728
0.323842
0.32399
0.324189
0.324459
0.324836
0.325355
0.326051
0.326929
0.328109
0.32973
0.331491
0.332708
0.333514
0.334018
0.334274
0.334386
0.334424
0.334431
0.33443
0.334427
0.334421
0.334421
0.334421
0.334417
0.334407
0.309129
0.334155
0.334376
0.334352
0.334305
0.334187
0.333744
0.334314
0.334028
0.333498
0.332754
0.331885
0.33095
0.330003
0.329098
0.328279
0.327557
0.326937
0.326409
0.325957
0.325571
0.325243
0.324963
0.324725
0.324521
0.324347
0.324197
0.324069
0.323959
0.323865
0.323783
0.32371
0.323646
0.323589
0.323542
0.323502
0.323471
0.323448
0.323433
0.323426
0.323427
0.323434
0.323448
0.323468
0.323496
0.323533
0.323583
0.323647
0.323732
0.323841
0.323985
0.324174
0.324431
0.324784
0.32527
0.325923
0.326753
0.327842
0.329355
0.331133
0.332493
0.333354
0.333925
0.334228
0.334367
0.33442
0.334431
0.334432
0.33443
0.334427
0.334424
0.334423
0.334421
0.334416
0.33396
0.311191
0.33438
0.334377
0.334352
0.334305
0.334187
0.333744
0.334315
0.334029
0.333499
0.332755
0.331887
0.330952
0.330006
0.329102
0.328279
0.32756
0.32694
0.326411
0.32596
0.325574
0.325245
0.324965
0.324727
0.324525
0.324351
0.324202
0.324074
0.323965
0.323871
0.32379
0.323719
0.323656
0.323601
0.323553
0.323514
0.323481
0.323457
0.323441
0.323433
0.323434
0.323442
0.323456
0.323477
0.323505
0.323542
0.323591
0.323653
0.323734
0.323841
0.32398
0.324162
0.324407
0.324741
0.325197
0.325812
0.326598
0.327607
0.329013
0.330781
0.332267
0.333193
0.333824
0.334177
0.334344
0.334412
0.334431
0.334433
0.334432
0.33443
0.334427
0.334426
0.334424
0.334421
0.334411
0.307786
0.333576
0.33439
0.334377
0.334352
0.334304
0.334187
0.333743
0.334315
0.334029
0.3335
0.332756
0.331889
0.330954
0.330008
0.329105
0.328284
0.32756
0.326943
0.326414
0.325962
0.325576
0.325248
0.324968
0.32473
0.324527
0.324354
0.324205
0.324078
0.323969
0.323876
0.323796
0.323726
0.323665
0.323611
0.323565
0.323525
0.323493
0.323467
0.323451
0.323441
0.323441
0.323448
0.323463
0.323484
0.323514
0.323551
0.323599
0.323659
0.323738
0.323841
0.323976
0.324151
0.324385
0.324703
0.325135
0.325716
0.32646
0.327403
0.328708
0.330424
0.332024
0.333032
0.333717
0.33412
0.334318
0.334403
0.33443
0.334434
0.334433
0.334432
0.33443
0.334426
0.334426
0.334424
0.334421
0.334277
0.313892
0.334377
0.334392
0.334377
0.334352
0.334304
0.334186
0.333743
0.334316
0.334029
0.3335
0.332757
0.33189
0.330956
0.330011
0.329108
0.328287
0.327565
0.326943
0.326418
0.325966
0.325579
0.325251
0.324971
0.324732
0.32453
0.324357
0.324209
0.324082
0.323973
0.323881
0.323801
0.323732
0.323672
0.32362
0.323575
0.323536
0.323504
0.323479
0.32346
0.323451
0.323448
0.323455
0.323469
0.323491
0.323521
0.323559
0.323607
0.323667
0.323742
0.323842
0.323972
0.324141
0.324365
0.324668
0.325079
0.325631
0.326339
0.327226
0.328439
0.33008
0.331763
0.332868
0.333604
0.334058
0.334289
0.334392
0.334428
0.334434
0.334434
0.334433
0.334431
0.334427
0.334426
0.334426
0.334424
0.334419
0.326012
0.332028
0.3344
0.334392
0.334377
0.334352
0.334304
0.334186
0.333743
0.334316
0.33403
0.333501
0.332759
0.331892
0.330958
0.330013
0.329111
0.32829
0.327569
0.326949
0.326418
0.325969
0.325583
0.325254
0.324974
0.324735
0.324532
0.324359
0.324211
0.324085
0.323977
0.323885
0.323806
0.323737
0.323678
0.323627
0.323584
0.323547
0.323515
0.32349
0.323471
0.32346
0.323457
0.323462
0.323476
0.323497
0.323528
0.323566
0.323615
0.323674
0.323748
0.323844
0.323969
0.324132
0.324348
0.324637
0.325029
0.325553
0.326233
0.327075
0.328204
0.329759
0.331485
0.332705
0.333487
0.333992
0.334257
0.334378
0.334424
0.334435
0.334435
0.334434
0.334432
0.334429
0.334425
0.334426
0.334426
0.334424
0.334346
0.309246
0.334378
0.334402
0.334392
0.334377
0.334352
0.334304
0.334186
0.333742
0.334316
0.33403
0.333503
0.33276
0.331895
0.330961
0.330016
0.329114
0.328294
0.327573
0.326953
0.326424
0.32597
0.325587
0.325258
0.324977
0.324738
0.324535
0.324362
0.324214
0.324087
0.32398
0.323889
0.32381
0.323742
0.323683
0.323634
0.323591
0.323555
0.323525
0.323501
0.323482
0.323471
0.323466
0.323471
0.323483
0.323504
0.323534
0.323573
0.323621
0.323681
0.323754
0.323847
0.323968
0.324125
0.324332
0.32461
0.324983
0.325483
0.326135
0.326943
0.328001
0.329464
0.331201
0.332537
0.333367
0.33392
0.334221
0.334363
0.33442
0.334435
0.334436
0.334435
0.334434
0.334432
0.334428
0.334427
0.334428
0.334427
0.33442
0.318857
0.332608
0.334407
0.334402
0.334392
0.334377
0.334352
0.334304
0.334185
0.333741
0.334317
0.334031
0.333504
0.332762
0.331897
0.330964
0.33002
0.329118
0.328297
0.327576
0.326957
0.326429
0.325977
0.325588
0.325261
0.324981
0.324742
0.324538
0.324365
0.324216
0.32409
0.323983
0.323892
0.323813
0.323746
0.323688
0.323639
0.323597
0.323563
0.323534
0.323511
0.323493
0.323481
0.323477
0.32348
0.323491
0.323511
0.32354