/*--------------------------------*- C++ -*----------------------------------*\
| =========                 |                                                 |
| \\      /  F ield         | OpenFOAM: The Open Source CFD Toolbox           |
|  \\    /   O peration     | Version:  v2012                                 |
|   \\  /    A nd           | Website:  www.openfoam.com                      |
|    \\/     M anipulation  |                                                 |
\*---------------------------------------------------------------------------*/
FoamFile
{
    version     2.0;
    format      ascii;
    class       volScalarField;
    location    "3900";
    object      q2;
}
// * * * * * * * * * * * * * * * * * * * * * * * * * * * * * * * * * * * * * //

dimensions      [0 0 0 0 0 0 0];


internalField   nonuniform List<scalar> 
29502
(
1
1
1
1
1
0.999904
1
1
1
0.978335
1
1
1
1
0.865629
1
1
1
1
1
0.680657
1
1
1
1
1
1
0.499157
1
1
1
1
1
1
1
0.3509
1
1
1
1
1
0.999999
1
0.999964
0.239515
1
1
1
1
1
1
0.999914
0.999966
0.992631
0.1614
1
1
1
1
1
0.999997
0.999945
0.999477
0.999534
0.906022
0.108195
1
1
1
1
1
0.999999
0.999795
0.999682
0.999158
0.997865
0.682923
0.0731245
1
1
1
1
1
1
0.999849
0.999234
0.999596
0.999284
0.992478
0.44008
0.049133
1
1
1
1
1
1
0.999967
0.999385
0.999246
0.999754
0.999345
0.98133
0.263838
0.0330152
1
1
1
1
1
1
0.999972
0.999774
0.999352
0.999633
0.999857
0.999436
0.962972
0.154708
0.022179
1
1
1
1
1
1
0.999996
0.999778
0.999693
0.999681
0.999835
0.999933
0.999567
0.935261
0.0903561
0.0149956
1
1
1
1
1
1
0.999997
0.999932
0.999687
0.999822
0.999854
0.999943
0.999978
0.999677
0.897455
0.0529942
0.0101243
1
1
1
1
1
1
0.999998
0.999939
0.999872
0.999807
0.999911
0.999954
0.999988
0.999994
0.999757
0.851008
0.0243501
0.0068369
1
1
1
1
1
1
0.999998
0.999948
0.999874
0.99991
0.999901
0.99997
0.999991
0.999998
0.999999
0.999802
0.778834
0.0144699
0.00463671
1
1
1
1
1
1
0.999998
0.999947
0.999883
0.999906
0.999946
0.999965
0.999994
0.999999
1
1
0.999801
0.67716
0.00862726
0.00314392
1
1
1
1
1
1
0.999999
0.999953
0.999874
0.999909
0.999943
0.99998
0.999993
0.999999
1
1
1
0.999723
0.557831
0.00514001
0.00213584
1
1
1
1
1
1
0.999999
0.999959
0.999885
0.999901
0.999943
0.999978
0.999996
0.999999
1
1
1
1
0.999447
0.439038
0.00306689
0.00145833
1
1
1
1
1
1
0.999999
0.999962
0.999892
0.999905
0.999938
0.999977
0.999995
0.999999
1
1
1
1
1
0.998506
0.338017
0.0018395
0.000998663
1
1
1
1
1
1
0.999999
0.999963
0.999897
0.999905
0.999938
0.999975
0.999995
0.999999
1
1
1
1
1
1
0.995137
0.265043
0.00111273
0.000689569
1
1
1
1
1
1
0.999999
0.999963
0.999893
0.999908
0.999939
0.999975
0.999994
0.999999
1
1
1
1
1
1
1
0.983212
0.217181
0.000683454
0.000479608
1
1
1
1
1
1
0.999999
0.999964
0.999888
0.999904
0.999939
0.999974
0.999994
0.999999
1
1
1
1
1
1
1
1
0.945099
0.16968
0.000428317
0.000337567
1
1
1
1
1
1
0.999999
0.999966
0.999889
0.999899
0.999934
0.999972
0.999993
0.999999
1
1
1
1
1
1
1
1
0.999997
0.849195
0.100828
0.00027538
0.000240732
1
1
1
1
1
1
0.999999
0.999966
0.999888
0.999895
0.999932
0.999971
0.999993
0.999999
1
1
1
1
1
1
1
1
1
0.999962
0.678697
0.0520046
0.000182026
0.000174207
1
1
1
1
1
1
0.999999
0.999961
0.999884
0.999893
0.99993
0.999969
0.999992
0.999999
1
1
1
1
1
1
1
1
1
1
0.999508
0.475441
0.0237551
0.000123571
0.000128129
1
1
1
1
1
1
0.999999
0.999965
0.999875
0.99989
0.99993
0.999968
0.999992
0.999999
1
1
1
1
1
1
1
1
1
1
1
0.994988
0.306699
0.00943908
8.59457e-05
9.55782e-05
1
1
1
1
1
1
0.999999
0.999967
0.999882
0.999877
0.999927
0.999967
0.999991
0.999999
1
1
1
1
1
1
1
1
1
1
1
1
0.966514
0.199543
0.00322137
6.09136e-05
7.19468e-05
1
1
1
1
1
1
0.999999
0.999966
0.999883
0.999879
0.999918
0.999966
0.999991
0.999999
1
1
1
1
1
1
1
1
1
1
1
1
0.999996
0.865756
0.145004
0.000958154
4.37669e-05
5.74084e-05
1
1
1
1
1
1
0.999999
0.999967
0.99988
0.999875
0.999917
0.999962
0.99999
0.999998
1
1
1
1
1
1
1
1
1
1
1
1
1
0.999851
0.672132
0.112802
0.000271483
3.28631e-05
5.17813e-05
1
1
1
1
1
1
0.999999
0.999966
0.999882
0.999874
0.999916
0.999961
0.999989
0.999998
1
1
1
1
1
1
1
1
1
1
1
1
1
1
0.996895
0.450825
0.0592724
8.71174e-05
2.64636e-05
5.32603e-05
1
1
1
1
1
1
1
0.999966
0.999877
0.999874
0.999914
0.99996
0.999989
0.999998
1
1
1
1
1
1
1
1
1
1
1
1
1
1
1
0.968642
0.276417
0.0253744
3.69543e-05
2.18096e-05
6.40533e-05
1
1
1
1
1
1
0.999999
0.999966
0.999872
0.999869
0.999913
0.999959
0.999989
0.999998
1
1
1
1
1
1
1
1
1
1
1
1
1
1
1
0.999981
0.850886
0.171384
0.00937557
2.04576e-05
1.86501e-05
9.5138e-05
1
1
1
1
1
1
0.999999
0.999961
0.999867
0.999864
0.999907
0.999957
0.999988
0.999998
1
1
1
1
1
1
1
1
1
1
1
1
1
1
1
1
0.999165
0.628536
0.120429
0.00294185
1.27376e-05
1.72577e-05
0.000183599
1
1
1
1
1
1
0.999999
0.999965
0.999854
0.999859
0.999904
0.999953
0.999987
0.999998
1
1
1
1
1
1
1
1
1
1
1
1
1
1
1
1
1
0.985357
0.403656
0.0887011
0.000793211
9.12822e-06
1.78619e-05
0.000489045
1
1
1
1
1
1
0.999999
0.999966
0.999869
0.999847
0.999904
0.999952
0.999987
0.999998
1
1
1
1
1
1
1
1
1
1
1
1
1
1
1
1
1
0.999982
0.897738
0.245725
0.0421089
0.000205814
7.64383e-06
2.17742e-05
0.00124846
1
1
1
1
1
1
1
0.999965
0.999872
0.999858
0.999898
0.999953
0.999986
0.999998
1
1
1
1
1
1
1
1
1
1
1
1
1
1
1
1
1
1
0.998974
0.681636
0.155409
0.0163635
5.92799e-05
8.09868e-06
3.36445e-05
0.00115965
1
1
1
1
1
1
1
0.999965
0.999864
0.999856
0.999902
0.999949
0.999986
0.999997
1
1
1
1
1
1
1
1
1
1
1
1
1
1
1
1
1
1
0.999999
0.98053
0.435328
0.109112
0.00542019
2.0936e-05
1.09062e-05
6.77967e-05
0.000469917
1
1
1
1
1
1
1
0.999966
0.999864
0.999847
0.999901
0.999951
0.999984
0.999997
1
1
1
1
1
1
1
1
1
1
1
1
1
1
1
1
1
1
1
0.999902
0.869134
0.26144
0.0693648
0.00153322
9.8803e-06
1.73304e-05
0.000231243
0.00018388
1
1
1
1
1
1
1
0.999967
0.999867
0.999853
0.999896
0.999953
0.999985
0.999997
1
1
1
1
1
1
1
1
1
1
1
1
1
1
1
1
1
1
1
1
0.995807
0.62602
0.164847
0.0302616
0.000400225
6.97802e-06
3.42465e-05
0.00109428
6.80969e-05
1
1
1
1
1
1
1
0.999968
0.999869
0.999854
0.999899
0.999951
0.999985
0.999997
1
1
1
1
1
1
1
1
1
1
1
1
1
1
1
1
1
1
1
1
0.999981
0.946067
0.384044
0.11531
0.0109789
0.000111448
8.0379e-06
7.86082e-05
0.00329235
2.72489e-05
1
1
1
1
1
1
1
0.999967
0.999871
0.999852
0.999899
0.99995
0.999984
0.999997
1
1
1
1
1
1
1
1
1
1
1
1
1
1
1
1
1
1
1
1
1
0.99859
0.757618
0.230129
0.0730252
0.00346731
3.79733e-05
1.80798e-05
0.000122307
0.0093816
1.67489e-05
1
1
1
1
1
1
1
0.999968
0.999863
0.999854
0.999893
0.999948
0.999984
0.999997
1
1
1
1
1
1
1
1
1
1
1
1
1
1
1
1
1
1
1
1
1
0.999992
0.971998
0.490716
0.152143
0.0316475
0.00101873
1.91053e-05
7.67499e-05
0.000149159
0.00962572
1.10226e-05
1
1
1
1
1
1
1
0.999969
0.999861
0.999845
0.999894
0.999945
0.999983
0.999997
1
1
1
1
1
1
1
1
1
1
1
1
1
1
1
1
1
1
1
1
1
1
0.999181
0.827269
0.292991
0.109435
0.0116139
0.000308263
2.03327e-05
0.00039314
0.000166209
0.00327099
7.96657e-06
1
1
1
1
1
1
1
0.999969
0.999869
0.999844
0.999894
0.999946
0.999982
0.999997
1
1
1
1
1
1
1
1
1
1
1
1
1
1
1
1
1
1
1
1
1
1
0.999992
0.979755
0.561504
0.185021
0.0562465
0.00384018
0.000115755
5.61215e-05
0.00079553
0.000135936
0.000974349
6.23656e-06
1
1
1
1
1
1
1
0.999966
0.999871
0.999851
0.999895
0.999944
0.999983
0.999997
1
1
1
1
1
1
1
1
1
1
1
1
1
1
1
1
1
1
1
1
1
1
1
0.999159
0.852819
0.334665
0.127465
0.0225014
0.0012673
7.68745e-05
0.000252498
0.000754152
0.00013856
0.000302568
5.75593e-06
1
1
1
1
1
1
1
0.999966
0.999861
0.999854
0.999899
0.999944
0.999982
0.999997
1
1
1
1
1
1
1
1
1
1
1
1
1
1
1
1
1
1
1
1
1
1
1
0.999985
0.97862
0.587276
0.205371
0.0760279
0.00811068
0.000524754
0.000103453
0.00108785
0.000339803
0.00021922
0.000101468
6.34239e-06
1
1
1
1
1
1
1
0.999968
0.999863
0.999847
0.999902
0.999947
0.999982
0.999997
1
1
1
1
1
1
1
1
1
1
1
1
1
1
1
1
1
1
1
1
1
1
1
1
0.998579
0.844039
0.348086
0.139416
0.0319764
0.0029064
0.000320972
0.000267795
0.00688383
0.000118868
0.000626167
2.98572e-05
9.63555e-06
1
1
1
1
1
1
1
0.999968
0.999864
0.999843
0.999896
0.999949
0.999983
0.999997
1
1
1
1
1
1
1
1
1
1
1
1
1
1
1
1
1
1
1
1
1
1
1
1
0.999949
0.968804
0.571002
0.212591
0.0872214
0.0120784
0.00129574
0.000334047
0.00114799
0.224561
4.69553e-05
0.010283
7.58205e-06
2.65098e-05
1
1
1
1
1
1
1
0.999969
0.999865
0.999846
0.999892
0.999947
0.999983
0.999997
1
1
1
1
1
1
1
1
1
1
1
1
1
1
1
1
1
1
1
1
1
1
1
1
0.999999
0.996558
0.804802
0.336427
0.143775
0.0371343
0.00468319
0.000893126
0.000582933
0.0061597
0.0609358
2.27762e-05
0.803889
1.62926e-06
7.85411e-05
1
1
1
1
1
1
1
0.999969
0.999868
0.999847
0.999894
0.999947
0.999983
0.999997
1
1
1
1
1
1
1
1
1
1
1
1
1
1
1
1
1
1
1
1
1
1
1
1
1
0.999783
0.944551
0.523636
0.2079
0.0884062
0.0143541
0.00226497
0.000956605
0.00174051
0.0692028
0.00823294
1.79023e-05
0.0299465
7.67823e-07
0.00018842
1
1
1
1
1
1
1
0.999969
0.999869
0.999851
0.999895
0.999947
0.999984
0.999997
1
1
1
1
1
1
1
1
1
1
1
1
1
1
1
1
1
1
1
1
1
1
1
1
1
0.99999
0.990476
0.735219
0.307056
0.140888
0.0371962
0.00592795
0.00175635
0.00158714
0.0112232
0.217914
0.00150484
1.81376e-05
0.00106988
4.61246e-07
0.00034015
1
1
1
1
1
1
1
0.99997
0.999869
0.999857
0.999899
0.999948
0.999984
0.999997
1
1
1
1
1
1
1
1
1
1
1
1
1
1
1
1
1
1
1
1
1
1
1
1
1
1
0.998872
0.897192
0.455041
0.194317
0.080291
0.014544
0.00313637
0.00224316
0.00708232
0.00830862
1
0.000168288
2.43124e-05
9.67922e-05
3.92519e-07
0.000595513
1
1
1
1
1
1
1
0.99997
0.999875
0.999857
0.999902
0.999949
0.999984
0.999997
1
1
1
1
1
1
1
1
1
1
1
1
1
1
1
1
1
1
1
1
1
1
1
1
1
1
0.999901
0.971773
0.64147
0.268502
0.132118
0.0326531
0.00639147
0.00282029
0.00488198
0.070039
0.0101615
0.996487
3.35387e-05
5.04396e-05
1.53614e-05
4.051e-07
0.00105636
1
1
1
1
1
1
1
0.999971
0.99988
0.999863
0.999903
0.99995
0.999985
0.999997
1
1
1
1
1
1
1
1
1
1
1
1
1
1
1
1
1
1
1
1
1
1
1
1
1
1
0.999993
0.994301
0.811749
0.383073
0.176356
0.0662156
0.0128647
0.00381824
0.00472831
0.0485204
0.0368323
0.00615409
0.163494
1.203e-05
0.000273832
2.3561e-06
5.43971e-07
0.00196765
1
1
1
1
1
1
1
0.999971
0.999876
0.999866
0.999906
0.99995
0.999985
0.999997
1
1
1
1
1
1
1
1
1
1
1
1
1
1
1
1
1
1
1
1
1
1
1
1
1
1
1
0.999079
0.923177
0.52891
0.234626
0.118636
0.0257919
0.00614306
0.00418095
0.020037
0.803314
0.0102037
0.0162219
0.00714899
6.19444e-06
0.383791
4.50652e-07
9.01024e-07
0.00396848
1
1
1
1
1
1
1
0.999972
0.999872
0.999856
0.999905
0.999951
0.999985
0.999997
1
1
1
1
1
1
1
1
1
1
1
1
1
1
1
1
1
1
1
1
1
1
1
1
1
1
1
0.999878
0.97502
0.68677
0.310823
0.156991
0.0502104
0.0104566
0.00439167
0.0112514
0.643049
0.145059
0.00628322
0.0417875
0.000732248
5.21754e-06
0.00260012
1.71258e-07
1.88537e-06
0.0089617
1
1
1
1
1
1
1
0.999972
0.999878
0.999846
0.999899
0.999951
0.999985
0.999997
1
1
1
1
1
1
1
1
1
1
1
1
1
1
1
1
1
1
1
1
1
1
1
1
1
1
1
0.999986
0.993423
0.822771
0.416389
0.198367
0.0880018
0.0188502
0.00565852
0.00657966
0.199791
0.858138
0.0332348
0.00236606
0.646942
5.23007e-05
8.22251e-06
7.65385e-05
9.94951e-08
4.87549e-06
0.0242726
1
1
1
1
1
1
1
0.999973
0.999877
0.999857
0.999894
0.999947
0.999984
0.999997
1
1
1
1
1
1
1
1
1
1
1
1
1
1
1
1
1
1
1
1
1
1
1
1
1
1
1
0.999999
0.998552
0.915993
0.540407
0.252088
0.13332
0.0344669
0.00823087
0.00530983
0.0399549
1
0.222279
0.00934195
0.00249198
0.436
9.80982e-06
2.80572e-05
4.2315e-06
8.97897e-08
1.67278e-05
0.0813006
1
1
1
1
1
1
1
0.999973
0.999874
0.999861
0.999902
0.999945
0.999983
0.999997
1
1
1
1
1
1
1
1
1
1
1
1
1
1
1
1
1
1
1
1
1
1
1
1
1
1
1
1
0.999712
0.966495
0.672338
0.31768
0.166148
0.0593076
0.0132369
0.00545638
0.0131274
0.923474
1
0.0572485
0.00330065
0.00344236
0.028747
2.95392e-06
0.00100787
4.85575e-07
1.19902e-07
6.87191e-05
0.304966
1
1
1
1
1
1
1
0.999974
0.999875
0.999851
0.999904
0.999949
0.999982
0.999997
1
1
1
1
1
1
1
1
1
1
1
1
1
1
1
1
1
1
1
1
1
1
1
1
1
1
1
1
0.999947
0.988179
0.792664
0.405537
0.202252
0.0938736
0.0216807
0.00676431
0.00789118
0.201703
0.924616
0.892104
0.0222397
0.00145059
0.0148307
0.000408411
2.29963e-06
0.00101513
7.92901e-08
2.37932e-07
0.000267164
0.887481
1
1
1
1
1
1
1
0.999973
0.999877
0.999847
0.999899
0.99995
0.999983
0.999997
1
1
1
1
1
1
1
1
1
1
1
1
1
1
1
1
1
1
1
1
1
1
1
1
1
1
1
1
0.999991
0.996247
0.882
0.50905
0.24787
0.134638
0.0360029
0.00900972
0.00626288
0.0573522
0.986917
0.376772
0.31373
0.0058668
0.000796511
0.0442006
1.36491e-05
3.23878e-06
3.16782e-05
3.66644e-08
6.88362e-07
0.00113346
0.999999
1
1
1
1
1
1
1
0.999973
0.999873
0.999855
0.999896
0.999947
0.999984
0.999997
1
1
1
1
1
1
1
1
1
1
1
1
1
1
1
1
1
1
1
1
1
1
1
1
1
1
1
1
0.999999
0.99892
0.939557
0.616134
0.301444
0.163375
0.057195
0.0132483
0.00609185
0.0169237
1
0.997196
0.147984
0.125559
0.00127895
0.000418982
0.00432815
2.95752e-06
9.00959e-06
3.0524e-06
2.947e-08
2.71625e-06
0.00569335
1
1
1
1
1
1
1
1
0.999975
0.999874
0.999855
0.999901
0.999946
0.999983
0.999997
1
1
1
1
1
1
1
1
1
1
1
1
1
1
1
1
1
1
1
1
1
1
1
1
1
1
1
1
1
0.999705
0.972075
0.72007
0.365919
0.193185
0.0854261
0.0200836
0.00678407
0.00941703
0.203822
1
0.398818
0.134519
0.0691056
0.000319922
0.000346822
0.00173685
1.19826e-06
0.00412987
1.01017e-07
4.47518e-08
1.40776e-05
0.036862
1
1
1
1
1
1
1
1
0.999975
0.999881
0.999852
0.999902
0.999948
0.999982
0.999997
1
1
1
1
1
1
1
1
1
1
1
1
1
1
1
1
1
1
1
1
1
1
1
1
1
1
1
1
1
0.999923
0.987988
0.811321
0.443459
0.227591
0.120481
0.0311394
0.00828513
0.00697916
0.0540505
1
0.574789
0.212288
0.221015
0.0113452
0.000215074
0.000474311
4.67895e-05
1.61366e-06
4.97944e-05
2.2856e-08
1.12895e-07
9.75642e-05
0.289
1
1
1
1
1
1
1
1
0.999975
0.999882
0.999854
0.9999
0.999949
0.999983
0.999997
1
1
1
1
1
1
1
1
1
1
1
1
1
1
1
1
1
1
1
1
1
1
1
1
1
1
1
1
1
0.999981
0.995116
0.8808
0.52909
0.26828
0.149581
0.0469975
0.0113146
0.00619746
0.0188867
0.824665
0.998539
0.132389
0.39085
0.122997
0.00526733
0.000440714
0.757996
2.87602e-06
7.8213e-06
1.03683e-06
1.29927e-08
4.65287e-07
0.000787071
0.995129
1
1
1
1
1
1
1
1
0.999976
0.999887
0.999856
0.999902
0.999948
0.999983
0.999997
1
1
1
1
1
1
1
1
1
1
1
1
1
1
1
1
1
1
1
1
1
1
1
1
1
1
1
1
1
0.999995
0.998127
0.929109
0.614446
0.313747
0.173888
0.0673634
0.0159443
0.0063765
0.0124613
0.119354
0.999999
0.220733
0.292511
0.999999
0.0597098
0.00203405
0.00949898
7.92985e-05
8.78977e-07
0.0010786
6.2323e-08
1.73387e-08
2.98256e-06
0.00771417
1
1
1
1
1
1
1
1
1
0.999976
0.999892
0.999867
0.999903
0.999949
0.999983
0.999997
1
1
1
1
1
1
1
1
1
1
1
1
1
1
1
1
1
1
1
1
1
1
1
1
1
1
1
1
1
0.999999
0.999308
0.960388
0.697145
0.364947
0.199089
0.0922892
0.0229087
0.00711633
0.00811102
0.0485922
0.523459
0.296919
0.284067
1
0.105576
0.0117937
0.000393209
0.00342172
4.61897e-06
6.37006e-07
0.000309654
1.04499e-08
4.57375e-08
2.85272e-05
0.100752
1
1
1
1
1
1
1
1
1
0.999975
0.999888
0.999878
0.999908
0.99995
0.999983
0.999997
1
1
1
1
1
1
1
1
1
1
1
1
1
1
1
1
1
1
1
1
1
1
1
1
1
1
1
1
1
1
0.999751
0.978978
0.773438
0.424903
0.227179
0.121527
0.0328288
0.00860569
0.00670975
0.0243852
0.514138
0.38861
0.203121
1
0.180536
0.00412525
0.000170656
8.24587e-05
0.00520536
8.65465e-07
2.61741e-06
2.19815e-07
6.51744e-09
2.31357e-07
0.00039587
0.952253
1
1
1
1
1
1
1
1
1
0.999975
0.999885
0.99987
0.999916
0.999953
0.999984
0.999997
1
1
1
1
1
1
1
1
1
1
1
1
1
1
1
1
1
1
1
1
1
1
1
1
1
1
1
1
1
1
0.999911
0.989253
0.838012
0.491387
0.259323
0.147572
0.0459383
0.0111442
0.00603523
0.0185633
0.24052
0.893854
0.182488
0.996977
0.459259
0.0890358
0.00119163
3.76491e-05
2.57576e-05
0.000371907
5.70482e-07
0.014795
1.70146e-08
1.07257e-08
2.11267e-06
0.00764069
1
1
1
1
1
1
1
1
1
1
0.999975
0.99989
0.999861
0.999914
0.999957
0.999985
0.999997
1
1
1
1
1
1
1
1
1
1
1
1
1
1
1
1
1
1
1
1
1
1
1
1
1
1
1
1
1
1
0.999968
0.994614
0.888209
0.559825
0.294917
0.167697
0.0619899
0.014804
0.00601201
0.0133492
0.116109
0.994952
0.209909
0.990669
0.402913
0.0483496
0.127343
0.00113989
2.3481e-05
5.35618e-05
4.67343e-06
1.21199e-06
6.03149e-06
5.17836e-09
4.13588e-08
3.3048e-05
0.200294
1
1
1
1
1
1
1
1
1
1
0.999978
0.99989
0.999872
0.999908
0.999956
0.999986
0.999997
1
1
1
1
1
1
1
1
1
1
1
1
1
1
1
1
1
1
1
1
1
1
1
1
1
1
1
1
1
1
0.999989
0.997337
0.924791
0.62598
0.332742
0.187881
0.0809465
0.0199216
0.00643271
0.00834005
0.0488033
1
0.204756
0.583498
0.974604
0.0621102
0.00870255
0.0058991
0.00101157
0.0001299
0.000301049
4.09345e-07
3.34739e-05
3.40155e-08
3.94553e-09
3.57488e-07
0.000863548
1
1
1
1
1
1
1
1
1
1
1
0.99998
0.999896
0.999873
0.999913
0.999954
0.999986
0.999997
1
1
1
1
1
1
1
1
1
1
1
1
1
1
1
1
1
1
1
1
1
1
1
1
1
1
1
1
1
1
0.999996
0.998712
0.950688
0.688539
0.373418
0.208904
0.102568
0.0268887
0.00733855
0.00633551
0.0201103
0.912166
0.326095
0.229328
1
0.105811
0.0333108
0.00265028
0.00206334
0.00101513
0.00177532
1.35575e-06
3.23277e-07
2.26074e-06
3.06044e-09
1.30925e-08
6.43578e-06
0.0366393
1
1
1
1
1
1
1
1
1
1
1
0.999979
0.999903
0.999875
0.999914
0.999956
0.999985
0.999997
1
1
1
1
1
1
1
1
1
1
1
1
1
1
1
1
1
1
1
1
1
1
1
1
1
1
1
1
1
1
0.999999
0.999383
0.968597
0.746612
0.418713
0.231884
0.126639
0.0358141
0.0089221
0.00554618
0.0150951
0.100089
0.767127
0.0420403
0.149348
0.101228
0.127253
0.0215928
0.0779
0.0290283
0.000100182
3.71365e-05
2.62486e-07
2.0981e-06
4.13692e-08
2.65308e-09
1.00458e-07
0.000230771
0.98911
1
1
1
1
1
1
1
1
1
1
1
0.999978
0.999899
0.999883
0.999919
0.999956
0.999986
0.999997
1
1
1
1
1
1
1
1
1
1
1
1
1
1
1
1
1
1
1
1
1
1
1
1
1
1
1
1
1
1
0.999999
0.999709
0.980446
0.799116
0.467336
0.256846
0.148644
0.0466938
0.0111547
0.00531245
0.0131707
0.0380726
0.136161
0.0179599
0.0120153
0.0236449
0.103178
0.999996
0.793304
0.0152191
2.92107e-05
2.5059e-05
1.06126e-05
3.37941e-07
0.000626789
3.72155e-09
5.04456e-09
2.30313e-06
0.016012
1
1
1
1
1
1
1
1
1
1
1
1
0.999977
0.999895
0.999883
0.999923
0.999959
0.999987
0.999998
1
1
1
1
1
1
1
1
1
1
1
1
1
1
1
1
1
1
1
1
1
1
1
1
1
1
1
1
1
1
1
0.999865
0.988076
0.844284
0.517982
0.283248
0.164838
0.0593623
0.01414
0.00537832
0.0101102
0.0261324
0.0650533
0.0195098
0.00796047
0.00488622
0.0212451
0.526036
0.0107799
0.000650953
3.22433e-05
4.57611e-06
1.90483e-05
1.48158e-06
5.1881e-06
4.16472e-08
1.3982e-09
5.01105e-08
0.000122335
0.985154
1
1
1
1
1
1
1
1
1
1
1
1
0.999975
0.999896
0.999883
0.999923
0.999961
0.999987
0.999998
1
1
1
1
1
1
1
1
1
1
1
1
1
1
1
1
1
1
1
1
1
1
1
1
1
1
1
1
1
1
1
0.999937
0.992859
0.881601
0.56843
0.310924
0.180258
0.0734107
0.0179748
0.00572006
0.00739988
0.0205877
0.121266
0.0273372
0.0222199
0.00683257
0.00698705
0.118958
0.0373111
0.0021648
0.000123991
1.16965e-05
8.97617e-06
0.000252217
2.43581e-07
2.33816e-06
1.72921e-09
3.54904e-09
1.37943e-06
0.0188002
1
1
1
1
1
1
1
1
1
1
1
1
1
0.999976
0.999892
0.999883
0.999924
0.999962
0.999988
0.999998
1
1
1
1
1
1
1
1
1
1
1
1
1
1
1
1
1
1
1
1
1
1
1
1
1
1
1
1
1
1
1
0.999971
0.99577
0.911557
0.617118
0.339353
0.195773
0.0888538
0.0227543
0.00631869
0.00559331
0.0172706
0.226993
0.131086
0.175014
0.061899
0.0106891
0.0436186
1
0.630291
0.00781105
0.000716361
4.29524e-05
0.000612954
1.92227e-07
3.68869e-07
1.9799e-08
9.50621e-10
3.63459e-08
0.000153624
0.999859
1
1
1
1
1
1
1
1
1
1
1
1
1
0.999976
0.999887
0.999875
0.999924
0.999962
0.999988
0.999998
1
1
1
1
1
1
1
1
1
1
1
1
1
1
1
1
1
1
1
1
1
1
1
1
1
1
1
1
1
1
1
0.999987
0.997506
0.934821
0.664285
0.368668
0.211622
0.105613
0.0285929
0.00723277
0.00492809
0.0164585
0.209522
0.486346
0.648794
0.441582
0.0848147
0.0552754
0.254043
0.0206214
0.00274816
0.000189565
0.00112938
0.000538415
7.41251e-07
6.73315e-08
0.000215163
1.40613e-09
2.85454e-09
1.7951e-06
0.0404436
1
1
1
1
1
1
1
1
1
1
1
1
1
1
0.999978
0.999888
0.999866
0.999919
0.999962
0.999988
0.999998
1
1
1
1
1
1
1
1
1
1
1
1
1
1
1
1
1
1
1
1
1
1
1
1
1
1
1
1
1
1
1
0.999994
0.998542
0.952546
0.709258
0.400889
0.228818
0.12358
0.0355032
0.00851537
0.00456781
0.0143555
0.113457
0.346538
0.0732807
0.114384
0.0254344
0.612116
0.284919
0.0295343
0.002264
7.72649e-05
0.000158612
0.000234323
3.05493e-05
1.44866e-07
4.60642e-06
8.81757e-09
7.30761e-10
4.31326e-08
0.00043375
1
1
1
1
1
1
1
1
1
1
1
1
1
1
1
0.99998
0.999897
0.999865
0.999913
0.999961
0.999988
0.999998
1
1
1
1
1
1
1
1
1
1
1
1
1
1
1
1
1
1
1
1
1
1
1
1
1
1
1
1
1
1
1
0.999997
0.99915
0.965971
0.751364
0.435772
0.247376
0.142977
0.0434611
0.0101458
0.00441761
0.0116657
0.0428546
0.669362
0.0410957
0.109649
0.0142344
0.289643
0.311621
0.0991288
0.00970662
0.000759745
0.0488868
2.10031e-05
6.12747e-06
5.71587e-06
2.79842e-07
1.59144e-07
5.7535e-10
2.95294e-09
5.54851e-06
0.16961
1
1
1
1
1
1
1
1
1
1
1
1
1
1
1
0.999979
0.999905
0.999875
0.999913
0.999958
0.999988
0.999998
1
1
1
1
1
1
1
1
1
1
1
1
1
1
1
1
1
1
1
1
1
1
1
1
1
1
1
1
1
1
1
0.999999
0.999503
0.97581
0.79045
0.472237
0.267007
0.15702
0.052522
0.0121932
0.00444113
0.00839722
0.0257715
0.99999
0.163383
0.992022
0.113648
0.161205
0.240025
0.170945
0.209014
0.904999
0.000638183
9.61867e-06
1.0387e-06
3.0787e-06
5.12654e-07
4.75769e-07
2.11317e-09
6.85006e-10
1.07334e-07
0.00212252
1
1
1
1
1
1
1
1
1
1
1
1
1
1
1
1
0.999978
0.9999
0.999884
0.999919
0.999958
0.999987
0.999998
1
1
1
1
1
1
1
1
1
1
1
1
1
1
1
1
1
1
1
1
1
1
1
1
1
1
1
1
1
1
1
0.999999
0.999708
0.982884
0.82517
0.510042
0.287164
0.169532
0.0624737
0.0147015
0.0046336
0.00639144
0.0129086
0.83576
0.597496
0.439824
0.0158817
0.0723668
0.0159511
0.0533654
0.119577
0.00185929
0.000117665
1.61998e-05
1.60312e-06
2.82712e-05
4.73004e-06
3.05226e-07
5.47975e-08
6.08526e-10
4.63394e-09
3.35813e-05
0.839588
1
1
1
1
1
1
1
1
1
1
1
1
1
1
1
1
0.999978
0.999896
0.999881
0.999924
0.999961
0.999987
0.999998
1
1
1
1
1
1
1
1
1
1
1
1
1
1
1
1
1
1
1
1
1
1
1
1
1
1
1
1
1
1
1
1
0.999826
0.987938
0.85519
0.547357
0.308354
0.181363
0.0731796
0.0177327
0.00496687
0.00484032
0.0106161
0.0432403
0.0790655
0.00465269
0.00154274
0.00157451
0.00131971
0.0013122
0.00177267
0.232346
0.000653434
0.00138018
1.45681e-05
9.41746e-06
4.72012e-06
2.42013e-08
1.75392e-07
1.00553e-09
6.44399e-10
6.37599e-07
0.0202242
1
1
1
1
1
1
1
1
1
1
1
1
1
1
1
1
1
0.999978
0.999896
0.999878
0.999922
0.999962
0.999988
0.999998
1
1
1
1
1
1
1
1
1
1
1
1
1
1
1
1
1
1
1
1
1
1
1
1
1
1
1
1
1
1
1
1
0.999895
0.991476
0.880774
0.583247
0.32945
0.193407
0.0845747
0.0213184
0.00547157
0.00406707
0.00988243
0.018977
0.0109921
0.00194634
0.000813541
0.000317964
0.000417891
0.000252465
0.000323459
0.000694362
0.00641385
0.000251131
0.000236153
0.00029114
1.56475e-06
3.53157e-08
4.55313e-08
5.73653e-09
2.53159e-10
1.91443e-08
0.000365299
1
1
1
1
1
1
1
1
1
1
1
1
1
1
1
1
1
1
0.999979
0.999897
0.999879
0.99992
0.999961
0.999988
0.999998
1
1
1
1
1
1
1
1
1
1
1
1
1
1
1
1
1
1
1
1
1
1
1
1
1
1
1
1
1
1
1
1
0.999935
0.993945
0.902142
0.617331
0.350344
0.205082
0.0965886
0.0254605
0.00614143
0.00380446
0.0103857
0.019118
0.00628824
0.00143766
0.000729186
0.000238701
0.000297866
0.000171776
0.000249785
0.00013723
0.000213176
2.11933e-05
7.57085e-06
7.61337e-06
9.08082e-06
2.22496e-07
4.58113e-08
2.95923e-08
2.04422e-10
2.06067e-09
7.29209e-06
0.377494
1
1
1
1
1
1
1
1
1
1
1
1
1
1
1
1
1
1
0.999979
0.999898
0.999879
0.99992
0.99996
0.999988
0.999998
1
1
1
1
1
1
1
1
1
1
1
1
1
1
1
1
1
1
1
1
1
1
1
1
1
1
1
1
1
1
1
1
0.99996
0.995663
0.919628
0.649658
0.371087
0.216826
0.109035
0.0301354
0.00700083
0.0036415
0.0108229
0.0202574
0.0118263
0.00356889
0.00164494
0.000599485
0.000357432
0.000402851
0.000250301
0.00022784
0.000103669
4.68445e-05
2.8899e-05
0.000330829
0.000180049
0.000144034
2.6697e-07
1.31352e-08
4.76357e-10
6.65725e-10
1.87954e-07
0.00834333
1
1
1
1
1
1
1
1
1
1
1
1
1
1
1
1
1
1
1
0.999979
0.999899
0.99988
0.99992
0.99996
0.999987
0.999998
1
1
1
1
1
1
1
1
1
1
1
1
1
1
1
1
1
1
1
1
1
1
1
1
1
1
1
1
1
1
1
1
0.999975
0.996895
0.933926
0.679695
0.391686
0.228768
0.121903
0.0352854
0.00801165
0.00356373
0.0103357
0.0422402
0.0746
0.00810304
0.011821
0.00912412
0.00192902
0.00374357
0.000764686
0.00320715
0.000234455
0.0010188
0.000486582
0.000174024
9.13996e-07
1.30419e-07
2.91488e-06
3.06862e-07
2.4361e-09
4.34988e-10
8.2218e-09
0.000190599
1
1
1
1
1
1
1
1
1
1
1
1
1
1
1
1
1
1
1
1
0.999979
0.9999
0.999881
0.999921
0.99996
0.999987
0.999998
1
1
1
1
1
1
1
1
1
1
1
1
1
1
1
1
1
1
1
1
1
1
1
1
1
1
1
1
1
1
1
1
0.999985
0.997786
0.945935
0.708067
0.413043
0.241129
0.135169
0.0408852
0.00919122
0.00355062
0.00871389
0.0651808
0.929814
0.150349
0.147966
0.11596
0.585654
0.215924
0.263852
0.0223617
0.0424115
0.00163589
6.90851e-05
6.64214e-06
5.32103e-07
1.46999e-07
7.2164e-05
3.12362e-07
9.25967e-08
4.56008e-10
8.46006e-10
5.11384e-06
0.486776
1
1
1
1
1
1
1
1
1
1
1
1
1
1
1
1
1
1
1
1
0.99998
0.9999
0.999881
0.999921
0.99996
0.999987
0.999998
1
1
1
1
1
1
1
1
1
1
1
1
1
1
1
1
1
1
1
1
1
1
1
1
1
1
1
1
1
1
1
1
0.999991
0.998431
0.956032
0.73537
0.435483
0.253547
0.148867
0.04689
0.0105462
0.00360056
0.0074115
0.0385746
0.992699
0.116406
0.0518481
0.00648107
0.0011927
0.00169759
0.000457911
0.000378379
0.000150481
8.89988e-05
1.01742e-05
3.77213e-06
8.43902e-07
4.38343e-07
0.000685289
1.67896e-08
1.48385e-07
6.05775e-10
2.6324e-10
2.18883e-07
0.011829
1
1
1
1
1
1
1
1
1
1
1
1
1
1
1
1
1
1
1
1
1
0.99998
0.9999
0.99988
0.999921
0.99996
0.999987
0.999998
1
1
1
1
1
1
1
1
1
1
1
1
1
1
1
1
1
1
1
1
1
1
1
1
1
1
1
1
1
1
1
1
0.999994
0.998888
0.964538
0.761527
0.458762
0.266465
0.158025
0.0532577
0.0120696
0.00370131
0.00606144
0.0200541
0.545521
0.0100901
0.00389263
0.00310019
0.000292761
0.000442977
0.000156907
0.000240401
5.88602e-05
0.000108302
1.65673e-05
1.2911e-05
8.50479e-06
1.59453e-05
9.76365e-06
1.55668e-08
1.41081e-08
9.17189e-10
1.42064e-10
1.36008e-08
0.000327216
1
1
1
1
1
1
1
1
1
1
1
1
1
1
1
1
1
1
1
1
1
1
0.99998
0.999901
0.99988
0.99992
0.99996
0.999987
0.999998
1
1
1
1
1
1
1
1
1
1
1
1
1
1
1
1
1
1
1
1
1
1
1
1
1
1
1
1
1
1
1
1
0.999997
0.99922
0.971546
0.786613
0.48268
0.279616
0.166386
0.0598665
0.0137627
0.00384921
0.00474499
0.0142817
0.999167
0.00433914
0.00238505
0.00385005
0.00045183
0.000477486
0.000239235
0.000674791
0.000390415
0.000574767
0.000552552
0.00133904
0.000204653
5.26984e-06
2.81482e-06
2.71642e-08
2.65356e-08
9.02092e-09
1.21854e-10
2.09189e-09
1.17376e-05
0.99781
1
1
1
1
1
1
1
1
1
1
1
1
1
1
1
1
1
1
1
1
1
1
0.999981
0.999901
0.99988
0.99992
0.999959
0.999987
0.999998
1
1
1
1
1
1
1
1
1
1
1
1
1
1
1
1
1
1
1
1
1
1
1
1
1
1
1
1
1
1
1
1
0.999998
0.999459
0.977353
0.810155
0.506826
0.293012
0.174299
0.0667435
0.0156455
0.00404573
0.00374014
0.00954024
0.937255
0.0061249
0.00344414
0.00653662
0.00326123
0.0010646
0.00487927
0.00376645
0.00640297
0.0175324
9.92683e-05
3.9539e-05
3.32676e-06
8.40515e-07
3.18861e-06
1.35012e-07
5.02465e-08
6.85669e-09
1.49521e-10
7.23453e-10
4.9944e-07
0.0832972
1
1
1
1
1
1
1
1
1
1
1
1
1
1
1
1
1
1
1
1
1
1
1
0.999981
0.999902
0.99988
0.999921
0.999959
0.999987
0.999998
1
1
1
1
1
1
1
1
1
1
1
1
1
1
1
1
1
1
1
1
1
1
1
1
1
1
1
1
1
1
1
1
0.999999
0.999625
0.982099
0.831905
0.531336
0.306406
0.182132
0.0738645
0.0177453
0.00430351
0.00304413
0.00829263
0.0978002
0.0826548
0.0179743
0.0187482
0.0314933
0.13958
0.0112077
0.00956362
0.000114978
0.000128545
8.37693e-06
3.55824e-06
1.55798e-06
5.21734e-07
1.72864e-05
5.3509e-05
1.53527e-07
6.39436e-09
2.99927e-10
4.02739e-10
3.40733e-08
0.00202383
1
1
1
1
1
1
1
1
1
1
1
1
1
1
1
1
1
1
1
1
1
1
1
1
0.999981
0.999903
0.99988
0.999921
0.999959
0.999987
0.999998
1
1
1
1
1
1
1
1
1
1
1
1
1
1
1
1
1
1
1
1
1
1
1
1
1
1
1
1
1
1
1
1
0.999999
0.999741
0.985916
0.852169
0.555828
0.320437
0.189865
0.0812872
0.0200708
0.00462778
0.00279687
0.00736697
0.0259519
0.908283
0.248392
0.0267044
0.000971011
0.00196758
0.000284394
0.000132884
2.18455e-05
7.80691e-06
4.48845e-06
1.58712e-06
1.77348e-06
1.63573e-06
0.000122153
5.1208e-07
2.13833e-06
1.84882e-08
8.26935e-10
2.93486e-10
3.82522e-09
7.68923e-05
1
1
1
1
1
1
1
1
1
1
1
1
1
1
1
1
1
1
1
1
1
1
1
1
1
0.999982
0.999904
0.999881
0.99992
0.999959
0.999987
0.999998
1
1
1
1
1
1
1
1
1
1
1
1
1
1
1
1
1
1
1
1
1
1
1
1
1
1
1
1
1
1
1
1
1
0.999821
0.988971
0.870494
0.58025
0.334659
0.197906
0.0890097
0.0226399
0.00501732
0.00265982
0.00666984
0.0113257
0.0181794
0.0133695
0.00301594
0.000294088
9.17431e-05
6.86569e-05
1.98244e-05
1.24833e-05
3.49854e-06
4.2263e-06
2.84324e-06
5.89135e-05
0.000476492
3.5651e-06
7.58511e-08
1.29031e-06
2.50012e-07
4.75447e-09
2.63275e-10
6.90102e-10
4.39961e-06
0.944617
1
1
1
1
1
1
1
1
1
1
1
1
1
1
1
1
1
1
1
1
1
1
1
1
1
0.999982
0.999905
0.999882
0.999921
0.999959
0.999987
0.999998
1
1
1
1
1
1
1
1
1
1
1
1
1
1
1
1
1
1
1
1
1
1
1
1
1
1
1
1
1
1
1
1
1
0.999877
0.991373
0.887038
0.604056
0.349197
0.206001
0.0970776
0.0254626
0.00548445
0.00257003
0.00615665
0.00641052
0.00324293
0.00109965
0.000391654
0.000154815
3.53512e-05
3.11908e-05
1.09142e-05
1.31056e-05
6.1335e-06
2.0222e-05
1.3387e-05
0.000115014
4.0044e-05
9.75187e-07
4.44591e-08
3.31088e-07
1.58173e-06
1.37031e-07
2.72775e-10
2.39556e-10
3.75456e-07
0.0425558
1
1
1
1
1
1
1
1
1
1
1
1
1
1
1
1
1
1
1
1
1
1
1
1
1
0.999982
0.999905
0.999882
0.999921
0.999959
0.999987
0.999998
1
1
1
1
1
1
1
1
1
1
1
1
1
1
1
1
1
1
1
1
1
1
1
1
1
1
1
1
1
1
1
1
1
0.999915
0.993257
0.90171
0.627373
0.363858
0.214358
0.105398
0.0285481
0.00603584
0.00252717
0.00581044
0.00438345
0.00150551
0.000334972
0.000143243
0.000141055
2.87509e-05
2.92032e-05
1.64517e-05
2.95102e-05
2.3721e-05
6.83569e-05
0.12979
0.00226835
2.19766e-06
5.78151e-07
6.7334e-08
1.5377e-06
1.33623e-07
1.97518e-07
3.20439e-10
1.26996e-10
4.46319e-08
0.00163213
1
1
1
1
1
1
1
1
1
1
1
1
1
1
1
1
1
1
1
1
1
1
1
1
1
0.999983
0.999906
0.999881
0.999921
0.999959
0.999987
0.999998
1
1
1
1
1
1
1
1
1
1
1
1
1
1
1
1
1
1
1
1
1
1
1
1
1
1
1
1
1
1
1
1
1
0.999941
0.994723
0.914597
0.649818
0.378629
0.22289
0.113973
0.0318704
0.00666795
0.00252452
0.00563127
0.00378505
0.00131324
0.00024139
0.000127724
0.000232095
5.7573e-05
3.3921e-05
4.94111e-05
0.00035068
0.000563451
7.40716e-05
0.000120256
3.71565e-05
7.01997e-07
5.30636e-07
2.05925e-07
1.86156e-06
1.92973e-08
1.88439e-08
4.76301e-10
8.53924e-11
6.8929e-09
0.000105696
1
1
1
1
1
1
1
1
1
1
1
1
1
1
1
1
1
1
1
1
1
1
1
1
1
0.999983
0.999907
0.999882
0.99992
0.999958
0.999987
0.999998
1
1
1
1
1
1
1
1
1
1
1
1
1
1
1
1
1
1
1
1
1
1
1
1
1
1
1
1
1
1
1
1
1
0.999958
0.995861
0.92587
0.671457
0.393286
0.231557
0.122774
0.0354365
0.00738404
0.0025524
0.00544377
0.00423485
0.00204499
0.00026071
0.000205006
0.000418029
0.000264044
6.71114e-05
0.000336033
0.000204152
0.0233792
0.00114692
9.27304e-06
6.05323e-06
7.20182e-07
1.05713e-06
4.03075e-06
1.00518e-05
1.37867e-08
1.11666e-08
1.13291e-09