/*--------------------------------*- C++ -*----------------------------------*\
| =========                 |                                                 |
| \\      /  F ield         | OpenFOAM: The Open Source CFD Toolbox           |
|  \\    /   O peration     | Version:  v2012                                 |
|   \\  /    A nd           | Website:  www.openfoam.com                      |
|    \\/     M anipulation  |                                                 |
\*---------------------------------------------------------------------------*/
FoamFile
{
    version     2.0;
    format      ascii;
    class       volScalarField;
    location    "3900";
    object      q3;
}
// * * * * * * * * * * * * * * * * * * * * * * * * * * * * * * * * * * * * * //

dimensions      [0 0 0 0 0 0 0];


internalField   nonuniform List<scalar> 
29502
(
0.00385735
0.000836741
0.00818776
0.000834781
0.000960578
0.0071896
0.000913503
0.00192634
0.000890928
0.00707159
0.000962703
0.00284689
0.0063248
0.000948479
0.0076247
0.000990203
0.00284921
0.00919521
0.0148024
0.00120723
0.00868638
0.00100424
0.00303196
0.00941302
0.0210284
0.0277799
0.00166872
0.0101654
0.00100831
0.00297582
0.0100813
0.0217455
0.0384822
0.0455229
0.0022985
0.0120605
0.00100776
0.0027394
0.0099262
0.0230924
0.0401892
0.0619017
0.0679564
0.00306269
0.0144149
0.00100304
0.00270563
0.00921283
0.0228187
0.0424931
0.0652492
0.0906866
0.094717
0.00396936
0.0172895
0.00099611
0.00245979
0.00911285
0.0215519
0.0422206
0.0686001
0.0962449
0.124375
0.12533
0.00498816
0.0207836
0.000989852
0.00241193
0.00847206
0.0213466
0.0404679
0.0684585
0.100956
0.132552
0.16235
0.159209
0.0060987
0.0250008
0.000985317
0.00238085
0.00831894
0.020132
0.040032
0.0661823
0.101049
0.138721
0.173359
0.203828
0.19637
0.00731342
0.0301542
0.000981014
0.00235195
0.00819744
0.0198327
0.0380943
0.0654988
0.0982953
0.139022
0.180946
0.218003
0.248699
0.23686
0.00861626
0.0364451
0.000973115
0.00232219
0.00812239
0.0195437
0.0375986
0.0627959
0.0974412
0.135947
0.181715
0.22683
0.266273
0.297461
0.280985
0.0100578
0.044123
0.000966668
0.0022903
0.00801749
0.0193936
0.0370789
0.0620228
0.0940844
0.13495
0.178552
0.228096
0.276533
0.318824
0.350232
0.329065
0.0116651
0.0534626
0.000960692
0.00225899
0.00790678
0.0191535
0.0368311
0.0612703
0.0929807
0.131106
0.177339
0.225153
0.278573
0.330701
0.375495
0.407577
0.381493
0.0134733
0.0648731
0.000956938
0.00224347
0.00780953
0.0188995
0.0364405
0.0609067
0.0919951
0.129774
0.172976
0.223932
0.275764
0.333274
0.389082
0.437015
0.469665
0.438609
0.0156907
0.0788134
0.000952316
0.00223455
0.00776269
0.0187047
0.0359744
0.060289
0.0914337
0.128482
0.171438
0.21916
0.27444
0.330758
0.392521
0.452087
0.503579
0.53684
0.500918
0.0179907
0.0958167
0.000946258
0.00221797
0.00773837
0.0185809
0.0356506
0.0595495
0.0906402
0.127802
0.169949
0.217448
0.269498
0.329395
0.390111
0.456373
0.520559
0.575723
0.610017
0.568863
0.0203019
0.116575
0.000941674
0.00219887
0.00767941
0.0185091
0.0354065
0.0590795
0.0896525
0.126835
0.169163
0.215754
0.26754
0.324146
0.388761
0.454444
0.52561
0.594696
0.654361
0.689885
0.642947
0.0225625
0.141921
0.000938045
0.00218473
0.00761416
0.0183767
0.0352591
0.0587272
0.0889566
0.125523
0.167947
0.214786
0.265668
0.322066
0.383577
0.452957
0.524147
0.600908
0.675483
0.74027
0.777071
0.723264
0.0248974
0.172844
0.000934154
0.00218234
0.0075659
0.0182241
0.0350502
0.0584795
0.0884371
0.124608
0.166331
0.213432
0.264538
0.31994
0.381151
0.44781
0.522857
0.599828
0.682782
0.763678
0.8342
0.872367
0.809591
0.0273641
0.210514
0.000930931
0.00216501
0.00754216
0.0181163
0.0347722
0.058139
0.0880567
0.123879
0.165157
0.211617
0.263135
0.318727
0.378872
0.445267
0.517527
0.598409
0.682036
0.771837
0.860117
0.936895
0.976703
0.901066
0.0305573
0.256375
0.000927952
0.00215128
0.00748813
0.0180832
0.0345741
0.0576964
0.0875703
0.123466
0.164343
0.210186
0.260904
0.317034
0.377436
0.442654
0.514667
0.593219
0.680619
0.771895
0.869542
0.965596
1.04945
1.09089
0.996286
0.0350145
0.312063
0.000924385
0.00214644
0.00745731
0.0179857
0.0345424
0.0574315
0.0869429
0.122894
0.163891
0.209174
0.259388
0.314645
0.375621
0.441108
0.511842
0.589945
0.675381
0.770243
0.86991
0.97618
1.08144
1.17329
1.21621
1.0932
0.0419866
0.379494
0.000920444
0.00213721
0.0074374
0.0179129
0.0343635
0.0573682
0.0866259
0.122146
0.163169
0.208608
0.258307
0.313011
0.373023
0.439122
0.510313
0.58716
0.672125
0.764852
0.868241
0.977221
1.09321
1.2089
1.30969
1.35342
1.18837
0.0522107
0.460865
0.000916808
0.0021257
0.00740704
0.0178461
0.0341977
0.057086
0.0865796
0.121718
0.162332
0.207839
0.25762
0.311643
0.371004
0.436162
0.50805
0.585453
0.669024
0.761386
0.86272
0.975368
1.09498
1.22188
1.34932
1.46017
1.50355
1.27964
0.0669769
0.558639
0.000914213
0.00211585
0.00736847
0.0177771
0.0340731
0.0568241
0.0861732
0.121638
0.161897
0.206853
0.256664
0.310951
0.369541
0.434052
0.504689
0.582957
0.666914
0.758206
0.85904
0.969871
1.09299
1.22406
1.36349
1.50415
1.62619
1.6671
1.36003
0.0876417
0.676175
0.000912563
0.00210894
0.00733656
0.0177117
0.0339521
0.0566357
0.0858813
0.121099
0.161653
0.206247
0.255449
0.309829
0.36876
0.432556
0.502349
0.579313
0.664367
0.75589
0.855527
0.965781
1.08732
1.22214
1.36634
1.51986
1.67543
1.80944
1.84389
1.4193
0.115874
0.812639
0.000910838
0.00210707
0.00731464
0.0176392
0.0338649
0.0564912
0.0856802
0.120707
0.160989
0.206097
0.254853
0.308461
0.367789
0.431623
0.500712
0.576694
0.660446
0.752901
0.852927
0.961896
1.08271
1.21633
1.3642
1.52325
1.69254
1.8649
2
2
1.44385
0.152942
0.969811
0.000908902
0.00210235
0.00731183
0.0175933
0.0337713
0.0563531
0.085475
0.120532
0.160601
0.205409
0.254657
0.307801
0.366275
0.430429
0.499805
0.574782
0.657597
0.748658
0.849833
0.959122
1.07856
1.2112
1.35832
1.5207
1.6966
1.88357
2
2
2
1.41952
0.200595
1.15449
0.0009066
0.00209721
0.00729667
0.01759
0.0336919
0.0562012
0.0852661
0.120171
0.160376
0.205076
0.253983
0.307561
0.365497
0.428896
0.498406
0.573768
0.655375
0.745719
0.845179
0.955998
1.07564
1.20678
1.3526
1.51458
1.69372
1.88815
2
2
2
2
1.34127
0.2607
1.37003
0.000904037
0.00209087
0.0072814
0.0175594
0.03369
0.0560776
0.0849824
0.119891
0.159917
0.204739
0.253565
0.306771
0.365241
0.42814
0.496597
0.572264
0.654148
0.743286
0.84192
0.950738
1.07209
1.20332
1.34774
1.50846
1.6873
1.88488
2
2
2
2
2
1.22103
0.330788
1.61344
0.000901202
0.00208138
0.00726123
0.0175269
0.0336394
0.0560823
0.0848159
0.119611
0.159573
0.204232
0.253238
0.306269
0.364281
0.427851
0.495862
0.570411
0.652639
0.741814
0.839353
0.947107
1.06636
1.19939
1.34385
1.50298
1.68041
1.87805
2
2
2
2
2
2
1.07502
0.412676
1.88087
0.000898408
0.00207362
0.00723345
0.0174851
0.0335825
0.0560037
0.0848915
0.119482
0.159323
0.203799
0.252719
0.305979
0.363607
0.42679
0.495615
0.569482
0.650714
0.740086
0.837715
0.944115
1.0622
1.19315
1.33937
1.49856
1.6743
1.8704
2
2
2
2
2
2
2
0.915374
0.506517
2
0.000895651
0.00206995
0.00720876
0.0174478
0.0335109
0.0559735
0.0847858
0.119674
0.159278
0.203508
0.252316
0.305514
0.363489
0.42609
0.494395
0.569129
0.649683
0.738202
0.835864
0.942618
1.05901
1.18883
1.33267
1.49398
1.66955
1.86377
2
2
2
2
2
2
2
2
0.773767
0.613846
2
0.000892876
0.00205627
0.00719513
0.0173928
0.033447
0.0558656
0.0847424
0.119444
0.159501
0.203427
0.251969
0.30511
0.362928
0.425791
0.493675
0.56788
0.649126
0.737007
0.833575
0.940575
1.05727
1.18523
1.32793
1.48637
1.66449
1.85835
2
2
2
2
2
2
2
2
2
0.647338
0.736317
2
0.000890598
0.00205053
0.0071621
0.0173432
0.0333528
0.0557176
0.0845936
0.119297
0.159115
0.203695
0.251773
0.304653
0.362199
0.425124
0.493414
0.567301
0.647882
0.736531
0.832428
0.937942
1.05509
1.18309
1.32412
1.48108
1.65579
1.85252
2
2
2
2
2
2
2
2
2
2
0.566062
0.873353
2
0.000889049
0.00204798
0.00714649
0.0172726
0.0332644
0.0555719
0.0843888
0.119193
0.158928
0.203354
0.252016
0.304379
0.36186
0.424531
0.492585
0.566829
0.647135
0.735087
0.831943
0.93647
1.0521
1.18057
1.32171
1.47693
1.64973
1.84288
2
2
2
2
2
2
2
2
2
2
2
0.543431
1.01843
2
0.000888133
0.00203876
0.00712854
0.0172407
0.0331447
0.0554428
0.0841926
0.119028
0.158916
0.203244
0.251762
0.304778
0.361673
0.424217
0.492172
0.565901
0.646748
0.734154
0.830407
0.935919
1.05064
1.17762
1.31875
1.47444
1.64518
1.83623
2
2
2
2
2
2
2
2
2
2
2
2
0.569524
1.16864
2
0.000887912
0.00203717
0.0071003
0.0172229
0.033092
0.0553123
0.0840114
0.118775
0.158711
0.203255
0.251679
0.304555
0.362179
0.42406
0.491852
0.565609
0.645937
0.733889
0.829519
0.934389
1.04999
1.17596
1.31539
1.47107
1.64258
1.83107
2
2
2
2
2
2
2
2
2
2
2
2
2
0.633015
1.31045
2
0.000888017
0.00204336
0.00709691
0.017162
0.0330593
0.0552858
0.0838353
0.118542
0.1584
0.202852
0.251657
0.304221
0.361977
0.424276
0.491648
0.565156
0.645423
0.733013
0.829126
0.933593
1.04824
1.17507
1.31355
1.46712
1.63896
1.82791
2
2
2
2
2
2
2
2
2
2
2
2
2
2
0.71823
1.43947
2
0.000888102
0.00204791
0.00711973
0.0171391
0.0329567
0.055183
0.0837996
0.118318
0.158119
0.202527
0.251231
0.304151
0.361835
0.424326
0.492019
0.565022
0.644928
0.732501
0.82814
0.933171
1.04711
1.17318
1.31262
1.46538
1.63459
1.82382
2
2
2
2
2
2
2
2
2
2
2
2
2
2
1.56902
0.808824
1.58119
2
0.000887911
0.00204846
0.00713422
0.0171916
0.0329192
0.0550304
0.0836563
0.118179
0.157844
0.202288
0.250888
0.303848
0.361745
0.424258
0.49198
0.565672
0.644946
0.731951
0.827366
0.932203
1.04686
1.17211
1.31079
1.46449
1.63254
1.81912
2
2
2
2
2
2
2
2
2
2
2
2
2
2
2
1.14735
0.901644
1.734
2
0.000887367
0.00204437
0.00713839
0.0172272
0.0330205
0.0550339
0.0835214
0.117992
0.157786
0.201973
0.250831
0.303676
0.36135
0.424173
0.491942
0.565362
0.64553
0.731983
0.826996
0.931503
1.04607
1.17179
1.3097
1.46254
1.63171
1.81678
2
2
2
2
2
2
2
2
2
2
2
2
2
2
2
2
0.889809
0.999535
1.89449
2
0.000886338
0.00203781
0.0071291
0.0172401
0.033087
0.0551925
0.0835298
0.117919
0.157674
0.20192
0.250485
0.303562
0.361142
0.423898
0.491795
0.565251
0.645202
0.732526
0.82689
0.930949
1.0454
1.17108
1.30923
1.46138
1.62963
1.81576
2
2
2
2
2
2
2
2
2
2
2
2
2
2
2
2
2
0.788652
1.10308
2
2
0.000884794
0.00203296
0.00711064
0.0172459
0.0331154
0.0552495
0.0837602
0.117934
0.157468
0.201745
0.250202
0.303105
0.360964
0.423646
0.491458
0.565327
0.645254
0.732362
0.827386
0.93076
1.04464
1.17015
1.30821
1.46066
1.62842
1.81365
2
2
2
2
2
2
2
2
2
2
2
2
2
2
2
2
2
2
0.785869
1.19994
2
2
0.00088283
0.00203104
0.00709496
0.0172101
0.0331317
0.0553001
0.0838415
0.118233
0.157493
0.20154
0.249941
0.303014
0.360543
0.423459
0.491185
0.564923
0.645263
0.73261
0.827416
0.931256
1.04464
1.16921
1.30722
1.45934
1.62759
1.81231
2
2
2
2
2
2
2
2
2
2
2
2
2
2
2
2
2
2
1.532
0.838334
1.30087
2
2
0.000880382
0.0020253
0.00708094
0.0171559
0.0330753
0.0553346
0.0838524
0.118348
0.157859
0.201577
0.249768
0.302782
0.360319
0.422888
0.490915
0.564526
0.644989
0.732482
0.827532
0.931405
1.04522
1.16926
1.30632
1.45835
1.62621
1.81146
2
2
2
2
2
2
2
2
2
2
2
2
2
2
2
2
2
2
2
1.10615
0.909842
1.41286
2
2
0.00087763
0.00201684
0.00706275
0.0171271
0.0329837
0.0552548
0.0839018
0.118363
0.158003
0.201968
0.249817
0.302539
0.360137
0.422726
0.490341
0.564228
0.644558
0.732226
0.82772
0.931517
1.04537
1.17037
1.30653
1.45766
1.62518
1.81021
2
2
2
2
2
2
2
2
2
2
2
2
2
2
2
2
2
2
2
2
0.895151
0.987063
1.53489
2
2
0.000875005
0.00201167
0.00704198
0.0170865
0.0329337
0.0551684
0.0838753
0.118441
0.158146
0.202313
0.250334
0.30251
0.359742
0.422418
0.490225
0.563556
0.644188
0.731904
0.827262
0.931567
1.04544
1.17066
1.30781
1.45801
1.62444
1.80904
2
2
2
2
2
2
2
2
2
2
2
2
2
2
2
2
2
2
2
2
1.96465
0.832759
1.07031
1.67399
2
2
0.000872523
0.00200751
0.00702537
0.0170409
0.0328615
0.055094
0.0838288
0.118409
0.15824
0.202451
0.250791
0.303106
0.360028
0.422256
0.490153
0.563491
0.643657
0.731463
0.826916
0.931323
1.0454
1.1706
1.30803
1.4592
1.62461
1.80799
2
2
2
2
2
2
2
2
2
2
2
2
2
2
2
2
2
2
2
2
2
1.34049
0.85066
1.16531
1.82883
2
2
0.000870067
0.00199815
0.00701112
0.0170228
0.0327807
0.0549843
0.0837268
0.11835
0.158206
0.202589
0.251011
0.303458
0.360562
0.42245
0.489906
0.563264
0.643465
0.730881
0.826611
0.930835
1.0453
1.17056
1.30819
1.45936
1.62574
1.80826
2
2
2
2
2
2
2
2
2
2
2
2
2
2
2
2
2
2
2
2
2
2
0.995409
0.906428
1.27681
1.98549
2
2
0.000868013
0.0019927
0.00698062
0.0169908
0.0327476
0.0548594
0.0835743
0.118218
0.158133
0.202547
0.251156
0.303867
0.360859
0.423104
0.490193
0.563042
0.643299
0.730607
0.825896
0.930705
1.04495
1.17032
1.30825
1.45967
1.62637
1.80955
2
2
2
2
2
2
2
2
2
2
2
2
2
2
2
2
2
2
2
2
2
2
2
0.860009
0.98304
1.39222
2
2
2
0.000866197
0.00199018
0.00695397
0.0169019
0.0326861
0.0547513
0.0833984
0.118022
0.157977
0.202324
0.251068
0.30401
0.361284
0.423592
0.490835
0.563497
0.642963
0.730557
0.825579
0.930162
1.04472
1.17016
1.30794
1.45993
1.62683
1.81035
2
2
2
2
2
2
2
2
2
2
2
2
2
2
2
2
2
2
2
2
2
2
2
1.37553
0.852057
1.06901
1.51222
2
2
2
0.000864681
0.00198564
0.0069445
0.0168442
0.0325318
0.0546564
0.0831761
0.117798
0.157627
0.202143
0.25087
0.30398
0.361442
0.423866
0.491362
0.564431
0.64347
0.730466
0.825715
0.929714
1.04433
1.16976
1.30787
1.45949
1.62702
1.81102
2
2
2
2
2
2
2
2
2
2
2
2
2
2
2
2
2
2
2
2
2
2
2
2
1.01157
0.89971
1.16333
1.64198
2
2
2
0.00086353
0.00198199
0.0069298
0.0168218
0.0324274
0.0544677
0.0829654
0.117507
0.157236
0.201709
0.250609
0.303842
0.361378
0.424047
0.491837
0.564978
0.644694
0.730772
0.825875
0.929822
1.04406
1.16931
1.30766
1.45928
1.62665
1.81133
2
2
2
2
2
2
2
2
2
2
2
2
2
2
2
2
2
2
2
2
2
2
2
2
1.72407
0.87763
0.969445
1.26476
1.78817
2
2
2
0.000862711
0.00198293
0.00690921
0.0167873
0.0323857
0.0543068
0.0827765
0.117236
0.156991
0.201272
0.250183
0.303613
0.361244
0.424015
0.492316
0.565569
0.645505
0.731793
0.826139
0.929886
1.04381
1.16914
1.30706
1.45923
1.62635
1.81113
2
2
2
2
2
2
2
2
2
2
2
2
2
2
2
2
2
2
2
2
2
2
2
2
2
1.17918
0.872155
1.04979
1.38075
1.94683
2
2
2
0.000862251
0.00198119
0.00691899
0.0167426
0.0323238
0.0542385
0.0826206
0.116988
0.156767
0.201119
0.249787
0.303058
0.360959
0.423833
0.49199
0.56598
0.645863
0.732683
0.82721
0.930482
1.04389
1.16883
1.30678
1.45875
1.62608
1.8106
2
2
2
2
2
2
2
2
2
2
2
2
2
2
2
2
2
2
2
2
2
2
2
2
2
1.99116
0.93138
0.921774
1.13886
1.50971
2
2
2
2
0.000862092
0.00197697
0.00692316
0.0167628
0.0322422
0.0541412
0.082451
0.116784
0.156355
0.200968
0.249558
0.302606
0.36056
0.423721
0.491811
0.565904
0.646137
0.733303
0.828161
0.931861
1.04447
1.16891
1.30666
1.45858
1.62575
1.81047
2
2
2
2
2
2
2
2
2
2
2
2
2
2
2
2
2
2
2
2
2
2
2
2
2
2
1.31167
0.873124
0.994449
1.24174
1.65052
2
2
2
2
0.000862132
0.00197698
0.0069116
0.016772
0.0322784
0.0540144
0.0823116
0.116562
0.156103
0.200352
0.249284
0.302418
0.360043
0.423018
0.491871
0.565702
0.646263
0.733856
0.828852
0.932855
1.0459
1.16948
1.30665
1.45837
1.62549
1.81029
2
2
2
2
2
2
2
2
2
2
2
2
2
2
2
2
2
2
2
2
2
2
2
2
2
2
2
0.982299
0.903888
1.07984
1.35871
1.81099
2
2
2
2
0.000862365
0.00197774
0.00690348
0.0167479
0.0322921
0.0540168
0.0822066
0.11638
0.155939
0.199922
0.248575
0.302034
0.359771
0.422494
0.490939
0.565483
0.646005
0.733946
0.829395
0.933326
1.04726
1.17102
1.30733
1.45833
1.62511
1.8098
2
2
2
2
2
2
2
2
2
2
2
2
2
2
2
2
2
2
2
2
2
2
2
2
2
2
2
1.36449
0.885209
0.970854
1.17614
1.49081
1.97818
2
2
2
2
0.000862472
0.00197551
0.00689863
0.0167316
0.0322518
0.0540352
0.0821355
0.11624
0.155713
0.199869
0.248088
0.301234
0.359547
0.422153
0.4903
0.564719
0.645593
0.733677
0.829513
0.93397
1.0478
1.17268
1.30889
1.45928
1.62531
1.8096
2
2
2
2
2
2
2
2
2
2
2
2
2
2
2
2
2
2
2
2
2
2
2
2
2
2
2
2
1.00288
0.904183
1.05387
1.28733
1.63565
2
2
2
2
2
0.000862801
0.00197937
0.00690176
0.0167221
0.0322259
0.0540283
0.082089
0.11624
0.155542
0.199723
0.247966
0.300672
0.358651
0.42167
0.489899
0.563961
0.644889
0.733148
0.829447
0.934283
1.04867
1.17353
1.31067
1.46095
1.6266
1.81005
2
2
2
2
2
2
2
2
2
2
2
2
2
2
2
2
2
2
2
2
2
2
2
2
2
2
2
2
1.32287
0.895433
0.968125
1.15125
1.40813
1.78773
2
2
2
2
2
0.000863095
0.00198798
0.00692291
0.0167303
0.0322111
0.0539902
0.0820813
0.116181
0.155539
0.199382
0.247816
0.300558
0.357797
0.420888
0.489189
0.563571
0.64412
0.732452
0.829138
0.934194
1.04931
1.17451
1.31217
1.46287
1.62861
1.81136
2
2
2
2
2
2
2
2
2
2
2
2
2
2
2
2
2
2
2
2
2
2
2
2
2
2
2
2
1.86357
0.986098
0.913979
1.05358
1.25621
1.53905
1.956
2
2
2
2
2
0.000863104
0.00198124
0.00694721
0.0167774
0.0322268
0.0539694
0.0820997
0.116076
0.155466
0.199247
0.247444
0.300362
0.357693
0.420163
0.488488
0.562905
0.643577
0.731546
0.828303
0.933824
1.04891
1.17514
1.3132
1.46469
1.63063
1.81349
2
2
2
2
2
2
2
2
2
2
2
2
2
2
2
2
2
2
2
2
2
2
2
2
2
2
2
2
2
1.21708
0.900068
0.982178
1.14946
1.37177
1.68537
2
2
2
2
2
2
0.000863543
0.00197868
0.00693015
0.0168286
0.0323103
0.0539941
0.0821431
0.116104
0.155337
0.19928
0.247285
0.299923
0.357636
0.419801
0.48791
0.561959
0.643105
0.730937
0.827327
0.93292
1.04824
1.17472
1.31356
1.46585
1.63236
1.81566
2
2
2
2
2
2
2
2
2
2
2
2
2
2
2
2
2
2
2
2
2
2
2
2
2
2
2
2
2
1.61659
0.950858
0.931477
1.06858
1.25511
1.49836
1.84856
2
2
2
2
2
2
0.000863499
0.0019799
0.0069227
0.0167949
0.0323981
0.0540735
0.0821109
0.116159
0.155369
0.199277
0.247325
0.29973
0.35714
0.419529
0.487256
0.561278
0.642062
0.7304
0.826619
0.931824
1.04722
1.1742
1.31338
1.46591
1.63381
1.81747
2
2
2
2
2
2
2
2
2
2
2
2
2
2
2
2
2
2
2
2
2
2
2
2
2
2
2
2
2
2
1.09754
0.907483
1.00499
1.16588
1.36938
1.6388
2
2
2
2
2
2
2
0.000863446
0.001977
0.00692804
0.0167805
0.0323434
0.0541499
0.0821446
0.116114
0.155329
0.199304
0.247281
0.299787
0.356921
0.419168
0.486779
0.560817
0.641283
0.72947
0.82597
0.931003
1.04625
1.17339
1.31307
1.46599
1.63423
1.81935
2
2
2
2
2
2
2
2
2
2
2
2
2
2
2
2
2
2
2
2
2
2
2
2
2
2
2
2
2
2
1.36175
0.923699
0.956113
1.09501
1.2702
1.49524
1.79911
2
2
2
2
2
2
2
0.000863377
0.00197708
0.00691725
0.0167925
0.032286
0.0541251
0.0822561
0.116165
0.155273
0.199131
0.247336
0.299752
0.356957
0.419118
0.486375
0.560226
0.640751
0.728592
0.824705
0.930247
1.04556
1.17226
1.31213
1.46561
1.63423
1.82005
2
2
2
2
2
2
2
2
2
2
2
2
2
2
2
2
2
2
2
2
2
2
2
2
2
2
2
2
2
2
1.74962
0.997151
0.925326
1.03691
1.19269
1.38505
1.63274
1.97276
2
2
2
2
2
2
2
0.000863288
0.00197693
0.00691775
0.0167686
0.0323089
0.0540903
0.0822909
0.116303
0.155441
0.198931
0.247272
0.299795
0.35693
0.418963
0.486484
0.559776
0.640111
0.72776
0.823754
0.928863
1.0447
1.17143
1.31087
1.46454
1.6338
1.82004
2
2
2
2
2
2
2
2
2
2
2
2
2
2
2
2
2
2
2
2
2
2
2
2
2
2
2
2
2
2
2
1.14369
0.916622
0.991521
1.13082
1.30093
1.51116
1.78658
2
2
2
2
2
2
2
2
0.000863052
0.00197672
0.00691716
0.0167702
0.0323006
0.0540783
0.0823158
0.116351
0.155609
0.199258
0.247052
0.299723
0.356975
0.418723
0.486519
0.559696
0.639629
0.727066
0.823054
0.927821
1.04319
1.17043
1.30963
1.4634
1.63261
1.81951
2
2
2
2
2
2
2
2
2
2
2
2
2
2
2
2
2
2
2
2
2
2
2
2
2
2
2
2
2
2
2
1.37373
0.937943
0.95652
1.07943
1.23456
1.4203
1.65187
1.96287
2
2
2
2
2
2
2
2
0.000862915
0.00197878
0.00691629
0.0167686
0.032302
0.0540132
0.0822298
0.116379
0.155557
0.199573
0.247272
0.299472
0.356889
0.418787
0.486244
0.559688
0.639484
0.726514
0.822283
0.927257
1.04201
1.16879
1.30846
1.46198
1.63127
1.81818
2
2
2
2
2
2
2
2
2
2
2
2
2
2
2
2
2
2
2
2
2
2
2
2
2
2
2
2
2
2
2
1.6904
0.999719
0.933732
1.03554
1.17852
1.3483
1.55127
1.80824
2
2
2
2
2
2
2
2
2
0.000862568
0.00198468
0.00692291
0.016766
0.0322989
0.0540646
0.0820695
0.116273
0.155592
0.199392
0.247665
0.299732
0.356633
0.418865
0.486114
0.559648
0.639497
0.726581
0.821673
0.926665
1.04139
1.16747
1.30693
1.46065
1.62996
1.81667
2
2
2
2
2
2
2
2
2
2
2
2
2
2
2
2
2
2
2
2
2
2
2
2
2
2
2
2
2
2
2
2
1.11079
0.925784
0.999444
1.1294
1.28712
1.47029
1.69543
1.98318
2
2
2
2
2
2
2
2
2
0.000862208
0.00198384
0.00694012
0.0167804
0.0322927
0.0540578
0.0821397
0.116063
0.155571
0.199431
0.247563
0.300122
0.356882
0.418785
0.486027
0.559474
0.639417
0.726794
0.821728
0.926006
1.04069
1.16674
1.30546
1.45895
1.6284
1.8151
2
2
2
2
2
2
2
2
2
2
2
2
2
2
2
2
2
2
2
2
2
2
2
2
2
2
2
2
2
2
2
2
1.27626
0.937276
0.971027
1.08767
1.23355
1.40333
1.60442
1.85145
2
2
2
2
2
2
2
2
2
2
0.000861552
0.00197568
0.00693562
0.0168135
0.032316
0.0540469
0.0821255
0.116148
0.155309
0.199536
0.247606
0.300052
0.357337
0.419055
0.486097
0.559382
0.639474
0.726736
0.821936
0.925758
1.03995
1.16596
1.30461
1.45758
1.62655
1.81366
2
2
2
2
2
2
2
2
2
2
2
2
2
2
2
2
2
2
2
2
2
2
2
2
2
2
2
2
2
2
2
2
1.49374
0.972429
0.950738
1.05274
1.18781
1.34645
1.53104
1.74751
2
2
2
2
2
2
2
2
2
2
2
0.000860813
0.00197144
0.00691147
0.0168042
0.0323724
0.0541323
0.0821785
0.116218
0.155413
0.199219
0.24758
0.300079
0.357056
0.419545
0.486639
0.559491
0.639402
0.726797
0.821606
0.925725
1.03969
1.16516
1.30374
1.4566
1.62528
1.81187
2
2
2
2
2
2
2
2
2
2
2
2
2
2
2
2
2
2
2
2
2
2
2
2
2
2
2
2
2
2
2
2
1.75971
1.03438
0.938828
1.02362
1.14936
1.29784
1.47033
1.66861
1.91035
2
2
2
2
2
2
2
2
2
2
2
0.000860111
0.0019715
0.00689611
0.0167503
0.0323512
0.0541594
0.0822917
0.116285
0.155496
0.199211
0.247227
0.300082
0.357127
0.419253
0.487118
0.560006
0.639257
0.726445
0.821449
0.925389
1.03963
1.16484
1.30286
1.45534
1.62416
1.81015
2
2
2
2
2
2
2
2
2
2
2
2
2
2
2
2
2
2
2
2
2
2
2
2
2
2
2
2
2
2
2
2
2
1.1252
0.936533
0.999071
1.1163
1.25619
1.41896
1.60486
1.82404
2
2
2
2
2
2
2
2
2
2
2
2
0.000859343
0.00197203
0.00689402
0.0167155
0.0322585
0.0541252
0.0822538
0.116337
0.155461
0.199165
0.247212
0.299656
0.357251
0.419113
0.486805
0.560571
0.639844
0.726114
0.821346
0.925237
1.03953
1.16476
1.30247
1.45437
1.62275
1.80883
2
2
2
2
2
2
2
2
2
2
2
2
2
2
2
2
2
2
2
2
2
2
2
2
2
2
2
2
2
2
2
2
2
1.24634
0.945116
0.978898
1.08743
1.22028
1.37436
1.55017
1.75355
1.99894
2
2
2
2
2
2
2
2
2
2
2
2
0.000858509
0.00196979
0.00689133
0.0167075
0.0321941
0.0539818
0.0822037
0.116283
0.155518
0.199135
0.247165
0.299617
0.356815
0.419289
0.486468
0.560238
0.640398
0.726717
0.821245
0.925367
1.03962
1.16467
1.30239
1.45421
1.62196
1.80759
2
2
2
2
2
2
2
2
2
2
2
2
2
2
2
2
2
2
2
2
2
2
2
2
2
2
2
2
2
2
2
2
2
1.40024
0.966477
0.963112
1.0621
1.18818
1.33455
1.5019
1.69315
1.91553
2
2
2
2
2
2
2
2
2
2
2
2
2
0.000857662
0.00196711
0.00688284
0.016699
0.0321731
0.0538321
0.0820031
0.116214
0.155562
0.199326
0.247109
0.299582
0.356775
0.418957
0.48665
0.55985
0.640061
0.727312
0.821852
0.925501
1.03979
1.16478
1.30228
1.45437
1.62177
1.80669
2
2
2
2
2
2
2
2
2
2
2
2
2
2
2
2
2
2
2
2
2
2
2
2
2
2
2
2
2
2
2
2
2
1.58471
1.00294
0.951979
1.03995
1.15992
1.29923
1.45785
1.63995
1.84557
2
2
2
2
2
2
2
2
2
2
2
2
2
2
0.000856784
0.00196442
0.00687406
0.016678
0.032151
0.0538289
0.0817937
0.115952
0.155473
0.199494
0.247319
0.299513
0.356704
0.418914
0.486507
0.560077
0.639893
0.726962
0.822491
0.926179
1.0397
1.16496
1.30244
1.45428
1.62161
1.80642
2
2
2
2
2
2
2
2
2
2
2
2
2
2
2
2
2
2
2
2
2
2
2
2
2
2
2
2
2
2
2
2
2
1.79716
1.05511
0.945862
1.02079
1.13502
1.2681
1.41884
1.5924
1.78704
2
2
2
2
2
2
2
2
2
2
2
2
2
2
2
0.000855887
0.00196158
0.00686403
0.0166541
0.0321102
0.0538195
0.08181
0.115677
0.155147
0.199394
0.247516
0.299572
0.35661
0.418828
0.486434
0.559899
0.640118
0.727002
0.822128
0.926849
1.04013
1.16487
1.30261
1.45443
1.62151
1.80625
2
2
2
2
2
2
2
2
2
2
2
2
2
2
2
2
2
2
2
2
2
2
2
2
2
2
2
2
2
2
2
2
2
2
1.1231
0.945259
1.00437
1.11303
1.24093
1.38518
1.5507
1.7372
1.95082
2
2
2
2
2
2
2
2
2
2
2
2
2
2
2
0.000854955
0.00195933
0.00685281
0.0166317
0.0320642
0.0537523
0.0818185
0.115694
0.154805
0.198996
0.247372
0.299788
0.356699
0.418733
0.486335
0.559806
0.639697
0.727246
0.822171
0.926453
1.04084
1.16537
1.30285
1.45468
1.6217
1.80614
2
2
2
2
2
2
2
2
2
2
2
2
2
2
2
2
2
2
2
2
2
2
2
2
2
2
2
2
2
2
2
2
2
2
1.20511
0.950147
0.990492
1.09352
1.21715
1.35607
1.51488
1.69431
1.8995
2
2
2
2
2
2
2
2
2
2
2
2
2
2
2
2
0.000854035
0.00195735
0.00684407
0.0166063
0.0320175
0.0536816
0.0817108
0.115696
0.15479
0.198586
0.246934
0.299624
0.356896
0.418811
0.486247
0.559692
0.639594
0.726584
0.822463
0.92628
1.04071
1.16609
1.30363
1.45492
1.62198
1.80638
2
2
2
2
2
2
2
2
2
2
2
2
2
2
2
2
2
2
2
2
2
2
2
2
2
2
2
2
2
2
2
2
2
2
1.30043
0.960571
0.978721
1.07614
1.19586
1.3305
1.48369
1.65751
1.85513
2
2
2
2
2
2
2
2
2
2
2
2
2
2
2
2
2
0.000853046
0.0019547
0.00683586
0.0165824
0.0319684
0.0535985
0.0815991
0.115551
0.154753
0.198489
0.246471
0.299126
0.356734
0.418833
0.486085
0.559577
0.639486
0.726446
0.821706
0.926573
1.04052
1.166
1.30442
1.45576
1.62226
1.80669
2
2
2
2
2
2
2
2
2
2
2
2
2
2
2
2
2
2
2
2
2
2
2
2
2
2
2
2
2
2
2
2
2
2
1.4076
0.976438
0.968903
1.06044
1.17637
1.30732
1.45576
1.62476
1.81372
2
2
2
2
2
2
2
2
2
2
2
2
2
2
2
2
2
2
0.000852094
0.00195195
0.00682588
0.0165596
0.0319215
0.0535132
0.0814855
0.115403
0.154571
0.198364
0.246352
0.298751
0.356162
0.418636
0.486117
0.559417
0.63932
0.726288
0.821576
0.926043
1.04061
1.16606
1.30405
1.45661
1.62317
1.80702
2
2
2
2
2
2
2
2
2
2
2
2
2
2
2
2
2
2
2
2
2
2
2
2
2
2
2
2
2
2
2
2
2
2
1.52794
0.997788
0.961006
1.04595
1.15848
1.28598
1.43017
1.5928
1.77448
1.97629
2
2
2
2
2
2
2
2
2
2
2
2
2
2
2
2
2
2
0.000851078
0.00194916
0.00681523
0.0165345
0.0318769
0.0534351
0.0813588
0.115247
0.15438
0.198144
0.246222
0.298617
0.355738
0.418197
0.485884
0.559436
0.639376
0.726149
0.821422
0.925869
1.04004
1.16616
1.30388
1.45625
1.62407
1.80799
2
2
2
2
2
2
2
2
2
2
2
2
2
2
2
2
2
2
2
2
2
2
2
2
2
2
2
2
2
2
2
2
2
2
1.66125
1.02529
0.955012
1.0326
1.14214
1.26634
1.40665
1.56367
1.73848
1.934
2
2
2
2
2
2
2
2
2
2
2
2
2
2
2
2
2
2
2
0.000850102
0.00194632
0.00680461
0.0165081
0.0318281
0.0533656
0.0812445
0.115077
0.154174
0.197901
0.24595
0.298433
0.355551
0.417546
0.485411
0.559144
0.639344
0.72641
0.821242
0.925695
1.03984
1.1653
1.30425
1.45581
1.62401
1.80894
2
2
2
2
2
2
2
2
2
2
2
2
2
2
2
2
2
2
2
2
2
2
2
2
2
2
2
2
2
2
2
2
2
2
1.80955
1.05983
0.951158
1.02069
1.12732
1.24836
1.38516
1.53748
1.70661
1.89702
2
2
2
2
2
2
2
2
2
2
2
2
2
2
2
2
2
2
2
2
0.000849074
0.00194348
0.00679373
0.0164813
0.0317763
0.0532834
0.0811396
0.114922
0.15396
0.197651
0.245673
0.29812
0.355283
0.417258
0.484889
0.558433
0.638858
0.726603
0.821244
0.925493
1.03963
1.1651
1.30367
1.4562
1.62387
1.80893
2
2
2
2
2
2
2
2
2
2
2
2
2
2
2
2
2
2
2
2
2
2
2
2
2
2
2
2
2
2
2
2
2
2
1.96979
1.1021
0.949551
1.01026
1.11394
1.23217
1.36583
1.51424
1.67941
1.85366
2
2
2
2
2
2
2
2
2
2
2
2
2
2
2
2
2
2
2
2
2
0.000848054
0.00193997
0.00678283
0.0164541
0.0317243
0.0531928
0.0810186
0.114771
0.153763
0.197398
0.245377
0.29778
0.354906
0.41708
0.484506
0.55786
0.638039
0.726023
0.821435
0.925258
1.03968
1.16488
1.30343
1.4559
1.62399
1.80908
2
2
2
2
2
2
2
2
2
2
2
2
2
2
2
2
2
2
2
2
2
2
2
2
2
2
2
2
2
2
2
2
2
2
2
1.15095
0.950626
1.00142
1.10206
1.21826
1.34899
1.49433
1.64095
1.81189
2
2
2
2
2
2
2
2
2
2
2
2
2
2
2
2
2
2
2
2
2
2
0.000847036
0.00193708
0.00676996
0.0164269
0.0316677
0.0531047
0.0808829
0.114607
0.153561
0.197151
0.245071
0.297447
0.354548
0.416684
0.484252
0.557589
0.637436
0.725188
0.82106
0.925158
1.03965
1.1649
1.30318
1.45565
1.62342
1.80922
2
2
2
2
2
2
2
2
2
2
2
2
2
2
2
2
2
2
2
2
2
2
2
2
2
2
2
2
2
2
2
2
2
2
2
1.20543
0.954062
0.993716
1.09173
1.20584
1.32625
1.45931
1.60931
1.77626
1.96696
2
2
2
2
2
2
2
2
2
2
2
2
2
2
2
2
2
2
2
2
2
2
0.000846017
0.0019345
0.00675875
0.016395
0.031614
0.0530116
0.0807476
0.114434
0.153352
0.196925
0.244795
0.297094
0.354157
0.416248
0.483787
0.557286
0.637146
0.724495
0.820129
0.924746
1.03929
1.16509
1.30292
1.45538
1.62344
1.80839
2
2
2
2
2
2
2
2
2
2
2
2
2
2
2
2
2
2
2
2
2
2
2
2
2
2
2
2
2
2
2
2
2
2
2
1.26408
0.959696
0.987097
1.08262
1.18598
1.30322
1.43345
1.58125
1.74319
1.93087
2
2
2
2
2
2
2
2
2
2
2
2
2
2
2
2
2
2
2
2
2
2
2
0.000845016
0.00193166
0.00674947
0.0163672
0.0315558
0.0529215
0.0806077
0.114248
0.153133
0.196653
0.244511
0.296749
0.353754
0.415815
0.483317
0.556774
0.636805
0.724052
0.819399
0.924001
1.03882
1.16495
1.30284
1.45507
1.62315
1.80841
2
2
2
2
2
2
2
2
2
2
2
2
2
2
2
2
2
2
2
2
2
2
2
2
2
2
2
2
2
2
2
2
2
2
2
1.32581
0.966866
0.981245
1.06605
1.16656
1.28232
1.40991
1.55476
1.71228
1.89544
2
2
2
2
2
2
2
2
2
2
2
2
2
2
2
2
2
2
2
2
2
2
2
2
0.000844042
0.00192858
0.00673861
0.0163431
0.0315009
0.0528248
0.0804745
0.114061
0.152909
0.196374
0.244207
0.296437
0.353351
0.415359
0.48282
0.556231
0.636226
0.723565
0.818899
0.923207
1.03802
1.16444
1.30292
1.45498
1.62281
1.80809
2
2
2
2
2
2
2
2
2
2
2
2
2
2
2
2
2
2
2
2
2
2
2
2
2
2
2
2
2
2
2
2
2
2
2
1.3896
0.975147
0.969089
1.05009
1.14902
1.26268
1.38887
1.52973
1.68469
1.86272
2
2
2
2
2
2
2
2
2
2
2
2
2
2
2
2
2
2
2
2
2
2
2
2
2
0.000843101
0.00192556
0.00672588
0.0163152
0.0314491
0.0527324
0.0803244
0.11387
0.152671
0.196104
0.243862
0.296089
0.352982
0.414894
0.482299
0.555686
0.635627
0.722914
0.8183
0.922539
1.03689
1.16332
1.30236
1.45503
1.62296
1.808
2
2
2
2
2
2
2
2
2
2
2
2
2
2
2
2
2
2
2
2
2
2
2
2
2
2
2
2
2
2
2
2
2
2
2
1.45574
0.97845
0.957096
1.03512
1.13307
1.24461
1.36919
1.50669
1.65906
1.83236
2
2
2
2
2
2
2
2
2
2
2
2
2
2
2
2
2
2
2
2
2
2
2
2
2
2
0.000842192
0.00192295
0.00671351
0.0162837
0.0313945
0.0526452
0.080187
0.113667
0.152418
0.195815
0.243527
0.295682
0.352566
0.414455
0.481776
0.555075
0.63501
0.722203
0.817603
0.922024
1.03626
1.1621
1.30114
1.45438
1.62268
1.80812
2
2
2
2
2
2
2
2
2
2
2
2
2
2
2
2
2
2
2
2
2
2
2
2
2
2
2
2
2
2
2
2
2
2
2
1.52455
0.980633
0.94599
1.02133
1.11818
1.22788
1.35056
1.4852
1.6348
1.80465
1.98748
2
2
2
2
2
2
2
2
2
2
2
2
2
2
2
2
2
2
2
2
2
2
2
2
2
2
0.000841301
0.00192044
0.00670328
0.016253
0.031333
0.0525485
0.0800639
0.113481
0.152161
0.195513
0.2432
0.295292
0.352151
0.413991
0.481283
0.5545
0.634356
0.721521
0.816852
0.921245
1.0358
1.16149
1.30012
1.4531
1.622
1.80751
2
2
2
2
2
2
2
2
2
2
2
2
2
2
2
2
2
2
2
2
2
2
2
2
2
2
2
2
2
2
2
2
2
2
2
1.57963
0.984712
0.935729
1.00855
1.10406
1.21221
1.33273
1.46567
1.61302
1.78112
1.96156
2
2
2
2
2
2
2
2
2
2
2
2
2
2
2
2
2
2
2
2
2
2
2
2
2
2
2
0.000840493
0.0019186
0.00669341
0.0162268
0.031273
0.0524459
0.0799117
0.113301
0.151922
0.195199
0.242837
0.294888
0.35167
0.413484
0.480756
0.553954
0.633708
0.720817
0.816056
0.920422
1.03493
1.16081
1.29932
1.45199
1.62061
1.80675
2
2
2
2
2
2
2
2
2
2
2
2
2
2
2
2
2
2
2
2
2
2
2
2
2
2
2
2
2
2
2
2
2
2
2
1.644
0.99098
0.926304
0.996664
1.09068
1.19796
1.31648
1.44866
1.59334
1.76065
1.93933
2
2
2
2
2
2
2
2
2
2
2
2
2
2
2
2