/*--------------------------------*- C++ -*----------------------------------*\
| =========                 |                                                 |
| \\      /  F ield         | OpenFOAM: The Open Source CFD Toolbox           |
|  \\    /   O peration     | Version:  v2012                                 |
|   \\  /    A nd           | Website:  www.openfoam.com                      |
|    \\/     M anipulation  |                                                 |
\*---------------------------------------------------------------------------*/
FoamFile
{
    version     2.0;
    format      ascii;
    class       volScalarField;
    location    "3900";
    object      Res;
}
// * * * * * * * * * * * * * * * * * * * * * * * * * * * * * * * * * * * * * //

dimensions      [0 0 0 0 0 0 0];


internalField   nonuniform List<scalar> 
29502
(
0.342462
0.171182
12.1032
0.169055
1.42567
19.7269
0.184122
1.69496
3.46398
25.6666
0.193869
2.79472
4.0274
5.79428
30.7317
0.199335
2.53071
6.0598
6.88388
8.40895
35.8276
0.202184
2.73543
5.69046
9.81999
10.1723
11.4704
41.149
0.203105
2.57852
6.23013
9.41072
13.6396
13.5695
15.0059
47.0575
0.203061
2.17411
5.92825
10.1515
13.2837
17.1603
16.6401
19.1076
53.8689
0.202222
2.12433
5.09805
9.7621
14.2026
16.8867
19.6406
19.0819
23.8737
61.6647
0.200888
1.76952
5.01308
8.71826
13.8355
17.8083
19.3632
20.9844
20.8875
29.3629
70.5721
0.199681
1.71825
4.37752
8.61837
12.7513
17.513
20.2464
20.5776
21.4046
22.3338
35.7384
80.4745
0.198809
1.68886
4.27011
7.75775
12.5999
16.4437
20.0269
21.318
20.7689
21.2574
23.905
43.2051
91.9116
0.197978
1.65819
4.18852
7.62526
11.5651
16.2935
19.0548
21.1228
21.3041
20.3808
21.1783
25.3751
52.0433
104.954
0.196435
1.62709
4.14206
7.48657
11.4229
15.2039
18.9718
20.3157
21.1691
20.6921
19.9846
21.0481
26.7749
62.5072
119.85
0.195173
1.60223
4.06637
7.43182
11.243
15.0567
17.9798
20.3024
20.5498
20.5799
20.0881
19.4805
20.8257
28.2023
74.9108
136.564
0.194
1.57264
4.0083
7.30823
11.1925
14.886
17.8474
19.4962
20.5647
20.1439
20.0008
19.3844
18.8236
20.5904
29.6697
89.544
155.684
0.193262
1.56426
3.94752
7.21392
11.0528
14.8549
17.7173
19.43
19.9101
20.2015
19.6662
19.2551
18.5267
18.1429
20.3715
31.1574
116.069
177.467
0.192354
1.55991
3.9353
7.13534
10.9268
14.6945
17.6902
19.3271
19.899
19.6766
19.7383
19.0001
18.3728
17.6131
17.4949
20.2211
33.1879
138.059
202.012
0.19116
1.54772
3.93242
7.10552
10.8414
14.5551
17.5649
19.3419
19.8499
19.6999
19.3481
19.083
18.1422
17.4137
16.7516
16.9369
20.223
35.8954
164.028
229.97
0.190255
1.535
3.90147
7.09093
10.7949
14.483
17.4629
19.2597
19.8984
19.6833
19.3829
18.776
18.227
17.2128
16.4839
15.9535
16.5108
20.4696
39.2594
194.926
261.633
0.189539
1.52478
3.87133
7.04158
10.769
14.4546
17.3931
19.1836
19.8362
19.7369
19.3827
18.838
18.0157
17.2741
16.2824
15.6239
15.2664
16.2229
21.0312
43.2472
231.527
297.159
0.188774
1.52914
3.8461
6.98883
10.7219
14.423
17.3736
19.1359
19.7941
19.7099
19.4324
18.8456
18.0734
17.1269
16.3368
15.3943
14.8483
14.7094
16.0844
21.958
47.6633
274.521
337.184
0.18814
1.51386
3.84116
6.94799
10.6503
14.3675
17.3396
19.1236
19.7598
19.7125
19.4368
18.908
18.0987
17.1967
16.2149
15.4146
14.5705
14.1645
14.2946
16.1293
23.3109
51.963
324.58
381.557
0.187553
1.50157
3.80891
6.95617
10.5931
14.2851
17.2902
19.1281
19.7882
19.6884
19.4277
18.9102
18.156
17.2179
16.2763
15.3217
14.5582
13.8459
13.6035
14.0228
16.4064
25.1837
55.6794
381.815
430.739
0.186851
1.50124
3.7944
6.92092
10.6248
14.2431
17.2139
19.1142
19.8189
19.719
19.4279
18.9323
18.1746
17.2774
16.2979
15.3655
14.4716
13.7855
13.218
13.1525
13.9077
16.964
27.7473
60.5815
446.14
484.384
0.186073
1.49652
3.78998
6.89417
10.5753
14.2825
17.2
19.0772
19.8159
19.7503
19.4715
18.9546
18.2185
17.304
16.3654
15.3987
14.5163
13.6901
13.1094
12.6971
12.8326
13.9651
17.8507
31.2115
72.2117
516.878
542.424
0.185352
1.48947
3.77931
6.86964
10.5172
14.2257
17.2713
19.0705
19.8181
19.7746
19.4955
18.9864
18.2316
17.3512
16.3889
15.4603
14.5393
13.7221
12.9962
12.5269
12.2878
12.6503
14.2155
19.1425
35.8541
90.1216
593.35
604.573
0.184836
1.48358
3.76258
6.85115
10.4805
14.1557
17.214
19.1484
19.8451
19.79
19.5098
19.0237
18.2744
17.381
16.4329
15.4815
14.582
13.7416
13.0115
12.3934
12.0501
11.9841
12.6103
14.6878
20.932
41.9238
117.054
675.171
670.445
0.184503
1.47904
3.74916
6.83949
10.4573
14.1157
17.1728
19.0985
19.8936
19.8042
19.5152
19.036
18.3136
17.4375
16.4662
15.5278
14.6088
13.7735
13.017
12.3836
11.8846
11.6827
11.8015
12.7302
15.4306
23.3502
49.355
159.241
762.269
740.43
0.18416
1.4792
3.73834
6.81601
10.4612
14.113
17.1585
19.0598
19.8558
19.8811
19.5423
19.0487
18.3602
17.4709
16.5248
15.5596
14.6563
13.7871
13.0353
12.3709
11.8446
11.4838
11.4385
11.7449
13.0261
16.5016
26.549
57.3225
227.893
855.626
816.356
0.183776
1.47625
3.74076
6.79899
10.4511
14.1214
17.1616
19.0779
19.8475
19.8708
19.6095
19.0808
18.3813
17.5112
16.565
15.6107
14.6874
13.8319
13.0456
12.3775
11.8148
11.413
11.2076
11.3081
11.82
13.5268
17.9903
30.7089
63.8942
341.43
957.094
885.233
0.183321
1.47325
3.73334
6.80377
10.4276
14.1088
17.1739
19.0601
19.8677
19.8921
19.6185
19.1427
18.4108
17.55
16.5984
15.6486
14.7292
13.868
13.0832
12.3866
11.8108
11.3647
11.1055
11.0255
11.2731
12.0334
14.2761
20.0178
36.0315
69.5375
519.838
1056.44
921.517
0.182816
1.46969
3.72712
6.79241
10.4354
14.0797
17.1377
19.0794
19.8546
19.8998
19.6326
19.1524
18.4718
17.5884
16.6306
15.6814
14.7588
13.9049
13.1153
12.4108
11.8072
11.3411
11.0342
10.8885
10.9256
11.3332
12.4187
15.3354
22.7581
42.8086
86.2674
759.201
1138.16
917.743
0.182256
1.46211
3.71884
6.78178
10.4205
14.0923
17.1095
19.078
19.8817
19.8991
19.6464
19.1639
18.477
17.6456
16.6758
15.7197
14.7956
13.9251
13.1512
12.4366
11.8215
11.3249
10.9945
10.7885
10.7413
10.9053
11.4979
13.011
16.7893
26.4059
51.2061
114.523
1010.14
1216.22
872.05
0.181703
1.45784
3.70397
6.76904
10.4053
14.0729
17.1506
19.078
19.9093
19.9242
19.6547
19.1871
18.4779
17.6534
16.7349
15.7564
14.8366
13.9554
13.1649
12.4622
11.836
11.332
10.9621
10.7275
10.6086
10.6663
10.9714
11.7892
13.8564
18.7533
31.1622
60.3799
159.674
1229.58
1283.81
777.174
0.181159
1.45896
3.69436
6.76205
10.388
14.0831
17.1302
19.1485
19.938
19.9545
19.6924
19.2135
18.5231
17.6586
16.7395
15.8078
14.8699
14.0031
13.1913
12.4795
11.8572
11.3417
10.9681
10.6847
10.5264
10.497
10.6637
11.1376
12.2635
15.0184
21.3965
37.2218
68.0296
235.131
1438.44
1319.04
644.585
0.180608
1.4459
3.69544
6.7455
10.3792
14.0631
17.1414
19.0984
20.0014
19.9758
19.7174
19.2604
18.5479
17.6878
16.7476
15.8167
14.9079
14.0304
13.2285
12.5001
11.8685
11.3534
10.9657
10.6764
10.4658
10.3856
10.4491
10.7459
11.4135
12.9843
16.5932
24.9464
44.6541
75.3888
364.252
1605.8
1303.79
495.034
0.180156
1.44369
3.67623
6.73158
10.358
14.0285
17.1222
19.0823
19.9268
20.0331
19.7178
19.2759
18.565
17.7096
16.779
15.8368
14.9223
14.0685
13.2582
12.5282
11.8854
11.3552
10.9718
10.6633
10.4394
10.3012
10.3045
10.4732
10.9211
11.8312
13.999
18.7187
29.6609
53.3583
96.7261
571.328
1702.51
1216.94
403.694
0.179849
1.44469
3.67385
6.70057
10.338
14.0035
17.0871
19.0928
19.9098
19.9844
19.7549
19.2668
18.5981
17.7423
16.7937
15.8545
14.9366
14.0778
13.2938
12.5487
11.9046
11.367
10.9668
10.6618
10.4125
10.2577
10.1941
10.2866
10.5795
11.2033
12.4769
15.3745
21.5889
35.7776
62.4226
132.655
864.554
1671.92
1046.31
451.627
0.179665
1.43459
3.66619
6.69839
10.2977
13.9838
17.0656
19.092
19.9502
19.9897
19.7275
19.3123
18.6001
17.78
16.8416
15.866
14.9564
14.0842
13.3012
12.5798
11.9244
11.3881
10.9751
10.6524
10.402
10.2185
10.1311
10.1468
10.3411
10.7752
11.6164
13.4102
17.2294
25.4532
43.3926
70.3326
191.986
1220.86
1521.62
828.862
607.461
0.179618
1.43353
3.64287
6.70188
10.2971
13.9617
17.0462
19.0744
19.952
20.0327
19.7389
19.2935
18.6487
17.7862
16.8797
15.9222
14.9761
14.1079
13.3083
12.5882
11.9505
11.4023
10.9923
10.654
10.3869
10.1956
10.0762
10.0591
10.1644
10.4767
11.0766
12.2163
14.6925
19.7333
30.6045
52.2194
81.8747
293.136
1565.55
1311.11
546.138
827.105
0.179636
1.44205
3.64089
6.66305
10.3012
13.9906
17.0262
19.0592
19.9385
20.0043
19.7718
19.2715
18.6335
17.7986
16.8819
15.9519
15.0197
14.1271
13.3256
12.5985
11.9546
11.4214
11
10.6624
10.3831
10.1685
10.0395
9.98504
10.0492
10.2547
10.7027
11.5056
13.1122
16.4208
23.123
37.2926
61.1893
108.055
459.518
1758.95
1064.86
316.308
1152.06
0.179652
1.44771
3.66182
6.64555
10.2481
13.97
17.0615
19.0431
19.9277
20.0021
19.7494
19.2952
18.6337
17.8068
16.8971
15.9565
15.0462
14.1683
13.341
12.612
11.9563
11.4234
11.0163
10.6695
10.3852
10.156
10.0029
9.93466
9.95189
10.1032
10.4244
11.034
12.12
14.3616
18.7511
27.7013
45.4936
69.043
151.766
703.263
1677.18
874.052
230.78
1568.43
0.179615
1.44811
3.67335
6.68019
10.2233
13.9059
17.0415
19.0529
19.9145
20.0108
19.7496
19.2988
18.6535
17.8148
16.8988
15.9835
15.0571
14.191
13.3704
12.6267
11.9725
11.4256
11.0228
10.6836
10.3855
10.1528
9.97934
9.88569
9.88231
9.97765
10.2298
10.685
11.4964
13.0318
16.0471
21.9005
33.7591
54.5883
80.4884
223.626
1004.57
1278.51
850.411
183.614
1853.5
0.179507
1.44271
3.67516
6.69957
10.2741
13.9024
17.0002
19.0337
19.9555
20.0012
19.7904
19.3276
18.6526
17.8337
16.9087
15.9673
15.0764
14.2013
13.3987
12.6554
11.9912
11.4402
11.0253
10.6877
10.3969
10.1463
9.96907
9.85218
9.81779
9.8845
10.0707
10.4366
11.0549
12.1534
14.2979
18.3142
26.1665
41.4036
62.88
106.478
337.383
1259.19
787.529
847.989
218.972
2137.76
0.179303
1.43489
3.66532
6.70306
10.3001
13.9636
16.9937
19.0228
19.9676
20.0443
19.783
19.3612
18.6802
17.8472
16.9197
15.9697
15.0569
14.2139
13.4024
12.6779
12.0193
11.4623
11.0353
10.6878
10.3974
10.1512
9.95782
9.83355
9.77206
9.80197
9.94805
10.236
10.7384
11.5638
13.1161
16.0062
21.3795
31.8519
50.1712
70.2779
149.087
502.521
1241.13
457.261
861.291
320.387
2382.64
0.178997
1.4304
3.64868
6.70475
10.305
13.9681
17.0605
19.0131
19.9257
20.0477
19.7851
19.346
18.7063
17.8715
16.9315
15.9923
15.0638
14.1997
13.4087
12.6766
12.0352
11.4838
11.0508
10.6916
10.3948
10.1491
9.95185
9.81466
9.74045
9.74038
9.84236
10.0799
10.4856
11.1563
12.2945
14.4462
18.299
25.5259
39.1533
58.8366
87.8566
216.801
695.018
885.14
397.019
923.51
479.903
2585.09
0.178608
1.43164
3.63786
6.67952
10.3082
13.9729
17.0607
19.0758
19.914
20.0135
19.7751
19.376
18.7024
17.8964
16.9545
16.0001
15.081
14.2128
13.4004
12.6789
12.037
11.4942
11.07
10.701
10.3949
10.1424
9.94479
9.801
9.71317
9.69598
9.76379
9.94836
10.2897
10.8384
11.7247
13.3456
16.2325
21.4025
31.1049
47.8434
66.7604
119.41
315.585
793.361
535.023
458.533
916.037
708.894
2655.52
0.178123
1.42866
3.63311
6.64532
10.2748
13.9772
17.0357
19.0723
19.9679
19.9992
19.7498
19.373
18.7189
17.8849
16.9732
16.0155
15.0959
14.2201
13.406
12.6733
12.0384
11.4966
11.08
10.7184
10.4018
10.1394
9.93539
9.78403
9.69361
9.65744
9.70507
9.84818
10.1251
10.5905
11.3146
12.5372
14.7795
18.6375
25.6287
38.3927
56.774
79.4258
168.483
423.371
725.116
328.275
678.789
787.966
1020.3
2570.52
0.177578
1.42256
3.62707
6.63862
10.2285
13.9375
17.0368
19.0409
19.9581
20.0355
19.733
19.3421
18.725
17.9068
16.9661
16.0325
15.1086
14.2358
13.4214
12.6761
12.0328
11.5089
11.0831
10.7308
10.4168
10.1459
9.93044
9.77139
9.66875
9.62854
9.65327
9.77145
9.99811
10.3852
11
11.9578
13.6917
16.7076
21.9083
31.3654
47.1665
64.7735
106.158
239.409
495.975
542.958
174.461
966.289
556.054
1534.03
2233.1
0.177058
1.42185
3.62042
6.62833
10.2194
13.9068
17.0237
19.0409
19.9527
20.0541
19.7708
19.3097
18.6801
17.9017
16.9906
16.0226
15.122
14.2532
13.4286
12.6855
12.0337
11.5078
11.095
10.7334
10.427
10.1573
9.93354
9.76402
9.64915
9.59638
9.61109
9.70337
9.89764
10.2245
10.7434
11.551
12.9077
15.2716
19.3166
26.3951
38.8689
56.1041
75.8565
147.329
316.326
486.289
337.072
69.2856
1314.66
212.659
2422.08
1589.56
0.176567
1.4221
3.62022
6.61803
10.2055
13.8976
17.0187
19.0256
19.9477
20.0379
19.794
19.3417
18.6792
17.8816
17.004
16.0498
15.1221
14.2624
13.4452
12.6971
12.0389
11.5068
11.0913
10.7401
10.4246
10.1618
9.93794
9.75906
9.63514
9.56837
9.56947
9.64697
9.80935
10.0943
10.5399
11.2235
12.3284
14.2249
17.4005
22.8819
32.482
47.7514
64.1033
100.986
204.061
356.705
411.222
215.245
120.877
1676.81
43.0205
4044.36
1102.9
0.176079
1.41452
3.62086
6.63291
10.1922
13.8832
17.0109
19.0204
19.932
20.0339
19.7828
19.3378
18.69
17.8683
16.9809
16.0539
15.142
14.2633
13.4583
12.7078
12.0531
11.5113
11.0926
10.7329
10.4266
10.158
9.9394
9.75937
9.62489
9.54872
9.5334
9.59397
9.7373
9.98261
10.3761
10.965
11.8796
13.4349
16.004
20.2882
27.7768
40.3234
56.5347
75.5148
139.002
264.337
344.103
305.049
113.68
233.993
1818.71
150.737
5193.72
820.864
0.175671
1.41199
3.60339
6.63453
10.2144
13.8697
16.9988
19.0148
19.9272
20.0173
19.7742
19.344
18.6689
17.8785
16.9692
16.0339
15.1477
14.2785
13.4549
12.7259
12.0655
11.5216
11.0971
10.7344
10.4233
10.1581
9.93635
9.75987
9.6219
9.53567
9.50667
9.54766
9.67105
9.89044
10.2342
10.7556
11.5334
12.8296
14.9467
18.4045
24.2547
34.357
49.3438
64.5439
100.932
188.512
289.07
290.935
191.818
76.807
413.734
1809.97
462.55
6152.16
672.666
0.175311
1.413
3.58904
6.58956
10.2159
13.8724
16.9884
19.0074
19.9251
19.9855
19.751
19.3296
18.6689
17.8672
16.9676
16.0287
15.1221
14.2878
13.4679
12.7277
12.0805
11.5364
11.1047
10.7397
10.4242
10.154
9.93406
9.75334
9.6181
9.52679
9.48764
9.51049
9.61239
9.80739
10.1181
10.5775
11.2605
12.3429
14.1368
16.9794
21.6796
29.6816
42.6614
57.8627
77.9931
138.369
238.553
261.572
183.311
234.968
7.33014
861.404
1640.83
1036.51
6494.98
557.476
0.175009
1.41038
3.59077
6.56695
10.1555
13.8778
16.9697
19.0042
19.8945
19.9861
19.7282
19.3153
18.6523
17.8455
16.9537
16.0357
15.1169
14.272
13.483
12.7356
12.0867
11.5456
11.1196
10.7442
10.4261
10.1547
9.92602
9.74868
9.60796
9.5174
9.47337
9.4818
9.56423
9.73266
10.0116
10.4298
11.0326
11.9432
13.4797
15.8919
19.7358
26.1821
36.8681
51.7442
65.9671
105.448
183.84
250.816
199.368
110.349
219.678
26.8876
1474.18
1287.95
1912.64
6430.37
460.637
0.174779
1.40824
3.58493
6.56939
10.1241
13.8316
16.95
18.9919
19.8683
19.9564
19.7204
19.3054
18.6348
17.8256
16.9406
16.0163
15.132
14.2551
13.4773
12.7499
12.098
11.5508
11.1311
10.755
10.4301
10.1553
9.92492
9.73843
9.60198
9.50293
9.45794
9.46079
9.52599
9.67223
9.91843
10.2981
10.8451
11.6376
12.9334
15.0165
18.2558
23.52
32.288
45.5404
59.8191
83.2063
144.319
224.823
207.645
96.7877
142.692
259.384
80.9204
2075.17
730.43
3572.07
5829.82
374.778
0.174615
1.41179
3.57104
6.559
10.1284
13.7959
16.9331
18.9795
19.8907
19.9398
19.7054
19.307
18.6286
17.8132
16.9393
16.0067
15.1207
14.255
13.4553
12.742
12.1019
11.5646
11.133
10.7679
10.4381
10.1597
9.92738
9.73553
9.58936
9.49296
9.43812
9.43798
9.49482
9.6234
9.84265
10.1816
10.6808
11.396
12.5079
14.2914
17.0785
21.4877
28.7117
40.1546
54.232
68.4206
114.144
186.904
223.988
124.664
45.8277
219.005
185.899
237.098
2590.41
13.5194
6204.77
4927.03
297.016
0.174524
1.41062
3.5862
6.5365
10.1139
13.8021
16.9268
18.9669
19.9117
19.9924
19.709
19.2858
18.6265
17.8047
16.9056
15.9991
15.0949
14.2429
13.4487
12.728
12.094
11.5644
11.1439
10.7711
10.4465
10.1634
9.92754
9.73606
9.58164
9.47717
9.42287
9.41356
9.46614
9.58211
9.77899
10.0849
10.5361
11.1833
12.1621
13.7172
16.1129
19.876
25.9337
35.6408
49.1275
62.2301
91.3083
155.022
216.994
158.801
38.4645
89.2683
256.999
130.338
525.446
2743.56
335.993
8567.3
3850.63
226.641
0.174491
1.40517
3.59375
6.56079
10.0816
13.7864
16.9088
18.9654
19.8779
20.0392
19.7505
19.2921
18.6334
17.8189
16.8982
15.9802
15.0754
14.2238
13.4342
12.7254
12.0795
11.5557
11.1464
10.7828
10.451
10.1717
9.92836
9.73486
9.57939
9.46609
9.40325
9.39421
9.4359
9.54416
9.72436
10.0029
10.4148
11.0014
11.8634
13.2464
15.3453
18.5682
23.718
31.9801
44.1366
57.4528
75.6396
126.856
193.82
198.326
57.21
43.0865
146.351
355.704
34.1043
1272.48
2357.87
1119.43
10267.9
2802.87
162.645
0.174498
1.405
3.58228
6.57297
10.1165
13.7473
16.8933
18.9518
19.8823
19.9861
19.7802
19.3427
18.641
17.8073
16.927
15.9724
15.0678
14.2121
13.4158
12.7073
12.0761
11.5418
11.1355
10.7832
10.4602
10.177
9.93584
9.73447
9.57879
9.46072
9.39035
9.36961
9.4095
9.50598
9.6743
9.9334
10.3109
10.8473
11.6135
12.8382
14.7142
17.5305
21.9267
28.9972
39.7975
52.8928
65.7637
103.542
168.681
208.589
111.288
12.4934
74.59
223.489
349.395
60.5095
2223.13
1563.82
2942.32
10626.8
1855.55
108.592
0.174543
1.40548
3.57264
6.55479
10.1324
13.7643
16.8817
18.94
19.9007
19.9667
19.7317
19.3611
18.6846
17.8216
16.904
15.9849
15.0582
14.2027
13.4013
12.6805
12.0639
11.5401
11.1217
10.7712
10.4578
10.1824
9.93763
9.73821
9.57662
9.45753
9.38107
9.35192
9.38055
9.47164
9.62785
9.87117
10.2229
10.7159
11.4153
12.496
14.1713
16.6805
20.5012
26.5505
36.0322
48.7495
61.0399
86.3338
142.818
199.906
164.964
38.9528
14.9906
116.322
317.126
314.99
151.565
3316.7
464.959
6053.51
9651.18
1157.24
69.2122
0.174563
1.40153
3.56553
6.53941
10.1076
13.7829
16.8729
18.9291
19.8914
20.0155
19.7153
19.3191
18.727
17.86
16.9152
15.9775
15.0596
14.1925
13.3906
12.6658
12.0379
11.5344
11.1171
10.7595
10.4481
10.1812
9.94325
9.73686
9.57655
9.45312
9.37249
9.33998
9.35727
9.43497
9.58407
9.81174
10.1408
10.6019
11.2441
12.212
13.7155
15.9553
19.3384
24.591
32.8147
44.5856
57.0778
74.0138
121.003
180.969
190.078
72.0246
40.2324
31.5838
161.025
419.768
192.626
639.434
3605.32
470.707
11074.8
7679.32
736.026
42.0117
0.174626
1.40628
3.56618
6.52751
10.0864
13.7795
16.8645
18.9525
19.8842
20.0329
19.7496
19.3065
18.6903
17.8841
16.9502
15.9851
15.0604
14.1879
13.3879
12.658
12.0273
11.5168
11.1098
10.7529
10.4389
10.1736
9.94276
9.73901
9.57385
9.45091
9.36739
9.32739
9.33972
9.40652
9.53981
9.75632
10.0672
10.4989
11.0954
11.9636
13.3301
15.3502
18.3569
22.9862
30.1916
40.7937
53.2149
65.5545
102.037
163.251
196.996
107.08
34.8154
61.128
50.6518
262.597
513.191
130.454
1989.68
3216.56
1503.43
14322.1
5387.23
454.845
24.2023
0.174684
1.41759
3.5857
6.52907
10.07
13.7532
16.8601
18.9445
19.9066
19.999
19.768
19.3423
18.6566
17.8705
16.9597
16.0222
15.0717
14.1927
13.3911
12.656
12.027
11.5094
11.1022
10.744
10.4336
10.1621
9.93287
9.73824
9.57522
9.44889
9.36431
9.31843
9.32389
9.38216
9.50404
9.70325
9.99825
10.4057
10.9654
11.748
12.9896
14.8376
17.5417
21.6382
28.0114
37.5686
49.6681
61.4052
87.4011
142.761
191.276
160.706
19.1833
28.4748
78.9411
82.3424
438.204
634.145
284.765
3314.84
2286.77
3280.21
15406.3
3406.91
265.717
13.047
0.174686
1.40716
3.60828
6.5611
10.072
13.7322
16.8577
18.9084
19.8992
19.9946
19.7388
19.3549
18.6947
17.8578
16.9622
16.0365
15.1017
14.2016
13.3933
12.6594
12.018
11.5103
11.0931
10.7379
10.4222
10.1548
9.9226
9.72926
9.57391
9.44876
9.3583
9.31402
9.30912
9.36215
9.47284
9.65905
9.93201
10.32
10.8472
11.5767
12.6925
14.3853
16.8531
20.5197
26.1606
34.7582
46.3134
57.9787
76.416
124.164
180.744
181.652
76.4323
18.2113
49.5658
78.966
115.14
694.54
675.218
392.063
4479.93
289.87
10217.3
13404.5
1967.28
142.568
6.56241
0.174772
1.40316
3.58818
6.59624
10.1161
13.7331
16.8621
18.9045
19.8622
20.0098
19.7312
19.3257
18.7255
17.8744
16.9698
16.031
15.1291
14.2292
13.4023
12.6608
12.0145
11.5009
11.088
10.7281
10.4115
10.1419
9.91303
9.71702
9.56492
9.44426
9.35601
9.30323
9.30043
9.34341
9.44559
9.61853
9.87602
10.2401
10.7415
11.4246
12.4405
13.9906
16.2483
19.5766
24.6175
32.3009
43.0901
54.8034
68.0515
107.147
168.093
191.585
117.944
3.25028
46.888
62.7584
75.5122
208.871
791.526
608.729
1320.7
4056.93
1293.5
16766.3
9845.63
1031.36
71.1083
3.06103
0.174766
1.40356
3.57923
6.56529
10.163
13.7611
16.8333
18.9061
19.8556
20.0037
19.744
19.3176
18.698
17.8879
16.9654
16.0392
15.1234
14.2565
13.4268
12.6677
12.014
11.5014
11.083
10.7168
10.4027
10.1288
9.89799
9.70746
9.55042
9.43267
9.3499
9.29844
9.28763
9.32834
9.42281
9.58307
9.82685
10.1704
10.6425
11.2891
12.2259
13.6467
15.7255
18.7589
23.3188
30.2317
40.1501
51.76
63.2589
93.3286
150.628
191.893
163.108
43.3806
22.7969
75.7369
55.857
92.3749
262.995
621.476
45.4958
3345.84
2397.43
4701.38
20242.5
6138.71
514.356
32.8985
1.2988
0.174755
1.40021
3.58047
6.55104
10.1218
13.7885
16.8323
18.8737
19.8275
19.9926
19.7296
19.3292
18.6878
17.8792
16.9649
16.0491
15.1302
14.2614
13.4513
12.6886
12.025
11.5066
11.0871
10.7153
10.3949
10.1221
9.88625
9.69345
9.54098
9.41809
9.33552
9.2903
9.27834
9.3114
9.40318
9.55279
9.78119
10.1078
10.5553
11.1649
12.0425
13.3523
15.2694
18.0534
22.1951
28.4709
37.617
48.9648
60.1087
82.7333
134.114
185.419
174.488
95.8476
22.3774
58.6503
57.9511
23.3678
101.449
368.403
223.045
1107.73
4967.96
463.581
12001.9
18387.2
3303.18
240.46
13.9009
0.495349
0.174741
1.40033
3.57183
6.5532
10.0813
13.7665
16.8629
18.8719
19.7944
19.9385
19.7201
19.3154
18.6958
17.8854
16.9578
16.0439
15.1416
14.2677
13.4498
12.7103
12.0481
11.5154
11.0911
10.7181
10.3914
10.1159
9.87771
9.68006
9.52718
9.40803
9.31845
9.27451
9.26724
9.29924
9.37968
9.527
9.74191
10.0513
10.4774
11.0536
11.871
13.1028
14.875
17.4415
21.2264
26.9343
35.3686
46.3596
57.383
74.4452
118.746
177.037
187.315
127.307
56.8518
56.6261
52.3107
22.4889
86.4193
192.929
648.924
315.667
2857.59
5530.88
703.374
21766
13306.9
1555.59
102.033
5.26475
0.168441
0.174724
1.4002
3.57236
6.53883
10.0835
13.7424
16.8643
18.8994
19.8168
19.8786
19.6881
19.3016
18.6843
17.8731
16.9767
16.037
15.137
14.2682
13.4568
12.7088
12.0666
11.5347
11.0987
10.7205
10.393
10.1112
9.87277
9.6691
9.51163
9.39209
9.30722
9.25626
9.25108
9.28502
9.36589
9.49838
9.70728
10.0004
10.4074
10.9542
11.7155
12.8728
14.538
16.911
20.3883
25.5968
33.3386
43.8053
54.8393
67.8506
105.243
165.53
189.99
156.356
57.2689
55.8641
62.7007
17.2844
72.489
288.342
856.992
1093.38
274.07
4993.89
3453
7885.47
25477.2
7750.51
647.285
38.695
1.75512
0.0499002
0.174677
1.40008
3.57199
6.54005
10.0848
13.7187
16.8656
18.8996
19.8397
19.9229
19.6311
19.2706
18.669
17.8435
16.9781
16.0434
15.1309
14.2644
13.4629
12.7154
12.0644
11.5483
11.1107
10.7308
10.3942
10.111
9.86643
9.66502
9.49894
9.37661
9.29071
9.24362
9.23119
9.26614
9.34656
9.47877
9.67229
9.95671
10.3435
10.8661
11.579
12.6638
14.2316
16.4531
19.6634
24.4383
31.5423
41.3859
52.3841
63.5524
94.0356
151.316
191.52
162.866
75.5879
36.0907
66.2087
29.9492
44.8278
79.2067
446.25
1419.82
1611.46
661.773
5737.85
168.979
18500.8
21579.6
3707.52
241.374
13.0416
0.501073
0.0123881
0.174649
1.40346
3.57163
6.53939
10.086
13.6943
16.8082
18.8975
19.8099
19.965
19.6457
19.2166
18.6376
17.8298
16.9458
16.0419
15.1316
14.2575
13.4583
12.7278
12.0698
11.5441
11.1221
10.7411
10.4028
10.1109
9.86468
9.65966
9.49248
9.36358
9.27485
9.22607
9.2149
9.24342
9.3222
9.45318
9.64507
9.91295
10.2875
10.7867
11.4634
12.4736
13.9553
16.0422
19.0367
23.4429
29.9843
39.2042
50.0634
60.8649
85.0738
137.447
188.677
169.346
96.191
29.5245
62.7095
26.1351
52.9134
106.519
72.2674
454.918
1661.94
1262.51
2845.9
4463.63
2613.9
27507.5
13760.5
1482.38
80.9214
3.79881
0.11756
0.00247448
0.17458
1.4126
3.57999
6.53842
10.0852
13.7211
16.7544
18.8366
19.8068
19.9114
19.6875
19.2271
18.5864
17.8148
16.9172
16.0262
15.1288
14.2661
13.4513
12.7305
12.0812
11.5465
11.1221
10.7509
10.4153
10.1179
9.86609
9.65628
9.48769
9.35481
9.26153
9.20762
9.19585
9.22373
9.29706
9.42472
9.6137
9.87553
10.2329
10.7151
11.3598
12.3005
13.7034
15.6738
18.478
22.5807
28.6443
37.2913
47.9446
58.5448
77.8111
124.444
183.132
186.15
127.232
14.851
65.2117
45.9804
23.0321
96.4281
222.703
261.831
474.013
939.644
710.084
6409.4
1476.47
14685.6
30117.6
6704.26
499.61
23.4403
0.940441
0.0211438
0.000385119
0.174511
1.41218
3.59956
6.5522
10.0832
13.719
16.7833
18.7835
19.7706
19.9059
19.6525
19.2562
18.5896
17.7833
16.891
15.9943
15.1134
14.2708
13.46
12.7241
12.0833
11.5546
11.1239
10.7509
10.4232
10.1282
9.87139
9.65609
9.48477
9.34813
9.25042
9.19154
9.17593
9.20189
9.27329
9.39509
9.57985
9.83698
10.1838
10.6468
11.2665
12.1454
13.4685
15.3419
17.9808
21.8119
27.469
35.5912
45.9661
56.4482
71.8557
112.551
174.834
195.484
169.511
41.1447
54.7401
68.6147
4.83312
72.2691
133.587
343.062
373.793
472.926
392.794
4299.88
6933.98
3622.69
32777.8
20191.4
2558.06
143.248
5.74816
0.193087
0.00312687
4.32822e-05
0.174381
1.40185
3.59793
6.58227
10.1025
13.7174
16.7808
18.8122
19.722
19.8951
19.6447
19.2301
18.6152
17.7812
16.8727
15.9675
15.0939
14.2581
13.4647
12.7233
12.0765
11.5552
11.13
10.7558
10.4228
10.1384
9.87992
9.6622
9.48299
9.34537
9.24121
9.1778
9.15701
9.18079
9.24975
9.36902
9.54675
9.79768
10.135
10.5843
11.1777
12.0069
13.2554
15.0354
17.5338
21.1282
26.4119
34.0534
44.0411
54.4471
66.9245
102.237
163.25
199.099
180.916
101.82
36.0451
129.656
88.1425
81.1214
67.767
168.639
110.205
154.219
1024.19
1426.42
7432.37
3717.31
13760.1
34377.3
10236.7
775.812
34.5925
1.12004
0.0330106
0.000406944
3.40873e-06
0.174235
1.39743
3.57602
6.57998
10.1434
13.7668
16.8067
18.8379
19.7495
19.8513
19.6092
19.2193
18.5692
17.8011
16.886
15.9534
15.0701
14.2408
13.4434
12.7201
12.0749
11.5483
11.1301
10.7608
10.4306
10.1403
9.89129
9.67152
9.48714
9.34361
9.23625
9.16794
9.14192
9.15951
9.22503
9.3413
9.51572
9.75843
10.0865
10.5233
11.0971
11.8773
13.0629
14.7525
17.1243
20.5119
25.464
32.6422
42.2175
52.5474
63.3893
93.5401
151.263
198.33
179.226
140.828
89.7582
176.298
207.676
153.559
71.7698
4.33201
45.413
190.615
1544.76
1626.26
2165.53
6832.42
549.478
30710.1
27748.5
3603.49
188.811
6.65237
0.182921
0.00501434
3.46653e-05
4.25711e-07
0.174096
1.39931
3.56487
6.54458
10.1393
13.7895
16.861
18.8645
19.7747
19.8517
19.5725
19.1845
18.5632
17.7584
16.8976
15.9603
15.044
14.2061
13.4191
12.6989
12.0695
11.5455
11.1231
10.756
10.4346
10.144
9.89534
9.67846
9.49451
9.34582
9.23424
9.16217
9.1309
9.14446
9.20232
9.31389
9.48349
9.72155
10.0401
10.4637
11.0217
11.7676
12.8849
14.4963
16.749
19.9516
24.6089
31.3629
40.5096
50.7806
61.2051
86.2992
139.574
195.475
184.731
159.687
117.207
171.845
238.335
274.333
153.722
39.556
215.17
549.06
1494.95
2866.5
1781.09
4174.51
2746.89
13722.7
42559.7
12908.3
958.673
35.3122
1.08805
0.0271143
0.000675085
1.92826e-06
6.41536e-08
0.173944
1.40193
3.56779
6.52573
10.0912
13.7845
16.8574
18.8912
19.7718
19.8466
19.5725
19.1485
18.5409
17.7344
16.8579
15.9711
15.0493
14.1708
13.3931
12.6739
12.0553
11.5394
11.1191
10.7488
10.4291
10.1465
9.89476
9.67873
9.49943
9.35087
9.23633
9.15757
9.12407
9.1303
9.18422
9.2875
9.4518
9.68351
9.99614
10.4071
10.9493
11.6692
12.7249
14.2612
16.409
19.4432
23.8343
30.2102
38.9524
49.1315
59.3762
80.3736
128.732
190.409
193.059
171.444
95.5305
152.573
169.237
245.448
234.414
83.7346
142.205
367.495
954.347
2096.5
2289.71
752.472
7620.27
3584.33
39649.3
31199.4
4275.18
178.971
5.68062
0.161805
0.00369488
8.26356e-05
8.65968e-07
1.95665e-08
0.173779
1.40071
3.57038
6.52895
10.0644
13.7266
16.8532
18.8884
19.7969
19.8464
19.5676
19.1467
18.5118
17.716
16.8211
15.9342
15.0543
14.1721
13.3654
12.656
12.0378
11.5268
11.1126
10.7484
10.4253
10.1443
9.89648
9.68001
9.49856
9.35633
9.24122
9.15747
9.11803
9.12002
9.16802
9.26584
9.42182
9.647
9.95127
10.3534
10.8787
11.5765
12.5815
14.0449
16.0973
18.9841
23.1355
29.1665
37.5486
47.6127
57.7261
75.3984
118.974
183.667
203.548
179.104
77.5485
85.8582
84.0897
108.887
197.612
123.461
12.0825
52.247
239.688
531.592
1357.59
536.574
8246.12
6635.86
17591.5
48400
14367
888.568
28.2495
0.825107
0.0222674
0.000434577
8.948e-06
6.37654e-08
1.17342e-08
0.173612
1.39896
3.5672
6.53257
10.0666
13.6694
16.7908
18.8853
19.8231
19.8945
19.564
19.1451
18.511
17.701
16.8009
15.8958
15.0208
14.1742
13.363
12.6376
12.0225
11.5123
11.0997
10.7453
10.4242
10.1399
9.89642
9.68298
9.50109
9.35634
9.24448
9.16164
9.11577
9.11217
9.15482
9.24634
9.3947
9.6117
9.90786
10.3005
10.8128
11.4892
12.4539
13.8471
15.8112
18.5638
22.5078
28.2257
36.2509
46.1965
56.2079
71.1497
110.218
175.233
207.488
177.276
79.3982
48.575
48.9073
37.3167
65.7569
108.243
72.8737
173.248
339.394
828.218
456.041
584.813
5257.72
11697.8
772.146
42479.6
33548.6
3915.78
138.611
4.01493
0.11022
0.00277203
4.13611e-05
1.15906e-06
8.6886e-08
1.09897e-08
0.173438
1.39724
3.56404
6.52682
10.0693
13.69
16.7299
18.8236
19.8213
19.9436
19.6083
19.1412
18.5066
17.7011
16.8035
15.8767
14.9955
14.143
13.3627
12.6351
12.0009
11.4993
11.0863
10.7328
10.4167
10.1379
9.88879
9.68216
9.50537
9.35754
9.24302
9.16445
9.11713
9.10933
9.14228
9.23015
9.37202
9.58007
9.86679
10.25
10.7496
11.4093
12.3419
13.6738
15.5486
18.1803
21.9339
27.373
35.047
44.781
54.716
67.4916
102.524
165.607
209.573
178.714
97.0739
61.2462
112.147
87.2873
137.43
35.101
69.6924
153.597
361.544
1117.14
878.854
769.561
1521.24
9060.11
2858.38
23033.3
52835.9
13570.2
628.664
19.0743
0.528455
0.0136366
0.000303183
1.95792e-06
1.42714e-07
3.13483e-08
3.50205e-08
0.173261
1.39542
3.55972
6.51938
10.0611
13.7093
16.765
18.7636
19.7638
19.945
19.6545
19.1585
18.5015
17.6968
16.8023
15.8794
14.9753
14.1287
13.3333
12.6327
11.9912
11.4796
11.0729
10.7188
10.404
10.1297
9.88569
9.67405
9.50347
9.35811
9.24465
9.16135
9.1191
9.10723
9.13834
9.21616
9.35365
9.55294
9.83043
10.201
10.6895
11.3328
12.2439
13.5231
15.3158
17.8308
21.4113
26.5853
33.9286
43.3844
53.2554
64.2534
95.8307
156.08
209.93
182.979
134.854
46.9518
135.792
93.459
179.328
45.4871
66.5173
102.464
222.351
520.682
126.419
1722.73
2600.49
2659.19
7275.65
8767.23
57219.6
33171.3
2687.98
85.6837
2.42098
0.0640836
0.00148908
2.90605e-05
3.86107e-07
7.76112e-08
6.42924e-08
6.61678e-09
0.173076
1.39446
3.55437
6.51337
10.0503
13.7
16.7999
18.8027
19.7084
19.8915
19.6524
19.2016
18.5191
17.6926
16.7981
15.8776
14.966
14.1101
13.3209
12.6036
11.9883
11.471
11.059
10.7059
10.3901
10.1169
9.87996
9.67015
9.49499
9.35524
9.24366
9.16129
9.11407
9.10488
9.13275
9.20834
9.33573
9.53038
9.79755
10.1577
10.6324
11.2601
12.1517
13.3922
15.1108
17.5182
20.9367
25.8662
32.8755
42.0465
51.8519
62.2442
89.9473
146.697
208.356
195.656
159.478
21.2752
82.6768
12.9942
58.4892
53.9079
72.9038
85.3417
78.4795
37.4792
552.431
2234.4
4699.21
3271.12
5944.53
6094.8
37083.6
53985.4
10013.6
370.244
10.6152
0.282725
0.00685956
0.00013532
1.39472e-06
1.53727e-08
7.00856e-08
4.90807e-08
3.90998e-08
0.172894
1.39394
3.55172
6.50546