/*--------------------------------*- C++ -*----------------------------------*\
| =========                 |                                                 |
| \\      /  F ield         | OpenFOAM: The Open Source CFD Toolbox           |
|  \\    /   O peration     | Version:  v2012                                 |
|   \\  /    A nd           | Website:  www.openfoam.com                      |
|    \\/     M anipulation  |                                                 |
\*---------------------------------------------------------------------------*/
FoamFile
{
    version     2.0;
    format      ascii;
    class       volScalarField;
    location    "3900";
    object      Rew;
}
// * * * * * * * * * * * * * * * * * * * * * * * * * * * * * * * * * * * * * //

dimensions      [0 0 0 0 0 0 0];


internalField   nonuniform List<scalar> 
29502
(
0.342218
0.171183
12.0972
0.169055
1.42569
19.7125
0.184122
1.69496
3.4641
25.6412
0.193869
2.79472
4.0274
5.79458
30.6946
0.199335
2.53071
6.0598
6.88389
8.40959
35.7789
0.202184
2.73543
5.69046
9.81999
10.1723
11.4715
41.087
0.203105
2.57852
6.23013
9.41072
13.6396
13.5695
15.0078
46.9923
0.203061
2.17411
5.92825
10.1515
13.2837
17.1603
16.6401
19.1105
53.799
0.202222
2.12433
5.09805
9.7621
14.2026
16.8866
19.6406
19.082
23.8779
61.5883
0.200888
1.76952
5.01308
8.71826
13.8355
17.8083
19.3632
20.9844
20.8877
29.3688
70.4867
0.199681
1.71825
4.37752
8.61837
12.7513
17.513
20.2464
20.5776
21.4046
22.3341
35.7468
80.3767
0.198809
1.68886
4.27011
7.75775
12.5999
16.4437
20.0269
21.318
20.7688
21.2573
23.9054
43.2165
91.797
0.197978
1.65819
4.18852
7.62526
11.5651
16.2935
19.0548
21.1228
21.304
20.3808
21.1782
25.3756
52.0588
104.817
0.196435
1.62709
4.14206
7.48657
11.4229
15.2039
18.9718
20.3157
21.1691
20.6921
19.9846
21.0481
26.7756
62.5282
119.683
0.195173
1.60223
4.06637
7.43182
11.243
15.0567
17.9798
20.3024
20.5498
20.5799
20.0881
19.4804
20.8257
28.2033
74.939
136.357
0.194
1.57264
4.0083
7.30823
11.1925
14.886
17.8474
19.4962
20.5647
20.1439
20.0008
19.3844
18.8235
20.5904
29.6711
89.5821
155.424
0.193262
1.56426
3.94752
7.21392
11.0528
14.8549
17.7173
19.43
19.9101
20.2015
19.6662
19.2551
18.5266
18.1428
20.3715
31.1592
116.12
177.141
0.192354
1.55991
3.9353
7.13534
10.9268
14.6945
17.6902
19.3271
19.899
19.6766
19.7382
19.0001
18.3728
17.613
17.4947
20.2211
33.1903
138.129
201.602
0.19116
1.54772
3.93242
7.10552
10.8414
14.5551
17.5649
19.3419
19.8499
19.6999
19.3481
19.083
18.1422
17.4137
16.7515
16.9367
20.2231
35.8986
164.124
229.453
0.190255
1.535
3.90147
7.09093
10.7949
14.483
17.4629
19.2597
19.8984
19.6833
19.3829
18.776
18.227
17.2128
16.4839
15.9534
16.5106
20.4697
39.2638
195.059
260.98
0.189539
1.52478
3.87133
7.04158
10.769
14.4546
17.3931
19.1836
19.8362
19.7369
19.3827
18.838
18.0157
17.2741
16.2824
15.6239
15.2663
16.2226
21.0314
43.2532
231.711
296.337
0.188774
1.52914
3.8461
6.98883
10.7219
14.423
17.3736
19.1359
19.7941
19.7099
19.4324
18.8456
18.0734
17.1269
16.3368
15.3943
14.8482
14.7093
16.0841
21.9583
47.6713
274.771
336.149
0.18814
1.51386
3.84116
6.94799
10.6503
14.3675
17.3396
19.1236
19.7598
19.7125
19.4368
18.908
18.0987
17.1967
16.2148
15.4146
14.5704
14.1644
14.2945
16.129
23.3113
51.9733
324.912
380.248
0.187553
1.50157
3.80891
6.95617
10.5931
14.2851
17.2902
19.1281
19.7882
19.6884
19.4277
18.9102
18.156
17.2179
16.2763
15.3217
14.5582
13.8458
13.6034
14.0226
16.4061
25.1842
55.6918
382.256
429.081
0.186851
1.50124
3.7944
6.92092
10.6248
14.2431
17.2139
19.1142
19.8189
19.719
19.4279
18.9323
18.1746
17.2774
16.2979
15.3655
14.4716
13.7855
13.2179
13.1523
13.9074
16.9637
27.7482
60.5955
446.717
482.223
0.186073
1.49652
3.78998
6.89417
10.5753
14.2825
17.2
19.0772
19.8159
19.7503
19.4715
18.9546
18.2185
17.304
16.3654
15.3987
14.5163
13.6901
13.1094
12.697
12.8324
13.9648
17.8504
31.2133
72.2272
517.612
539.487
0.185352
1.48947
3.77931
6.86964
10.5172
14.2257
17.2713
19.0705
19.8181
19.7746
19.4955
18.9865
18.2316
17.3512
16.3889
15.4603
14.5393
13.7221
12.9962
12.5269
12.2877
12.6501
14.2152
19.1424
35.8574
90.1356
594.222
600.498
0.184836
1.48358
3.76258
6.85115
10.4805
14.1557
17.214
19.1484
19.8451
19.79
19.5098
19.0237
18.2744
17.381
16.4329
15.4815
14.582
13.7416
13.0115
12.3934
12.05
11.984
12.61
14.6874
20.932
41.9292
117.059
676.067
664.564
0.184503
1.47904
3.74916
6.83949
10.4573
14.1157
17.1728
19.0985
19.8936
19.8042
19.5152
19.0359
18.3136
17.4375
16.4662
15.5278
14.6088
13.7735
13.017
12.3836
11.8845
11.6826
11.8013
12.73
15.4301
23.3503
49.3633
159.22
762.823
731.576
0.18416
1.4792
3.73834
6.81601
10.4612
14.113
17.1585
19.0598
19.8558
19.8811
19.5423
19.0487
18.3602
17.4709
16.5248
15.5596
14.6563
13.7871
13.0353
12.3709
11.8446
11.4838
11.4384
11.7447
13.0258
16.5011
26.5493
57.3351
227.818
854.91
801.783
0.183776
1.47625
3.74076
6.79899
10.4511
14.1214
17.1616
19.0779
19.8475
19.8708
19.6095
19.0808
18.3813
17.5112
16.5651
15.6107
14.6875
13.8319
13.0456
12.3775
11.8148
11.413
11.2075
11.3079
11.8198
13.5265
17.9898
30.7095
63.9123
341.263
952.703
859.238
0.183321
1.47325
3.73334
6.80377
10.4276
14.1088
17.1739
19.0601
19.8677
19.8921
19.6185
19.1427
18.4108
17.55
16.5984
15.6486
14.7292
13.868
13.0832
12.3866
11.8108
11.3647
11.1055
11.0254
11.2729
12.0331
14.2757
20.0173
36.0325
69.5586
519.579
1044.73
883.792
0.182816
1.46969
3.72712
6.79241
10.4354
14.0797
17.1377
19.0794
19.8547
19.8998
19.6326
19.1524
18.4718
17.5884
16.6306
15.6814
14.7588
13.9049
13.1154
12.4108
11.8072
11.3411
11.0342
10.8884
10.9254
11.333
12.4184
15.3349
22.7577
42.8105
86.2833
759.022
1120.28
870.463
0.182256
1.46211
3.71884
6.78178
10.4205
14.0923
17.1095
19.078
19.8817
19.8991
19.6464
19.164
18.477
17.6456
16.6758
15.7197
14.7956
13.9251
13.1512
12.4366
11.8215
11.3249
10.9945
10.7885
10.7413
10.9051
11.4977
13.0106
16.7888
26.4055
51.2097
114.498
1010.47
1192.58
808.882
0.181703
1.45784
3.70397
6.76904
10.4053
14.0729
17.1506
19.078
19.9093
19.9242
19.6547
19.1871
18.4779
17.6534
16.7349
15.7564
14.8366
13.9554
13.1649
12.4622
11.8361
11.332
10.9621
10.7274
10.6086
10.6663
10.9712
11.7889
13.8559
18.7527
31.1617
60.3862
159.504
1231.28
1253.93
694.825
0.181159
1.45896
3.69436
6.76205
10.388
14.0831
17.1302
19.1485
19.938
19.9545
19.6924
19.2135
18.5232
17.6586
16.7396
15.8078
14.8699
14.0031
13.1913
12.4795
11.8572
11.3418
10.9681
10.6846
10.5263
10.497
10.6637
11.1374
12.2631
15.0178
21.3959
37.2212
68.0384
234.578
1443.43
1285.15
534.452
0.180608
1.4459
3.69544
6.7455
10.3792
14.0631
17.1414
19.0984
20.0013
19.9758
19.7174
19.2604
18.5479
17.6879
16.7477
15.8167
14.9079
14.0304
13.2285
12.5001
11.8685
11.3535
10.9658
10.6764
10.4657
10.3855
10.4491
10.7459
11.4133
12.9839
16.5926
24.9457
44.6531
75.3922
362.813
1614.58
1270.71
346.146
0.180156
1.44369
3.67623
6.73158
10.358
14.0285
17.1222
19.0823
19.9267
20.0331
19.7178
19.2759
18.565
17.7096
16.779
15.8369
14.9224
14.0685
13.2582
12.5282
11.8854
11.3552
10.9719
10.6633
10.4394
10.3011
10.3044
10.4732
10.921
11.8309
13.9985
18.7179
29.6602
53.3572
96.6904
568.601
1714.12
1193.16
179.923
0.179849
1.44469
3.67385
6.70057
10.338
14.0035
17.0871
19.0928
19.9098
19.9844
19.7549
19.2668
18.5981
17.7423
16.7937
15.8545
14.9366
14.0778
13.2938
12.5487
11.9046
11.3669
10.9668
10.6618
10.4125
10.2576
10.194
10.2866
10.5795
11.2033
12.4765
15.3739
21.588
35.7765
62.4214
132.439
861.552
1679.52
1038.48
35.0076
0.179665
1.43459
3.66619
6.69839
10.2977
13.9838
17.0656
19.092
19.9502
19.9897
19.7274
19.3123
18.6
17.78
16.8416
15.866
14.9564
14.0843
13.3012
12.5798
11.9245
11.3881
10.9751
10.6524
10.4021
10.2185
10.131
10.1466
10.341
10.7751
11.6163
13.4098
17.2287
25.4521
43.3905
70.327
191.159
1221.1
1513.28
821.695
75.5173
0.179618
1.43353
3.64287
6.70188
10.2971
13.9617
17.0463
19.0744
19.952
20.0327
19.7389
19.2935
18.6487
17.7862
16.8798
15.9222
14.9761
14.1079
13.3083
12.5883
11.9505
11.4024
10.9923
10.654
10.3869
10.1957
10.0763
10.0591
10.1641
10.4766
11.0766
12.2161
14.6919
19.7324
30.603
52.2157
81.8414
290.529
1570.96
1289.57
550.369
127.714
0.179636
1.44205
3.64089
6.66305
10.3012
13.9906
17.0262
19.0592
19.9385
20.0043
19.7718
19.2715
18.6335
17.7986
16.8819
15.9519
15.0197
14.1271
13.3256
12.5986
11.9546
11.4214
11.0001
10.6624
10.383
10.1685
10.0396
9.98514
10.0491
10.2544
10.7026
11.5056
13.112
16.4202
23.1218
37.2902
61.1829
107.9
453.741
1763.08
1006.85
336.501
175.919
0.179652
1.44771
3.66182
6.64555
10.2481
13.97
17.0615
19.0431
19.9277
20.0021
19.7494
19.2952
18.6337
17.8068
16.8971
15.9565
15.0462
14.1683
13.341
12.612
11.9563
11.4234
11.0164
10.6695
10.3852
10.1559
10.0029
9.93473
9.95201
10.1031
10.4241
11.0339
12.12
14.3614
18.7503
27.6997
45.4892
69.0283
151.049
695.272
1682.69
685.764
221.538
203.01
0.179615
1.44811
3.67335
6.68019
10.2233
13.9059
17.0415
19.0529
19.9145
20.0108
19.7497
19.2988
18.6535
17.8148
16.8988
15.9834
15.0571
14.1911
13.3704
12.6267
11.9725
11.4257
11.0228
10.6836
10.3856
10.1528
9.97923
9.88567
9.88239
9.97779
10.2296
10.6845
11.4963
13.0318
16.0469
21.8994
33.7566
54.5802
80.4359
221.038
997.793
1285.8
442.723
131.155
156.014
0.179507
1.44271
3.67516
6.69957
10.2741
13.9024
17.0002
19.0337
19.9555
20.0012
19.7904
19.3276
18.6527
17.8337
16.9086
15.9673
15.0763
14.2013
13.3987
12.6554
11.9912
11.4402
11.0254
10.6877
10.3969
10.1464
9.96909
9.85205
9.81776
9.88459
10.0709
10.4364
11.0544
12.1533
14.298
18.3138
26.1649
41.3991
62.8652
106.275
331.475
1258.4
796.166
293.586
45.8501
53.3757
0.179303
1.43489
3.66532
6.70306
10.3001
13.9636
16.9937
19.0228
19.9676
20.0443
19.783
19.3612
18.6803
17.8473
16.9197
15.9697
15.0569
14.2139
13.4024
12.6779
12.0193
11.4623
11.0353
10.6879
10.3974
10.1512
9.9579
9.83357
9.77191
9.80193
9.94815
10.2362
10.7382
11.5631
13.1159
16.0063
21.3789
31.8493
50.1626
70.2418
148.104
493.756
1224.7
461.461
85.9957
11.6516
32.2024
0.178997
1.4304
3.64868
6.70475
10.305
13.9681
17.0605
19.0131
19.9257
20.0477
19.7851
19.346
18.7063
17.8715
16.9315
15.9923
15.0638
14.1997
13.4087
12.6766
12.0352
11.4838
11.0508
10.6916
10.3949
10.1492
9.95186
9.81477
9.74049
9.7402
9.84231
10.08
10.4858
11.156
12.2937
14.4459
18.299
25.5249
39.1488
58.8211
87.7413
212.968
685.942
872.717
325.845
61.7697
11.7829
44.7599
0.178608
1.43164
3.63786
6.67952
10.3082
13.9729
17.0607
19.0758
19.914
20.0135
19.7751
19.376
18.7024
17.8964
16.9545
16.0001
15.081
14.2127
13.4004
12.6789
12.037
11.4942
11.07
10.701
10.3948
10.1424
9.94483
9.80101
9.7133
9.69603
9.76358
9.94828
10.2898
10.8387
11.7243
13.3445
16.2322
21.4025
31.1032
47.8351
66.7301
118.973
306.279
789.497
529.805
251.216
81.9383
0.349591
6.03794
0.178123
1.42866
3.63311
6.64532
10.2748
13.9772
17.0357
19.0723
19.9679
19.9992
19.7498
19.373
18.7189
17.8849
16.9732
16.0155
15.0959
14.2201
13.406
12.6733
12.0384
11.4966
11.08
10.7184
10.4018
10.1394
9.93544
9.78406
9.69362
9.6576
9.70514
9.84792
10.125
10.5906
11.3149
12.5367
14.7782
18.637
25.6285
38.3892
56.7578
79.3435
166.488
410.958
708.48
326.128
66.0283
45.4595
8.71874
50.2341
0.177578
1.42256
3.62707
6.63862
10.2285
13.9375
17.0368
19.0409
19.9581
20.0355
19.733
19.3421
18.725
17.9068
16.9661
16.0325
15.1086
14.2358
13.4214
12.6761
12.0328
11.5089
11.0831
10.7308
10.4168
10.1458
9.93038
9.77143
9.66879
9.62855
9.65347
9.77154
9.9978
10.3851
11.0002
11.9581
13.6911
16.7059
21.9076
31.3647
47.1591
64.7417
105.863
232.147
486.972
500.338
179.306
55.9342
15.7818
7.6393
122.763
0.177058
1.42185
3.62042
6.62833
10.2194
13.9068
17.0237
19.0409
19.9527
20.0541
19.7708
19.3097
18.6801
17.9017
16.9906
16.0226
15.1221
14.2532
13.4286
12.6855
12.0337
11.5078
11.095
10.7334
10.427
10.1573
9.93346
9.76393
9.64919
9.59642
9.61111
9.70361
9.89776
10.2242
10.7433
11.5512
12.9081
15.2708
19.3143
26.3939
38.8668
56.0886
75.7768
146.001
300.83
483.699
304.895
35.4971
108.692
51.6778
44.208
144.113
0.176567
1.4221
3.62022
6.61803
10.2055
13.8976
17.0187
19.0256
19.9477
20.0379
19.794
19.3418
18.6792
17.8816
17.004
16.0498
15.1221
14.2624
13.4452
12.6971
12.0389
11.5068
11.0913
10.7401
10.4247
10.1619
9.93794
9.75896
9.63503
9.5684
9.56951
9.64698
9.80964
10.0945
10.5395
11.2233
12.3286
14.2254
17.3993
22.8786
32.4796
47.7458
64.0717
100.717
198.17
342.016
394.283
145.158
1.69908
84.0981
16.2024
25.2202
136.244
0.176079
1.41452
3.62086
6.63291
10.1922
13.8832
17.0109
19.0204
19.932
20.0339
19.7828
19.3378
18.69
17.8683
16.9809
16.0539
15.142
14.2633
13.4583
12.7078
12.0531
11.5113
11.0926
10.7329
10.4265
10.1581
9.93948
9.75936
9.62476
9.54857
9.53343
9.594
9.7373
9.98295
10.3763
10.9644
11.8794
13.4352
16.0045
20.2865
27.7718
40.3186
56.5212
75.4346
137.925
247.885
338.939
251.939
22.3481
28.1999
43.143
27.5687
189.926
123.692
0.175671
1.41199
3.60339
6.63453
10.2144
13.8697
16.9988
19.0148
19.9272
20.0173
19.7742
19.344
18.6689
17.8785
16.9692
16.034
15.1477
14.2786
13.4549
12.7259
12.0655
11.5216
11.0971
10.7344
10.4232
10.1581
9.93643
9.75997
9.62189
9.53551
9.50648
9.54768
9.67108
9.89042
10.2346
10.7558
11.5327
12.8293
14.947
18.4052
24.2522
34.3492
49.3336
64.5126
100.658
183.33
268.374
286.03
91.5791
16.9729
36.0043
69.8733
50.6198
300.369
110.989
0.175311
1.413
3.58904
6.58956
10.2159
13.8724
16.9884
19.0074
19.9251
19.9855
19.751
19.3296
18.6689
17.8672
16.9676
16.0288
15.1221
14.2879
13.4679
12.7277
12.0806
11.5364
11.1047
10.7397
10.4242
10.154
9.93407
9.75346
9.61823
9.52679
9.48744
9.51025
9.6124
9.80741
10.118
10.5779
11.2608
12.342
14.1365
16.9797
21.6803
29.6775
42.6483
57.8411
77.9033
137.347
220.9
252.49
166.762
0.575869
13.8011
31.8803
80.0152
0.749155
251.004
95.8993
0.175009
1.41038
3.59077
6.56695
10.1555
13.8778
16.9697
19.0042
19.8945
19.9861
19.7282
19.3153
18.6523
17.8455
16.9537
16.0358
15.1169
14.272
13.483
12.7357
12.0867
11.5456
11.1197
10.7442
10.4261
10.1546
9.926
9.7487
9.60812
9.51757
9.47336
9.48156
9.56393
9.73267
10.0116
10.4297
11.0332
11.9435
13.4786
15.8915
19.736
26.1827
36.8611
51.7213
65.9196
105.097
178.787
224.84
197.365
33.7364
4.15952
18.0646
67.5292
16.0607
83.3073
137.316
78.5634
0.174779
1.40824
3.58493
6.56939
10.1241
13.8316
16.95
18.9919
19.8683
19.9564
19.7204
19.3054
18.6348
17.8256
16.9406
16.0163
15.132
14.2551
13.4773
12.7499
12.098
11.5509
11.1311
10.755
10.43
10.1552
9.92489
9.73841
9.60202
9.50313
9.45815
9.46079
9.52569
9.67186
9.91842
10.2981
10.845
11.6383
12.9337
15.015
18.2551
23.5201
32.288
45.5278
59.7776
83.0731
142.908
205.345
193.081
87.4559
9.60821
12.7228
31.3273
86.8929
59.7637
177.823
36.5292
61.4723
0.174615
1.41179
3.57104
6.559
10.1284
13.7959
16.9331
18.9795
19.8907
19.9398
19.7054
19.307
18.6286
17.8131
16.9393
16.0067
15.1207
14.255
13.4553
12.7421
12.102
11.5647
11.133
10.7679
10.4381
10.1596
9.92735
9.73549
9.58933
9.49303
9.43837
9.43824
9.49482
9.62304
9.8422
10.1816
10.6808
11.3958
12.5087
14.2918
17.0764
21.4866
28.7112
40.1529
54.2082
68.3361
113.633
180.527
192.609
123.116
3.89463
13.3948
27.9819
69.3882
68.6476
62.914
179.972
52.6576
46.241
0.174524
1.41062
3.5862
6.5365
10.1139
13.8021
16.9268
18.9669
19.9117
19.9924
19.709
19.2858
18.6265
17.8047
16.9055
15.9991
15.0948
14.2429
13.4488
12.728
12.094
11.5645
11.1439
10.7712
10.4465
10.1634
9.92752
9.73602
9.5816
9.47714
9.42296
9.41387
9.46646
9.58212
9.77857
10.0844
10.5361
11.1833
12.1618
13.7181
16.1133
19.873
25.9318
35.6387
49.1219
62.1861
91.0745
152.746
193.308
141.024
35.1011
14.0119
21.5926
42.578
51.8966
42.5434
82.993
208.413
114.263
33.5839
0.174491
1.40517
3.59375
6.56079
10.0816
13.7864
16.9088
18.9654
19.8779
20.0392
19.7505
19.2921
18.6334
17.8189
16.8982
15.9802
15.0754
14.2238
13.4342
12.7255
12.0796
11.5557
11.1464
10.7829
10.451
10.1717
9.92835
9.73482
9.57933
9.46605
9.40322
9.39433
9.43629
9.54456
9.72439
10.0024
10.4141
11.0014
11.8633
13.2459
15.3463
18.5686
23.7135
31.9767
44.1307
57.4372
75.5418
126.023
183.735
158.646
57.3987
7.65037
22.0544
32.0755
39.1513
16.5745
4.5054
57.202
228.399
144.976
23.6638
0.174498
1.405
3.58228
6.57297
10.1165
13.7473
16.8933
18.9518
19.8823
19.9861
19.7802
19.3427
18.641
17.8073
16.927
15.9724
15.0677
14.2121
13.4158
12.7073
12.0761
11.5419
11.1356
10.7832
10.4603
10.177
9.93583
9.73445
9.57873
9.46065
9.3903
9.36957
9.40965
9.50647
9.6748
9.93345
10.3103
10.8465
11.6134
12.838
14.7135
17.5316
21.9269
28.9902
39.7909
52.878
65.7209
103.24
164.633
175.797
83.5892
6.92624
23.2321
33.3484
33.8077
9.98988
9.69806
85.9181
7.17879
150.243
140.151
16.072
0.174543
1.40548
3.57264
6.5548
10.1324
13.7643
16.8817
18.94
19.9007
19.9667
19.7317
19.3611
18.6846
17.8216
16.904
15.9848
15.0581
14.2027
13.4013
12.6805
12.0639
11.5401
11.1218
10.7713
10.4579
10.1825
9.93763
9.73819
9.57658
9.45746
9.38098
9.35185
9.38051
9.47182
9.62845
9.87178
10.2229
10.7153
11.4143
12.4959
14.1711
16.6795
20.5023
26.5502
36.0207
48.7367
61.0063
86.1826
141.692
181.971
116.126
11.4018
10.3356
41.301
39.9748
11.1633
34.0395
29.5468
95.5027
127.453
10.817
103.82
10.0999
0.174563
1.40153
3.56553
6.53941
10.1076
13.7829
16.8729
18.9291
19.8914
20.0155
19.7153
19.3192
18.727
17.86
16.9152
15.9774
15.0595
14.1925
13.3905
12.6658
12.0379
11.5344
11.1172
10.7595
10.4482
10.1813
9.9433
9.73686
9.57652
9.45306
9.37239
9.33986
9.35717
9.4349
9.58429
9.81247
10.1416
10.602
11.2433
12.2109
13.7155
15.955
19.3368
24.5919
32.8134
44.5657
57.0513
73.9297
120.352
174.85
144.951
36.5695
4.83502
28.019
52.0285
23.2454
20.3495
50.7014
39.3931
51.6426
253.993
115.252
65.3142
6.02371
0.174626
1.40628
3.56618
6.52751
10.0864
13.7795
16.8645
18.9525
19.8842
20.0329
19.7496
19.3066
18.6903
17.8841
16.9502
15.9851
15.0604
14.1878
13.3879
12.6579
12.0272
11.5168
11.1098
10.753
10.439
10.1738
9.94288
9.73906
9.57383
9.45086
9.3673
9.32725
9.33956
9.4064
9.53971
9.75657
10.0681
10.4998
11.0955
11.9627
13.3287
15.3501
18.3565
22.9837
30.1919
40.7896
53.1788
65.4944
101.759
160.176
166.888
61.2524
3.69942
21.4775
47.2112
25.8692
14.743
33.0343
82.2686
14.1293
43.9722
310.563
170.674
38.173
3.36339
0.174684
1.41759
3.5857
6.52907
10.07
13.7532
16.8601
18.9445
19.9066
19.999
19.768
19.3423
18.6566
17.8705
16.9597
16.0222
15.0716
14.1926
13.3911
12.6559
12.027
11.5093
11.1022
10.744
10.4336
10.1622
9.93301
9.73839
9.57529
9.44886
9.36424
9.31832
9.3237
9.38195
9.50387
9.70311
9.99853
10.4067
10.9665
11.7481
12.9885
14.8359
17.5415
21.6376
28.0072
37.5668
49.6588
61.3404
87.2185
141.666
176.958
92.3632
12.9641
14.6373
42.7078
47.1225
14.1969
48.5426
64.7108
65.0188
39.2564
60.3473
186.647
164.471
20.6894
1.76249
0.174686
1.40716
3.60828
6.5611
10.072
13.7322
16.8577
18.9084
19.8992
19.9946
19.7388
19.3549
18.6947
17.8578
16.9622
16.0365
15.1016
14.2016
13.3933
12.6593
12.0179
11.5102
11.093
10.7378
10.4222
10.1549
9.92272
9.72944
9.57408
9.44883
9.35827
9.31392
9.30897
9.36191
9.47257
9.65882
9.93181
10.3203
10.8485
11.578
12.6927
14.3839
16.8509
20.5194
26.1596
34.751
46.3068
57.9565
76.2774
123.427
174.731
133.381
25.2268
4.21126
39.5897
48.5428
13.339
42.4606
53.8367
55.0838
78.7272
62.95
164.813
15.6898
120.543
10.7977
0.8474
0.174772
1.40316
3.58818
6.59624
10.1161
13.7331
16.8621
18.9046
19.8622
20.0098
19.7312
19.3257
18.7255
17.8744
16.9698
16.0311
15.1291
14.2292
13.4022
12.6608
12.0145
11.5008
11.0879
10.7281
10.4115
10.1419
9.91314
9.71718
9.56513
9.44447
9.35609
9.30318
9.30031
9.34321
9.44528
9.61819
9.87571
10.2398
10.7419
11.4261
12.4422
13.9908
16.2465
19.5737
24.6169
32.299
43.0769
54.7843
67.9968
106.758
164.497
159.095
43.8438
3.53044
28.3824
48.5915
20.624
35.0585
66.5128
42.9325
2.42304
64.1572
15.3048
330.22
154.806
70.6579
5.11051
0.368453
0.174766
1.40356
3.57923
6.56529
10.163
13.7611
16.8333
18.9061
19.8556
20.0037
19.744
19.3176
18.698
17.8879
16.9654
16.0392
15.1235
14.2565
13.4268
12.6677
12.0139
11.5013
11.0829
10.7167
10.4027
10.1287
9.89803
9.7076
9.55061
9.43294
9.35015
9.29854
9.28757
9.32818
9.42255
9.58267
9.8264
10.1699
10.6421
11.2894
12.2277
13.6487
15.7258
18.7565
23.3146
30.2302
40.1461
51.7355
63.2111
93.1255
149.159
174.081
72.9986
12.5098
21.0393
54.3044
31.0681
24.3628
75.1504
69.6697
14.4205
66.8097
21.368
78.9493
212.282
188.467
33.5168
2.16781
0.14318
0.174755
1.40021
3.58047
6.55104
10.1218
13.7885
16.8323
18.8737
19.8275
19.9926
19.7296
19.3293
18.6878
17.8793
16.9649
16.0492
15.1302
14.2615
13.4514
12.6886
12.0249
11.5065
11.087
10.7151
10.3948
10.122
9.88621
9.6935
9.54115
9.41833
9.33584
9.2906
9.27846
9.31132
9.40299
9.55247
9.78069
10.1072
10.5548
11.1643
12.0428
13.3545
15.2718
18.0536
22.1916
28.4644
37.6133
48.9567
60.063
82.5934
133.281
177.438
108.121
11.2483
9.73448
51.8939
40.9995
6.92157
67.2461
73.215
27.3174
1.74406
45.8427
20.9385
194.701
15.7776
140.62
13.7932
0.818178
0.0488441
0.174741
1.40033
3.57183
6.5532
10.0813
13.7665
16.8629
18.8719
19.7944
19.9385
19.7201
19.3154
18.6958
17.8854
16.9578
16.0439
15.1416
14.2677
13.4499
12.7103
12.0481
11.5153
11.091
10.718
10.3913
10.1157
9.87762
9.68001
9.52725
9.40824
9.31873
9.27491
9.26761
9.29938
9.37958
9.52676
9.7415
10.0507
10.4767
11.0529
11.8702
13.103
14.8775
17.4443
21.2264
26.9291
35.3577
46.3509
57.364
74.345
118.215
172.842
144.97
28.151
4.51135
42.1859
49.0738
0.393282
51.436
80.5595
29.6957
9.85329
16.1609
43.9919
9.95727
293.945
134.314
77.6655
5.07396
0.268622
0.0141443
0.174724
1.4002
3.57236
6.53883
10.0835
13.7424
16.8643
18.8994
19.8168
19.8786
19.6881
19.3016
18.6843
17.8731
16.9767
16.037
15.137
14.2683
13.4568
12.7088
12.0666
11.5347
11.0986
10.7204
10.3928
10.111
9.87263
9.66899
9.51158
9.39217
9.30747
9.25661
9.25156
9.28546
9.36607
9.49826
9.70698
9.99995
10.4066
10.9533
11.7145
12.8717
14.5381
16.914
20.3916
25.5961
33.3303
43.7859
54.817
67.8022
104.925
162.886
166.039
49.8283
4.6078
31.336
50.6185
7.23051
42.2352
70.0838
41.3539
6.35076
17.0804
7.04259
44.347
51.0373
179.15
164.46
33.3525
1.63591
0.072483
0.00327768
0.174677
1.40008
3.57199
6.54005
10.0848
13.7187
16.8656
18.8996
19.8397
19.9229
19.6311
19.2706
18.669
17.8436
16.9782
16.0434
15.1309
14.2644
13.4629
12.7154
12.0644
11.5483
11.1107
10.7307
10.394
10.1108
9.86623
9.66485
9.49881
9.37654
9.29081
9.24392
9.23163
9.26673
9.34711
9.47898
9.67216
9.95635
10.3429
10.8652
11.5778
12.6625
14.2301
16.4529
19.6668
24.442
31.5403
41.3715
52.348
63.4976
93.8428
149.992
177.89
76.0105
8.11551
21.7469
51.024
11.6634
40.0404
71.1695
48.6286
18.3434
4.81533
1.86842
62.4764
95.0011
305.821
81.3706
101.082
11.0195
0.424424
0.0152486
0.000536684
0.174649
1.40346
3.57163
6.53939
10.086
13.6943
16.8082
18.8975
19.8099
19.965
19.6457
19.2166
18.6376
17.8298
16.9459
16.0419
15.1316
14.2576
13.4583
12.7278
12.0698
11.5441
11.1221
10.7411
10.4027
10.1108
9.86446
9.65943
9.49229
9.36343
9.27478
9.2262
9.21528
9.24396
9.32292
9.45385
9.64535
9.9128
10.2871
10.7859
11.4622
12.4721
13.9535
16.0401
19.0361
23.4466
29.988
39.1987
50.038
60.7971
84.9114
136.646
181.388
107.556
15.3271
14.8201
49.1555
22.1452
34.5483
75.5659
60.7702
24.6083
1.80128
4.54134
57.9431
12.0111
53.7145
159.027
167.155
42.6966
2.83316
0.0840309
0.00190678
6.18491e-05
0.17458
1.4126
3.57999
6.53842
10.0852
13.7211
16.7544
18.8366
19.8068
19.9114
19.6875
19.2271
18.5864
17.8148
16.9172
16.0262
15.1289
14.2661
13.4514
12.7305
12.0813
11.5465
11.1221
10.751
10.4152
10.1178
9.86591
9.65602
9.48742
9.35458
9.26135
9.20753
9.196
9.22419
9.29772
9.42561
9.61453
9.87588
10.2327
10.7146
11.3589
12.299
13.7014
15.6713
18.4749
22.5794
28.648
37.2937
47.9329
58.4983
77.6616
123.817
178.726
142.896
27.6109
1.71589
46.9622
29.1619
28.6003
71.6268
62.7251
28.5742
8.31599
9.50605
0.317056
39.5245
25.2504
265.814
0.754252
131.975
12.1624
0.56215
0.00972275
4.7443e-05
1.33141e-05
0.174511
1.41218
3.59956
6.5522
10.0832
13.719
16.7833
18.7835
19.7706
19.9059
19.6525
19.2562
18.5896
17.7833
16.8911
15.9943
15.1134
14.2709
13.4601
12.7241
12.0833
11.5546
11.124
10.7509
10.4232
10.1282
9.87125
9.65587
9.48446
9.3478
9.25015
9.19132
9.17583
9.20208
9.27384
9.3959
9.58094
9.838
10.1843
10.6466
11.2659
12.1443
13.4666
15.3392
17.9775
21.8076
27.4664
35.5938
45.9655
56.4208
71.7559
112.084
171.486
167.136
43.4732
2.29742
40.8292
35.5709
16.5276
69.8284
63.4512
23.9026
4.69512
23.9294
13.7233
22.6936
57.7441
156.96
263.976
172.663
48.2727
2.25272
0.0696406
0.0011912
3.87814e-06
2.16867e-06
0.174381
1.40185
3.59793
6.58227
10.1025
13.7174
16.7808
18.8122
19.722
19.8951
19.6447
19.2301
18.6152
17.7812
16.8727
15.9676
15.0939
14.2581
13.4647
12.7233
12.0766
11.5552
11.1301
10.7559
10.4229
10.1384
9.87986
9.66204
9.48273
9.345
9.24083
9.17747
9.15675
9.18066
9.24998
9.36969
9.54774
9.79903
10.1362
10.5848
11.1775
12.0061
13.254
15.0329
17.5303
21.1235
26.4056
34.048
44.0401
54.4349
66.8589
101.916
161.241
180.677
65.9449
10.7546
30.7531
43.7559
15.3852
61.8297
65.7839
27.6802
15.9747
13.8175
32.0986
8.70644
81.7567
33.6635
78.1189
19.9335
127.652
10.3892
0.135758
0.00597958
0.000192176
5.76116e-06
3.55744e-07
0.174235
1.39743
3.57602
6.57998
10.1434
13.7668
16.8067
18.8379
19.7495
19.8513
19.6092
19.2193
18.5692
17.8011
16.886
15.9534
15.0702
14.2408
13.4434
12.7202
12.0749
11.5484
11.1302
10.7609
10.4306
10.1403
9.89131
9.67145
9.48694
9.34329
9.2358
9.16748
9.14152
9.15919
9.22487
9.34156
9.51653
9.75965
10.0881
10.5249
11.0978
11.8771
13.062
14.7507
17.121
20.5069
25.4572
32.6327
42.2065
52.5361
63.3501
93.318
149.951
187.23
92.1251
13.1717
21.573
44.0634
6.57948
62.5216
71.5565
25.0981
9.42792
23.3127
40.2899
11.0711
19.5434
8.82618
85.5287
0.309781
166.906
39.5218
0.41845
0.0119897
0.000270041
4.15488e-05
2.34554e-06
7.10132e-08
0.174096
1.39931
3.56487
6.54458
10.1393
13.7895
16.861
18.8645
19.7747
19.8517
19.5725
19.1845
18.5632
17.7583
16.8976
15.9603
15.044
14.2062
13.4191
12.6989
12.0696
11.5456
11.1232
10.7561
10.4347
10.144
9.89538
9.67848
9.49442
9.34557
9.23386
9.16163
9.13035
9.14397
9.20193
9.31369
9.4838
9.72253
10.0416
10.4658
11.0237
11.7686
12.8847
14.4951
16.7466
19.9471
24.6018
31.3527
40.4944
50.7589
61.1694
86.164
138.745
188.601
119.638
14.6803
15.8605
41.4528
2.21395
58.2803
76.7626
40.9219
10.6351
8.54958
29.2192
14.4819
56.3216
25.8069
109.442
438.399
21.1297
83.6853
2.87217
0.112422
0.00573795
0.000106722
1.45671e-05
5.47004e-07
6.21015e-10
0.173944
1.40193
3.56779
6.52573
10.0912
13.7845
16.8574
18.8912
19.7718
19.8466
19.5725
19.1485
18.5409
17.7344
16.8579
15.9711
15.0493
14.1708
13.3932
12.674
12.0553
11.5395
11.1192
10.7489
10.4292
10.1466
9.89484
9.67878
9.49945
9.35075
9.23603
9.15711
9.12342
9.12963
9.18363
9.28702
9.45154
9.68387
9.99733
10.4089
10.9518
11.6716
12.7261
14.261
16.4075
19.4399
23.8279
30.1995
38.936
49.1066
59.3323
80.2675
128.189
185.894
149.568
27.4845
9.38659
40.9285
3.41128
51.5301
83.7818
48.1941
7.43661
17.0044
9.10003
13.2576
32.5292
33.8937
33.011
96.2432
183.033
162.227
10.4459
0.552948
0.0417412
0.00132834
3.92082e-05
3.76506e-06
1.19348e-07
1.79549e-09
0.173779
1.40071
3.57038
6.52895
10.0644
13.7266
16.8532
18.8884
19.7969
19.8464
19.5676
19.1467
18.5118
17.716
16.8211
15.9342
15.0542
14.1721
13.3654
12.656
12.0379
11.5269
11.1127
10.7485
10.4254
10.1444
9.89659
9.68009
9.49861
9.35635
9.24107
9.15709
9.11747
9.11924
9.16721
9.26512
9.42123
9.64666
9.95169
10.3548
10.881
11.5797
12.5845
14.0466
16.097
18.9819
23.1308
29.1571
37.5316
47.586
57.6826
75.2957
118.523
180.367
174.488
42.632
1.37003
37.0342
10.8581
51.0416
87.3115
55.0247
9.8132
5.82127
8.9608
17.4161
60.0613
161.138
21.7377
15.6406
85.7286
291.85
58.6883
6.62661
0.221422
0.00954505
0.000234383
1.06529e-05
4.57144e-07
1.71248e-08
8.18424e-09
0.173612
1.39896
3.5672
6.53257
10.0666
13.6694
16.7908
18.8853
19.8231
19.8945
19.564
19.1451
18.511
17.701
16.8009
15.8958
15.0208
14.1742
13.363
12.6376
12.0225
11.5124
11.0998
10.7455
10.4244
10.14
9.89656
9.6831
9.50119
9.3564
9.2445
9.16145
9.11532
9.11149
9.15387
9.24535
9.3938
9.61096
9.90743
10.301
10.8146
11.492
12.4578
13.851
15.8134
18.5634
22.5046
28.2186
36.2361
46.1694
56.1611
71.0581
109.86
172.775
187.504
59.7921
7.26138
33.0647
17.2216
48.2909
85.9646
62.2997
15.9096
10.0342
15.8046
19.8691
29.4702
14.4755
94.3866
86.9072
185.886
43.5297
122.823
23.1811
1.58416
0.052159
0.00175681
3.97669e-05
1.91429e-06
7.36022e-08
4.38653e-09
1.08231e-09
0.173438
1.39724
3.56404
6.52682
10.0693
13.69
16.7299
18.8236
19.8213
19.9436
19.6083
19.1412
18.5066
17.7011
16.8035
15.8767
14.9955
14.143
13.3627
12.635
12.0009
11.4994
11.0863
10.7329
10.4168
10.1381
9.88898
9.68233
9.50551
9.35765
9.24308
9.16447
9.1169
9.10878
9.14145
9.229
9.37081
9.57896
9.86588
10.2494
10.7502
11.4114
12.3453
13.6787
15.5535
18.1832
21.9333
27.3679
35.0356
44.7569
54.6683
67.3984
102.225
163.973
195.828
80.0224
14.5904
26.6834
18.4721
44.3237
85.4226
40.095
16.6365
10.3746
25.3986
22.4386
23.8639
60.5742
58.7832
158.742
102.906
346.335
128.405
11.8575
6.58736
0.320064
0.00902925
0.000342076
6.45923e-06
1.03544e-07
7.59981e-09
7.74449e-09
3.28999e-09
0.173261
1.39542
3.55972
6.51938
10.0611
13.7093
16.765
18.7636
19.7638
19.945
19.6545
19.1585
18.5015
17.6968
16.8023
15.8793
14.9753
14.1287
13.3333
12.6326
11.9912
11.4796
11.0729
10.7189
10.4042
10.1299
9.88592
9.67428
9.50367
9.35828
9.24478
9.16142
9.11911
9.10694
9.13766
9.21514
9.35225
9.55145
9.82906
10.1999
10.6887
11.3334
12.2465
13.5274
15.3219
17.8372
21.4152
26.5842
33.9202
43.3647
53.2121
64.1627
95.5561
154.805
200.132
102.711
17.3666
20.0722
23.9172
33.5467
80.0069
54.822
19.8269
7.21804
18.2382
30.1494
30.8117
86.2882
35.5946
115.926
55.1182
508.665
9.29178
211.709
35.0711
1.51494
0.0510753
0.00165693
5.90216e-05
5.36329e-07
1.50252e-08
2.12972e-08
9.42887e-10
3.57527e-10
0.173076
1.39446
3.55437
6.51337
10.0503
13.7
16.7999
18.8027
19.7084
19.8915
19.6524
19.2016
18.5191
17.6926
16.7981
15.8776
14.966
14.1101
13.3209
12.6036
11.9883
11.471
11.0591
10.706
10.3902
10.1171
9.8802
9.67042
9.49526
9.35548
9.24386
9.16144
9.11416
9.10489
9.13239
9.2075
9.33448
9.52866
9.79571
10.1559
10.6309
11.2591
12.1524
13.3954
15.1162
17.5259
20.9448
25.8712
32.8732
42.0311
51.8162
62.1641
89.7147
145.711
201.032
128.607
22.8402
14.959
26.411
31.34
78.7678
68.5262
21.7417
4.66258
14.435
18.0103
19.2274
122.843
12.7203
42.577
145.565
128.921
424.481
442.89
98.4882
7.27159
0.252834
0.00865614
0.000252476
8.00567e-06