/*--------------------------------*- C++ -*----------------------------------*\
| =========                 |                                                 |
| \\      /  F ield         | OpenFOAM: The Open Source CFD Toolbox           |
|  \\    /   O peration     | Version:  v2012                                 |
|   \\  /    A nd           | Website:  www.openfoam.com                      |
|    \\/     M anipulation  |                                                 |
\*---------------------------------------------------------------------------*/
FoamFile
{
    version     2.0;
    format      ascii;
    class       volScalarField;
    location    "3900";
    object      rho;
}
// * * * * * * * * * * * * * * * * * * * * * * * * * * * * * * * * * * * * * //

dimensions      [1 -3 0 0 0 0 0];


internalField   nonuniform List<scalar> 
29502
(
0.0345612
0.0339769
0.030391
0.0314611
0.0319961
0.0295413
0.0315059
0.0297673
0.0304289
0.0294879
0.0316575
0.029799
0.0284447
0.0291633
0.029966
0.0318728
0.0299627
0.0284967
0.0274042
0.0281244
0.0308399
0.0320709
0.0301918
0.0286954
0.0275041
0.0265945
0.0272665
0.0319949
0.0321501
0.0304026
0.0289499
0.027753
0.0267681
0.0259866
0.0265592
0.0334148
0.0322301
0.0305018
0.0291801
0.0280402
0.0270804
0.0262578
0.0255582
0.0259835
0.0350541
0.0322377
0.0306002
0.0293015
0.0282922
0.0274058
0.0266438
0.0259422
0.0252836
0.0255269
0.0369068
0.0322332
0.0306276
0.0294167
0.0284347
0.0276809
0.0270116
0.0264068
0.0257827
0.0251332
0.0251837
0.0389685
0.0322333
0.0306417
0.0294613
0.0285639
0.0278421
0.0273092
0.0268182
0.026324
0.025738
0.0250788
0.0249516
0.0412444
0.0322722
0.0306571
0.0294884
0.0286215
0.0279823
0.0274872
0.0271372
0.026777
0.0263496
0.0257741
0.0250994
0.0248343
0.0437364
0.0323055
0.030705
0.0295146
0.0286573
0.028049
0.0276355
0.0273302
0.027116
0.0268409
0.0264484
0.0258684
0.0251822
0.0248417
0.0464527
0.0322684
0.0307468
0.0295688
0.0286904
0.0280897
0.0277083
0.0274849
0.0273228
0.0271985
0.0269741
0.0265978
0.0260079
0.0253185
0.0249855
0.0494001
0.0322557
0.0307232
0.0296158
0.0287484
0.0281266
0.0277509
0.0275619
0.0274826
0.027418
0.0273489
0.0271549
0.0267851
0.0261848
0.0255037
0.0252847
0.0525891
0.0322435
0.0307203
0.0296004
0.0287981
0.0281859
0.027789
0.0276044
0.0275626
0.0275821
0.0275802
0.0275457
0.0273707
0.0270014
0.0263932
0.0257368
0.0257631
0.0560249
0.0322637
0.0307173
0.0296031
0.028787
0.0282366
0.0278474
0.0276419
0.0276041
0.0276646
0.0277483
0.027788
0.0277764
0.0276126
0.0272406
0.0266297
0.0260187
0.0264498
0.0597122
0.0322584
0.0307416
0.029605
0.0287921
0.028226
0.0278972
0.027698
0.0276401
0.027705
0.027833
0.0279598
0.0280292
0.0280319
0.0278744
0.0274996
0.0268927
0.0263541
0.0273981
0.0636686
0.0322234
0.0307426
0.029631
0.0287957
0.028231
0.0278844
0.0277453
0.0276936
0.0277393
0.0278722
0.0280466
0.0282045
0.0282948
0.0283065
0.0281526
0.0277765
0.0271802
0.0267498
0.0286461
0.0678923
0.0322135
0.0307161
0.0296351
0.0288218
0.028234
0.0278873
0.0277293
0.0277379
0.02779
0.0279049
0.0280846
0.0282933
0.0284734
0.0285786
0.0285962
0.0284449
0.0280716
0.0274952
0.0272188
0.030252
0.072393
0.0322182
0.0307119
0.0296133
0.0288269
0.0282591
0.0278881
0.0277287
0.0277179
0.0278313
0.0279528
0.0281157
0.0283302
0.0285642
0.0287603
0.0288768
0.0288988
0.0287506
0.0283855
0.0278414
0.0277749
0.0322857
0.0771755
0.0322073
0.0307213
0.0296117
0.0288069
0.0282635
0.0279114
0.0277259
0.0277132
0.0278072
0.0279913
0.028161
0.0283597
0.0286
0.028853
0.0290613
0.0291871
0.0292133
0.0290697
0.0287194
0.0282241
0.028435
0.0348286
0.0822334
0.0322085
0.0307157
0.029623
0.0288059
0.0282431
0.0279135
0.0277466
0.0277064
0.0277985
0.0279634
0.0281967
0.0284023
0.0286279
0.0288877
0.0291557
0.0293739
0.0295079
0.0295393
0.0294034
0.0290752
0.0286533
0.0292153
0.0379629
0.0875668
0.0322087
0.0307202
0.0296198
0.0288171
0.028241
0.027891
0.0277456
0.0277242
0.0277879
0.0279509
0.0281651
0.0284352
0.0286678
0.0289141
0.0291894
0.0294697
0.0296966
0.0298388
0.0298771
0.0297534
0.0294572
0.029136
0.0301288
0.041772
0.0931625
0.0321959
0.0307229
0.0296255
0.0288146
0.0282506
0.0278867
0.0277199
0.0277199
0.0278025
0.0279365
0.028149
0.0284001
0.0286982
0.0289514
0.0292141
0.0295024
0.0297936
0.0300288
0.03018
0.0302276
0.0301221
0.0298708
0.029685
0.0311891
0.0463174
0.0989966
0.0321721
0.0307144
0.029629
0.0288199
0.0282472
0.0278936
0.0277126
0.0276908
0.0277948
0.0279479
0.028131
0.0283804
0.0286596
0.0289791
0.0292488
0.0295253
0.0298249
0.0301266
0.0303704
0.0305322
0.0305923
0.0305127
0.0303237
0.0303182
0.0324594
0.0516413
0.105047
0.0321518
0.0306955
0.0296223
0.0288232
0.0282511
0.0278881
0.0277163
0.0276802
0.0277621
0.027937
0.0281391
0.0283588
0.0286364
0.0289372
0.0292739
0.0295573
0.0298461
0.0301564
0.0304685
0.030722
0.0308966
0.0309738
0.0309293
0.0308245
0.0310638
0.0340484
0.0577434
0.111246
0.0321458
0.0306793
0.0296057
0.0288168
0.0282534
0.0278899
0.027708
0.0276804
0.0277485
0.0279008
0.028125
0.0283638
0.0286114
0.0289106
0.0292287
0.0295798
0.0298753
0.0301755
0.0304964
0.0308195
0.0310843
0.0312749
0.0313748
0.0313775
0.031386
0.031956
0.0360797
0.064589
0.117577
0.0321598
0.0306759
0.0295913
0.0288008
0.0282462
0.0278906
0.0277076
0.0276692
0.0277454
0.0278841
0.0280856
0.0283467
0.0286133
0.0288822
0.0291988
0.0295314
0.0298952
0.0302019
0.0305133
0.0308452
0.0311804
0.0314587
0.0316694
0.0317992
0.0318643
0.0320248
0.0330434
0.0387395
0.0721219
0.123956
0.0321651
0.0306906
0.0295886
0.0287866
0.0282295
0.0278816
0.0277064
0.027666
0.0277312
0.0278782
0.028066
0.028304
0.0285931
0.0288811
0.0291671
0.0294982
0.0298434
0.0302189
0.0305365
0.0308595
0.0312032
0.0315523
0.0318474
0.0320827
0.0322515
0.0323983
0.0327584
0.0343781
0.0423101
0.0802692
0.130382
0.0321669
0.0306977
0.0296029
0.0287836
0.0282145
0.0278633
0.027695
0.0276628
0.0277255
0.0278614
0.0280573
0.0282815
0.0285472
0.028858
0.029163
0.0294631
0.0298069
0.0301637
0.0305506
0.0308793
0.0312145
0.0315716
0.0319372
0.0322529
0.0325184
0.0327381
0.0329933
0.0336172
0.0360117
0.0472079
0.0889313
0.136755
0.0321578
0.0307015
0.0296103
0.0287968
0.0282103
0.0278465
0.0276743
0.0276484
0.0277198
0.0278531
0.0280379
0.0282701
0.0285218
0.0288089
0.0291369
0.0294561
0.0297686
0.0301239
0.0304919
0.0308902
0.0312306
0.0315793
0.0319521
0.0323375
0.0326779
0.0329807
0.0332657
0.0336638
0.034639
0.03798
0.0539333
0.097908
0.143014
0.0321457
0.0306953
0.0296145
0.0288036
0.028222
0.0278407
0.027655
0.0276253
0.0277028
0.027845
0.0280271
0.0282481
0.0285078
0.0287807
0.0290848
0.029427
0.0297585
0.0300823
0.0304487
0.0308278
0.031238
0.0315913
0.0319556
0.0323468
0.0327553
0.0331254
0.0334752
0.0338462
0.0344294
0.0358729
0.0404467
0.0627872
0.106664
0.14871
0.0321245
0.0306859
0.0296094
0.0288073
0.0282277
0.0278504
0.0276473
0.0276037
0.0276772
0.0278255
0.0280166
0.0282349
0.0284834
0.028764
0.0290538
0.0293718
0.0297263
0.0300692
0.0304036
0.0307811
0.0311716
0.0315949
0.0319629
0.0323453
0.0327576
0.0331929
0.0335989
0.0340083
0.0344895
0.0353208
0.0373901
0.0437633
0.0733795
0.11499
0.153687
0.0321029
0.0306681
0.0296011
0.0288022
0.02823
0.0278547
0.0276552
0.0275941
0.0276533
0.0277974
0.0279947
0.028222
0.0284678
0.0287372
0.0290345
0.0293381
0.0296682
0.0300339
0.0303874
0.0307326
0.0311214
0.0315242
0.0319623
0.0323474
0.0327501
0.0331866
0.0336533
0.034103
0.0345889
0.0352152
0.0363756
0.0392816
0.048356
0.0848364
0.12275
0.157673
0.0320779
0.0306497
0.0295848
0.0287938
0.0282241
0.0278554
0.0276579
0.0276001
0.0276419
0.0277712
0.0279643
0.0281977
0.0284526
0.0287193
0.0290053
0.0293162
0.0296318
0.0299727
0.030349
0.030713
0.0310693
0.0314702
0.0318871
0.032342
0.032746
0.0331717
0.0336362
0.0341401
0.0346438
0.0352289
0.0360443
0.0376446
0.0416413
0.0547963
0.0973407
0.129893
0.160446
0.0320569
0.030628
0.0295676
0.0287777
0.0282148
0.0278479
0.0276567
0.0276009
0.0276459
0.0277579
0.0279358
0.0281651
0.028426
0.0287019
0.0289851
0.0292846
0.0296073
0.0299335
0.0302847
0.0306714
0.0310463
0.0314142
0.0318289
0.0322619
0.0327353
0.0331605
0.0336122
0.0341092
0.0346575
0.0352294
0.0359422
0.0370094
0.0391952
0.0445612
0.0637853
0.109172
0.136601
0.161905
0.0320403
0.0306099
0.0295475
0.0287609
0.0281983
0.0278372
0.0276475
0.0275979
0.0276449
0.02776
0.0279207
0.0281344
0.0283912
0.028673
0.0289655
0.0292622
0.0295733
0.0299064
0.0302427
0.0306039
0.0310012
0.0313878
0.0317688
0.0321992
0.0326497
0.0331436
0.0335927
0.0340742
0.0346094
0.0352114
0.0358715
0.0367497
0.0381523
0.0411169
0.0483798
0.0757745
0.119561
0.142676
0.161963
0.0320367
0.0305959
0.0295307
0.0287412
0.0281811
0.0278198
0.0276351
0.027587
0.0276402
0.0277575
0.0279209
0.0281174
0.0283583
0.028636
0.0289343
0.0292403
0.0295486
0.02987
0.030213
0.0305591
0.0309305
0.0313391
0.0317387
0.0321347
0.0325821
0.0330518
0.0335686
0.0340449
0.0345607
0.0351412
0.0358093
0.0365834
0.0376781
0.0395318
0.0435267
0.0538244
0.0900676
0.127333
0.148085
0.161181
0.0320452
0.0305935
0.0295177
0.0287246
0.028161
0.0278015
0.0276163
0.027573
0.0276278
0.0277512
0.0279168
0.0281158
0.0283395
0.028601
0.028895
0.0292069
0.0295245
0.0298431
0.0301741
0.0305268
0.0308828
0.0312649
0.0316864
0.0321006
0.0325128
0.0329788
0.0334698
0.0340122
0.0345195
0.0350754
0.0357096
0.0364622
0.0373841
0.0387652
0.041225
0.0465632
0.0617376
0.105246
0.132391
0.152244
0.159451
0.0320655
0.0306021
0.0295155
0.0287117
0.0281437
0.0277805
0.0275965
0.0275526
0.027612
0.0277373
0.027909
0.0281102
0.028336
0.0285803
0.0288579
0.0291654
0.0294888
0.0298167
0.030145
0.0304854
0.0308477
0.0312142
0.0316086
0.0320444
0.0324744
0.0329044
0.0333908
0.0339055
0.0344769
0.0350199
0.0356229
0.0363225
0.0371841
0.0382981
0.040062
0.0433333
0.0504535
0.0727668
0.119096
0.136816
0.155217
0.157453
0.03209
0.0306215
0.0295235
0.028709
0.0281303
0.0277622
0.0275741
0.0275311
0.0275899
0.0277198
0.0278937
0.0281008
0.0283289
0.028575
0.0288355
0.0291263
0.0294452
0.0297787
0.0301162
0.0304538
0.0308037
0.0311763
0.0315547
0.031963
0.0324141
0.0328613
0.0333105
0.0338196
0.0343609
0.0349654
0.03555
0.0362087
0.0369902
0.0379932
0.0393602
0.0416395
0.045982
0.055877
0.0876442
0.129909
0.141281
0.156596
0.155019
0.0321128
0.0306448
0.0295416
0.0287161
0.0281268
0.0277475
0.0275542
0.0275072
0.0275667
0.0276961
0.0278745
0.0280842
0.0283179
0.0285663
0.0288283
0.029102
0.0294039
0.0297329
0.0300759
0.0304227
0.0307699
0.0311297
0.0315139
0.0319057
0.0323287
0.0327965
0.0332623
0.0337329
0.0342672
0.0348385
0.0354812
0.0361144
0.0368404
0.0377275
0.0389135
0.0406178
0.0435916
0.0493243
0.0637911
0.105156
0.137084
0.145136
0.157599
0.152452
0.0321284
0.0306665
0.0295635
0.0287329
0.0281328
0.0277428
0.0275381
0.0274853
0.0275413
0.0276713
0.0278493
0.0280634
0.0282999
0.0285538
0.0288181
0.0290929
0.0293777
0.0296896
0.0300279
0.03038
0.0307362
0.0310933
0.0314645
0.0318618
0.0322679
0.0327068
0.0331926
0.033679
0.0341732
0.0347359
0.0353415
0.0360283
0.0367192
0.0375289
0.0385526
0.0399783
0.0421372
0.0460361
0.0536209
0.0751165
0.120832
0.140535
0.14804
0.158131
0.149721
0.032138
0.0306815
0.0295839
0.0287533
0.0281481
0.0277478
0.0275323
0.0274678
0.0275179
0.0276445
0.0278229
0.0280366
0.0282776
0.0285345
0.0288041
0.0290813
0.0293669
0.0296615
0.0299824
0.0303298
0.0306911
0.0310572
0.0314256
0.0318095
0.0322208
0.0326422
0.0330984
0.0336039
0.034113
0.0346336
0.0352284
0.0358734
0.0366119
0.0373723
0.0382895
0.0394898
0.0412337
0.0440077
0.0491097
0.0596659
0.0912013
0.133213
0.141949
0.150386
0.15829
0.147456
0.0321395
0.0306913
0.0295982
0.0287724
0.0281673
0.0277619
0.0275361
0.0274608
0.0274989
0.0276194
0.0277947
0.0280087
0.0282493
0.0285106
0.0287835
0.0290658
0.0293537
0.0296489
0.0299526
0.0302822
0.0306385
0.0310096
0.0313869
0.031768
0.0321654
0.0325917
0.0330298
0.0335048
0.0340319
0.0345662
0.0351164
0.0357479
0.0364386
0.0372384
0.0380854
0.0391412
0.0405722
0.0427439
0.0463421
0.0529669
0.0686654
0.110443
0.140959
0.143423
0.152259
0.158
0.14556
0.032129
0.0306936
0.0296074
0.0287858
0.0281853
0.0277798
0.027549
0.0274635
0.0274905
0.027599
0.027768
0.0279791
0.02822
0.0284809
0.0287582
0.0290437
0.0293366
0.029634
0.0299381
0.0302504
0.0305888
0.0309546
0.0313368
0.0317266
0.032121
0.032533
0.0329755
0.0334317
0.0339273
0.0344784
0.0350408
0.0356248
0.0362985
0.0370427
0.0379165
0.0388745
0.0401089
0.0418459
0.0445961
0.0492713
0.0580668
0.0816333
0.128131
0.143515
0.144656
0.153056
0.157491
0.143895
0.0321067
0.030685
0.0296099
0.0287944
0.0281977
0.0277967
0.027566
0.0274753
0.0274922
0.0275893
0.0277462
0.0279509
0.028189
0.0284502
0.028727
0.029017
0.0293133
0.0296154
0.0299216
0.0302341
0.030555
0.0309027
0.0312794
0.0316738
0.0320769
0.0324857
0.0329132
0.0333734
0.0338494
0.0343678
0.0349455
0.0355397
0.0361622
0.0368849
0.0376924
0.0386593
0.0397599
0.0412272
0.0433756
0.0469048
0.0529444
0.0655505
0.100345
0.139061
0.143976
0.146235
0.153451
0.156943
0.142135
0.0320796
0.0306658
0.0296021
0.0287964
0.0282054
0.0278083
0.0275818
0.0274914
0.0275029
0.02759
0.0277353
0.0279277
0.0281593
0.0284179
0.0286948
0.0289845
0.0292851
0.0295908
0.0299015
0.0302159
0.0305368
0.030867
0.0312251
0.0316139
0.0320213
0.0324385
0.0328627
0.0333073
0.0337867
0.0342846
0.0348281
0.0354357
0.0360661
0.0367329
0.0375132
0.0383976
0.0394839
0.040768
0.0425441
0.0452506
0.049805
0.0577065
0.0767584
0.12095
0.143975
0.144714
0.147317
0.153984
0.156153
0.140437
0.0320451
0.0306419
0.0295844
0.0287889
0.0282068
0.0278151
0.0275927
0.0275064
0.0275182
0.0275997
0.027735
0.0279155
0.0281347
0.0283867
0.0286613
0.0289509
0.0292512
0.0295611
0.0298754
0.0301942
0.030517
0.0308468
0.0311873
0.0315572
0.0319587
0.03238
0.0328124
0.0332533
0.0337163
0.0342169
0.034739
0.0353107
0.0359521
0.0366239
0.0373424
0.0381911
0.0391726
0.0404122
0.041936
0.0441282
0.0475901
0.053444
0.0644308
0.0938108
0.136447
0.14574
0.145401
0.147964
0.154376
0.155197
0.138795
0.0320119
0.0306112
0.0295624
0.0287718
0.028199
0.0278157
0.0275986
0.0275166
0.0275326
0.0276143
0.0277437
0.0279142
0.0281213
0.0283608
0.0286286
0.028916
0.0292162
0.0295258
0.0298443
0.0301667
0.0304937
0.0308252
0.0311653
0.0315173
0.0318995
0.0323146
0.0327507
0.0331995
0.0336585
0.0341418
0.0346657
0.035215
0.0358183
0.0364982
0.0372181
0.0379974
0.0389302
0.0400362
0.0414735
0.0433164
0.0460745
0.0505295
0.058093
0.0747582
0.115119
0.143627
0.14587
0.145778
0.148407
0.154881
0.153684
0.137415
0.0319803
0.0305818
0.0295339
0.0287505
0.0281819
0.0278073
0.0275985
0.0275216
0.0275421
0.0276279
0.0277575
0.0279219
0.0281189
0.0283461
0.0286012
0.0288819
0.02918
0.0294895
0.0298077
0.0301342
0.0304648
0.0308004
0.0311421
0.0314933
0.0318575
0.0322528
0.0326824
0.0331345
0.0336011
0.0340798
0.0345854
0.0351354
0.035715
0.0363542
0.0370786
0.0378545
0.0387071
0.0397471
0.0410126
0.0427091
0.0449836
0.0485065
0.0542135
0.06456
0.0902449
0.133575
0.146197
0.146185
0.145892
0.14915
0.154918
0.151951
0.136601
0.0319542
0.0305537
0.0295064
0.0287231
0.0281605
0.0277897
0.0275892
0.0275206
0.0275463
0.0276367
0.0277704
0.0279349
0.0281257
0.0283426
0.0285853
0.0288532
0.0291445
0.029452
0.0297699
0.0300962
0.0304307
0.03077
0.0311155
0.0314683
0.0318315
0.0322085
0.0326179
0.0330631
0.0335324
0.0340183
0.0345189
0.0350492
0.0356282
0.0362423
0.0369227
0.0376986
0.0385412
0.0394856
0.0406627
0.0421351
0.0441773
0.0470394
0.0515601
0.0589057
0.0745632
0.111403
0.143491
0.147198
0.146222
0.145882
0.150193
0.154826
0.149504
0.136217
0.0319303
0.0305304
0.0294801
0.0286965
0.0281333
0.0277677
0.0275708
0.0275103
0.0275443
0.0276401
0.0277786
0.0279471
0.0281379
0.0283484
0.0285808
0.0288361
0.0291144
0.029415
0.0297311
0.030057
0.0303913
0.0307345
0.0310837
0.0314401
0.0318046
0.0321804
0.0325712
0.0329957
0.0334577
0.0339458
0.0344529
0.0349774
0.0355354
0.0361472
0.0368007
0.0375286
0.038365
0.0392898
0.040351
0.0417046
0.0434499
0.0459605
0.049612
0.0553768
0.065458
0.0894211
0.132065
0.146641
0.147056
0.146072
0.146078
0.151107
0.154458
0.147255
0.136014
0.0319119
0.0305093
0.0294584
0.028671
0.0281068
0.0277398
0.0275477
0.0274909
0.0275331
0.0276371
0.0277811
0.0279547
0.0281494
0.0283597
0.0285855
0.0288304
0.029096
0.0293836
0.0296927
0.0300168
0.0303507
0.0306936
0.0310466
0.0314067
0.0317746
0.0321516
0.032541
0.0329464
0.0333874
0.0338676
0.0343761
0.0349066
0.0354578
0.0360468
0.0366959
0.0373947
0.0381782
0.0390878
0.0401168
0.041327
0.0429109
0.0450233
0.048169
0.0528374
0.0602737
0.0756922
0.110684
0.143413
0.147635
0.146899
0.146059
0.146362
0.151861
0.154065
0.144792
0.135868
0.0318985
0.0304931
0.0294387
0.0286499
0.0280813
0.0277127
0.0275187
0.0274667
0.0275126
0.0276251
0.0277774
0.0279564
0.0281563
0.0283705
0.0285961
0.028834
0.0290893
0.0293639
0.0296599
0.029977
0.0303091
0.0306515
0.0310043
0.0313681
0.0317396
0.0321198
0.0325101
0.0329139
0.0333353
0.0337939
0.0342941
0.0348251
0.0353815
0.0359625
0.0365867
0.0372785
0.0380301
0.0388794
0.0398812
0.0410427
0.0424455
0.044336
0.0469475
0.0509378
0.0568567
0.0672074
0.0912036
0.132179
0.147167
0.147577
0.14664
0.14601
0.147001
0.152256
0.153431
0.142457
0.135762
0.0318922
0.0304813
0.0294235
0.0286308
0.0280601
0.0276868
0.0274904
0.0274366
0.0274871
0.0276037
0.0277644
0.0279518
0.0281573
0.0283768
0.028606
0.0288437
0.0290918
0.029356
0.0296389
0.0299428
0.0302679
0.0306086
0.0309606
0.0313241
0.0316993
0.032083
0.0324763
0.0328809
0.0333004
0.0337391
0.034217
0.0347389
0.0352948
0.03588
0.0364948
0.037159
0.0379003
0.038714
0.0396445
0.0407637
0.0420948
0.0437514
0.046057
0.0493428
0.0543981
0.0621003
0.0780861
0.11282
0.144124
0.147875
0.147321
0.146502
0.146015
0.147607
0.152805
0.15249
0.140375
0.135685
0.031891
0.0304762
0.0294125
0.028616
0.028041
0.0276648
0.0274638
0.0274071
0.027456
0.0275772
0.0277422
0.0279381
0.0281519
0.028377
0.0286116
0.0288529
0.0291006
0.0293576
0.0296299
0.0299205
0.0302324
0.0305659
0.0309163
0.031279
0.0316538
0.032041
0.0324377
0.032845
0.033265
0.0337015
0.034159
0.034658
0.035204
0.0357875
0.0364053
0.0370585
0.0377689
0.0385679
0.039457
0.0404907
0.0417592
0.0433112
0.0453084
0.0481782
0.0523425
0.0587125
0.0697383
0.0950078
0.134328
0.147531
0.147749
0.147201
0.146327
0.145956
0.148681
0.152819
0.150889
0.138748
0.135629
0.0318974
0.0304755
0.0294077
0.0286051
0.0280259
0.0276451
0.0274409
0.0273794
0.0274254
0.027545
0.0277147
0.027915
0.0281374
0.0283709
0.0286111
0.0288578
0.029109
0.0293655
0.0296303
0.0299103
0.0302088
0.030529
0.0308721
0.0312331
0.031607
0.0319937
0.0323938
0.0328044
0.0332269
0.0336636
0.0341186
0.0345967
0.0351189
0.0356917
0.0363062
0.0369608
0.037658
0.0384222
0.0392905
0.0402746
0.0414392
0.0429001
0.0447456
0.0472061
0.0508324
0.0560753
0.0644878
0.0818161
0.117783
0.145346
0.14785
0.147613
0.146974
0.146137
0.146013
0.149813
0.152896
0.148453
0.137539
0.135589
0.0319081
0.0304817
0.0294072
0.0286002
0.0280148
0.0276294
0.02742
0.0273552
0.0273964
0.0275133
0.0276815
0.0278865
0.0281134
0.0283555
0.0286042
0.0288566
0.0291133
0.029373
0.0296373
0.0299096
0.0301974
0.030504
0.0308337
0.0311874
0.0315596
0.0319452
0.0323447
0.0327585
0.0331842
0.0336231
0.034078
0.0345531
0.0350539
0.035602
0.0362047
0.0368542
0.0375509
0.0382993
0.039127
0.0400817
0.0411862
0.0425183
0.0442322
0.046475
0.0495613
0.0541514
0.0608404
0.0732791
0.100783
0.138173
0.14771
0.147817
0.14747
0.146777
0.146031
0.146331
0.150795
0.152589
0.145639
0.136713
0.13556
0.0319233
0.0304919
0.0294129
0.0285994
0.0280093
0.0276176
0.0274034
0.0273332
0.0273711
0.0274833
0.0276487
0.0278523
0.028084
0.0283309
0.028588
0.0288489
0.0291112
0.0293765
0.029644
0.0299157
0.0301956
0.0304915
0.0308075
0.0311476
0.0315123
0.0318962
0.0322944
0.0327075
0.0331362
0.0335781
0.0340348
0.0345095
0.0350069
0.0355329
0.0361098
0.0367463
0.0374358
0.038181
0.0389894
0.0398955
0.0409592
0.042217
0.0437682
0.0458208
0.0486028
0.0525084
0.0582843
0.0675564
0.0871145
0.124863
0.146479
0.1479
0.147723
0.147342
0.146472
0.145965
0.147253
0.151538
0.152257
0.142822
0.136169
0.135541
0.0319392
0.0305062
0.0294224
0.0286046
0.0280081
0.0276113
0.0273909
0.0273156
0.0273481
0.0274567
0.0276177
0.0278186
0.0280489
0.0283005
0.0285627
0.028832
0.0291028
0.0293737
0.0296468
0.0299215
0.0302006
0.0304885
0.0307937
0.0311199
0.031471
0.0318474
0.0322438
0.0326554
0.0330831
0.0335277
0.0339873
0.0344635
0.03496
0.035482
0.0360361
0.0366456
0.0373205
0.038056
0.038858
0.0397393
0.0407442
0.041946
0.0434019
0.0452448
0.0477574
0.0512613
0.0561722
0.063724
0.0782512
0.10859
0.142168
0.147775
0.147865
0.147639
0.147103
0.146286
0.146054
0.148063
0.152066
0.150745
0.140318
0.135862
0.13553
0.0319563
0.0305213
0.0294358
0.0286133
0.0280125
0.0276094
0.0273836
0.0273021
0.0273294
0.0274328
0.02759
0.0277866
0.0280142
0.0282646
0.0285315
0.0288058
0.0290852
0.0293645
0.0296432
0.0299235
0.0302055
0.0304926
0.0307897
0.031105
0.0314419
0.0318044
0.0321932
0.032603
0.033029
0.0334725
0.0339345
0.0344132
0.0349107
0.0354314
0.0359808
0.0365666
0.0372129
0.0379321
0.0387212
0.0395912
0.0405644
0.041694
0.043073
0.0447903
0.0470296
0.0501607
0.0545814
0.0608315
0.0718149
0.0953009
0.132641
0.14718
0.1478
0.14781
0.147499
0.146888
0.146142
0.146299
0.149536
0.151997
0.148806
0.138387
0.135703
0.135524
0.0319728
0.0305373
0.02945
0.0286259
0.0280205
0.0276132
0.0273807
0.0272941
0.027315
0.0274131
0.0275651
0.0277578
0.0279813
0.0282289
0.0284947
0.0287739
0.0290583
0.0293461
0.0296331
0.0299191
0.0302067
0.0304966
0.0307928
0.0310997
0.0314256
0.0317738
0.0321487
0.0325507
0.0329746
0.0334162
0.0338768
0.0343576
0.0348574
0.0353785
0.035926
0.0365063
0.0371281
0.0378167
0.0385871
0.0394398
0.040395
0.0414842
0.0427728
0.0443837
0.0464528
0.0492282
0.0531627
0.058708
0.0673169
0.0848255
0.119167
0.14518
0.147697
0.147748
0.147709
0.147345
0.146661
0.146168
0.14677
0.150303
0.152013
0.145818
0.137088
0.135613
0.13552
0.0319889
0.0305529
0.0294652
0.0286393
0.0280323
0.0276206
0.0273838
0.0272904
0.0273061
0.0273978
0.0275445
0.027732
0.0279515
0.0281951
0.0284582
0.0287362
0.0290255
0.0293185
0.029614
0.0299083
0.0302015
0.030497
0.0307958
0.0311019
0.0314192
0.0317563
0.0321165
0.0325044
0.0329206
0.0333598
0.0338182
0.0342974
0.0347988
0.0353218
0.0358692
0.0364467
0.0370619
0.0377249
0.0384625
0.0392928
0.0402245
0.0412875
0.0425241
0.0440197
0.0459401
0.0484864
0.0519776
0.0568847
0.0641576
0.0776419
0.105445
0.13976
0.147562
0.14767
0.147656
0.147596
0.147254
0.146549
0.146168
0.147391
0.151186
0.151199
0.142656
0.136315
0.135564
0.135519
0.0320028
0.030568
0.0294799
0.0286537
0.028045
0.0276315
0.0273906
0.0272925
0.0273017
0.0273879
0.0275283
0.0277105
0.0279247
0.0281643
0.0284235
0.0286988
0.028987
0.0292849
0.0295856
0.0298883
0.0301898
0.030491
0.0307955
0.031104
0.0314203
0.0317486
0.0320976
0.0324707
0.0328726
0.0333038
0.0337597
0.0342362
0.0347358
0.0352599
0.0358086
0.0363853
0.0369968
0.0376517
0.0383624
0.0391572
0.040061
0.0410929
0.0422923
0.0437192
0.0454895
0.0478303
0.0510167
0.0553989
0.0616484
0.0723143
0.0945337
0.130447
0.146885
0.147696
0.147598
0.147542
0.147513
0.147206
0.146509
0.146324
0.148524
0.151201
0.149813
0.139831
0.135891
0.135538
0.135518
0.0320158
0.0305811
0.0294943
0.0286676
0.0280586
0.0276436
0.027401
0.0272987
0.027303
0.0273828
0.0275176
0.0276934
0.0279023
0.0281367
0.0283917
0.0286633
0.0289487
0.0292457
0.0295513
0.0298593
0.0301692
0.0304785
0.0307887
0.0311028
0.0314215
0.0317487
0.0320887
0.0324504
0.0328372
0.033254
0.0337016
0.0341754
0.0346719
0.0351938
0.035743
0.0363204
0.0369301
0.0375802
0.0382809
0.0390473
0.0399115
0.0409081
0.0420665
0.0434408
0.0451189
0.047262
0.0501671
0.0541747
0.0596952
0.0684013
0.085622
0.118678
0.144726
0.147687
0.147659
0.147498
0.147444
0.147492
0.147102
0.146609
0.146777
0.14956
0.151125
0.147003
0.137817
0.135679
0.135526
0.135518
0.0320296
0.0305934
0.0295067
0.0286812
0.0280718
0.0276564
0.0274123
0.0273084
0.0273086
0.0273836
0.0275118
0.0276819
0.0278844
0.0281134
0.0283632
0.0286306
0.0289124
0.0292065
0.0295112
0.0298241
0.0301393
0.030457
0.0307754
0.0310952
0.0314194
0.0317488
0.0320877
0.0324401
0.0328154
0.0332169
0.0336498
0.0341152
0.0346085
0.0351268
0.0356734
0.0362506
0.0368602
0.0375075
0.0382018
0.038956
0.0397891
0.0407405
0.0418546
0.0431743
0.0447783
0.0467943
0.0494405
0.0530837
0.0580868
0.065467
0.0793176
0.106901
0.139828
0.147551
0.147733
0.14756
0.147426
0.147425
0.147454
0.147038
0.146741
0.147312
0.150547
0.150988
0.143539
0.136596
0.135584
0.135521
0.135517
0.0320417
0.0306065
0.0295182
0.0286929
0.0280847
0.0276689
0.0274244
0.0273192
0.0273176
0.0273885
0.0275119
0.0276755
0.0278722
0.0280947
0.0283391
0.0286012
0.0288788
0.0291694
0.0294713
0.0297833
0.0301033
0.0304264
0.0307531
0.031081
0.031411
0.0317459
0.0320867
0.0324379
0.0328037
0.0331935
0.0336109
0.0340614
0.0345459
0.0350607
0.0356031
0.0361771
0.0367857
0.037432
0.0381222
0.0388679
0.0396855
0.0406018
0.0416637
0.0429272
0.0444571
0.0463681
0.0488428
0.0521589
0.0566961
0.0631876
0.0743978
0.097115
0.132043
0.146897
0.147716
0.14763
0.147469
0.147425
0.147428
0.147369
0.146788
0.146773
0.148509
0.150865
0.149416
0.140222
0.135968
0.135543
0.135518
0.135517
0.0320521
0.0306182
0.0295308
0.0287039
0.0280959
0.0276813
0.0274364
0.0273308
0.0273279
0.0273969
0.0275163
0.0276749
0.027865
0.0280816
0.0283197
0.0285763
0.0288486
0.029135
0.0294334
0.0297426
0.0300617
0.0303896
0.0307217
0.0310579
0.0313959
0.0317365
0.0320828
0.0324359
0.0328003
0.0331804
0.0335859
0.0340205
0.03449
0.0349955
0.0355339
0.0361032
0.0367079
0.0373521
0.0380401
0.0387801
0.0395864
0.0404827
0.0415041
0.0427062
0.0441636
0.0459725
0.0483004
0.05139
0.0555381
0.0613064
0.0706521
0.0894247
0.122269
0.145217
0.147613
0.147622
0.147506
0.147466
0.147482
0.147449
0.147069
0.146552
0.146924
0.149421
0.150851
0.146571
0.137844
0.135685
0.135526
0.135518
0.135517
0.0320617
0.0306283
0.0295419
0.0287159
0.0281063
0.027692
0.0274484
0.0273423
0.0273391
0.0274067
0.0275241
0.0276788
0.0278638
0.0280738
0.0283058
0.0285561
0.0288229
0.029104
0.0293982
0.0297039
0.0300202
0.0303472
0.030684
0.0310257
0.0313719
0.0317205
0.0320725
0.0324309
0.032797
0.0331757
0.0335713
0.0339938
0.034447
0.0349373
0.035466
0.0360306
0.0366299
0.0372694
0.037954
0.0386904
0.0394886
0.0403698
0.0413651
0.0425196
0.0439024
0.0456164
0.0478038
0.0506902
0.0545653
0.0597807
0.0677656
0.0830122
0.112289
0.141786
0.147431
0.147572
0.147502
0.147464
0.147522
0.14764
0.147476
0.146856
0.146367
0.14741
0.150356
0.149988
0.142757
0.136489
0.135573
0.13552
0.135517
0.135517
0.0320695
0.0306376
0.0295516
0.0287264
0.0281178
0.027702
0.0274588
0.0273538
0.0273502
0.0274175
0.0275334
0.027686
0.0278671
0.028072
0.0282973
0.0285415
0.0288019
0.0290774
0.0293663
0.0296679
0.0299808
0.0303049
0.0306408
0.0309872
0.0313389
0.0316956
0.0320555
0.0324196
0.032791
0.0331712
0.0335652
0.0339775
0.0344185
0.0348921
0.0354052
0.0359596
0.0365535
0.0371868
0.0378658
0.0385971
0.0393898
0.0402593
0.0412347
0.042355
0.0436801
0.0453009
0.0473622
0.0500572
0.0536692
0.0584955
0.0654878
0.0781655
0.103212
0.13637
0.147051
0.147518
0.147471
0.147432
0.147505
0.147647
0.147814
0.147449
0.14676
0.146558
0.1486
0.150369
0.148922
0.139324
0.135861
0.135534
0.135518
0.135517
0.135517
0.0320752
0.0306451
0.0295606
0.0287357
0.0281277
0.0277127
0.0274682
0.0273638
0.0273611
0.0274282
0.0275438
0.0276948
0.0278738
0.0280748
0.0282948
0.0285323
0.0287866
0.0290557
0.029339
0.0296352
0.0299439
0.0302647
0.0305976
0.0309431
0.0312994
0.0316617
0.0320296
0.0324016
0.0327786
0.0331639
0.0335593
0.0339698
0.0344004
0.0348616
0.0353577
0.0358961
0.0364791
0.037106
0.0377778
0.0385023
0.0392881
0.040149
0.0411085
0.0422021
0.0434819
0.0450308
0.0469718
0.0494999
0.0528647
0.0573478
0.0636554
0.0743459
0.0956339
0.129247
0.146261
0.147475
0.147446
0.147402
0.147457
0.147599
0.147778
0.147861
0.147386
0.146806
0.147159
0.149697
0.150475
0.144571
0.13712
0.135621
0.135522
0.135518
0.135517
0.135517
0.0320784
0.030651
0.0295679
0.0287442
0.0281365
0.0277222
0.0274782
0.0273729
0.0273706
0.0274387
0.0275541
0.0277048
0.0278821
0.0280809
0.0282971
0.0285292
0.0287768
0.0290396
0.0293165
0.029607
0.0299105
0.030227
0.0305566
0.030899
0.0312545
0.0316214
0.0319948
0.0323747
0.0327595
0.0331504
0.0335507
0.0339625
0.0343911
0.0348416
0.035325
0.035846
0.0364126
0.0370277
0.0376922
0.0384083
0.0391857
0.0400368
0.0409838
0.0420559
0.0432998
0.0447882
0.0466361
0.0490093
0.0521605
0.056339
0.0620844
0.0713201
0.0895611
0.121095
0.144646
0.147434
0.14743
0.14739
0.147418
0.147525
0.147684
0.147791
0.147786
0.147093
0.146983
0.148162
0.150343
0.148222
0.140785
0.136056
0.135544
0.135518
0.135517
0.135517
0.135517
0.0320795
0.0306544
0.0295736
0.0287513
0.0281446
0.0277304
0.0274871
0.0273824
0.0273797
0.0274478
0.0275642
0.0277147
0.0278916
0.0280887
0.0283027
0.0285309
0.0287729
0.0290291
0.0292997
0.0295838
0.0298815
0.0301927
0.030518
0.0308571
0.0312095
0.0315755
0.0319535
0.0323389
0.0327315
0.0331301
0.0335359
0.0339526
0.0343822
0.0348306
0.0353029
0.0358108
0.0363597
0.0369579
0.0376095
0.0383171
0.0390846
0.0399249
0.040858
0.0419132
0.043128
0.0445675
0.046333
0.0485865
0.0515387
0.0554606
0.0607484
0.0688684
0.0842707
0.112959
0.141671
0.147352
0.147432
0.147381
0.147422
0.147506
0.147621
0.147667
0.147707
0.14738
0.146923
0.147096
0.149272
0.150176
0.14653
0.137676
0.135664
0.135523
0.135518
0.135517
0.135517
0.135517
0.032078
0.030656
0.0295771
0.0287568
0.0281513
0.027738
0.0274948
0.0273906
0.0273886
0.0274566
0.0275729
0.0277243
0.0279012
0.0280978
0.02831
0.0285359
0.0287741
0.0290246
0.0292885
0.0295663
0.0298576
0.0301629
0.0304829
0.0308176
0.0311667
0.0315295
0.0319067
0.0322966
0.0326947
0.033101
0.0335144
0.0339364
0.0343707
0.0348198
0.0352899
0.0357864
0.0363218
0.0369018
0.0375359
0.0382292
0.0389867
0.0398151
0.0407339
0.0417704
0.0429622
0.0443618
0.0460607
0.048202
0.0509976
0.0546843
0.0595915
0.0668419
0.0800477
0.105448
0.137287
0.147058
0.147427
0.147354
0.14741
0.147501
0.147621
0.14763
0.147631
0.147497
0.147075
0.146479
0.147589
0.14984