/*--------------------------------*- C++ -*----------------------------------*\
| =========                 |                                                 |
| \\      /  F ield         | OpenFOAM: The Open Source CFD Toolbox           |
|  \\    /   O peration     | Version:  v2012                                 |
|   \\  /    A nd           | Website:  www.openfoam.com                      |
|    \\/     M anipulation  |                                                 |
\*---------------------------------------------------------------------------*/
FoamFile
{
    version     2.0;
    format      ascii;
    class       volScalarField;
    location    "3900";
    object      T;
}
// * * * * * * * * * * * * * * * * * * * * * * * * * * * * * * * * * * * * * //

dimensions      [0 0 0 1 0 0 0];


internalField   nonuniform List<scalar> 
29502
(
355.868
305.9
405.058
305.166
324.85
416.437
305.481
322.53
341.588
417.065
305.53
322.978
337.527
356.433
409.833
305.483
322.811
337.738
350.342
369.629
397.854
305.398
322.489
337.068
349.926
361.007
381.303
382.963
305.276
322.157
336.323
348.512
359.545
369.449
391.5
366.35
305.152
321.773
335.652
347.234
357.168
366.531
375.638
400.219
348.801
305.021
321.406
334.953
346.186
355.271
363.019
370.987
379.715
407.417
330.85
304.902
321.057
334.337
345.164
353.832
360.455
366.276
373.28
381.989
413.024
312.87
304.798
320.739
333.767
344.319
352.508
358.645
363.054
367.428
373.925
382.822
416.921
295.114
304.717
320.468
333.283
343.56
351.475
357.062
360.918
363.611
367.068
373.398
382.514
418.949
277.789
304.646
320.27
332.873
342.95
350.573
355.886
359.111
361.2
362.745
365.696
372.035
381.263
418.909
261.027
304.558
320.09
332.576
342.436
349.879
354.883
357.835
359.208
360.103
360.952
363.639
370.036
379.216
416.582
244.926
304.486
319.876
332.314
342.067
349.301
354.151
356.769
357.866
357.96
358.121
358.546
361.094
367.537
376.468
411.759
229.539
304.422
319.705
332.009
341.748
348.894
353.544
356.031
356.76
356.574
355.854
355.561
355.717
358.199
364.636
373.066
404.239
214.921
304.38
319.548
331.77
341.39
348.546
353.134
355.427
356.035
355.445
354.438
353.191
352.606
352.6
355.05
361.399
369.039
393.884
201.089
304.331
319.451
331.555
341.115
348.176
352.788
355.039
355.45
354.74
353.295
351.756
350.151
349.389
349.284
351.705
357.871
364.37
380.414
188.037
304.274
319.337
331.425
340.872
347.896
352.441
354.718
355.096
354.179
352.612
350.604
348.704
346.863
345.998
345.831
348.195
354.083
358.996
364.029
175.775
304.228
319.205
331.271
340.729
347.654
352.183
354.412
354.811
353.863
352.077
349.946
347.547
345.41
343.417
342.49
342.274
344.532
350.031
352.834
344.913
164.28
304.19
319.102
331.092
340.558
347.514
351.966
354.198
354.558
353.62
351.802
349.438
346.913
344.252
341.963
339.868
338.901
338.632
340.722
345.687
345.795
323.419
153.528
304.151
319.011
330.957
340.36
347.348
351.843
354.025
354.396
353.419
351.599
349.202
346.433
343.642
340.807
338.421
336.254
335.25
334.911
336.761
341.007
337.797
300.081
143.511
304.121
318.922
330.839
340.214
347.154
351.703
353.933
354.274
353.308
351.445
349.037
346.235
343.188
340.22
337.269
334.819
332.596
331.548
331.109
332.638
335.935
328.81
275.613
134.191
304.095
318.856
330.721
340.09
347.02
351.536
353.831
354.219
353.236
351.382
348.928
346.108
343.028
339.793
336.705
333.675
331.179
328.906
327.797
327.212
328.323
330.401
318.891
250.823
125.56
304.063
318.802
330.639
339.963
346.91
351.43
353.705
354.159
353.221
351.357
348.91
346.04
342.937
339.668
336.304
333.135
330.049
327.514
325.185
323.994
323.206
323.778
324.311
308.102
226.572
117.588
304.03
318.731
330.572
339.881
346.792
351.351
353.638
354.079
353.204
351.384
348.929
346.065
342.907
339.611
336.214
332.761
329.533
326.401
323.829
321.432
320.129
319.068
318.953
317.544
296.098
203.607
110.254
304.001
318.657
330.481
339.814
346.724
351.259
353.598
354.053
353.171
351.407
348.997
346.126
342.972
339.617
336.191
332.705
329.186
325.913
322.74
320.123
317.64
316.185
314.77
313.783
309.94
282.329
182.504
103.539
303.978
318.592
330.386
339.719
346.667
351.214
353.542
354.057
353.182
351.414
349.057
346.232
343.072
339.719
336.23
332.713
329.163
325.594
322.281
319.065
316.391
313.795
312.142
310.276
308.192
301.306
266.477
163.594
97.4131
303.959
318.545
330.306
339.619
346.582
351.177
353.525
354.038
353.229
351.463
349.102
346.328
343.214
339.856
336.367
332.784
329.203
325.605
321.992
318.639
315.373
312.624
309.886
307.977
305.54
302.081
291.432
248.218
146.951
91.8476
303.941
318.51
330.25
339.539
346.492
351.114
353.512
354.056
353.247
351.546
349.185
346.408
343.343
340.032
336.538
332.954
329.305
325.675
322.037
318.382
314.985
311.657
308.808
305.893
303.658
300.506
295.333
280.16
227.296
132.492
86.7984
303.922
318.469
330.212
339.486
346.424
351.046
353.481
354.071
353.297
351.597
349.303
346.524
343.456
340.192
336.746
333.157
329.506
325.807
322.139
318.462
314.763
311.312
307.902
304.926
301.794
299.15
295.105
287.808
267.511
203.739
120.037
82.2235
303.9
318.428
330.164
339.456
346.384
351.002
353.443
354.076
353.342
351.68
349.385
346.674
343.603
340.336
336.936
333.396
329.74
326.039
322.301
318.597
314.881
311.129
307.608
304.092
300.96
297.565
294.406
289.25
279.347
253.725
178.356
109.488
78.2171
303.879
318.38
330.115
339.411
346.37
350.982
353.431
354.071
353.381
351.755
349.498
346.786
343.784
340.511
337.107
333.615
330.009
326.303
322.562
318.79
315.049
311.287
307.468
303.857
300.215
296.895
293.174
289.373
282.832
269.763
238.346
153.249
100.887
74.7827
303.857
318.335
330.055
339.366
346.336
350.99
353.436
354.088
353.406
351.823
349.602
346.927
343.923
340.722
337.31
333.813
330.255
326.6
322.856
319.08
315.274
311.49
307.668
303.766
300.049
296.259
292.712
288.582
283.983
275.718
258.844
220.378
131.183
93.9183
71.9271
303.835
318.286
330.001
339.306
346.305
350.973
353.467
354.116
353.452
351.877
349.698
347.058
344.091
340.887
337.549
334.041
330.478
326.873
323.18
319.402
315.592
311.748
307.909
304.013
300.015
296.174
292.208
288.388
283.744
278.15
267.75
246.414
199.537
113.585
88.3038
69.6638
303.815
318.242
329.942
339.253
346.256
350.963
353.471
354.171
353.504
351.95
349.777
347.18
344.246
341.08
337.738
334.307
330.731
327.121
323.48
319.755
315.943
312.096
308.201
304.294
300.313
296.206
292.219
288.043
283.892
278.601
271.769
258.754
232.504
176.136
99.0975
83.6497
67.992
303.794
318.198
329.889
339.195
346.215
350.933
353.484
354.199
353.584
352.025
349.876
347.283
344.393
341.258
337.954
334.519
331.021
327.397
323.75
320.08
316.323
312.476
308.581
304.623
300.639
296.561
292.327
288.171
283.745
279.178
273.083
264.707
248.547
217.34
151.335
88.5569
79.7494
66.903
303.777
318.156
329.834
339.143
346.165
350.914
353.479
354.237
353.635
352.129
349.972
347.405
344.517
341.426
338.154
334.757
331.256
327.711
324.049
320.373
316.674
312.884
308.99
305.035
301.006
296.937
292.748
288.368
284.012
279.287
274.191
267.099
256.804
236.957
200.289
127.403
81.0639
76.4102
66.3457
303.765
318.119
329.783
339.087
346.12
350.875
353.478
354.253
353.695
352.2
350.099
347.521
344.661
341.571
338.343
334.978
331.515
327.968
324.388
320.694
316.991
313.261
309.426
305.475
301.452
297.345
293.179
288.864
284.314
279.72
274.631
268.865
260.538
247.875
223.863
180.114
107.134
76.438
73.6874
66.0912
303.757
318.095
329.739
339.038
346.073
350.846
353.461
354.274
353.731
352.28
350.189
347.671
344.796
341.736
338.508
335.186
331.756
328.247
324.665
321.055
317.333
313.601
309.828
305.939
301.924
297.829
293.634
289.357
284.895
280.147
275.273
269.722
263.122
253.257
237.726
209.32
157.173
91.7463
73.8696
71.5656
66.183
303.754
318.082
329.713
338.996
346.036
350.813
353.453
354.278
353.774
352.334
350.289
347.78
344.967
341.889
338.691
335.369
331.983
328.506
324.964
321.354
317.717
313.964
310.191
306.367
302.419
298.335
294.158
289.863
285.46
280.829
275.848
270.636
264.495
256.861
245.088
226.192
193.235
133.382
81.0168
71.946
70.1699
66.3169
303.751
318.078
329.702
338.975
346.003
350.792
353.44
354.294
353.8
352.4
350.36
347.897
345.094
342.08
338.862
335.57
332.182
328.751
325.242
321.672
318.036
314.37
310.577
306.754
302.874
298.861
294.7
290.432
286.025
281.475
276.647
271.392
265.76
258.876
249.953
235.834
213.187
174.589
110.845
74.3648
70.1441
69.4673
66.505
303.748
318.076
329.705
338.972
345.992
350.776
353.44
354.3
353.837
352.445
350.445
347.984
345.23
342.225
339.072
335.757
332.399
328.966
325.503
321.967
318.373
314.71
311.004
307.162
303.285
299.344
295.259
291.013
286.642
282.107
277.388
272.329
266.747
260.578
252.77
242.24
225.308
198.789
152.975
92.1986
70.4562
68.8554
69.004
66.7119
303.743
318.074
329.71
338.985
346
350.781
353.444
354.326
353.862
352.5
350.508
348.088
345.333
342.378
339.233
335.987
332.603
329.2
325.733
322.245
318.685
315.065
311.364
307.611
303.715
299.78
295.772
291.609
287.267
282.78
278.097
273.182
267.851
261.864
255.015
246.058
233.535
213.374
182.915
130.145
80.3357
68.8842
68.0338
68.7166
66.8599
303.736
318.067
329.714
339
346.026
350.8
353.463
354.349
353.907
352.543
350.581
348.168
345.452
342.495
339.403
336.163
332.85
329.418
325.982
322.491
318.98
315.394
311.738
307.991
304.187
300.234
296.236
292.154
287.902
283.452
278.832
273.979
268.834
263.179
256.675
248.979
238.59
223.642
200.049
164.469
107.182
72.6105
68.207
67.5375
68.559
66.7789
303.727
318.054
329.709
339.012
346.052
350.84
353.496
354.383
353.947
352.607
350.639
348.256
345.547
342.63
339.533
336.347
333.042
329.682
326.215
322.754
319.24
315.704
312.083
308.382
304.587
300.728
296.715
292.646
288.481
284.13
279.559
274.787
269.735
264.32
258.263
251.106
242.356
230.187
212.408
185.518
142.986
88.6107
68.6861
67.6609
67.2228
68.5525
66.4556
303.713
318.034
329.697
339.013
346.074
350.879
353.55
354.43
354
352.664
350.721
348.329
345.651
342.739
339.683
336.492
333.242
329.89
326.496
323.001
319.518
315.979
312.409
308.744
304.997
301.149
297.231
293.151
289.004
284.748
280.284
275.574
270.627
265.343
259.603
253.034
245.066
235.002
220.656
199.81
169.298
120.452
76.2545
67.4283
67.2137
67.4212
68.5363
66.0313
303.696
318.005
329.675
339.006
346.083
350.911
353.6
354.498
354.06
352.732
350.793
348.427
345.736
342.856
339.805
336.655
333.399
330.105
326.719
323.297
319.779
316.271
312.698
309.085
305.375
301.578
297.674
293.691
289.537
285.305
280.944
276.354
271.484
266.333
260.777
254.628
247.416
238.441
226.74
209.827
185.967
150
98.0005
70.3202
67.2213
66.7144
67.7021
68.4639
65.6626
303.678
317.967
329.638
338.987
346.084
350.929
353.645
354.558
354.141
352.805
350.875
348.514
345.849
342.953
339.935
336.789
333.575
330.275
326.948
323.536
320.091
316.546
313.003
309.388
305.731
301.973
298.122
294.156
290.103
285.867
281.539
277.061
272.325
267.272
261.883
255.997
249.325
241.317
231.086
217.373
197.637
170.689
128.275
81.3456
67.6972
66.8721
66.4846
67.9152
68.3346
65.3568
303.658
317.926
329.589
338.949
346.073
350.941
353.672
354.613
354.212
352.899
350.96
348.61
345.95
343.08
340.043
336.93
333.72
330.463
327.13
323.778
320.344
316.873
313.292
309.708
306.05
302.345
298.534
294.624
290.592
286.46
282.134
277.697
273.085
268.182
262.916
257.247
250.943
243.617
234.618
222.82
206.719
184.205
152.905
105.028
71.9856
66.8979
66.576
66.6112
68.0468
68.1737
65.15
303.64
317.882
329.537
338.898
346.04
350.939
353.693
354.649
354.276
352.98
351.066
348.706
346.059
343.194
340.183
337.049
333.873
330.619
327.329
323.972
320.6
317.14
313.633
310.011
306.384
302.679
298.923
295.056
291.081
286.974
282.756
278.328
273.768
269.004
263.908
258.392
252.378
245.542
237.403
227.166
213.441
194.719
169.501
131.899
85.6603
68.4643
66.7332
66.4109
66.8587
68.0573
68.0384
65.0229
303.623
317.84
329.478
338.843
345.992
350.915
353.701
354.682
354.321
353.053
351.158
348.825
346.167
343.315
340.309
337.201
334.002
330.782
327.496
324.183
320.805
317.408
313.914
310.365
306.699
303.027
299.272
295.462
291.531
287.486
283.297
278.982
274.44
269.739
264.798
259.478
253.663
247.208
239.709
230.558
218.776
202.777
181.517
152.579
109.344
73.7846
67.0729
66.5457
66.4189
67.1182
68.0746
67.8745
64.9192
303.607
317.8
329.424
338.779
345.941
350.876
353.689
354.703
354.365
353.107
351.241
348.926
346.297
343.434
340.442
337.338
334.164
330.92
327.669
324.359
321.027
317.625
314.195
310.659
307.068
303.356
299.635
295.826
291.956
287.957
283.833
279.553
275.129
270.456
265.595
260.449
254.865
248.673
241.662
233.337
222.92
209.247
190.805
167.078
132.159
88.6797
68.664
66.6606
66.4745
66.4776
67.2782
68.0966
67.5297
64.825
303.593
317.765
329.374
338.722
345.881
350.836
353.662
354.703
354.397
353.162
351.303
349.019
346.408
343.575
340.571
337.482
334.312
331.093
327.816
324.542
321.213
317.857
314.423
310.953
307.375
303.739
299.979
296.205
292.338
288.401
284.326
280.115
275.733
271.185
266.364
261.317
255.932
250.02
243.353
235.65
226.292
214.298
198.431
177.695
150.432
110.307
74.7653
67.1786
66.5838
66.4983
66.576
67.4306
68.1822
66.9681
64.7433
303.58
317.733
329.329
338.668
345.829
350.788
353.637
354.69
354.41
353.206
351.369
349.09
346.511
343.697
340.723
337.622
334.466
331.251
327.998
324.698
321.405
318.053
314.665
311.192
307.681
304.059
300.375
296.563
292.732
288.801
284.791
280.632
276.324
271.825
267.137
262.145
256.882
251.208
244.88
237.622
229.054
218.4
204.497
186.352
163.293
130.118
89.2345
68.8262
66.6712
66.6247
66.5088
66.6562
67.6556
68.1487
66.3811
64.6772
303.57
317.706
329.288
338.623
345.78
350.747
353.606
354.681
354.411
353.23
351.423
349.165
346.589
343.809
340.856
337.786
334.616
331.416
328.166
324.89
321.569
318.253
314.869
311.444
307.931
304.378
300.709
296.972
293.105
289.212
285.211
281.12
276.867
272.449
267.818
262.969
257.778
252.261
246.221
239.373
231.378
221.725
209.466
193.408
173.211
146.536
108.073
74.7319
67.0481
66.6779
66.6092
66.5278
66.7851
67.8145
68.0023
65.8928
64.6237
303.563
317.684
329.254
338.58
345.741
350.708
353.583
354.665
354.418
353.241
351.457
349.229
346.674
343.896
340.977
337.928
334.791
331.575
328.342
325.066
321.77
318.426
315.079
311.658
308.193
304.639
301.039
297.32
293.529
289.6
285.639
281.561
277.38
273.022
268.479
263.697
258.661
253.24
247.406
240.902
233.41
224.494
213.482
199.314
181.122
158.624
126.17
87.5146
68.5014
66.7144
66.7154
66.6074
66.5578
66.9865
67.8924
67.7258
65.4833
64.5821
303.557
317.668
329.228
338.546
345.702
350.681
353.556
354.659
354.415
353.261
351.478
349.273
346.747
343.99
341.073
338.059
334.944
331.759
328.51
325.251
321.955
318.635
315.26
311.876
308.416
304.911
301.312
297.664
293.89
290.038
286.044
282.009
277.845
273.563
269.084
264.4
259.444
254.192
248.489
242.251
235.173
226.879
216.804
204.13
187.907
167.836
141.314
103.738
73.5054
66.9237
66.7402
66.7223
66.6043
66.6189
67.1677
67.8759
67.3648
65.157
64.5517
303.554
317.656
329.209
338.521
345.674
350.653
353.543
354.647
354.422
353.271
351.509
349.302
346.799
344.071
341.174
338.162
335.083
331.921
328.704
325.429
322.148
318.828
315.477
312.065
308.643
305.143
301.594
297.947
294.246
290.414
286.497
282.431
278.313
274.053
269.657
265.042
260.195
255.037
249.525
243.464
236.723
228.933
219.633
208.118
193.53
175.406
152.828
120.519
83.8353
67.951
66.7625
66.776
66.7135
66.6337
66.7465
67.3467
67.8364
66.9341
64.9137
64.531
303.552
317.652
329.196
338.504
345.655
350.635
353.531
354.651
354.426
353.29
351.53
349.344
346.838
344.132
341.264
338.272
335.194
332.071
328.876
325.634
322.334
319.03
315.678
312.29
308.84
305.379
301.835
298.24
294.542
290.784
286.888
282.9
278.754
274.543
270.175
265.65
260.879
255.843
250.448
244.61
238.098
230.732
222.055
211.493
198.257
181.723
161.668
134.537
97.8792
71.4492
66.8649
66.7875
66.7906
66.7294
66.6614
66.7912
67.4812
67.7428
66.4286
64.7463
64.518
303.552
317.651
329.194
338.494
345.645
350.626
353.527
354.654
354.446
353.307
351.561
349.374
346.888
344.177
341.333
338.37
335.313
332.19
329.034
325.814
322.549
319.225
315.889
312.499
309.072
305.583
302.08
298.491
294.845
291.092
287.272
283.306
279.239
275.005
270.691
266.2
261.527
256.577
251.322
245.63
239.38
232.31
224.165
214.373
202.267
187.165
168.913
145.642
113.205
79.0768
67.4105
66.8039
66.8201
66.805
66.7321
66.698
66.8659
67.5782
67.6391
65.8865
64.6431
64.5103
303.552
317.653
329.197
338.497
345.64
350.627
353.527
354.664
354.461
353.341
351.588
349.415
346.926
344.235
341.384
338.445
335.418
332.316
329.161
325.981
322.739
319.448
316.091
312.718
309.29
305.824
302.292
298.744
295.106
291.406
287.592
283.704
279.662
275.508
271.174
266.744
262.113
257.27
252.112
246.588
240.521
233.76
225.995
216.871
205.697
191.819
174.982
154.549
125.752
90.9187
69.4115
66.8197
66.824
66.8561
66.8217
66.745
66.6825
66.9885
67.5843
67.3955
65.4136
64.5831
64.5056
303.552
317.655
329.204
338.505
345.651
350.631
353.543
354.677
354.484
353.368
351.634
349.451
346.976
344.281
341.449
338.503
335.5
332.429
329.295
326.116
322.915
319.648
316.323
312.928
309.517
306.049
302.541
298.965
295.368
291.677
287.918
284.038
280.075
275.948
271.697
267.252
262.689
257.897
252.857
247.449
241.584
235.051
227.656
219.02
208.67
195.857
180.186
161.612
137.25
103.3
74.4311
67.0383
66.8056
66.8542
66.8983
66.8354
66.7054
66.6844
67.1675
67.585
67.0294
65.0511
64.5454
64.5028
303.553
317.658
329.209
338.518
345.666
350.649
353.559
354.703
354.51
353.402
351.672
349.508
347.021
344.338
341.501
338.574
335.563
332.517
329.415
326.258
323.058
319.832
316.531
313.168
309.735
306.284
302.774
299.221
295.597
291.949
288.199
284.376
280.424
276.378
272.156
267.796
263.224
258.51
253.532
248.26
242.534
236.241
229.132
220.948
211.216
199.376
184.812
167.572
146.068
116.248
82.7822
67.9856
66.7963
66.8259
66.8935
66.9338
66.8072
66.675
66.6637
67.3057
67.582
66.4617
64.804
64.5232
64.5013
303.554
317.66
329.215
338.528
345.686
350.672
353.587
354.729
354.547
353.439
351.717
349.556
347.088
344.391
341.565
338.633
335.64
332.586
329.51
326.385
323.208
319.983
316.724
313.384
309.983
306.51
303.017
299.462
295.862
292.187
288.481
284.669
280.775
276.742
272.604
268.277
263.793
259.076
254.187
248.992
243.428
237.302
230.482
222.656
213.478
202.394
188.875
172.722
153.378
126.724
93.5691
70.58
66.8649
66.8026
66.8647
66.9408
66.9179
66.7554
66.6204
66.7722
67.4342
67.4528
65.8536
64.655
64.511
64.5006
303.553
317.663
329.221
338.54
345.702
350.7
353.616
354.769
354.583
353.487
351.763
349.611
347.144
344.466
341.625
338.703
335.704
332.668
329.584
326.486
323.342
320.139
316.881
313.585
310.207
306.766
303.25
299.714
296.111
292.459
288.729
284.962
281.08
277.107
272.985
268.745
264.297
259.672
254.789
249.696
244.234
238.298
231.679
224.203
215.476
205.063
192.397
177.233
159.372
136.15
104.103
75.6843
67.1935
66.8091
66.8409
66.9139
66.9651
66.8794
66.6902
66.5946
66.9549
67.4355
67.1946
65.3197
64.5729
64.5049
64.5002
303.555
317.665
329.228
338.55
345.719
350.721
353.65
354.806
354.632
353.532
351.821
349.666
347.208
344.53
341.708
338.768
335.78
332.736
329.671
326.565
323.448
320.279
317.044
313.75
310.416
306.998
303.515
299.954
296.371
292.717
289.01
285.219
281.384
277.426
273.366
269.144
264.787
260.203
255.416
250.341
245
239.195
232.799
225.571
217.274
207.419
195.528
181.225
164.55
143.642
115.041
83.1164
68.2151
66.8255
66.8313
66.8908
66.9478
66.9466
66.8127
66.6519
66.66
67.1539
67.4136
66.6661
64.9368
64.5328
64.502
64.5001
303.553
317.669
329.232
338.561
345.735
350.746
353.68
354.848
354.677
353.589
351.874
349.733
347.271
344.601
341.779
338.858
335.85
332.817
329.744
326.657
323.532
320.392
317.191
313.919
310.588
307.215
303.755
300.227
296.619
292.985
289.276
285.509
281.652
277.742
273.7
269.542
265.208
260.718
255.977
251.004
245.697
240.04
233.808
226.844
218.855
209.526
198.301
184.815
169.062
150.054
123.889
92.1751
70.5325
66.8989
66.8332
66.8831
66.9303
66.9411
66.883
66.7388
66.6444
66.7874
67.317
67.4051
66.0138
64.7053
64.5136
64.5008
64.5
303.552
317.667
329.24
338.569
345.751
350.769
353.713
354.885
354.728
353.641
351.939
349.794
347.346
344.672
341.857
338.936
335.946
332.893
329.829
326.734
323.628
320.481
317.309
314.072
310.764
307.394
303.98
300.475
296.9
293.242
289.553
285.784
281.952
278.023
274.03
269.892
265.625
261.162
256.521
251.6
246.404
240.804
234.75
227.989
220.32
211.375
200.774
188.007
173.051
155.464
132.192
101.202
74.663
67.1359
66.8302
66.8754
66.9331
66.9437
66.903
66.7918
66.6548
66.632
66.9734
67.395
67.1146
65.3974
64.5857
64.5051
64.5003
64.5
303.55
317.665
329.239
338.579
345.764
350.789
353.742
354.924
354.772
353.701
351.998
349.866
347.414
344.755
341.935
339.02
336.03
332.994
329.908
326.823
323.709
320.582
317.403
314.197
310.923
307.577
304.166
300.708
297.156
293.53
289.818
286.07
282.237
278.333
274.323
270.237
265.992
261.601
256.992
252.176
247.042
241.566
235.596
229.05
221.634
213.079
202.947
190.867
176.591
160.074
139.076
109.915
80.5254
67.8563
66.8231
66.8585
66.9304
66.9495
66.9239
66.8381
66.7076
66.6094
66.6764
67.1266
67.3615
66.5579
64.9438
64.5319
64.5017
64.5001
64.5
303.549
317.662
329.238
338.582
345.778
350.806
353.766
354.959
354.816
353.751
352.065
349.932
347.494
344.83
342.025
339.104
336.12
333.083
330.015
326.905
323.802
320.667
317.508
314.295
311.054
307.742
304.356
300.902
297.397
293.795
290.114
286.343
282.532
278.628
274.645
270.545
266.355
261.989
257.456
252.677
247.658
242.257
236.428
230
222.843
214.604
204.942
193.401
179.805
164.133
144.827
118.498
87.6893
69.4278
66.8447
66.8365
66.9163
66.9483
66.9386
66.8865
66.7872
66.6679
66.5693
66.7732
67.2733
67.2984
65.8707
64.6862
64.5107
64.5005
64.5
64.5
303.546
317.659
329.236
338.584
345.784
350.824
353.785
354.988
354.856
353.801
352.122
350.006
347.567
344.916
342.107
339.201
336.211
333.179
330.108
327.016
323.888
320.763
317.597
314.405
311.156
307.879
304.527
301.098
297.599
294.044
290.387
286.649
282.814
278.933
274.95
270.879
266.678
262.37
257.867
253.17
248.196
242.923
237.184
230.919
223.921
215.998
206.729
195.735
182.699
167.769
149.848
125.658
95.3221
72.1932
66.9621
66.8202
66.8932
66.94
66.9372
66.9003
66.8659
66.7728
66.6434
66.602
66.9376
67.2852
66.9804
65.2215
64.566
64.5032
64.5001
64.5
64.5
303.544
317.655
329.233
338.584
345.791
350.837
353.809
355.013
354.893
353.846
352.178
350.07
347.648
344.995
342.199
339.289
336.313
333.274
330.209
327.115
324.003
320.853
317.697
314.497
311.271
307.986
304.669
301.276
297.802
294.253
290.644
286.93
283.128
279.224
275.266
271.196
267.026
262.712
258.27
253.608
248.722
243.508
237.911
231.756
224.951
217.239
208.354
197.829
185.374
170.987
154.222
132.134
102.72
76.2303
67.3239
66.807
66.8757
66.931
66.9296
66.895
66.8644
66.8565
66.7555
66.656
66.7155
67.1542
67.2686
66.1959
64.8035
64.52
64.5008
64.5
64.5
64.5
303.541
317.649
329.228
338.582
345.794
350.849
353.831
355.041
354.924
353.89
352.229
350.131
347.717
345.084
342.284
339.388
336.407
333.383
330.31
327.221
324.106
320.971
317.79
314.601
311.367
308.105
304.782
301.424
297.986
294.463
290.862
287.195
283.417
279.546
275.566
271.524
267.357
263.075
258.632
254.036
249.191
244.075
238.554
232.558
225.888
218.408
209.797
199.728
187.782
173.948
157.965
137.671
109.671
81.3216
68.1141
66.8142
66.8609
66.9251
66.9273
66.8971
66.8478
66.8453
66.8322
66.7115
66.6653
66.8864
67.2658
66.9107
65.5024
64.6025
64.5052
64.5002
64.5
64.5
64.5
303.538
317.642
329.221
338.579
345.796
350.857
353.85
355.069
354.953
353.926
352.278
350.187
347.785
345.16
342.379
339.479
336.512
333.483
330.424
327.327
324.217
321.078
317.913
314.698
311.475
308.205
304.905
301.542
298.141
294.654
291.079
287.421
283.692
279.845
275.898
271.834
267.697
263.421
259.013
254.42
249.647
244.583
239.175
233.27
226.784
219.473
211.142
201.415
189.97
176.624
161.365
142.394
116.628
87.1085
69.5056
66.8618
66.8461
66.9192
66.9298
66.9002
66.8448
66.8232
66.8124
66.7687
66.6606
66.674
67.0868
67.2228
66.551
64.9101
64.5278
64.5011
64.5
64.5
64.5
64.5
303.533
317.633
329.211
338.572
345.795
350.864
353.864
355.095
354.988
353.958
352.319
350.243
347.847
345.233
342.461
339.579
336.609
333.594
330.529
327.446
324.327
321.193
318.024
314.824
311.575
308.316
305.009
301.67
298.264
294.815
291.277
287.646
283.926
280.129
276.206
272.176
268.019
263.775
259.376
254.823
250.058
245.075
239.734
233.958
227.581
220.484
212.367
202.976
191.93
179.079
164.436
146.646
122.562
93.1961
71.6564
66.9671
66.8358
66.9079
66.9279
66.908
66.8486
66.8176
66.8068
66.7845
66.6858
66.5851
66.7938
67.1631
67.1281
65.6268
64.6313
64.5061
64.5002
64.5
64.5
64.5
64.5
303.527
317.622
329.2
338.562
345.791
350.866
353.875
355.114
355.022
353.999
352.356
350.289
347.907
345.3
342.541
339.667
336.716
333.697
330.645
327.555
324.45
321.308
318.143
314.939
311.705
308.42
305.124
301.778
298.396
294.944
291.445
287.851
284.159
280.372
276.5
272.494
268.372
264.109
259.745
255.206
250.485
245.519
240.271
234.578
228.348
221.388
213.523
204.398
193.741
181.314
167.223
150.451
128.115
99.1579
74.6249
67.1874
66.8197
66.8859
66.9177
66.9071
66.862
66.8226
66.809
66.7993
66.736
66.6274
66.5946
66.9683
67.2285
66.5529
64.9889
64.5309
64.5011
64.5
64.5
64.5
64.5
64.5
303.522
317.61
329.184
338.55
345.783
350.868
353.882
355.131
355.046
354.04
352.402
350.33
347.959
345.366
342.613
339.753
336.809
333.809
330.753
327.676
324.565
321.436
318.262
315.062
311.823
308.553
305.231
301.896
298.508
295.081
291.579
288.026
284.371
280.613
276.753
272.797
268.7
264.474
260.093
255.592
250.89
245.975
240.758
235.172
229.044
222.254
214.562
205.736
195.396
183.377
169.719
153.811
132.999
104.931
78.306
67.6401
66.7991
66.8615
66.8986
66.8966
66.8576
66.83
66.8228
66.8242
66.7931
66.7203
66.6331
66.7574
67.1399
67.0404
65.7228
64.637
64.5056
64.5002
64.5
64.5
64.5
64.5
64.5
303.516
317.596
329.168
338.534
345.774
350.865
353.892
355.147
355.072
354.072
352.45
350.381
348.005
345.422
342.684
339.83
336.9
333.907
330.871
327.789
324.691
321.555
318.394
315.184
311.95
308.675
305.367
302.006
298.63
295.197
291.722
288.166
284.554
280.833
277.002
273.06
269.014
264.813
260.471
255.956
251.297
246.407
241.252
235.711
229.708
223.042
215.552
206.942
196.948
185.268
171.999
156.738
137.234
110.428
82.5765
68.4397
66.7969
66.8368
66.88
66.8809
66.8508
66.8283
66.8264
66.8357
66.8457
66.8082
66.6959
66.7184
66.9849
67.1999
66.5203
64.9688
64.5276
64.5009
64.5
64.5
64.5
64.5
64.5
64.5
303.51
317.582
329.149
338.516
345.758
350.859
353.895
355.163
355.093
354.103
352.487
350.434
348.06
345.473
342.745
339.906
336.982
334.003
330.976
327.913
324.809
321.685
318.517
315.321
312.076
308.805
305.492
302.146
298.744
295.323
291.843
288.314
284.701
281.023
277.231
273.32
269.288
265.139
260.823
256.348
251.678
246.836
241.716
236.253
230.31
223.791
216.456
208.087
198.35
187.04
174.089
159.365
140.975
115.726
87.2176
69.6746
66.8265
66.8149
66.8658
66.8648
66.8393
66.8204
66.8228
66.836
66.8453
66.8478
66.7633
66.7179
66.7801
67.1481
67.122
65.6685
64.6176
64.5042
64.5001
64.5
64.5
64.5
64.5
64.5
64.5
303.504
317.567
329.13
338.494
345.742
350.849
353.895
355.172
355.114
354.13
352.523
350.477
348.118
345.532
342.8
339.973
337.064
334.091
331.077
328.023
324.939
321.809
318.652
315.449
312.217
308.936
305.627
302.274
298.886
295.441
291.973
288.44
284.855
281.178
277.429
273.557
269.557
265.425
261.161
256.713
252.086
247.238
242.175
236.76
230.911
224.472
217.31
209.134
199.678
188.646
176.046
161.766
144.304
120.691
91.9493
71.3935
66.9241
66.8049
66.8595
66.861
66.8284
66.808
66.8147
66.8268
66.8361
66.8298
66.8035
66.7146
66.651
66.9255
67.1305
66.5049
64.893
64.5188
64.5006
64.5
64.5
64.5
64.5
64.5
64.5
64.5
303.498
317.553
329.11
338.473
345.722
350.837
353.891
355.18
355.13
354.156
352.556
350.519
348.167
345.596
342.864
340.032
337.136
334.177
331.17
328.131
325.054
321.944
318.78
315.588
312.349
309.08
305.761
302.413
299.019
295.586
292.094
288.574
284.986
281.338
277.592
273.764
269.804
265.705
261.459
257.066
252.468
247.665
242.601
237.255
231.47
225.144
218.089
210.119
200.898
190.173
177.834
164.005
147.323
124.981
96.6303
73.5775
67.114
66.7943
66.857
66.8604
66.8336
66.7993
66.8026
66.814
66.8126
66.799
66.7929
66.7064
66.5423
66.6569
67.0826
66.8343
65.4817
64.5798
64.5025
64.5001
64.5
64.5
64.5
64.5
64.5
64.5
64.5
303.491
317.538
329.089
338.451
345.701
350.82
353.885
355.182
355.143
354.177
352.587
350.556
348.213
345.649
342.933
340.1
337.2
334.254
331.261
328.228
325.166
322.063
318.919
315.72
312.492
309.216
305.909
302.55
299.16
295.722
292.243
288.699
285.125
281.475
277.759
273.936
270.021
265.963
261.752
257.378
252.836
248.064
243.049
237.711
232.011
225.769
218.849
211.019
202.043
191.586
179.554
166.056
150.097
128.969
101.115
76.1707
67.4228
66.8063
66.8611
66.8651
66.8426
66.8004
66.8014
66.807
66.8063
66.7856
66.7935
66.7138
66.594
66.6238
66.9759
66.9631
66.3206
64.7807
64.5109
64.5003
64.5
64.5
64.5
64.5
64.5
64.5
64.5
64.5
303.485
317.522
329.068
338.428
345.68
350.804
353.874
355.183
355.152
354.197
352.614
350.592
348.255
345.7
342.99
340.173
337.271
334.323
331.343
328.324
325.268
322.18
319.044
315.864
312.628
309.363
306.049
302.702
299.301
295.867
292.381
288.852
285.254
281.619
277.902
274.11
270.203
266.19
262.021
257.684
253.164
248.45
243.469
238.185
232.505
226.366
219.554
211.89
203.091
192.915
181.165
167.985
152.614
132.552
105.403
79.0927
67.8808
66.8177
66.8603
66.8663
66.8512
66.8053
66.8024
66.8066
66.8073
66.7977
66.7997
66.7709
66.713
66.6527
66.8541
67.147
66.952
65.2325
64.5429
64.5013
64.5
64.5
64.5
64.5
64.5
64.5
64.5
64.5
64.5
303.478
317.507
329.047
338.404
345.659
350.787
353.865
355.18
355.162
354.211
352.639
350.624
348.296
345.746
343.046
340.235
337.348
334.398
331.416
328.41
325.37
322.287
319.165
315.993
312.777
309.504
306.2
302.846
299.457
296.011
292.53
288.994
285.41
281.753
278.051
274.26
270.385
266.382
262.261
257.966
253.484
248.796
243.875
238.629
233.013
226.909
220.222
212.694
204.098
194.138
182.679
169.777
154.897
135.735
109.441
82.2625
68.496
66.8392
66.8543
66.8677
66.848
66.8105
66.8017
66.8116
66.8141
66.8161
66.8174
66.8101
66.7981
66.6894
66.785