/*--------------------------------*- C++ -*----------------------------------*\
| =========                 |                                                 |
| \\      /  F ield         | OpenFOAM: The Open Source CFD Toolbox           |
|  \\    /   O peration     | Version:  v2012                                 |
|   \\  /    A nd           | Website:  www.openfoam.com                      |
|    \\/     M anipulation  |                                                 |
\*---------------------------------------------------------------------------*/
FoamFile
{
    version     2.0;
    format      ascii;
    class       volScalarField;
    location    "3900";
    object      TuM;
}
// * * * * * * * * * * * * * * * * * * * * * * * * * * * * * * * * * * * * * //

dimensions      [0 0 0 0 0 0 0];


internalField   nonuniform List<scalar> 
29502
(
0.0875222
0.0183361
0.036729
0.0198257
0.00727378
0.0231737
0.021815
0.0144407
0.00431312
0.0180906
0.023075
0.0174393
0.0307236
0.00345173
0.0160581
0.0237078
0.0188892
0.038201
0.0547308
0.00354832
0.0152836
0.0239923
0.0195817
0.0415441
0.06813
0.0832995
0.00412457
0.0150635
0.0240983
0.019893
0.0430649
0.0739964
0.103554
0.114617
0.0049015
0.0150791
0.024058
0.0199963
0.043678
0.0765827
0.112305
0.141956
0.146689
0.0057252
0.0151928
0.0239686
0.019955
0.0438252
0.0775243
0.116073
0.153619
0.180494
0.177516
0.00656681
0.0153519
0.0238189
0.0198566
0.0436605
0.0776735
0.117337
0.15855
0.194714
0.216556
0.205581
0.00735418
0.0155382
0.0236834
0.0197069
0.0433865
0.0772876
0.117457
0.160113
0.200636
0.23273
0.248498
0.230119
0.00804409
0.0157466
0.0235625
0.0195746
0.0430229
0.0767458
0.11679
0.160208
0.202458
0.239385
0.266016
0.275804
0.251129
0.00864295
0.0159736
0.0234592
0.0194623
0.0427045
0.0760743
0.115932
0.159261
0.202572
0.24142
0.273157
0.294195
0.298751
0.269116
0.00912026
0.0162176
0.0232974
0.0193579
0.042436
0.0754894
0.114909
0.158109
0.201413
0.241604
0.275366
0.301642
0.317709
0.318124
0.284379
0.00951314
0.0164769
0.0231592
0.0191867
0.0421872
0.0749925
0.114018
0.156753
0.200053
0.240334
0.275659
0.303995
0.325362
0.337438
0.334418
0.297197
0.00982219
0.0167503
0.0230232
0.0190539
0.0417907
0.0745377
0.113257
0.155574
0.198446
0.238876
0.274359
0.304409
0.32784
0.345209
0.353953
0.348045
0.307815
0.0100464
0.0170362
0.0229231
0.0189226
0.0414906
0.0738372
0.112566
0.154551
0.197048
0.23713
0.272895
0.303134
0.328371
0.34779
0.361779
0.367747
0.35936
0.316411
0.0102899
0.0173323
0.0228116
0.0188295
0.0411958
0.0733064
0.111524
0.153632
0.195816
0.235607
0.271102
0.301717
0.327141
0.348431
0.364445
0.375589
0.379258
0.368676
0.323039
0.0102834
0.0176392
0.02268
0.0187183
0.0409867
0.0727882
0.110735
0.152266
0.194712
0.234237
0.269537
0.299935
0.325785
0.347257
0.365178
0.378325
0.387093
0.388855
0.376253
0.327749
0.010014
0.0179545
0.0225773
0.0185872
0.040738
0.0724188
0.109966
0.15123
0.193095
0.233016
0.268099
0.29838
0.324039
0.345975
0.364065
0.379134
0.38989
0.396683
0.39684
0.382316
0.330455
0.00949529
0.0182782
0.02249
0.0184918
0.0404481
0.0719861
0.109416
0.15022
0.191866
0.231243
0.266817
0.296918
0.322519
0.344276
0.362857
0.378077
0.390755
0.399532
0.404683
0.403442
0.387003
0.330878
0.00882839
0.0186094
0.0223991
0.0184104
0.0402424
0.0714863
0.108778
0.149494
0.190664
0.229895
0.264976
0.295619
0.321061
0.342797
0.361213
0.376941
0.38975
0.400438
0.407574
0.411354
0.408834
0.390361
0.328669
0.00806665
0.0189474
0.0223183
0.0183212
0.0400669
0.0711346
0.108048
0.148657
0.18979
0.228567
0.263572
0.293765
0.319766
0.341348
0.35978
0.375351
0.388677
0.399477
0.408511
0.414283
0.416901
0.413146
0.392403
0.323448
0.00738828
0.0192918
0.0222438
0.0182457
0.0398722
0.0708351
0.107536
0.147709
0.188791
0.227592
0.262181
0.29235
0.317927
0.340067
0.358351
0.373967
0.38714
0.39846
0.40759
0.415246
0.41987
0.421485
0.41648
0.393059
0.314968
0.00685374
0.0196402
0.0221593
0.0181756
0.0397114
0.0705022
0.1071
0.147046
0.187669
0.226481
0.261145
0.290936
0.316525
0.338248
0.357087
0.37256
0.385801
0.396969
0.406618
0.414359
0.420866
0.424511
0.425222
0.418889
0.392203
0.303075
0.00657795
0.0199934
0.0220726
0.0180927
0.0395614
0.0702281
0.106615
0.146476
0.186884
0.225246
0.259967
0.289867
0.315112
0.336865
0.355297
0.371319
0.38442
0.395672
0.405168
0.413427
0.42001
0.42555
0.428343
0.428194
0.42037
0.389631
0.287068
0.00648755
0.0203508
0.0219917
0.0180065
0.0393832
0.0699752
0.106218
0.145844
0.186202
0.224379
0.258673
0.288655
0.314025
0.335459
0.353939
0.36956
0.3832
0.394316
0.40391
0.412013
0.419112
0.424726
0.429442
0.43147
0.430447
0.420856
0.385038
0.266692
0.00656102
0.0207149
0.0219301
0.0179292
0.0391976
0.0696743
0.105852
0.145328
0.185449
0.223616
0.257762
0.28734
0.312799
0.334361
0.352547
0.368229
0.38147
0.393116
0.402577
0.41079
0.41773
0.423859
0.428654
0.432651
0.433965
0.431991
0.420218
0.377964
0.24135
0.00674959
0.0211013
0.0218811
0.0178737
0.039034
0.0693618
0.10542
0.144857
0.184835
0.222779
0.256948
0.28641
0.311481
0.333125
0.351446
0.366857
0.380167
0.391412
0.401396
0.409478
0.416538
0.422507
0.427821
0.431913
0.435258
0.435867
0.4328
0.418251
0.367785
0.210731
0.00701613
0.0214037
0.0218327
0.0178335
0.0389214
0.0690885
0.104971
0.144298
0.184276
0.222093
0.256061
0.28557
0.310545
0.33181
0.350207
0.365756
0.378816
0.390134
0.399713
0.408313
0.415246
0.421344
0.426498
0.431119
0.434592
0.43732
0.437193
0.432795
0.414629
0.35379
0.175223
0.00729863
0.0216226
0.0217797
0.0177889
0.0388432
0.0689048
0.10458
0.143721
0.183613
0.221472
0.25533
0.284657
0.309693
0.330872
0.348901
0.364521
0.37772
0.388805
0.398459
0.406649
0.414094
0.420071
0.425363
0.429829
0.433848
0.436749
0.438871
0.437928
0.431861
0.40897
0.335613
0.136609
0.00757808
0.0218582
0.0217231
0.0177397
0.0387527
0.0687795
0.104323
0.14322
0.182932
0.220734
0.254668
0.2839
0.308769
0.330011
0.347966
0.363225
0.376487
0.387716
0.39715
0.405415
0.412445
0.418932
0.424108
0.428721
0.432593
0.436073
0.438428
0.439922
0.438016
0.429789
0.40081
0.313686
0.0988222
0.00785588
0.0221386
0.0216624
0.0176844
0.0386523
0.0686325
0.104148
0.142895
0.182343
0.219982
0.253883
0.283211
0.307997
0.32908
0.347101
0.362298
0.375206
0.386487
0.396068
0.404125
0.411231
0.417296
0.422982
0.427487
0.431516
0.434862
0.437833
0.439638
0.440461
0.437379
0.426286
0.389585
0.286927
0.0668021
0.00806322
0.0224334
0.0216012
0.017626
0.038538
0.0684689
0.103942
0.142672
0.181961
0.219332
0.25309
0.2824
0.307291
0.328296
0.346167
0.361431
0.374286
0.385218
0.394842
0.403049
0.409957
0.416098
0.421359
0.426374
0.430306
0.433822
0.436678
0.43915
0.440386
0.440446
0.435854
0.420963
0.374584
0.254836
0.0431899
0.00825423
0.0227126
0.0215415
0.0175645
0.038416
0.0682829
0.103712
0.142409
0.181695
0.218911
0.252404
0.281586
0.306464
0.327576
0.345377
0.360496
0.373422
0.384307
0.393584
0.401826
0.408887
0.41484
0.420173
0.424765
0.429207
0.432638
0.435681
0.438066
0.440033
0.440661
0.439807
0.433243
0.413285
0.355002
0.217099
0.0272964
0.00843691
0.0229908
0.0214842
0.0175059
0.038288
0.0680831
0.103452
0.142115
0.181383
0.218608
0.251957
0.28088
0.30564
0.326739
0.344648
0.359701
0.372486
0.383445
0.392682
0.400581
0.407669
0.413777
0.41893
0.423591
0.427614
0.431556
0.434528
0.437121
0.439041
0.440483
0.440436
0.438428
0.429229
0.402609
0.33046
0.174975
0.0172336
0.0086144
0.0232542
0.0214251
0.0174495
0.0381654
0.0678718
0.10317
0.141785
0.181033
0.218254
0.251622
0.280416
0.304925
0.325909
0.343804
0.358967
0.371688
0.382511
0.391824
0.399686
0.406434
0.412562
0.417876
0.422361
0.426451
0.429985
0.43347
0.436009
0.438163
0.439608
0.440485
0.439649
0.436134
0.423404
0.388215
0.301631
0.132117
0.0111176
0.00879368
0.023468
0.0213748
0.0173938
0.038048
0.0676711
0.102873
0.141426
0.180642
0.217858
0.251235
0.280054
0.304447
0.325186
0.342971
0.358121
0.370952
0.381712
0.390892
0.398832
0.405547
0.411336
0.416666
0.421317
0.425235
0.428832
0.431922
0.434979
0.4371
0.438814
0.439761
0.440015
0.438209
0.432679
0.415207
0.36939
0.267481
0.0945474
0.00775775
0.00895266
0.0235514
0.0213353
0.0173481
0.0379334
0.0674807
0.102592
0.141051
0.180222
0.217424
0.250806
0.279641
0.304062
0.324694
0.342243
0.357285
0.370103
0.380972
0.390092
0.397901
0.404696
0.410457
0.415447
0.420114
0.424201
0.427632
0.430782
0.43346
0.436106
0.437814
0.439074
0.439486
0.439021
0.435962
0.42771
0.403944
0.345461
0.227751
0.0655708
0.00621037
0.0090569
0.0236339
0.0213065
0.0173142
0.0378386
0.0672918
0.102326
0.140696
0.179784
0.216959
0.250339
0.279186
0.303629
0.324289
0.34174
0.356555
0.369267
0.380122
0.38935
0.397101
0.403767
0.40961
0.414575
0.418903
0.423008
0.42661
0.429599
0.432336
0.434624
0.436867
0.438154
0.438933
0.438749
0.437416
0.432688
0.420748
0.388796
0.316668
0.18348
0.0447301
0.00563554
0.00912653
0.0235657
0.021286
0.0172928
0.0377735
0.0671375
0.102062
0.140363
0.179372
0.216479
0.249844
0.278698
0.303153
0.323836
0.341318
0.356043
0.368536
0.379287
0.388499
0.396356
0.402966
0.408682
0.413734
0.418036
0.421805
0.425428
0.428592
0.431172
0.433521
0.43543
0.437267
0.438115
0.438372
0.437507
0.435062
0.428075
0.411156
0.368923
0.283171
0.138448
0.0299332
0.00548521
0.00911924
0.0235146
0.021272
0.0172796
0.0377348
0.0670327
0.101844
0.140028
0.178985
0.216025
0.249337
0.27818
0.302649
0.323341
0.340848
0.355606
0.368016
0.378555
0.387665
0.395505
0.402222
0.407883
0.412808
0.417201
0.420945
0.424235
0.427422
0.430184
0.432379
0.434353
0.435887
0.437306
0.437682
0.437355
0.435675
0.431752
0.42169
0.398148
0.343882
0.244136
0.0994661
0.0195009
0.0054542
0.0090694
0.0235187
0.021257
0.0172717
0.0377164
0.0669766
0.1017
0.139753
0.178596
0.215605
0.24886
0.277658
0.302115
0.322824
0.340336
0.355122
0.367566
0.378029
0.386932
0.394674
0.401371
0.407137
0.412011
0.416279
0.420116
0.423382
0.426241
0.429028
0.431411
0.43324
0.434846
0.435998
0.436972
0.436829
0.435836
0.433118
0.42719
0.412948
0.380823
0.313938
0.199665
0.0696818
0.0124498
0.00543871
0.00906394
0.0235897
0.0212383
0.0172608
0.0377066
0.0669516
0.101626
0.139572
0.178274
0.215177
0.24842
0.277168
0.301585
0.322277
0.339806
0.354595
0.367071
0.377567
0.386401
0.393939
0.40054
0.406288
0.411265
0.415483
0.419199
0.42256
0.425397
0.427861
0.430275
0.432298
0.433766
0.435001
0.435755
0.436245
0.435521
0.433725
0.429635
0.420965
0.401093
0.358307
0.279049
0.152852
0.047728
0.00805997
0.00542417
0.00908607
0.0236687
0.0212134
0.0172453
0.0376905
0.066944
0.101599
0.139485
0.178064
0.214825
0.24797
0.276719
0.301088
0.32174
0.33925
0.354055
0.366531
0.377061
0.385931
0.393403
0.399804
0.405457
0.410418
0.414741
0.418406
0.42165
0.424584
0.427027
0.429124
0.431185
0.432855
0.433964
0.434817
0.435143
0.435097
0.4337
0.430885
0.424932
0.412518
0.385231
0.33058
0.238443
0.111432
0.0320724
0.00565145
0.00542335
0.0091068
0.023781
0.0211839
0.0172219
0.0376627
0.0669247
0.101595
0.139452
0.177961
0.214591
0.2476
0.276259
0.300634
0.321239
0.33871
0.353493
0.365982
0.376511
0.385413
0.392926
0.399263
0.40472
0.409587
0.413896
0.417666
0.420861
0.423681
0.426224
0.428303
0.430054
0.431773
0.433092
0.433832
0.43428
0.434135
0.433485
0.431271
0.427107
0.418608
0.401129
0.364467
0.298253
0.192538
0.0788064
0.020855
0.00453651
0.00541875
0.00911549
0.0239149
0.0211469
0.0171941
0.0376182
0.066886
0.101574
0.139451
0.177921
0.214472
0.247348
0.275879
0.300167
0.32078
0.338207
0.352951
0.365415
0.375954
0.384853
0.392398
0.39878
0.404174
0.40885
0.413066
0.416827
0.420125
0.422897
0.425329
0.427511
0.429248
0.430667
0.432046
0.433008
0.433361
0.433371
0.432697
0.431344
0.428086
0.422097
0.410118
0.385934
0.338453
0.26012
0.14526
0.0542136
0.0130887
0.00410183
0.00540923
0.00912276
0.0240618
0.0211064
0.0171556
0.0375608
0.0668151
0.101527
0.139428
0.177916
0.214417
0.247212
0.275611
0.29978
0.320307
0.337745
0.352445
0.364871
0.375383
0.38429
0.39183
0.398244
0.403685
0.408299
0.412327
0.415998
0.419291
0.422165
0.424551
0.426627
0.42847
0.429879
0.430972
0.432007
0.432595
0.432534
0.432057
0.430779
0.428563
0.423925
0.415444
0.398759
0.365868
0.307427
0.216058
0.104995
0.0361418
0.0081978
0.00396108
0.00539247
0.00913181
0.0241999
0.0210596
0.0171114
0.0374786
0.0667229
0.10143
0.139372
0.177885
0.214401
0.247138
0.27546
0.299501
0.319914
0.33727
0.351982
0.364364
0.374838
0.383715
0.391261
0.397671
0.403144
0.407806
0.411772
0.415258
0.418465
0.421336
0.423824
0.425857
0.427598
0.429119
0.430208
0.430972
0.431652
0.431842
0.431327
0.4303
0.428305
0.424981
0.418475
0.406595
0.383533
0.340465
0.271059
0.167763
0.0741519
0.0232743
0.00539643
0.00391231
0.00538555
0.00914383
0.024341
0.0210105
0.0170627
0.0373842
0.0665874
0.101301
0.139248
0.177814
0.214354
0.247101
0.275361
0.299333
0.319625
0.336871
0.351504
0.363899
0.37433
0.38317
0.390684
0.397096
0.402565
0.407261
0.411276
0.4147
0.417723
0.420513
0.423002
0.425136
0.426838
0.428262
0.429467
0.430237
0.430665
0.430968
0.430724
0.429701
0.428043
0.42515
0.420354
0.411306
0.394734
0.36341
0.31008
0.228358
0.122593
0.0507192
0.0144886
0.00398574
0.00389135
0.00537383
0.00916927
0.0245979
0.0209646
0.0170107
0.0372785
0.0664305
0.10111
0.139085
0.177667
0.214266
0.247034
0.275303
0.299212
0.31944
0.336572
0.351103
0.363421
0.373863
0.38266
0.390138
0.396517
0.401988
0.406678
0.41073
0.414201
0.417162
0.419772
0.422185
0.424322
0.426126
0.427514
0.428629
0.42952
0.429965
0.430041
0.429937
0.429213
0.427614
0.425192
0.421128
0.414334
0.401778
0.378909
0.338086
0.2744
0.180304
0.0868807
0.0332936
0.0088555
0.00339391
0.00387613
0.00538119
0.00923662
0.0247513
0.0209228
0.0169629
0.0371647
0.0662542
0.100887
0.138841
0.177472
0.214092
0.246922
0.275208
0.299131
0.319298
0.336371
0.350795
0.363017
0.373385
0.382191
0.389626
0.395971
0.401407
0.406098
0.410144
0.413655
0.416662
0.419208
0.421445
0.423511
0.425323
0.426813
0.427896
0.428705
0.429278
0.429385
0.429083
0.428531
0.427266
0.42499
0.421602
0.415967
0.406438
0.389093
0.35819
0.307768
0.23208
0.132615
0.0601892
0.0210801
0.0055313
0.00318469
0.00387193
0.00540969
0.00925028
0.0247784
0.0208812
0.0169198
0.0370622
0.0660643
0.100637
0.138558
0.177185
0.21387
0.246724
0.275073
0.29901
0.319195
0.336208
0.350581
0.362702
0.37298
0.381714
0.389156
0.395458
0.400861
0.405516
0.409563
0.413068
0.416115
0.418707
0.420879
0.422775
0.42452
0.42602
0.427208
0.427991
0.428492
0.428735
0.428481
0.427767
0.426712
0.424827
0.421715
0.417057
0.40928
0.396018
0.372321
0.332249
0.272035
0.184032
0.0940046
0.039981
0.0129423
0.00377129
0.00311912
0.00388187
0.00540941
0.00928104
0.0248103
0.0208466
0.0168795
0.0369706
0.0658922
0.100366
0.13824
0.176855
0.21355
0.24648
0.274851
0.29885
0.319048
0.336083
0.350398
0.362476
0.372659
0.381308
0.388679
0.394987
0.400347
0.404971
0.408981
0.412486
0.41553
0.418161
0.420377
0.422207
0.423787
0.425228
0.426431
0.427321
0.427801
0.427984
0.427876
0.427232
0.426058
0.424434
0.421801
0.417617
0.411243
0.400534
0.382219
0.350466
0.301387
0.229435
0.135105
0.0654951
0.0253705
0.00780598
0.00299802
0.0031063
0.00387691
0.00540136
0.00934453
0.0248389
0.0208149
0.0168446
0.0368833
0.0657384
0.10012
0.137896
0.176483
0.213188
0.246136
0.274587
0.298606
0.318865
0.335915
0.350252
0.362276
0.372422
0.380981
0.388272
0.394509
0.399874
0.404457
0.408436
0.411905
0.414946
0.417576
0.419832
0.421706
0.42322
0.424502
0.425652
0.426562
0.427152
0.427322
0.427168
0.426682
0.425607
0.423912
0.421618
0.41805
0.41244
0.403717
0.389005
0.364024
0.323411
0.264705
0.181079
0.095192
0.0437462
0.0155642
0.00480497
0.00273109
0.00309734
0.00386615
0.00540786
0.00941907
0.0248647
0.020787
0.0168142
0.036808
0.0655938
0.0999052
0.137585
0.176083
0.212783
0.245756
0.274227
0.298324
0.3186
0.335708
0.350061
0.36211
0.372205
0.380736
0.387941
0.394102
0.399397
0.403983
0.407922
0.411362
0.414368
0.416994
0.419248
0.421162
0.422718
0.423938
0.424935
0.425801
0.426416
0.4267
0.426544
0.426028
0.425125
0.423565
0.421269
0.418151
0.413359
0.40581
0.393874
0.373773
0.340638
0.29151
0.220843
0.131962
0.0661889
0.0278073
0.00929775
0.00324998
0.00265123
0.00308633
0.00385815
0.0054185
0.00948807
0.0248879
0.0207634
0.0167886
0.0367438
0.065468
0.0996982
0.137311
0.175723
0.212351
0.245333
0.273836
0.297951
0.318304
0.335426
0.349835
0.3619
0.372024
0.380507
0.387689
0.393768
0.39899
0.403505
0.407448
0.410848
0.413827
0.416417
0.418669
0.420582
0.422178
0.423438
0.424374
0.425095
0.425676
0.425991
0.425954
0.425448
0.424536
0.423166
0.421055
0.418034
0.413853
0.407416
0.39722
0.380912
0.353802
0.312138
0.253234
0.171231
0.0920513
0.0441067
0.0169666
0.005538
0.00259263
0.0026255
0.00307474
0.00385928
0.00544295
0.00957423
0.0249086
0.0207444
0.0167677
0.0366899
0.0653584
0.0995172
0.13705
0.175411
0.211964
0.244888
0.273408
0.297557
0.317919
0.335116
0.349536
0.361654
0.371797
0.380312
0.387449
0.393508
0.398654
0.403098
0.406969
0.410374
0.413314
0.415879
0.418095
0.420005
0.421602
0.422901
0.423877
0.42454
0.424986
0.425278
0.425279
0.4249
0.424012
0.422658
0.420768
0.417999
0.414055
0.408456
0.399789
0.385974
0.363855
0.328684
0.278666
0.207398
0.122833
0.0634193
0.0278605
0.0100441
0.00348366
0.00236927
0.00261205
0.00306801
0.00386624
0.00547175
0.00968534
0.0249279
0.0207304
0.0167527
0.0366478
0.0652697
0.0993636
0.136822
0.175109
0.211631
0.244494
0.272964
0.297127
0.31752
0.334722
0.349214
0.361339
0.371535
0.380069
0.387242
0.39326
0.398388
0.402761
0.406561
0.409896
0.412838
0.415367
0.41756
0.419435
0.421031
0.422331
0.423346
0.424048
0.42444
0.424607
0.424598
0.424266
0.423514
0.422203
0.420359
0.417857
0.414267
0.409102
0.401592
0.38988
0.371178
0.341737
0.2987
0.238089
0.156571
0.0847985
0.0417915
0.0168447
0.00587357
0.00253097
0.00230407
0.00260352
0.0030655
0.00387527
0.00554174
0.0096936
0.0249458
0.0207199
0.0167428
0.0366158
0.0651998
0.0992363
0.136624
0.174844
0.211309
0.244157
0.272574
0.29669
0.317094
0.334321
0.348812
0.361007
0.371205
0.379792
0.386986
0.393043
0.398132
0.40249
0.406223
0.409486
0.412361
0.414892
0.417051
0.418906
0.420466
0.421765
0.422783
0.423523
0.423954
0.424073
0.423952
0.423624
0.422931
0.421768
0.419989
0.417577
0.414316
0.409659
0.402854
0.392743
0.376899
0.351797
0.314505
0.262958
0.189793
0.109974
0.0576838
0.0259863
0.00987289
0.00355781
0.00218307
0.0022862
0.00259751
0.00306725
0.00390881
0.00556463
0.00971265
0.0249626
0.0207115
0.0167371
0.0365988
0.0651482
0.099137
0.136464
0.174617
0.211026
0.243829
0.272241
0.29631
0.316663
0.333897
0.34841
0.360599
0.370863
0.37945
0.386696
0.392776
0.397908
0.40223
0.40595
0.409147
0.41195
0.414415
0.416577
0.418398
0.419942
0.421208
0.422225
0.422969
0.423438
0.423596
0.423434
0.423008
0.422337
0.421247
0.419632
0.417318
0.414207
0.409975
0.403894
0.394866
0.381211
0.359873
0.327332
0.282495
0.219471
0.138344
0.0753551
0.0371927
0.0154787
0.00569789
0.00244976
0.00207965
0.00228172
0.00259354
0.00308247
0.00391361
0.00560028
0.00972676
0.0249788
0.0207061
0.0167336
0.0365902
0.0651199
0.0990626
0.136338
0.174432
0.210783
0.243544
0.27192
0.295986
0.316291
0.333475
0.347988
0.360195
0.370451
0.379098
0.386342
0.392475
0.397632
0.401999
0.405685
0.40887
0.41161
0.414003
0.416099
0.417926
0.419438
0.42069
0.421676
0.422422
0.422896
0.423091
0.422969
0.422512
0.421759
0.42071
0.419186
0.417057
0.414096
0.410102
0.404589
0.39658
0.384518
0.366093
0.337848
0.298005
0.243533
0.169131
0.0951311
0.0503548
0.0226459
0.00893153
0.00339106
0.0020307
0.00205445
0.00228059
0.00259921
0.00308831
0.00392663
0.00564688
0.00973582
0.0249952
0.0206984
0.0167315
0.0365856
0.0651064
0.0990246
0.136244
0.174285
0.210585
0.243298
0.271642
0.295673
0.315977
0.333112
0.347575
0.359776
0.370043
0.378681
0.385983
0.392112
0.397321
0.401716
0.405451
0.408604
0.411331
0.413661
0.415686
0.417448
0.418968
0.420191
0.421167
0.421883
0.42236
0.422562
0.422478
0.422063
0.421289
0.420178
0.418717
0.416701
0.413961
0.410194
0.405046
0.397809
0.387168
0.371002
0.34636
0.310754
0.263021
0.196171
0.119021
0.0647568
0.0315763
0.0132307
0.00508364
0.0022919
0.00190768
0.00204913
0.00228552
0.0025981
0.00309473
0.00395027
0.00568628
0.00974306
0.025011
0.0206931
0.0167285
0.036584
0.0651011
0.0990087
0.136195
0.174175
0.210424
0.243095
0.2714
0.295408
0.315674
0.332807
0.347222
0.35937
0.369626
0.37827
0.385559
0.391745
0.39695
0.401398
0.405163
0.408367
0.411062
0.41338
0.415343
0.417034
0.418491
0.419723
0.420673
0.421384
0.421833
0.422041
0.421966
0.421589
0.42086
0.41975
0.418244
0.416314
0.413722
0.410229
0.405417
0.398727
0.389151
0.374925
0.35333
0.321582
0.278898
0.220024
0.143915
0.0803672
0.0421474
0.0187716
0.0075015
0.00301012
0.0018817
0.00187715
0.0020557
0.0022846
0.00259964
0.00310402
0.00398991
0.00569578
0.00974903
0.0250268
0.0206868
0.0167264
0.0365801
0.0650989
0.099
0.136173
0.174116
0.210305
0.242931
0.271199
0.295174
0.315419
0.332515
0.346926
0.359025
0.369225
0.377853
0.385145
0.391315
0.396578
0.401021
0.40484
0.408077
0.410824
0.413109
0.41506
0.416692
0.418076
0.419248
0.42021
0.420898
0.421346
0.421529
0.421462
0.421097
0.420408
0.419348
0.417865
0.415911
0.413439
0.410143
0.405686
0.399486
0.390713
0.377947
0.358923
0.330687
0.292038
0.239876
0.169275
0.0980694
0.053614
0.025638
0.0107314
0.00422665
0.00206314
0.00176438
0.00187548
0.00205749
0.00228093
0.00260213
0.00312248
0.00401411
0.00570281
0.0097547
0.0250421
0.0206775
0.0167234
0.0365769
0.0650938
0.0989966
0.136163
0.17409
0.210237
0.242803
0.271032
0.294977
0.315194
0.332271
0.346643
0.358739
0.368886
0.377458
0.384729
0.3909
0.396143
0.400645
0.404459
0.407751
0.410532
0.41287
0.414789
0.416407
0.417733
0.418833
0.419737
0.420439
0.420869
0.421056
0.420967
0.420613
0.419941
0.418924
0.417497
0.415587
0.413122
0.409996
0.405809
0.400081
0.392013
0.380403
0.363339
0.338163
0.303087
0.256505
0.191935
0.118165
0.0658729
0.0336154
0.0148433
0.00597388
0.00253781
0.00173094
0.00174104
0.00187673
0.0020564
0.00227684
0.00261372
0.00313157
0.00404391
0.00570716
0.00976026
0.0250578
0.0206752
0.0167179
0.0365714
0.0650885
0.0989896
0.136157
0.174074
0.210204
0.24273
0.270904
0.294811
0.315003
0.332056
0.346412
0.358466
0.36861
0.377125
0.384337
0.390483
0.395724
0.400207
0.404079
0.407368
0.410203
0.412578
0.414548
0.416134
0.417446
0.418489
0.419321
0.41997
0.420417
0.420591
0.420511
0.42014
0.419482
0.418486
0.417106
0.415261
0.412867
0.409794
0.405844
0.40049
0.393058
0.382451
0.367009
0.344312
0.312397
0.270489
0.2125
0.138803
0.0787277
0.0425546
0.0197848
0.00828417
0.00335605
0.00182227
0.00164541
0.00173918
0.00187951
0.00205599
0.00228162
0.00262258
0.00316016
0.00405838
0.00571006
0.00976597
0.0250731
0.0206643
0.0167197
0.0365607
0.0650787
0.098981
0.136146
0.174062
0.210178
0.242688
0.270825
0.294681
0.314836
0.331868
0.346206
0.358244
0.368347
0.376856
0.384009
0.390093
0.395306
0.399785
0.403636
0.406984
0.409819
0.412248
0.414256
0.415893
0.417173
0.418202
0.418978
0.419555
0.419953
0.420148
0.42006
0.419704
0.419034
0.418057
0.416705
0.414914
0.412596
0.40963
0.405798
0.400774
0.393861
0.384126
0.370075
0.349569
0.320333
0.281905
0.230108
0.160467
0.0930165
0.0518883
0.0255658
0.0111372
0.00453564
0.00209362
0.0015971
0.00162989
0.00174223
0.00188159
0.00205293
0.0022853
0.00264359
0.0031804
0.00406318
0.00571277
0.00977188
0.0250871
0.020653
0.0167069
0.0365691
0.0650626
0.0989657
0.136131
0.174041
0.210156
0.242652
0.270776
0.2946
0.314706
0.331704
0.346024
0.358047
0.368133
0.376602
0.383746
0.389769
0.394917
0.399364
0.403212
0.40654
0.409432
0.411862
0.413926
0.415601
0.416932
0.417927
0.418691
0.419212
0.41954
0.41969
0.419629
0.419271
0.418622
0.417638
0.416312
0.414557
0.412303
0.409432
0.405759
0.400943
0.39449
0.385474
0.372608
0.353966
0.327241
0.291587
0.244672
0.180443
0.109386
0.0616505
0.0320178
0.014546
0.0060649
0.00258401
0.0016179
0.00154435
0.00162994
0.00174418
0.00188416
0.00205183
0.00229538
0.0026482
0.00320127
0.00406545
0.0057157
0.00977818
0.0251015
0.0206428
0.0166981
0.036538
0.065074
0.0989405
0.136107
0.17402
0.210129
0.24262
0.270726
0.294543
0.314621
0.331574
0.345861
0.357871
0.367942
0.376396
0.3835
0.38951
0.394596
0.398975
0.40279
0.406113
0.408986
0.411474
0.41354
0.415272
0.416642
0.417688
0.418416
0.418924
0.419198
0.41928
0.419178
0.418853
0.41821
0.417255
0.415928
0.414207
0.411998
0.40921
0.405661
0.401076
0.394953
0.386576
0.374702
0.357634
0.333148
0.300008
0.257067
0.198121
0.127027
0.0718713
0.0390865
0.0184832
0.00794665
0.00330231
0.00173692
0.00148683
0.00153621
0.00163066
0.00174727
0.00188396
0.00205318
0.00229807
0.0026663
0.00321114
0.00406712
0.00571887
0.00978461
0.0251148
0.0206328
0.0166901
0.0365191
0.0650209
0.0989589
0.136073
0.173986
0.210093
0.242578
0.270682
0.294482
0.314556
0.331487
0.345732
0.357711
0.367772
0.37621
0.383301
0.38927
0.39434
0.398654
0.4024
0.405688
0.408558
0.411027
0.413152
0.414887
0.416314
0.4174
0.418177
0.41865
0.41891
0.41894
0.418774
0.418413
0.417809
0.416867
0.415579
0.413866
0.411701
0.408975
0.405534
0.40112
0.395326
0.387445
0.376457
0.36073
0.3382
0.307383
0.267797
0.213878
0.144257
0.0831797
0.0464731
0.0229624
0.0101781
0.00424862
0.00198179
0.00146472
0.00146056
0.00153708
0.00163361
0.00174956
0.00188238
0.00205857
0.00230703
0.00268482
0.00321336
0.00406916
0.00572236
0.00979161
0.0251279
0.0206215
0.0166818
0.0365012
0.0649872
0.0988778
0.136095
0.173938
0.210045
0.242528
0.270628
0.294426
0.314488
0.331415
0.345643
0.357582
0.367617
0.376045
0.38312
0.389076
0.394105
0.3984
0.402079
0.405296
0.408131
0.410598
0.412704
0.414499
0.415932
0.417074
0.417891
0.418413
0.418636
0.418653
0.418437
0.418017
0.41739
0.41649
0.415221
0.413556
0.41141
0.408742
0.405389
0.401126
0.395574
0.388154
0.377884
0.36337
0.342582
0.313856
0.27692
0.227623
0.161446
0.0955224
0.054161
0.0278912
0.0127665
0.00541823
0.00236809
0.00149115
0.00140128
0.0014583
0.00154063
0.00163764
0.00175177
0.00188428
0.00206747
0.00233063
0.00269695
0.00321411
0.00407162
0.00572632
0.00979895
0.0251404
0.0206118
0.0166722
0.0364825
0.0649548
0.0988264
0.135983
0.17396
0.209983
0.242464
0.270564
0.29436
0.314419
0.331338
0.345566
0.357491
0.367489
0.375893
0.38296
0.3889
0.393915
0.398167
0.401825
0.404975
0.407739
0.41017
0.412275
0.414054
0.415546
0.416696
0.41757
0.418129
0.418401
0.41838
0.418152
0.417683
0.417004
0.416094
0.41487
0.413235
0.411149
0.408512
0.405243
0.401105
0.395766
0.388689
0.379063
0.365555
0.346379
0.319578
0.284826
0.239398
0.177454
0.108903
0.0620742
0.0332348
0.0156723
0.00680827
0.00289867
0.00158129
0.00136107
0.00139117
0.00146148
0.0015456
0.00164202
0.00175324
0.00188574
0.0020828
0.00233974
0.00269995
0.00321532
0.00407458
0.0057306
0.00980683
0.0251533
0.0206
0.0166612
0.0364598
0.0649209
0.0987764
0.135912
0.173818
0.21
0.242386
0.270483
0.294282
0.314341
0.33126
0.345482
0.357409
0.367396
0.375767
0.382811
0.388743
0.393743
0.397982
0.401594
0.40472
0.407415
0.409776
0.411846
0.413625
0.415102
0.416314
0.417197
0.417814
0.418123
0.418148
0.417881
0.417401
0.416677
0.415721
0.414496
0.412916
0.41087
0.408307
0.405091
0.401074
0.395915
0.389144
0.380001
0.367378
0.349556
0.324605
0.291809
0.249584
0.191902
0.12298
0.0702066
0.0388885
0.0188834
0.00839553
0.00356798
0.00174784
0.00134314
0.00133603
0.00139273
0.00146576
0.00154771
0.00164568
0.00174774
0.00189315
0.00207943
0.00235513
0.00269966
0.00321733
0.00407789
0.0057354
0.00981511
0.0251662
0.0205883
0.0166505
0.0364367
0.064882
0.0987241
0.135845
0.173729
0.209831
0.242397
0.270391
0.294185
0.31425
0.331169
0.345394
0.35732
0.367309
0.375675
0.382687
0.388598
0.39359
0.397814
0.401411
0.40449
0.40716
0.409451
0.411451
0.413195
0.414675
0.415873
0.416819
0.417447
0.417813
0.417874
0.417652
0.417134
0.4164
0.415403
0.414141
0.412569
0.41059
0.40808
0.404959
0.401027
0.396043
0.38953
0.380821
0.368874
0.352233
0.328929
0.297966
0.258553
0.204979
0.136803
0.0788806
0.044629
0.022401
0.0101688
0.0043593
0.0019969
0.00135242
0.00129141
0.00133451
0.00139647
0.00146858
0.00155017
0.00163824
0.00174823
0.00189257
0.00210451
0.00235722
0.0027002
0.00321989
0.00408155
0.00574064
0.00982405
0.0251799
0.0205736
0.016637
0.0364078
0.0648364
0.098663
0.135771
0.173638
0.209721
0.242203
0.270392
0.294081
0.314141
0.331067
0.345293
0.357227
0.367216
0.375584
0.382595
0.388477
0.393449
0.397664
0.401246
0.404309
0.406931
0.409195
0.411126
0.4128
0.414246
0.415449
0.416383
0.417075
0.417454
0.417572
0.417384
0.416908
0.416136
0.415132
0.413835
0.412236
0.410277
0.407845
0.404797
0.400989
0.396136
0.389873
0.381539
0.370205
0.354481
0.332645
0.30341
0.266394
0.216606
0.150709
0.0883384
0.0504013
0.0261748
0.0121309
0.0052618
0.00232354
0.00139502
0.00125718
0.00128434
0.0013376
0.00140075
0.00147186
0.00154856
0.0016401
0.00175256
0.0019091
0.00210858
0.00235685
0.00270183
0.00322284
0.00408556
0.00574648
0.00983355
0.0251942
0.0205575
0.0166221
0.0363791
0.0647876
0.0985973
0.135691
0.173549
0.209617
0.242079
0.270179
0.294071
0.314023
0.330946
0.345181
0.357117
0.367119
0.375487
0.382504
0.388388
0.39333
0.397525
0.401099
0.404145
0.40675
0.408965
0.410868
0.412474
0.413851
0.415022
0.415964
0.416646
0.417089
0.417223
0.41709
0.416647
0.415916
0.414875
0.413573
0.411948
0.409973
0.407573
0.404621
0.400914
0.396227
0.390159
0.38218
0.37138
0.356504
0.335855
0.308196
0.273215
0.226822
0.164042
0.0985459
0.0563322
0.0301232
0.0142875
0.0062745
0.00272146
0.00147503
0.00123395
0.00124107
0.00128647
0.00134187
0.00140493
0.00147539
0.00155381
0.00164315
0.00176201
0.00191481
0.00211346
0.00235673
0.00270419
0.00322613
0.00409001
0.00575284
0.0098437
0.0252105
0.0205428
0.0166057
0.0363429
0.0647319
0.0985187
0.135597
0.173446
0.20951
0.241958
0.270038
0.293842
0.314003
0.330818
0.34505
0.356996
0.367002
0.375387
0.382405
0.388296
0.393243
0.397409
0.400962
0.404
0.406587
0.408785
0.410638
0.412215
0.413525
0.414628
0.41554
0.416233
0.416668
0.416867
0.416751
0.416362
0.415662
0.41466
0.413324
0.411697
0.409707
0.407307
0.404402
0.400815
0.39627
0.390426
0.382734
0.372432
0.358302
0.338782
0.312414
0.279116
0.235767
0.176434
0.109453
0.0623687
0.0342612
0.0166015
0.00741006
0.00318836