/*--------------------------------*- C++ -*----------------------------------*\
| =========                 |                                                 |
| \\      /  F ield         | OpenFOAM: The Open Source CFD Toolbox           |
|  \\    /   O peration     | Version:  v2012                                 |
|   \\  /    A nd           | Website:  www.openfoam.com                      |
|    \\/     M anipulation  |                                                 |
\*---------------------------------------------------------------------------*/
FoamFile
{
    version     2.0;
    format      ascii;
    class       volVectorField;
    location    "3900";
    object      U;
}
// * * * * * * * * * * * * * * * * * * * * * * * * * * * * * * * * * * * * * //

dimensions      [0 1 -1 0 0 0 0];


internalField   nonuniform List<vector> 
29502
(
(141.768 1.52932 0)
(27.2349 0.00520458 0)
(392.725 4.69411 0)
(28.8583 0.000188654 0)
(79.2044 0.0117433 0)
(535.579 8.00265 0)
(31.4657 -0.000221834 0)
(84.3568 -1.46761e-05 0)
(129.631 0.0307352 0)
(649.637 11.2388 0)
(33.082 0.000622988 0)
(91.8331 -0.00260198 0)
(138.818 -0.000593421 0)
(179.096 0.057939 0)
(744.982 14.3461 0)
(33.8851 0.000690335 0)
(96.4189 -0.000887367 0)
(151.074 -0.00812898 0)
(192.753 -0.00305872 0)
(228.056 0.111987 0)
(826.336 17.097 0)
(34.2411 -0.000290375 0)
(98.606 -7.1141e-05 0)
(158.342 -0.00411447 0)
(209.711 -0.0167977 0)
(246.405 -0.00939197 0)
(276.891 0.180953 0)
(896.762 19.6181 0)
(34.3681 -0.000630161 0)
(99.5163 -0.00109532 0)
(161.685 -0.00248808 0)
(219.497 -0.00869097 0)
(267.868 -0.0293867 0)
(299.645 -0.0216511 0)
(325.912 0.2995 0)
(958.375 21.875 0)
(34.3217 -0.0011479 0)
(99.8195 -0.0013238 0)
(162.899 -0.00220418 0)
(223.857 -0.00539958 0)
(280.005 -0.0155538 0)
(325.096 -0.0463964 0)
(351.991 -0.0385535 0)
(375.385 0.40909 0)
(1012.73 23.954 0)
(34.1942 -0.00121524 0)
(99.6117 -0.00217053 0)
(163.164 -0.00175828 0)
(225.229 -0.00401251 0)
(285.272 -0.00951151 0)
(339.307 -0.0245321 0)
(380.481 -0.0683043 0)
(402.83 -0.0599064 0)
(425.535 0.591083 0)
(1061.02 25.829 0)
(33.9898 0.000132825 0)
(99.2264 -0.00147067 0)
(162.647 -0.0026284 0)
(225.34 -0.00295976 0)
(286.712 -0.00646227 0)
(345.338 -0.0149722 0)
(396.325 -0.0359462 0)
(433.086 -0.0954428 0)
(451.715 -0.0824252 0)
(476.538 0.730225 0)
(1104.15 27.5229 0)
(33.7976 0.00041997 0)
(98.6202 0.000384704 0)
(161.882 -0.00124077 0)
(224.429 -0.00317838 0)
(286.616 -0.00506153 0)
(346.781 -0.0103054 0)
(402.936 -0.0218803 0)
(450.019 -0.0498009 0)
(482.349 -0.127731 0)
(498.584 -0.104139 0)
(528.559 0.95903 0)
(1142.87 29.0503 0)
(33.6204 -0.000132924 0)
(98.0493 0.000878475 0)
(160.824 0.000609301 0)
(223.229 -0.00113067 0)
(285.273 -0.00432504 0)
(346.468 -0.00740218 0)
(404.331 -0.0150326 0)
(456.996 -0.0302639 0)
(499.824 -0.0660923 0)
(528.198 -0.165562 0)
(543.853 -0.122292 0)
(581.704 1.15039 0)
(1177.7 30.4279 0)
(33.4527 -0.000312622 0)
(97.5227 -0.000247225 0)
(159.837 0.00116115 0)
(221.692 0.000969772 0)
(283.619 -0.0011424 0)
(344.701 -0.00601001 0)
(403.82 -0.00975459 0)
(458.305 -0.0198163 0)
(506.971 -0.040073 0)
(545.723 -0.0848898 0)
(571.147 -0.20813 0)
(587.928 -0.136759 0)
(636.072 1.40836 0)
(1209.13 31.6692 0)
(33.2299 -0.00034473 0)
(97.0274 -0.000482797 0)
(158.93 -0.000406842 0)
(220.273 0.00155897 0)
(281.608 0.00137228 0)
(342.625 -0.00115117 0)
(401.682 -0.00764234 0)
(457.632 -0.0130928 0)
(508.16 -0.0261973 0)
(552.892 -0.0513344 0)
(588.275 -0.106237 0)
(611.778 -0.255062 0)
(630.98 -0.148584 0)
(691.664 1.67692 0)
(1237.56 32.7882 0)
(33.0275 -0.000170943 0)
(96.3851 -0.00035695 0)
(158.088 -0.000482201 0)
(218.97 -0.000546665 0)
(279.755 0.00201662 0)
(340.17 0.00182121 0)
(399.25 -0.00122734 0)
(455.193 -0.00964535 0)
(507.36 -0.0170199 0)
(553.939 -0.0335207 0)
(595.33 -0.0640703 0)
(628.05 -0.130292 0)
(650.411 -0.302985 0)
(673.209 -0.161297 0)
(748.389 1.99069 0)
(1263.33 33.7974 0)
(32.839 -0.000869701 0)
(95.805 -0.000248837 0)
(157.022 -0.000128709 0)
(217.77 -0.000951538 0)
(278.061 -0.00040811 0)
(337.921 0.00253448 0)
(396.42 0.00230741 0)
(452.483 -0.00136086 0)
(504.683 -0.0119082 0)
(553.031 -0.0214577 0)
(596.207 -0.0419105 0)
(634.839 -0.0783693 0)
(665.364 -0.157046 0)
(687.306 -0.349676 0)
(714.828 -0.173916 0)
(806.056 2.34461 0)
(1286.7 34.7127 0)
(32.6924 -0.000899294 0)
(95.2634 -0.00120804 0)
(156.066 -0.000128831 0)
(216.282 -3.78469e-06 0)
(276.506 -0.00131113 0)
(335.857 -0.000269509 0)
(393.83 0.00305322 0)
(449.357 0.00282624 0)
(501.767 -0.00155652 0)
(550.158 -0.0144381 0)
(595.204 -0.0263987 0)
(635.517 -0.0513826 0)
(671.733 -0.0942307 0)
(700.501 -0.186678 0)
(722.709 -0.394355 0)
(755.956 -0.181513 0)
(864.299 2.74265 0)
(1307.93 35.5399 0)
(32.5401 -0.00103968 0)
(94.8408 -0.00171895 0)
(155.18 -0.000651244 0)
(214.954 -0.000187698 0)
(274.609 0.000553424 0)
(333.969 -0.000542306 0)
(391.44 -0.000276669 0)
(446.494 0.0036142 0)
(498.414 0.00336937 0)
(547.078 -0.0018251 0)
(592.165 -0.0172005 0)
(634.42 -0.0318678 0)
(672.171 -0.0619758 0)
(706.293 -0.111752 0)
(733.755 -0.219105 0)
(756.857 -0.434849 0)
(796.855 -0.166372 0)
(922.844 3.19212 0)
(1327.25 36.2716 0)
(32.3656 -0.000400797 0)
(94.4055 -0.00202295 0)
(154.486 -0.0021444 0)
(213.728 -0.000442574 0)
(272.923 0.000102709 0)
(331.697 0.0016869 0)
(389.262 0.000393331 0)
(443.836 -0.000263077 0)
(495.34 0.00420175 0)
(543.544 0.0039272 0)
(588.949 -0.00212584 0)
(631.239 -0.0201893 0)
(670.975 -0.0378562 0)
(706.452 -0.0737783 0)
(738.804 -0.130952 0)
(765.42 -0.255322 0)
(789.97 -0.47578 0)
(837.92 -0.130922 0)
(980.965 3.70679 0)
(1344.83 36.9152 0)
(32.2144 0.000366022 0)
(93.9126 -0.000606123 0)
(153.778 -0.00247455 0)
(212.769 -0.00258879 0)
(271.37 -0.000366389 0)
(329.684 0.000920626 0)
(386.678 0.00268564 0)
(441.419 0.000835589 0)
(492.465 -0.000259694 0)
(540.306 0.00480225 0)
(585.266 0.0045374 0)
(627.917 -0.00245739 0)
(667.667 -0.0233823 0)
(705.135 -0.0443429 0)
(738.638 -0.0867839 0)
(769.541 -0.152097 0)
(795.781 -0.294699 0)
(822.318 -0.519178 0)
(879.431 -0.0754581 0)
(1037.92 4.28943 0)
(1360.83 37.4669 0)
(32.0819 0.000829769 0)
(93.4882 0.000893492 0)
(152.985 -0.00056444 0)
(211.795 -0.00282904 0)
(270.152 -0.00300882 0)
(327.832 -0.000130492 0)
(384.384 0.00163023 0)
(438.589 0.00384829 0)
(489.855 0.00126918 0)
(537.256 -0.0002223 0)
(581.887 0.00545609 0)
(624.108 0.00520359 0)
(664.252 -0.00279273 0)
(701.707 -0.0267474 0)
(737.171 -0.0512816 0)
(768.994 -0.100868 0)
(798.76 -0.175264 0)
(825.084 -0.334734 0)
(854.209 -0.556771 0)
(921.526 0.00939133 0)
(1092.9 4.93867 0)
(1375.42 37.9251 0)
(31.9553 0.000673946 0)
(93.1174 0.00127036 0)
(152.307 0.000921874 0)
(210.715 -0.000397707 0)
(268.927 -0.00309621 0)
(326.377 -0.00344913 0)
(382.274 0.000170039 0)
(436.069 0.00244484 0)
(486.843 0.00526209 0)
(534.492 0.00185105 0)
(578.684 -0.000122066 0)
(620.607 0.00617007 0)
(660.342 0.00594771 0)
(698.21 -0.0031029 0)
(733.614 -0.0302621 0)
(767.334 -0.0586333 0)
(797.762 -0.115947 0)
(826.702 -0.200369 0)
(853.547 -0.374889 0)
(885.946 -0.583782 0)
(964.17 0.130206 0)
(1145.07 5.65858 0)
(1388.7 38.2843 0)
(31.8406 -0.000298973 0)
(92.7592 0.00111934 0)
(151.715 0.00116589 0)
(209.796 0.000464378 0)
(267.574 -6.59156e-05 0)
(324.916 -0.00328557 0)
(380.607 -0.0038578 0)
(433.751 0.000624105 0)
(484.149 0.00339054 0)
(531.341 0.00689507 0)
(575.784 0.00250699 0)
(617.267 6.61159e-05 0)
(656.736 0.00696143 0)
(694.211 0.00678795 0)
(730.04 -0.00335962 0)
(763.642 -0.0338797 0)
(795.857 -0.0662577 0)
(825.166 -0.131791 0)
(853.599 -0.227491 0)
(881.383 -0.41645 0)
(917.799 -0.596759 0)
(1007.04 0.299533 0)
(1193.59 6.44743 0)
(1400.8 38.5344 0)
(31.7346 -0.00155063 0)
(92.4372 -0.000894154 0)
(151.142 0.00120337 0)
(208.994 0.000939892 0)
(266.429 4.60074e-05 0)
(323.317 0.000260517 0)
(378.946 -0.00342844 0)
(431.91 -0.00429132 0)
(481.667 0.00120309 0)
(528.51 0.00445357 0)
(572.523 0.00881873 0)
(614.251 0.00330592 0)
(653.278 0.000390445 0)
(690.517 0.00784801 0)
(725.963 0.00775416 0)
(759.982 -0.00353448 0)
(792.013 -0.0375716 0)
(822.952 -0.0742928 0)
(851.402 -0.147809 0)
(879.665 -0.255653 0)
(908.829 -0.462467 0)
(950.03 -0.568492 0)
(1049.46 0.543019 0)
(1237.79 7.30726 0)
(1411.79 38.6766 0)
(31.6206 -0.00230374 0)
(92.1381 -0.0027202 0)
(150.631 -0.00111911 0)
(208.219 0.0012552 0)
(265.429 0.000502233 0)
(321.969 1.00877e-06 0)
(377.14 1.2286e-05 0)
(430.086 -0.0035287 0)
(479.683 -0.00474993 0)
(525.902 0.00188917 0)
(569.573 0.00570069 0)
(610.891 0.0110786 0)
(650.161 0.00428204 0)
(686.954 0.000878318 0)
(722.188 0.00884759 0)
(755.831 0.00887373 0)
(788.259 -0.00355991 0)
(818.933 -0.0412957 0)
(848.819 -0.0828841 0)
(876.659 -0.164485 0)
(905.098 -0.284183 0)
(936.124 -0.511155 0)
(982.9 -0.518373 0)
(1090.86 0.891333 0)
(1277.18 8.2274 0)
(1421.78 38.6947 0)
(31.5035 -0.00260819 0)
(91.8178 -0.00453294 0)
(150.157 -0.00324167 0)
(207.528 -0.000850236 0)
(264.462 0.00131693 0)
(320.787 0.00018831 0)
(375.619 0.0004926 0)
(428.117 -0.000188117 0)
(477.728 -0.00353229 0)
(523.8 -0.00511651 0)
(566.852 0.00272535 0)
(607.836 0.00716113 0)
(646.722 0.0137438 0)
(683.751 0.00546773 0)
(718.53 0.00154437 0)
(751.978 0.00999249 0)
(784.029 0.0101926 0)
(815.071 -0.00336397 0)
(844.592 -0.0449741 0)
(873.64 -0.0918724 0)
(901.12 -0.182193 0)
(930.087 -0.312628 0)
(963.511 -0.557683 0)
(1016.68 -0.453815 0)
(1131.88 1.37231 0)
(1311.59 9.20552 0)
(1430.83 38.5714 0)
(31.3918 -0.00233943 0)
(91.4906 -0.00514848 0)
(149.651 -0.00560831 0)
(206.893 -0.00392315 0)
(263.603 -4.10375e-05 0)
(319.644 0.00149551 0)
(374.277 0.000923026 0)
(426.452 0.00136703 0)
(475.635 0.000935233 0)
(521.739 -0.00329653 0)
(564.644 -0.0054064 0)
(605.019 0.00373097 0)
(643.584 0.00888025 0)
(680.248 0.0168594 0)
(715.248 0.00690449 0)
(748.232 0.00245695 0)
(780.1 0.011318 0)
(810.757 0.0117577 0)
(840.599 -0.00289664 0)
(869.162 -0.0485114 0)
(897.585 -0.101094 0)
(924.957 -0.200282 0)
(954.821 -0.340108 0)
(991.231 -0.591628 0)
(1051.65 -0.371142 0)
(1173.28 2.02285 0)
(1341.12 10.2417 0)
(1439.02 38.3084 0)
(31.3007 -0.00172337 0)
(91.1812 -0.00471987 0)
(149.136 -0.0063902 0)
(206.214 -0.00665268 0)
(262.814 -0.00476522 0)
(318.632 0.000409698 0)
(372.985 0.00183255 0)
(424.976 0.0018398 0)
(473.854 0.00242601 0)
(519.552 0.00241214 0)
(562.494 -0.00287023 0)
(602.713 -0.00552521 0)
(640.683 0.00494272 0)
(677.037 0.0109102 0)
(711.692 0.0205056 0)
(744.879 0.00863718 0)
(776.273 0.00363672 0)
(806.749 0.0128678 0)
(836.192 0.0136343 0)
(865.011 -0.002039 0)
(892.803 -0.0517653 0)
(920.812 -0.110306 0)
(948.338 -0.218347 0)
(979.488 -0.365556 0)
(1019.53 -0.608475 0)
(1088.05 -0.262042 0)
(1214.73 2.87207 0)
(1366.11 11.3346 0)
(1446.42 37.862 0)
(31.2221 -0.000162235 0)
(90.9319 -0.00358468 0)
(148.652 -0.00593099 0)
(205.526 -0.00755043 0)
(261.976 -0.00770136 0)
(317.706 -0.00571231 0)
(371.843 -1.14041e-05 0)
(423.561 0.00233771 0)
(472.269 0.00268902 0)
(517.68 0.00342998 0)
(560.228 0.00378404 0)
(600.48 -0.00221396 0)
(638.292 -0.00541386 0)
(674.063 0.00640819 0)
(708.419 0.0133052 0)
(741.271 0.0247679 0)
(772.85 0.0107203 0)
(802.839 0.00516884 0)
(832.1 0.014707 0)
(860.494 0.0158788 0)
(888.46 -0.000658326 0)
(915.666 -0.0545331 0)
(943.468 -0.119226 0)
(971.424 -0.235294 0)
(1004.28 -0.387057 0)
(1048.66 -0.588207 0)
(1125.91 -0.112258 0)
(1255.68 3.93887 0)
(1387.09 12.4908 0)
(1453.08 37.2009 0)
(31.1509 0.00107688 0)
(90.7179 -0.000487657 0)
(148.267 -0.00458882 0)
(204.883 -0.00718451 0)
(261.129 -0.00871451 0)
(316.726 -0.00881866 0)
(370.8 -0.00670181 0)
(422.31 -0.000779412 0)
(470.756 0.00301642 0)
(516 0.00353918 0)
(558.273 0.004249 0)
(598.145 0.00532164 0)
(635.982 -0.00122722 0)
(671.596 -0.0050953 0)
(705.383 0.00822395 0)
(737.945 0.016122 0)
(769.193 0.0297372 0)
(799.349 0.0132052 0)
(828.105 0.0071459 0)
(856.311 0.0169045 0)
(883.816 0.0186146 0)
(911.095 0.00140612 0)
(937.905 -0.0566267 0)
(965.696 -0.12739 0)
(994.375 -0.250583 0)
(1029.41 -0.403873 0)
(1078.84 -0.532869 0)
(1164.91 0.108391 0)
(1295.28 5.20427 0)
(1404.63 13.7353 0)
(1459.1 36.2988 0)
(31.0757 0.00125777 0)
(90.5236 0.00152358 0)
(147.938 -0.000880321 0)
(204.378 -0.00572492 0)
(260.343 -0.00843431 0)
(315.738 -0.00991575 0)
(369.698 -0.0100249 0)
(421.169 -0.00778167 0)
(469.416 -0.00181638 0)
(514.409 0.00379462 0)
(556.512 0.00453639 0)
(596.115 0.00496884 0)
(633.588 0.00720988 0)
(669.225 0.000127936 0)
(702.846 -0.00447939 0)
(734.856 0.0104667 0)
(765.818 0.019425 0)
(795.644 0.0355239 0)
(824.544 0.0161658 0)
(852.226 0.00962966 0)
(879.529 0.0195625 0)
(906.301 0.0219802 0)
(933.074 0.00436923 0)
(959.668 -0.0578785 0)
(987.636 -0.13417 0)
(1017.36 -0.262192 0)
(1055.07 -0.412731 0)
(1110.27 -0.451626 0)
(1204.04 0.42012 0)
(1332.32 6.60531 0)
(1419.3 15.0881 0)
(1464.52 34.9706 0)
(30.9984 0.00106364 0)
(90.3185 0.00187927 0)
(147.639 0.000922344 0)
(203.947 -0.00139557 0)
(259.729 -0.00687496 0)
(314.822 -0.00972282 0)
(368.588 -0.0111572 0)
(419.964 -0.0112905 0)
(468.194 -0.00880611 0)
(512.991 -0.00253528 0)
(554.849 0.00468188 0)
(594.279 0.00565592 0)
(631.496 0.00600511 0)
(666.781 0.0094302 0)
(700.419 0.001849 0)
(732.256 -0.00354225 0)
(762.679 0.0131922 0)
(792.22 0.0232914 0)
(820.787 0.0422382 0)
(848.589 0.0196806 0)
(875.345 0.0127614 0)
(901.893 0.0228004 0)
(928.103 0.0261306 0)
(954.536 0.00847744 0)
(981.073 -0.0580515 0)
(1009.42 -0.13905 0)
(1040.53 -0.269825 0)
(1081.49 -0.392452 0)
(1143.03 -0.328344 0)
(1241.74 0.869166 0)
(1365.28 8.0154 0)
(1431.61 16.6331 0)
(1469.23 33.4185 0)
(30.9155 0.000645195 0)
(90.1074 0.00176485 0)
(147.324 0.00168183 0)
(203.554 0.000640178 0)
(259.205 -0.00194965 0)
(314.111 -0.00811204 0)
(367.561 -0.0110452 0)
(418.761 -0.012387 0)
(466.909 -0.0125193 0)
(511.704 -0.00978484 0)
(553.367 -0.00270633 0)
(592.555 0.00571881 0)
(629.593 0.0069418 0)
(664.632 0.00738855 0)
(697.934 0.0120818 0)
(729.775 0.00410065 0)
(760.021 -0.00216287 0)
(789.034 0.0164791 0)
(817.319 0.0278062 0)
(844.777 0.0500219 0)
(871.629 0.0238271 0)
(897.605 0.0166372 0)
(923.56 0.0267656 0)
(949.362 0.0313031 0)
(975.588 0.0141403 0)
(1002.22 -0.056261 0)
(1031.19 -0.140931 0)
(1064.09 -0.27069 0)
(1108.92 -0.345242 0)
(1177.15 -0.148239 0)
(1278.22 1.52937 0)
(1392.77 9.29976 0)
(1441.78 18.2312 0)
(1473.2 31.9352 0)
(30.8326 1.1739e-05 0)
(89.8809 0.000954859 0)
(147.001 0.00176258 0)
(203.142 0.00139775 0)
(258.728 0.000727651 0)
(313.502 -0.00258418 0)
(366.767 -0.00942143 0)
(417.646 -0.0123745 0)
(465.633 -0.0135783 0)
(510.355 -0.0136722 0)
(552.018 -0.0106566 0)
(591.015 -0.00256395 0)
(627.817 0.00692734 0)
(662.67 0.00838527 0)
(695.736 0.00904635 0)
(727.252 0.0152196 0)
(757.488 0.00705243 0)
(786.32 -0.000280011 0)
(814.086 0.0204152 0)
(841.265 0.0330627 0)
(867.754 0.0590383 0)
(893.802 0.0287076 0)
(919.155 0.0214536 0)
(944.662 0.0316457 0)
(970.174 0.0375545 0)
(996.319 0.0216347 0)
(1023.21 -0.0520759 0)
(1053.08 -0.13698 0)
(1088.21 -0.255998 0)
(1137.56 -0.269349 0)
(1212.52 0.0941298 0)
(1314.24 2.49408 0)
(1414.32 10.3714 0)
(1450.29 19.6309 0)
(1476.43 30.4047 0)
(30.7509 -0.00108072 0)
(89.6515 -0.000126794 0)
(146.65 0.000847154 0)
(202.721 0.00167831 0)
(258.228 0.0011677 0)
(312.949 0.000646827 0)
(366.085 -0.00326952 0)
(416.785 -0.0107817 0)
(464.45 -0.0136496 0)
(509.023 -0.0146641 0)
(550.611 -0.0146736 0)
(589.607 -0.0113887 0)
(626.226 -0.00232629 0)
(660.845 0.00834019 0)
(693.72 0.0100235 0)
(725.012 0.0110505 0)
(754.929 0.0189509 0)
(783.738 0.0106013 0)
(811.315 0.00211106 0)
(837.987 0.0251009 0)
(864.197 0.039169 0)
(889.857 0.0694719 0)
(915.257 0.0343846 0)
(940.129 0.0272738 0)
(965.293 0.0378556 0)
(990.623 0.0453083 0)
(1016.82 0.0311111 0)
(1044.14 -0.0445652 0)
(1075.27 -0.126497 0)
(1113.11 -0.223848 0)
(1167.59 -0.146668 0)
(1248.72 0.41535 0)
(1348.76 3.84573 0)
(1430.7 11.2461 0)
(1457.49 21.0193 0)
(1478.92 28.9054 0)
(30.6727 -0.00126741 0)
(89.4267 -0.0017845 0)
(146.299 -0.000147355 0)
(202.262 0.00066724 0)
(257.718 0.00145284 0)
(312.374 0.00106365 0)
(365.464 0.000533019 0)
(416.035 -0.00398347 0)
(463.529 -0.0121685 0)
(507.784 -0.0148456 0)
(549.227 -0.0155713 0)
(588.147 -0.0154534 0)
(624.766 -0.0119295 0)
(659.207 -0.00194477 0)
(691.853 0.00999497 0)
(722.948 0.0118741 0)
(752.65 0.0134519 0)
(781.144 0.023352 0)
(808.684 0.0149059 0)
(835.157 0.00524329 0)
(860.87 0.0306577 0)
(886.248 0.046256 0)
(911.239 0.0815173 0)
(936.124 0.0411466 0)
(960.614 0.0341726 0)
(985.531 0.045861 0)
(1010.79 0.0556582 0)
(1037.18 0.0430732 0)
(1065.13 -0.0315026 0)
(1097.91 -0.104655 0)
(1138.99 -0.16435 0)
(1199.07 0.0386808 0)
(1284.61 0.854387 0)
(1380.26 5.548 0)
(1443.31 11.8868 0)
(1463.6 22.1958 0)
(1480.7 27.4124 0)
(30.5924 -0.00140082 0)
(89.2118 -0.00236424 0)
(145.953 -0.00166987 0)
(201.8 -3.72524e-05 0)
(257.162 0.00023004 0)
(311.787 0.00101615 0)
(364.821 0.0019243 0)
(415.354 0.000385189 0)
(462.717 -0.0046955 0)
(506.814 -0.0135397 0)
(547.942 -0.0158861 0)
(586.72 -0.0162251 0)
(623.262 -0.0159614 0)
(657.705 -0.0121886 0)
(690.171 -0.00138205 0)
(721.041 0.0119309 0)
(750.544 0.0139602 0)
(778.829 0.0163271 0)
(806.059 0.0285346 0)
(832.475 0.0201223 0)
(857.984 0.00935866 0)
(882.871 0.0372193 0)
(907.571 0.0544844 0)
(932.028 0.0953249 0)
(956.489 0.0494346 0)
(980.687 0.0425836 0)
(1005.45 0.055889 0)
(1030.75 0.0695696 0)
(1057.48 0.0580625 0)
(1086.34 -0.0116915 0)
(1121.18 -0.0668109 0)
(1166.07 -0.0710904 0)
(1231.84 0.301315 0)
(1318.59 1.47356 0)
(1407.21 7.40556 0)
(1453.24 12.2751 0)
(1468.66 23.3131 0)
(1481.83 25.9872 0)
(30.5235 -0.00150075 0)
(88.994 -0.00276391 0)
(145.622 -0.00287305 0)
(201.347 -0.00200216 0)
(256.602 -5.35303e-05 0)
(311.141 0.000963098 0)
(364.167 0.00177344 0)
(414.651 0.00256961 0)
(461.986 0.000218216 0)
(505.946 -0.00539198 0)
(546.929 -0.0148608 0)
(585.391 -0.0167072 0)
(621.802 -0.0165261 0)
(656.164 -0.0161364 0)
(688.628 -0.0121118 0)
(719.316 -0.00056554 0)
(748.597 0.014189 0)
(776.679 0.0163347 0)
(803.709 0.0197702 0)
(829.819 0.0345691 0)
(855.248 0.0263915 0)
(879.927 0.0145204 0)
(904.138 0.0449383 0)
(928.292 0.064037 0)
(952.305 0.11096 0)
(976.425 0.0594552 0)
(1000.42 0.0529851 0)
(1025.13 0.0684137 0)
(1050.6 0.0880577 0)
(1077.82 0.0776936 0)
(1107.94 0.0181692 0)
(1145.28 -0.00866307 0)
(1194.53 0.0714364 0)
(1265.53 0.649094 0)
(1350.74 2.39082 0)
(1428.5 9.18999 0)
(1461.22 12.6573 0)
(1472.75 24.1187 0)
(1482.42 24.6136 0)
(30.4671 -0.00158545 0)
(88.8036 -0.003103 0)
(145.288 -0.00356712 0)
(200.919 -0.00352488 0)
(256.055 -0.00271646 0)
(310.495 -0.000162985 0)
(363.45 0.00209127 0)
(413.945 0.0031203 0)
(461.234 0.00290669 0)
(505.167 7.07841e-05 0)
(546.008 -0.00605284 0)
(584.336 -0.0160438 0)
(620.432 -0.0171985 0)
(654.669 -0.0164945 0)
(687.055 -0.0158111 0)
(717.737 -0.0116719 0)
(746.837 0.000575981 0)
(774.696 0.0168129 0)
(801.518 0.0190474 0)
(827.435 0.0238439 0)
(852.558 0.0416006 0)
(877.138 0.0338723 0)
(901.135 0.0208734 0)
(924.8 0.0540042 0)
(948.495 0.0751254 0)
(972.142 0.128632 0)
(996.002 0.0713779 0)
(1019.88 0.0657304 0)
(1044.64 0.0841992 0)
(1070.4 0.11257 0)
(1098.34 0.105476 0)
(1130.1 0.063507 0)
(1170.42 0.0800835 0)
(1224.47 0.279186 0)
(1299.42 1.0862 0)
(1381.31 3.69009 0)
(1444.33 10.5043 0)
(1467.58 13.062 0)
(1475.85 24.7869 0)
(1482.71 23.1049 0)
(30.4224 -0.00141775 0)
(88.6474 -0.00337944 0)
(144.993 -0.00409821 0)
(200.478 -0.00448517 0)
(255.538 -0.00424264 0)
(309.867 -0.00330343 0)
(362.734 -0.000615352 0)
(413.17 0.00206441 0)
(460.483 0.00378552 0)
(504.37 0.0032482 0)
(545.184 -2.55816e-05 0)
(583.362 -0.00663611 0)
(619.337 -0.0169368 0)
(653.266 -0.0173583 0)
(685.529 -0.0158677 0)
(716.134 -0.0149068 0)
(745.221 -0.0107455 0)
(772.902 0.00203017 0)
(799.498 0.0198483 0)
(825.205 0.0221665 0)
(850.14 0.0287103 0)
(874.409 0.0497583 0)
(898.294 0.0427236 0)
(921.733 0.0285685 0)
(944.936 0.0646318 0)
(968.247 0.0880181 0)
(991.603 0.14862 0)
(1015.28 0.0856801 0)
(1039.14 0.0814061 0)
(1064.06 0.104149 0)
(1090.25 0.14324 0)
(1119.2 0.144442 0)
(1153 0.128622 0)
(1196.8 0.209757 0)
(1255.77 0.571546 0)
(1332.31 1.65995 0)
(1408.73 5.51117 0)
(1455.87 11.3382 0)
(1472.52 13.7449 0)
(1478.08 25.3741 0)
(1482.69 21.7368 0)
(30.389 -0.00131736 0)
(88.5328 -0.00314829 0)
(144.758 -0.00456627 0)
(200.094 -0.00520244 0)
(255.006 -0.00544163 0)
(309.278 -0.00496717 0)
(362.037 -0.00389753 0)
(412.399 -0.00119044 0)
(459.661 0.00200457 0)
(503.583 0.00432158 0)
(544.347 0.00358287 0)
(582.495 -6.28919e-05 0)
(618.315 -0.00709977 0)
(652.134 -0.0175301 0)
(684.096 -0.0169907 0)
(714.58 -0.014509 0)
(743.586 -0.0133524 0)
(771.251 -0.00922578 0)
(797.668 0.003873 0)
(823.148 0.0233758 0)
(847.872 0.0257835 0)
(871.958 0.0343811 0)
(895.527 0.059213 0)
(918.84 0.0530997 0)
(941.801 0.0377805 0)
(964.615 0.0770851 0)
(987.613 0.103003 0)
(1010.75 0.171338 0)
(1034.34 0.102821 0)
(1058.26 0.100713 0)
(1083.45 0.1294 0)
(1110.26 0.181413 0)
(1140.57 0.198255 0)
(1176.83 0.221944 0)
(1224.6 0.396894 0)
(1288.01 0.96344 0)
(1363.16 2.45575 0)
(1431.44 7.58394 0)
(1464.43 11.5762 0)
(1476.19 14.4527 0)
(1479.48 25.7039 0)
(1482.63 20.3989 0)
(30.3636 -0.00109214 0)
(88.4401 -0.00299554 0)
(144.585 -0.00433416 0)
(199.787 -0.00587789 0)
(254.539 -0.00637187 0)
(308.667 -0.00647241 0)
(361.388 -0.00574402 0)
(411.651 -0.00448533 0)
(458.848 -0.00128005 0)
(502.728 0.00200204 0)
(543.529 0.00488945 0)
(581.626 0.00393438 0)
(617.407 -3.8383e-05 0)
(651.073 -0.00742049 0)
(682.931 -0.0178809 0)
(713.122 -0.015943 0)
(742.012 -0.0124791 0)
(769.588 -0.0110021 0)
(795.985 -0.00702275 0)
(821.283 0.00620514 0)
(845.779 0.0274724 0)
(869.652 0.0300042 0)
(893.039 0.0409963 0)
(916.034 0.0701105 0)
(938.852 0.065189 0)
(961.407 0.0487198 0)
(983.898 0.0916609 0)
(1006.65 0.120452 0)
(1029.65 0.197217 0)
(1053.22 0.12342 0)
(1077.31 0.124578 0)
(1102.92 0.161372 0)
(1130.57 0.231007 0)
(1162.63 0.27221 0)
(1201.8 0.35338 0)
(1253.85 0.659202 0)
(1320.36 1.45489 0)
(1391.93 3.64165 0)
(1448.57 9.74157 0)
(1470.81 11.3934 0)
(1478.81 15.1486 0)
(1480.2 25.8378 0)
(1482.52 18.9749 0)
(30.3394 -0.00100475 0)
(88.374 -0.0025821 0)
(144.452 -0.00425081 0)
(199.569 -0.00575513 0)
(254.17 -0.00731935 0)
(308.127 -0.00762931 0)
(360.711 -0.00753129 0)
(410.955 -0.00651188 0)
(458.059 -0.0050176 0)
(501.88 -0.00134027 0)
(542.638 0.00235986 0)
(580.779 0.00570405 0)
(616.499 0.00433178 0)
(650.123 8.55615e-05 0)
(681.825 -0.00755 0)
(711.925 -0.0178136 0)
(740.529 -0.0142522 0)
(767.993 -0.00955629 0)
(794.295 -0.00771249 0)
(819.567 -0.0040312 0)
(843.88 0.00912054 0)
(867.521 0.0322469 0)
(890.695 0.0349646 0)
(913.505 0.0487059 0)
(936.003 0.0826451 0)
(958.396 0.0792188 0)
(980.61 0.0616343 0)
(1002.85 0.108732 0)
(1025.42 0.140811 0)
(1048.36 0.22688 0)
(1072 0.14828 0)
(1096.37 0.154192 0)
(1122.54 0.202138 0)
(1151.37 0.296063 0)
(1185.57 0.373429 0)
(1228.1 0.537541 0)
(1284.38 1.01893 0)
(1351.6 2.07788 0)
(1418.09 5.25591 0)
(1460.68 11.2088 0)
(1475.52 11.195 0)
(1480.39 15.9011 0)
(1480.63 25.709 0)
(1482.4 17.3743 0)
(30.3125 -0.000842333 0)
(88.3111 -0.0023915 0)
(144.357 -0.00373244 0)
(199.401 -0.00577678 0)
(253.912 -0.0073159 0)
(307.703 -0.00890691 0)
(360.109 -0.00895636 0)
(410.222 -0.00859937 0)
(457.328 -0.00724848 0)
(501.058 -0.00548745 0)
(541.763 -0.00128337 0)
(579.855 0.00293813 0)
(615.626 0.00660762 0)
(649.182 0.00481278 0)
(680.844 0.000386198 0)
(710.778 -0.00743733 0)
(739.301 -0.0170557 0)
(766.487 -0.011754 0)
(792.68 -0.00561738 0)
(817.85 -0.00334131 0)
(842.13 -0.000130648 0)
(865.588 0.0127241 0)
(888.528 0.0378401 0)
(911.124 0.0408393 0)
(933.433 0.0576795 0)
(955.5 0.0970317 0)
(977.531 0.0954273 0)
(999.469 0.0768229 0)
(1021.51 0.128724 0)
(1043.99 0.164617 0)
(1066.93 0.261012 0)
(1090.75 0.178404 0)
(1115.52 0.19106 0)
(1142.47 0.254826 0)
(1172.84 0.382179 0)
(1209.58 0.511805 0)
(1255.85 0.792496 0)
(1315.6 1.48888 0)
(1380.73 2.92225 0)
(1439.9 7.55321 0)
(1468.96 12.1491 0)
(1478.77 11.2412 0)
(1481.26 16.8082 0)
(1480.89 25.6151 0)
(1482.32 15.6174 0)
(30.279 -0.000624078 0)
(88.2427 -0.00200931 0)
(144.268 -0.00349061 0)
(199.288 -0.00520338 0)
(253.719 -0.00751363 0)
(307.415 -0.00905023 0)
(359.643 -0.0106251 0)
(409.574 -0.0103118 0)
(456.553 -0.00963185 0)
(500.3 -0.00792278 0)
(540.908 -0.00586747 0)
(578.95 -0.00109178 0)
(614.678 0.00364443 0)
(648.284 0.0075461 0)
(679.871 0.00539919 0)
(709.766 0.000874478 0)
(738.118 -0.00695902 0)
(765.231 -0.0156315 0)
(791.151 -0.00829671 0)
(816.212 -0.00051219 0)
(840.386 0.00227076 0)
(863.807 0.00480832 0)
(886.561 0.0171544 0)
(908.921 0.0444203 0)
(931.011 0.0478137 0)
(952.884 0.0681113 0)
(974.583 0.113536 0)
(996.314 0.114102 0)
(1018.04 0.0946355 0)
(1039.95 0.152161 0)
(1062.39 0.192542 0)
(1085.44 0.300572 0)
(1109.53 0.215106 0)
(1134.85 0.237344 0)
(1162.89 0.323723 0)
(1195.16 0.49653 0)
(1234.85 0.700651 0)
(1284.98 1.14085 0)
(1346.44 2.07479 0)
(1407.75 4.13905 0)
(1456.12 9.82442 0)
(1474.77 12.4578 0)
(1480.6 11.5241 0)
(1481.73 17.7359 0)
(1481.02 25.4416 0)
(1482.39 13.6593 0)
(30.2387 -0.000446793 0)
(88.1498 -0.00153532 0)
(144.169 -0.00295236 0)
(199.181 -0.00487971 0)
(253.588 -0.00686601 0)
(307.194 -0.00946891 0)
(359.322 -0.010954 0)
(409.068 -0.0124516 0)
(455.866 -0.0116853 0)
(499.493 -0.010623 0)
(540.126 -0.00851517 0)
(578.072 -0.0061047 0)
(613.752 -0.000729743 0)
(647.312 0.00449156 0)
(678.951 0.00853969 0)
(708.766 0.00612579 0)
(737.074 0.00156184 0)
(764.016 -0.0061044 0)
(789.87 -0.0135259 0)
(814.664 -0.00378354 0)
(838.726 0.00591863 0)
(862.037 0.00928053 0)
(884.751 0.0109161 0)
(906.921 0.0225813 0)
(928.771 0.0521869 0)
(950.42 0.0561167 0)
(971.918 0.0802454 0)
(993.307 0.132441 0)
(1014.8 0.135588 0)
(1036.37 0.115502 0)
(1058.22 0.179672 0)
(1080.7 0.225408 0)
(1103.94 0.346696 0)
(1128.43 0.260062 0)
(1154.51 0.296353 0)
(1183.97 0.414298 0)
(1218.5 0.649012 0)
(1261.51 0.958007 0)
(1315.05 1.60255 0)
(1375.51 2.80251 0)
(1431.94 5.82641 0)
(1467.11 11.5464 0)
(1478.51 12.0455 0)
(1481.53 11.6478 0)
(1482 18.5711 0)
(1481.03 25.2151 0)
(1482.63 11.6543 0)
(30.1922 -0.00015451 0)
(88.0431 -0.00113102 0)
(144.033 -0.00232882 0)
(199.06 -0.00412581 0)
(253.467 -0.00645989 0)
(307.048 -0.00878028 0)
(359.077 -0.0116034 0)
(408.717 -0.012948 0)
(455.327 -0.0143469 0)
(498.775 -0.0130383 0)
(539.294 -0.0115334 0)
(577.269 -0.00897302 0)
(612.854 -0.00617627 0)
(646.368 -0.000186487 0)
(677.961 0.00548821 0)
(707.822 0.00961052 0)
(736.046 0.00703441 0)
(762.938 0.0025321 0)
(788.624 -0.00483543 0)
(813.357 -0.0105325 0)
(837.158 0.00191858 0)
(860.355 0.013836 0)
(882.956 0.0178363 0)
(905.08 0.0183425 0)
(926.736 0.0291949 0)
(948.141 0.0613754 0)
(969.409 0.0660146 0)
(990.588 0.0943453 0)
(1011.72 0.154097 0)
(1033.03 0.16028 0)
(1054.51 0.139934 0)
(1076.37 0.212017 0)
(1098.98 0.264238 0)
(1122.5 0.400909 0)
(1147.54 0.315709 0)
(1174.69 0.372619 0)
(1205.89 0.533868 0)
(1243.05 0.852796 0)
(1289.55 1.30512 0)
(1345.13 2.1899 0)
(1402.53 3.8243 0)
(1451.43 8.26501 0)
(1474.2 12.4788 0)
(1480.61 11.8575 0)
(1482.02 12.0247 0)
(1481.88 19.4048 0)
(1481.05 24.8765 0)
(1482.93 9.593 0)
(30.1398 -2.564e-05 0)
(87.9188 -0.000442977 0)
(143.869 -0.00176039 0)
(198.886 -0.00330516 0)
(253.331 -0.00546246 0)
(306.912 -0.0082632 0)
(358.913 -0.0109203 0)
(408.445 -0.0139297 0)
(454.946 -0.0150086 0)
(498.204 -0.0162999 0)
(538.55 -0.014324 0)
(576.407 -0.0122966 0)
(612.032 -0.00920605 0)
(645.451 -0.00603351 0)
(677.001 0.000580055 0)
(706.814 0.00665085 0)
(735.081 0.0108082 0)
(761.879 0.00815807 0)
(787.511 0.00385677 0)
(812.081 -0.00301037 0)
(835.824 -0.00658196 0)
(858.767 0.00895057 0)
(881.253 0.023387 0)
(903.26 0.0281173 0)
(924.862 0.0272553 0)
(946.068 0.0372407 0)
(967.088 0.0722839 0)
(988.03 0.0778289 0)
(1008.95 0.110736 0)
(1029.88 0.178903 0)
(1051.07 0.188677 0)
(1072.52 0.168574 0)
(1094.46 0.250148 0)
(1117.28 0.310351 0)
(1141.21 0.465118 0)
(1167.02 0.385736 0)
(1195.53 0.4719 0)
(1228.81 0.692388 0)
(1268.96 1.12604 0)
(1318.64 1.76555 0)
(1373.99 2.89113 0)
(1427.43 5.22814 0)
(1465.17 10.7104 0)
(1478.38 12.9352 0)
(1481.64 11.8047 0)
(1482.42 12.4587 0)
(1481.69 20.1794 0)
(1481.11 24.3314 0)
(1483.19 7.59135 0)
(30.0782 -1.25872e-05 0)
(87.7688 -8.71403e-05 0)
(143.678 -0.000781429 0)
(198.674 -0.0025193 0)
(253.124 -0.0044198 0)
(306.763 -0.00700305 0)
(358.761 -0.0102699 0)
(408.26 -0.013229 0)
(454.646 -0.0164138 0)
(497.796 -0.0171134 0)
(537.949 -0.018264 0)
(575.635 -0.0154959 0)
(611.15 -0.0128751 0)
(644.615 -0.00918946 0)
(676.068 -0.00560796 0)
(705.841 0.00161108 0)
(734.055 0.00800911 0)
(760.895 0.0121589 0)
(786.427 0.00956561 0)
(810.935 0.00559183 0)
(834.519 -0.000570852 0)
(857.409 -0.00155095 0)
(879.643 0.0174445 0)
(901.534 0.0347453 0)
(923.016 0.0402873 0)
(944.161 0.0378505 0)
(964.975 0.047006 0)
(985.663 0.0852407 0)
(1006.33 0.0919366 0)
(1027.04 0.129822 0)
(1047.83 0.207355 0)
(1068.96 0.22137 0)
(1090.45 0.202201 0)
(1112.55 0.295226 0)
(1135.68 0.365354 0)
(1160.17 0.542231 0)
(1187.04 0.474997 0)
(1217.22 0.601935 0)
(1252.93 0.903233 0)
(1296.24 1.48977 0)
(1347.98 2.35245 0)
(1400.91 3.8007 0)
(1448.63 7.21652 0)
(1473.67 12.4473 0)
(1480.61 12.8882 0)
(1482.22 11.7734 0)
(1482.59 12.9745 0)
(1481.54 20.862 0)
(1481.21 23.5694 0)
(1483.41 5.73179 0)
(30.0135 -0.000121442 0)
(87.6016 -4.68505e-05 0)
(143.449 -0.000215247 0)
(198.423 -0.0011512 0)
(252.869 -0.00338506 0)
(306.526 -0.00568854 0)
(358.595 -0.0087094 0)
(408.088 -0.0124596 0)
(454.435 -0.0156995 0)
(497.465 -0.0190166 0)
(537.513 -0.0192272 0)
(575.007 -0.0201682 0)
(610.353 -0.0164913 0)
(643.712 -0.0131582 0)
(675.217 -0.00887659 0)
(704.895 -0.0048411 0)
(733.069 0.00295325 0)
(759.855 0.00961078 0)
(785.42 0.0137338 0)
(809.825 0.0112943 0)
(833.344 0.00781775 0)
(856.075 0.00257295 0)
(878.26 0.00464658 0)
(899.902 0.0275483 0)
(921.266 0.0480521 0)
(942.286 0.0545424 0)
(963.031 0.050348 0)
(983.508 0.0588237 0)
(1003.92 0.100644 0)
(1024.37 0.108781 0)
(1044.92 0.152079 0)