/*--------------------------------*- C++ -*----------------------------------*\
| =========                 |                                                 |
| \\      /  F ield         | OpenFOAM: The Open Source CFD Toolbox           |
|  \\    /   O peration     | Version:  v2012                                 |
|   \\  /    A nd           | Website:  www.openfoam.com                      |
|    \\/     M anipulation  |                                                 |
\*---------------------------------------------------------------------------*/
FoamFile
{
    version     2.0;
    format      ascii;
    class       volScalarField;
    location    "3900";
    object      wallHeatFlux;
}
// * * * * * * * * * * * * * * * * * * * * * * * * * * * * * * * * * * * * * //

dimensions      [1 0 -3 0 0 0 0];


internalField   uniform 0;

boundaryField
{
    base
    {
        type            calculated;
        value           nonuniform List<scalar> 
298
(
-321928
-57416.7
-53474.6
-55180.5
-55626.9
-55551.7
-55263.7
-54749.2
-54194.8
-53575.4
-52996.1
-52484.8
-52087.7
-51735.2
-51283.2
-50912.2
-50579.6
-50361.5
-50102.6
-49797.9
-49549.8
-49344.8
-49132.2
-48968.1
-48823.2
-48645.3
-48461.5
-48297.9
-48165.4
-48055
-47950.5
-47839.8
-47712.4
-47590.4
-47463.4
-47335.9
-47217.9
-47098.4
-46998.6
-46925.1
-46876
-46850.8
-46827.1
-46803.3
-46768.6
-46723
-46670.2
-46590.6
-46491
-46390.4
-46279.7
-46176.9
-46079.4
-45992.7
-45913.2
-45840.6
-45784
-45743.7
-45709.2
-45690.7
-45677.6
-45675.8
-45672.8
-45675.5
-45677.8
-45680.3
-45678.5
-45684.5
-45675.5
-45670.3
-45660.3
-45655.7
-45643
-45630.9
-45616
-45598.7
-45576
-45547.2
-45521.1
-45490.6
-45461
-45431.2
-45401.6
-45366.7
-45337.6
-45302.5
-45268.9
-45239.3
-45205.9
-45171.2
-45137.8
-45109.4
-45075.8
-45042.4
-45009.1
-44981.3
-44953.6
-44926.1
-44899.2
-44876.3
-44855.6
-44833
-44817.5
-44796.2
-44780.9
-44759.5
-44743.7
-44729.1
-44714.2
-44705
-44690.7
-44698
-44738.3
-44793.3
-44856
-44919.1
-44980.8
-45039.7
-45093
-45147.5
-45190.5
-45239.9
-45281.1
-45322.5
-45359.7
-45398.9
-45434.6
-45466.5
-45500.9
-45532.7
-45568.8
-45600.5
-45623.7
-45654.1
-45673.9
-45703.6
-45720
-45761.3
-45792.9
-45699
-44363.9
-38603.2
-30071.7
-31931.1
-42321.9
-50344.3
-54480.4
-62210.3
-72033.9
-96145.4
-135840
-190727
-247097
-293661
-355534
-421654
-481152
-531795
-577136
-618022
-652206
-675873
-693993
-710828
-728956
-750471
-778904
-815615
-860711
-917168
-986420
-1.05862e+06
-1.12666e+06
-1.1874e+06
-1.24195e+06
-1.28472e+06
-1.32646e+06
-1.36813e+06
-1.40477e+06
-1.43378e+06
-1.45026e+06
-1.45841e+06
-1.46263e+06
-1.46232e+06
-1.45274e+06
-1.43068e+06
-1.41541e+06
-1.3845e+06
-1.36901e+06
-1.35651e+06
-1.3484e+06
-1.3251e+06
-1.30746e+06
-1.29606e+06
-1.28327e+06
-1.27116e+06
-1.26158e+06
-1.24535e+06
-1.23276e+06
-1.2241e+06
-1.22094e+06
-1.21124e+06
-1.20417e+06
-1.19859e+06
-1.19198e+06
-1.18471e+06
-1.17867e+06
-1.19668e+06
-1.17703e+06
-1.16977e+06
-1.16507e+06
-1.16604e+06
-1.15694e+06
-1.15285e+06
-1.14997e+06
-1.14861e+06
-1.15237e+06
-1.14476e+06
-1.13829e+06
-1.14359e+06
-1.13322e+06
-1.13933e+06
-1.12333e+06
-1.12106e+06
-1.11643e+06
-1.12366e+06
-1.11381e+06
-1.11979e+06
-1.10779e+06
-1.11538e+06
-1.10299e+06
-1.09402e+06
-1.1145e+06
-1.10416e+06
-1.09093e+06
-1.09367e+06
-1.0886e+06
-1.08559e+06
-1.09008e+06
-1.41155e+06
-1.25526e+06
-1.27712e+06
-1.05521e+06
-1.05593e+06
-1.10626e+06
-1.19861e+06
-1.38241e+06
-1.61961e+06
-1.26381e+06
-1.23885e+06
-1.03363e+06
-1.27674e+06
-1.03176e+06
-1.29285e+06
-1.71701e+06
-1.60335e+06
-1.01728e+06
-1.67244e+06
-1.52359e+06
-1.48385e+06
-1.46088e+06
-1.19417e+06
-1.72633e+06
-1.61035e+06
-1.24785e+06
-1.24919e+06
-1.02255e+06
-971120
-969246
-979637
-1.9501e+06
-997271
-1.84888e+06
-1.25771e+06
-1.56642e+06
-1.65057e+06
-973490
-1.59219e+06
-1.73142e+06
-1.68238e+06
-877141
-1.91924e+06
-1.60115e+06
-942638
-1.4011e+06
-1.28363e+06
-1.48724e+06
-1.30661e+06
-1.78685e+06
-1.73556e+06
-1.40266e+06
-814715
-1.67796e+06
-1.56185e+06
-1.83112e+06
-1.37944e+06
-846562
-2.01135e+06
)
;
    }
    frontAndBack
    {
        type            empty;
    }
    inlet
    {
        type            calculated;
        value           uniform 0;
    }
    outlet
    {
        type            calculated;
        value           uniform 0;
    }
    top
    {
        type            calculated;
        value           uniform 0;
    }
}


// ************************************************************************* //
