/*--------------------------------*- C++ -*----------------------------------*\
| =========                 |                                                 |
| \\      /  F ield         | OpenFOAM: The Open Source CFD Toolbox           |
|  \\    /   O peration     | Version:  v2012                                 |
|   \\  /    A nd           | Website:  www.openfoam.com                      |
|    \\/     M anipulation  |                                                 |
\*---------------------------------------------------------------------------*/
FoamFile
{
    version     2.0;
    format      ascii;
    class       volScalarField;
    location    "3900";
    object      xx;
}
// * * * * * * * * * * * * * * * * * * * * * * * * * * * * * * * * * * * * * //

dimensions      [0 0 0 0 0 0 0];


internalField   nonuniform List<scalar> 
29502
(
0.000646079
2.33292e-05
0.000494338
2.31216e-05
2.0371e-05
0.000436403
2.7739e-05
6.58513e-05
1.96976e-05
0.00039494
3.08161e-05
9.49323e-05
0.000812875
2.40134e-05
0.00038003
3.25926e-05
0.000110314
0.00123959
0.00502895
4.0081e-05
0.000387984
3.35063e-05
0.000118564
0.00144792
0.00766737
0.0187023
7.54301e-05
0.000413441
3.37545e-05
0.000122605
0.00155216
0.00890816
0.0283647
0.050112
0.000135302
0.000448463
3.36932e-05
0.000123562
0.00159572
0.00949732
0.0327759
0.075393
0.106675
0.000218771
0.00048919
3.33536e-05
0.000123144
0.00159948
0.00970578
0.0347822
0.0866203
0.159044
0.191755
0.000324211
0.000535596
3.2872e-05
0.000121565
0.0015865
0.00968779
0.0353936
0.0915482
0.181706
0.283829
0.303904
0.000441933
0.000588764
3.24409e-05
0.000119512
0.0015608
0.00957639
0.0352374
0.0928839
0.191366
0.322812
0.448552
0.433784
0.000561209
0.000650112
3.2129e-05
0.000117714
0.00153149
0.00940361
0.0347659
0.0923691
0.193797
0.33903
0.50889
0.64894
0.564889
0.000677869
0.000720992
3.18356e-05
0.000116437
0.00150607
0.0092198
0.0341159
0.0910802
0.192706
0.343003
0.53351
0.736073
0.860319
0.70897
0.000781326
0.000802898
3.13092e-05
0.00011516
0.00148778
0.0090617
0.0334536
0.0894219
0.1901
0.341258
0.539616
0.769899
0.98129
1.09804
0.86601
0.000884394
0.000897384
3.08831e-05
0.000112855
0.00146985
0.00894575
0.0328842
0.0877657
0.186872
0.336975
0.537335
0.77883
1.02844
1.26338
1.3649
1.03454
0.000979912
0.00100628
3.0491e-05
0.00011113
0.00143909
0.00883437
0.0324617
0.0863458
0.18368
0.331777
0.531214
0.776359
1.04151
1.32805
1.58685
1.66157
1.21608
0.00107208
0.00113147
3.02454e-05
0.000109531
0.0014166
0.00865248
0.032061
0.0852756
0.180944
0.326651
0.523861
0.768971
1.03917
1.34693
1.67442
1.95356
1.98763
1.41704
0.00118415
0.00127511
2.99454e-05
0.000108544
0.00139593
0.00851929
0.0314254
0.0842689
0.178852
0.322254
0.516582
0.760034
1.03006
1.34536
1.70131
2.07114
2.36266
2.33971
1.6121
0.00127765
0.00144001
2.95562e-05
0.000107277
0.00138306
0.00839779
0.0309602
0.0827022
0.176888
0.318853
0.510339
0.750914
1.01891
1.33462
1.70162
2.10881
2.51922
2.81292
2.71513
1.79752
0.00132338
0.00162875
2.92633e-05
0.000105665
0.0013668
0.00832171
0.0305382
0.0815589
0.173877
0.315652
0.505462
0.742759
1.00787
1.32116
1.68955
2.11271
2.57167
3.02122
3.30297
3.10487
1.9773
0.00130624
0.00184466
2.90321e-05
0.000104529
0.00134645
0.00822764
0.0302727
0.080522
0.171683
0.310789
0.500838
0.73632
0.998491
1.30761
1.67383
2.10003
2.58172
3.09382
3.57786
3.8315
3.49849
2.15307
0.00124509
0.00209137
2.87853e-05
0.000103627
0.00133253
0.00811136
0.0299497
0.0798722
0.169696
0.307257
0.493869
0.730182
0.991129
1.29625
1.65755
2.08216
2.56935
3.11361
3.67803
4.18804
4.39489
3.88722
2.33225
0.00115243
0.00237235
2.85817e-05
0.000102611
0.00132153
0.00803289
0.0295542
0.0790836
0.168449
0.304056
0.488826
0.720953
0.983961
1.28725
1.64392
2.06302
2.54998
3.10289
3.71255
4.32682
4.84898
4.98393
4.26266
2.53182
0.00107847
0.00269188
2.83938e-05
0.000101812
0.00130892
0.00797111
0.0292897
0.0781278
0.166942
0.302059
0.484265
0.714309
0.973119
1.2784
1.63305
2.04703
2.52801
3.08285
3.70566
4.3818
5.04158
5.55699
5.58586
4.61444
2.76876
0.00104093
0.0030536
2.81701e-05
0.000101072
0.00129932
0.00790017
0.0290818
0.0774925
0.165129
0.299638
0.481419
0.70831
0.965546
1.26511
1.62232
2.03427
2.50991
3.05848
3.68604
4.38199
5.1235
5.82095
6.30682
6.18741
4.92998
2.97947
0.00108026
0.00346164
2.79248e-05
0.000100157
0.0012904
0.00784653
0.028842
0.0769918
0.163931
0.29674
0.477961
0.704566
0.958704
1.25574
1.60606
2.02143
2.49515
3.03826
3.65983
4.36487
5.13579
5.9394
6.66144
7.08941
6.77391
5.19684
2.93264
0.00118662
0.00392036
2.77001e-05
9.91528e-05
0.00127934
0.00779769
0.0286638
0.076413
0.162978
0.294841
0.473848
0.70001
0.954488
1.24733
1.5946
2.00182
2.48015
3.0213
3.63768
4.33747
5.12438
5.97049
6.82946
7.55769
7.89267
7.32876
5.40699
2.78188
0.00137186
0.00443611
2.75403e-05
9.8266e-05
0.00126713
0.00773665
0.0285024
0.0759889
0.161883
0.293313
0.471174
0.694615
0.949259
1.24221
1.5845
1.98814
2.45716
3.00423
3.61887
4.3141
5.09732
5.96859
6.88769
7.79241
8.5023
8.70127
7.83594
5.5642
2.51892
0.00164036
0.00503036
2.74391e-05
9.76746e-05
0.00125657
0.00766927
0.0283018
0.0756113
0.161088
0.291562
0.469
0.691138
0.943045
1.23592
1.57825
1.97605
2.44095
2.97769
3.59965
4.29405
5.07346
5.94403
6.90028
7.88518
8.82409
9.48441
9.49711
8.28064
5.69958
2.1462
0.00199868
0.00558513
2.73331e-05
9.73389e-05
0.00124995
0.00761171
0.0280782
0.0751358
0.160393
0.290308
0.466515
0.688299
0.939202
1.22837
1.57062
1.96866
2.4266
2.95882
3.56931
4.27296
5.05277
5.92153
6.88148
7.91719
8.95318
9.91633
10.4894
10.2586
8.65218
5.87839
1.68638
0.00241809
0.00608951
2.72143e-05
9.69348e-05
0.00124661
0.00757748
0.0278902
0.0746086
0.159507
0.289226
0.464761
0.685055
0.936068
1.22365
1.56148
1.95939
2.41801
2.94207
3.54779
4.23875
5.03061
5.90141
6.8625
7.90767
9.00678
10.0911
11.0618
11.4993
10.9626
8.94915
6.20492
1.19084
0.00288115
0.00666452
2.70731e-05
9.64755e-05
0.00124221
0.00756184
0.0277837
0.0741675
0.158519
0.287822
0.46326
0.682782
0.932441
1.21987
1.55581
1.94839
2.40724
2.93205
3.52869
4.21428
4.99273
5.87835
6.84388
7.89487
9.00919
10.1802
11.3103
12.2517
12.491
11.5838
9.17644
6.67457
0.741734
0.00341216
0.00733638
2.69167e-05
9.59077e-05
0.00123714
0.00753997
0.0277399
0.07393
0.157705
0.286267
0.461286
0.680854
0.929918
1.21543
1.55126
1.9417
2.39429
2.91975
3.51728
4.19291
4.96508
5.83733
6.8209
7.87952
9.00535
10.2024
11.4474
12.6062
13.4603
13.4393
12.0979
9.33704
6.38693
0.410705
0.00400796
0.00804099
2.67445e-05
9.52889e-05
0.00123069
0.00751448
0.0276744
0.073842
0.157285
0.284996
0.459102
0.678293
0.927854
1.21239
1.54592
1.93634
2.38634
2.90485
3.50325
4.18035
4.94118
5.80677
6.77752
7.85818
8.99437
10.2123
11.4979
12.8069
13.9706
14.6651
14.3122
12.4933
9.45926
5.82115
0.209897
0.00465297
0.00872417
2.65751e-05
9.45849e-05
0.00122351
0.0074813
0.0275966
0.0737011
0.157148
0.284378
0.457342
0.675455
0.925019
1.20996
1.54231
1.93003
2.38001
2.89555
3.48621
4.16456
4.92784
5.78055
6.74487
7.81226
8.97653
10.2102
11.5278
12.8967
14.2545
15.3913
15.8382
15.0794
12.7783
9.65427
5.00816
0.10121
0.00532135
0.0093816
2.64088e-05
9.39122e-05
0.00121533
0.00744369
0.0274938
0.0735289
0.156908
0.284202
0.45653
0.673194
0.921835
1.20651
1.53934
1.92587
2.37275
2.8881
3.47561
4.14498
4.91057
5.76634
6.71681
7.77873
8.92532
10.1982
11.5391
12.9547
14.3977
15.782
16.8211
16.9471
15.7113
12.9733
10.1114
3.98405
0.048245
0.00602283
0.0099646
2.62422e-05
9.32485e-05
0.00120743
0.00739976
0.0273748
0.0732997
0.156608
0.283854
0.456333
0.67221
0.91933
1.20254
1.5351
1.92231
2.36802
2.87989
3.46726
4.13309
4.88837
5.74771
6.70155
7.74951
8.89372
10.1467
11.5364
12.9854
14.4942
15.9964
17.3771
18.2073
17.9533
16.1835
13.1224
10.7013
2.87399
0.0233499
0.0067633
0.0103804
2.61058e-05
9.26101e-05
0.0011997
0.00735785
0.027234
0.0730281
0.156195
0.283401
0.455883
0.672023
0.918353
1.19959
1.53038
1.91726
2.36395
2.87442
3.4579
4.12394
4.87503
5.7234
6.68166
7.73401
8.86423
10.1161
11.4867
12.9967
14.5522
16.1449
17.6845
19.022
19.524
18.8164
16.4918
13.2848
9.96308
1.89828
0.0128466
0.00750385
0.0104473
2.60132e-05
9.21015e-05
0.00119235
0.00731725
0.0271008
0.0727061
0.155708
0.282781
0.455286
0.671499
0.91839
1.19856
1.5269
1.91189
2.35807
2.86983
3.45155
4.11348
4.86481
5.70866
6.65567
7.7123
8.84924
10.0871
11.4592
12.9521
14.5835
16.2402
17.9017
19.4488
20.6274
20.7375
19.4973
16.666
13.5941
8.84351
1.16694
0.00896734
0.00811504
0.0104554
2.59585e-05
9.17722e-05
0.00118643
0.00727783
0.0269717
0.0724018
0.155124
0.282038
0.454449
0.670774
0.918002
1.19877
1.52581
1.90775
2.35181
2.86324
3.44665
4.10665
4.85352
5.69741
6.63991
7.68425
8.82379
10.0736
11.4321
12.9301
14.5483
16.2993
18.0472
19.7553
21.2701
22.1441
21.8029
19.9707
16.7708
14.2459
7.33241
0.674127
0.00777412
0.00862405
0.0101163
2.59451e-05
9.16239e-05
0.00118306
0.00724673
0.0268469
0.0721098
0.154574
0.281141
0.453432
0.669732
0.917234
1.19839
1.526
1.9065
2.3469
2.85574
3.43922
4.10118
4.84642
5.68528
6.62774
7.66773
8.79253
10.0477
11.4216
12.9072
14.5356
16.2796
18.1443
19.9673
21.6914
23.0955
23.5434
22.6705
20.2378
16.9139
14.4794
5.52729
0.358981
0.00766816
0.00885142
0.00976743
2.5951e-05
9.16244e-05
0.00118191
0.00723007
0.0267475
0.0718223
0.154049
0.280297
0.452201
0.668439
0.916092
1.19758
1.52572
1.90687
2.34558
2.85006
3.4305
4.09267
4.84046
5.67753
6.61473
7.65479
8.77663
10.0149
11.3961
12.9015
14.5196
16.2809
18.1479
20.1152
21.9897
23.6886
24.801
24.783
23.2968
20.3461
17.2862
13.2657
3.82317
0.171455
0.00787472
0.00885956
0.00949827
2.59556e-05
9.16955e-05
0.0011828
0.00722725
0.026699
0.0715982
0.153531
0.279501
0.451048
0.666868
0.914695
1.19627
1.52496
1.90662
2.34643
2.84881
3.42413
4.08288
4.83111
5.67148
6.60662
7.64101
8.76298
9.99923
11.3625
12.8779
14.5213
16.2759
18.1696
20.1525
22.2046
24.0977
25.6936
26.364
25.8088
23.6625
20.4077
18.085
11.4845
2.46056
0.0750953
0.00806473
0.00888088
0.00929982
2.59438e-05
9.17402e-05
0.00118438
0.00723526
0.0266983
0.0714969
0.153127
0.278705
0.44997
0.665412
0.912997
1.19458
1.52348
1.90573
2.34608
2.84983
3.42284
4.07586
4.82034
5.66153
6.60013
7.63278
8.74682
9.98574
11.3479
12.8445
14.5016
16.2883
18.1807
20.2029
22.2888
24.3995
26.2671
27.5573
27.7466
26.5682
23.8028
20.601
18.3828
9.11127
1.40976
0.0324317
0.00820874
0.00892551
0.00910989
2.59111e-05
9.17117e-05
0.00118565
0.00724795
0.0267365
0.0715182
0.152969
0.278099
0.448888
0.664063
0.911439
1.19255
1.52145
1.90406
2.34506
2.84969
3.42389
4.07443
4.81243
5.64999
6.58926
7.6251
8.7378
9.96931
11.3352
12.832
14.47
16.2751
18.2083
20.2369
22.3786
24.5473
26.68
28.4251
29.2606
28.897
27.0278
23.8291
21.2392
16.8279
6.73212
0.735073
0.0161517
0.00835122
0.00895464
0.00898387
2.58497e-05
9.15739e-05
0.00118588
0.00725865
0.0267888
0.0716274
0.153041
0.277891
0.448087
0.662705
0.909966
1.19063
1.51895
1.90169
2.34334
2.8488
3.42442
4.07579
4.81102
5.64094
6.57647
7.61204
8.73
9.96072
11.3191
12.8212
14.4611
16.2475
18.2053
20.2856
22.4444
24.6901
26.9123
29.0176
30.4223
30.7612
29.7519
27.2134
23.9507
22.3674
14.5851
4.53811
0.336341
0.0105278
0.00847955
0.00894067
0.00891638
2.57578e-05
9.13356e-05
0.00118477
0.00726359
0.0268351
0.0717755
0.153284
0.278057
0.447851
0.66172
0.908511
1.18891
1.5167
1.89877
2.34049
2.84693
3.42385
4.07705
4.81296
5.64
6.56668
7.59796
8.71613
9.95326
11.3115
12.8062
14.4535
16.2442
18.1847
20.2975
22.5216
24.7989
27.1251
29.36
31.3005
32.2322
32.001
30.2741
27.2273
24.4513
21.4165
11.6112
2.68898
0.136089
0.00870956
0.00849165
0.00891693
0.00887771
2.56412e-05
9.09447e-05
0.00118212
0.00725958
0.0268619
0.0719062
0.153596
0.278493
0.448151
0.661489
0.907534
1.18725
1.51468
1.89616
2.3371
2.84379
3.4217
4.0765
4.81479
5.64272
6.5662
7.58787
8.70107
9.93878
11.3048
12.8003
14.4406
16.2415
18.1897
20.2879
22.5549
24.9142
27.291
29.6638
31.8573
33.3964
33.8137
32.9111
30.4667
27.2568
25.4501
19.1758
8.6862
1.35293
0.0536635
0.00824375
0.00847774
0.00890063
0.0088258
2.54966e-05
9.04293e-05
0.00117745
0.00724674
0.0268559
0.0719922
0.153878
0.279038
0.448838
0.661979
0.907472
1.18619
1.51267
1.89379
2.33407
2.83992
3.41817
4.07455
4.81444
5.64506
6.56972
7.58726
8.69046
9.92295
11.2901
12.7951
14.4375
16.2323
18.1943
20.305
22.5616
24.9769
27.4563
29.9043
32.2775
34.2563
35.2788
35.0938
33.4346
30.4107
27.6457
25.4853
16.0554
5.85073
0.594928
0.0234305
0.00814382
0.00848382
0.00888469
0.00878931
2.53344e-05
8.98314e-05
0.00117122
0.007222
0.026818
0.0719908
0.154067
0.27953
0.44967
0.662956
0.908235
1.18619
1.51141
1.89152
2.33144
2.83647
3.41396
4.07046
4.8126
5.64513
6.57239
7.5901
8.69053
9.91195
11.2737
12.7805
14.4346
16.2334
18.191
20.3201
22.5954
25.0071
27.559
30.1348
32.6141
34.9214
36.4274
36.8908
35.9883
33.5591
30.3475
28.6606
23.1112
12.598
3.31811
0.235115
0.0128747
0.00810754
0.00849862
0.00891976
0.00894385
2.51804e-05
8.91585e-05
0.00116384
0.00718787
0.0267392
0.0719116
0.154092
0.279881
0.450435
0.664142
0.909606
1.18733
1.51161
1.89018
2.32881
2.83358
3.41004
4.06573
4.80829
5.64319
6.57261
7.59199
8.6944
9.91303
11.2626
12.7641
14.421
16.2341
18.1982
20.3253
22.625
25.0636
27.6215
30.2904
32.9281
35.385
37.3482
38.3409
38.1448
36.4299
33.4113
30.7364
29.0748
19.8741
9.02584
1.55616
0.0882446
0.0093875
0.00809013
0.0085798
0.00897759
0.00899411
2.50352e-05
8.85243e-05
0.00115541
0.00714697
0.0266275
0.0717313
0.153959
0.279945
0.450974
0.66521
0.911133
1.18908
1.51316
1.89058
2.32733
2.83045
3.40687
4.06155
4.80284
5.63882
6.57081
7.59155
8.69722
9.91817
11.2651
12.7533
14.405
16.2224
18.2041
20.341
22.6424
25.1132
27.7087
30.3967
33.153
35.8048
38.0715
39.5356
39.9294
38.9529
36.4429
33.3262
31.8232
26.4146
15.8813
5.53628
0.645738
0.0345815
0.00828958
0.00813155
0.00869291
0.00881214
0.00892562
2.4892e-05
8.79354e-05
0.00114762
0.00709993
0.0264919
0.0714693
0.153631
0.279753
0.451102
0.665984
0.912563
1.19103
1.51541
1.89248
2.32781
2.82872
3.40319
4.05782
4.79832
5.63304
6.56597
7.58944
8.69735
9.92226
11.2719
12.7576
14.3952
16.2078
18.1957
20.3543
22.67
25.1474
27.7848
30.5245
33.3174
36.119
38.6932
40.5202
41.4303
41.1028
39.265
36.2258
33.815
32.1242
22.8832
11.7701
2.75273
0.246166
0.0161123
0.00797994
0.00825577
0.00864796
0.00867804
0.00891235
2.47726e-05
8.73885e-05
0.00114044
0.00705609
0.0263345
0.0711478
0.153145
0.279248
0.450855
0.666187
0.913544
1.19286
1.51804
1.89537
2.33035
2.82946
3.40148
4.05372
4.79444
5.62784
6.56002
7.58418
8.69564
9.92322
11.2776
12.7667
14.402
16.1998
18.1838
20.3511
22.6936
25.1911
27.842
30.6358
33.4984
36.3595
39.1491
41.3606
42.6931
42.945
41.7681
39.1527
36.168
35.0129
29.0827
18.3378
7.60802
1.15502
0.0898059
0.01019
0.00795337
0.00828357
0.00858209
0.00862259
0.00891062
2.46672e-05
8.69086e-05
0.00113363
0.00701549
0.0261868
0.0707724
0.152543
0.278484
0.450157
0.665884
0.913839
1.19416
1.52027
1.89875
2.33408
2.83262
3.40272
4.05195
4.7899
5.62386
6.5541
7.57789
8.69024
9.92213
11.2797
12.7745
14.4141
16.21
18.1785
20.3435
22.698
25.2287
27.9072
30.7236
33.6554
36.6094
39.4878
42.0503
43.7782
44.5176
43.9742
41.9074
38.8726
36.8447
34.5924
25.1615
13.7195
3.90574
0.441116
0.0340332
0.00846515
0.0079481
0.00827162
0.00856135
0.00856333
0.0089104
2.45795e-05
8.65033e-05
0.00112767
0.0069776
0.0260529
0.0704198
0.151834
0.277531
0.449085
0.664987
0.913577
1.19459
1.52194
1.90163
2.33815
2.83731
3.40641
4.05388
4.78782
5.61904
6.54967
7.57198
8.68368
9.91673
11.2796
12.7782
14.4247
16.2259
18.1933
20.3427
22.697
25.2441
27.9636
30.8172
33.7836
36.825
39.8254
42.6244
44.699
45.8838
45.8896
44.4414
41.6599
38.9442
38.1753
30.9483
20.2395
8.98801
1.65685
0.157745
0.0155847
0.00798381
0.00794427
0.00826513
0.00855522
0.00850625
0.00891104
2.4513e-05
8.61763e-05
0.00112275
0.00694402
0.0259247
0.070098
0.151171
0.276406
0.447733
0.663587
0.912537
1.19428
1.5225
1.90389
2.34187
2.84245
3.4118
4.05843
4.78994
5.61634
6.54456
7.56709
8.67742
9.91004
11.2744
12.7793
14.4305
16.2401
18.2143
20.3636
22.7027
25.2526
27.9942
30.8986
33.9145
37.0058
40.1155
43.1018
45.4963
47.0536
47.5736
46.6984
44.3886
41.4122
39.9428
36.3663
26.3345
14.9806
4.63083
0.624951
0.0559652
0.00991882
0.00783919
0.00793968
0.00829418
0.00859106
0.00855192
0.00891187
2.44657e-05
8.59329e-05
0.00111878
0.00691566
0.0258099
0.0697924
0.150571
0.275356
0.446145
0.661828
0.910904
1.19305
1.52211
1.90452
2.34466
2.84685
3.41807
4.06475
4.79591
5.61864
6.54176
7.56109
8.67237
9.90355
11.2677
12.7746
14.4334
16.2488
18.2332
20.391
22.7315
25.2675
28.0162
30.9499
34.0287
37.1849
40.3641
43.486
46.1813
48.0802
49.0289
48.7222
46.9074
44.0507
41.8338
41.2612
31.9679
21.0208
9.6269
1.93644
0.219454
0.02213
0.00828349
0.00778233
0.00797726
0.00834246
0.00853143
0.00875626
0.0089125
2.44392e-05
8.57804e-05
0.00111598
0.00689381
0.0257165
0.069518
0.149995
0.274409
0.444671
0.659756
0.908839
1.19107
1.52072
1.90408
2.34558
2.85001
3.42351
4.07215
4.804
5.62589
6.54459
7.55916
8.66596
9.89839
11.2611
12.7682
14.4296
16.2542
18.2457
20.416
22.7675
25.3068
28.0439
30.9904
34.1077
37.3418
40.605
43.8216
46.7657
48.9843
50.3103
50.4978
49.2415
46.6412
43.9387
43.0952
37.4069
26.5732
15.2757
4.7929
0.715783
0.075043
0.0116722
0.00782893
0.00775624
0.00804961
0.00835774
0.00860602
0.00861303
0.00891281
2.443e-05
8.5706e-05
0.00111412
0.00687841
0.0256427
0.0692899
0.149473
0.273495
0.443343
0.657833
0.906417
1.18852
1.51827
1.90255
2.34518
2.8515
3.42764
4.079
4.8129
5.63551
6.55269
7.56269
8.6642
9.89157
11.256
12.7618
14.4239
16.2519
18.2545
20.4336
22.8003
25.3536
28.0969
31.0356
34.173
37.4574
40.8168
44.1408
47.2833
49.769
51.4531
52.0713
51.3386
49.167
46.2976
44.7681
42.4222
32.1501
20.8275
9.32687
1.92565
0.2465
0.0275173
0.0086725
0.00770601
0.00778891
0.00809939
0.00848453
0.00843853
0.00856923
0.00891275
2.44322e-05
8.57058e-05
0.00111353
0.00686883
0.025592
0.0691168
0.149048
0.272669
0.442051
0.656105
0.904145
1.18555
1.51517
1.89948
2.34317
2.85113
3.42937
4.08428
4.8209
5.64638
6.5633
7.57125
8.66862
9.89013
11.2489
12.7569
14.4178
16.2473
18.2544
20.447
22.8247
25.3966
28.1576
31.1061
34.242
37.556
40.9801
44.4223
47.7425
50.4722
52.4536
53.4841
53.2269
51.5095
48.7541
46.5979
46.2524
37.6745
25.9213
14.707
4.31617
0.688983
0.0821333
0.0130361
0.00786245
0.00768771
0.00783965
0.00823155
0.00845952
0.00834428
0.00854489
0.00891259
2.44456e-05
8.57492e-05
0.00111385
0.00686596
0.0255605
0.0689988
0.148726
0.271999
0.440898
0.654435
0.902164
1.18287
1.51154
1.89572
2.33982
2.84859
3.42906
4.08634
4.82719
5.6559
6.57598
7.58195
8.67881
9.89562
11.2479
12.7497
14.4135
16.2421
18.2515
20.45
22.844
25.4297
28.2137
31.1848
34.335
37.6565
41.1224
44.6473
48.1115
51.1088
53.3554
54.7287
54.9391
53.684
51.1606
48.5678
47.8121
42.6645
31.7514
19.721
8.23884
1.64254
0.229929
0.0290744
0.00894866
0.00767049
0.00769611
0.00795111
0.0082733
0.00843724
0.00836235
0.00853109
0.00891255
2.44516e-05
8.58171e-05
0.00111462
0.00686847
0.025554
0.0689276
0.148505
0.271494
0.439964
0.652936
0.900272
1.18046
1.50823
1.89141
2.33533
2.84492
3.42642
4.08631
4.83008
5.66367
6.58721
7.59489
8.69128
9.90772
11.2547
12.7493
14.4064
16.2388
18.2478
20.4499
22.8515
25.4569
28.2581
31.2576
34.4365
37.7775
41.2643
44.8461
48.4153
51.6645
54.175
55.8556
56.4592
55.6913
53.5094
50.7631
49.4109
47.197
36.7038
25.1032
13.1605
3.4811
0.564038
0.0744942
0.0132679
0.00789195
0.00763168
0.00777457
0.00803251
0.00830932
0.00837174
0.00840569
0.00852443
0.00891254
2.44705e-05
8.58806e-05
0.0011157
0.00687405
0.0255668
0.0689168
0.14838
0.271155
0.43927
0.651741
0.898612
1.17811
1.50537
1.88725
2.33026
2.83975
3.4221
4.08378
4.83018
5.66762
6.59617
7.60609
8.70643
9.92227
11.269
12.7577
14.4069
16.232
18.246
20.4483
22.8551
25.4705
28.2956
31.3167
34.5306
37.9085
41.4215
45.0382
48.6868
52.1541
54.9109
56.8801
57.8423
57.4974
55.7277
53.0401
51.1509
50.914
41.7403
29.7389
18.1329
6.56054
1.25047
0.181553
0.0260997
0.00893565
0.00764165
0.00768229
0.00782652
0.00809556
0.00832267
0.00834102
0.00830967
0.00852073
0.00891254
2.44874e-05
8.59664e-05
0.00111672
0.00688083
0.0255871
0.068952
0.14837
0.270978
0.438815
0.650863
0.897306
1.17611
1.50259
1.88388
2.32552
2.83372
3.41607
4.07872
4.82758
5.66754
6.60055
7.61505
8.71951
9.9399
11.286
12.7747
14.4173
16.2338
18.2402
20.4489
22.8568
25.4796
28.3175
31.3676
34.6087
38.0296
41.5902
45.2478
48.9433
52.586
55.5731
57.8066
59.1046
59.1594
57.7706
55.2651
52.9577
52.4573
46.4013
34.825
22.7355
10.7285
2.53292
0.410386
0.0576098
0.0122464
0.00785375
0.00763439
0.00771383
0.00787991
0.00814439
0.00835734
0.00821618
0.00826947
0.00851866
0.00891253
2.44878e-05
8.60437e-05
0.00111792
0.00688767
0.0256121
0.0690087
0.148453
0.270974
0.438576
0.650283
0.896378
1.17462
1.50013
1.88076
2.32139
2.82842
3.40899
4.0717
4.82184
5.66427
6.60054
7.61869
8.73011
9.95521
11.3065
12.7945
14.4373
16.2467
18.2438
20.4445
22.8607
25.4858
28.334
31.4006
34.6768
38.1318
41.7453
45.4609
49.2163
52.9243
56.1719
58.645
60.2469
60.6886
59.6967
57.4116
54.8797
53.9409
50.7233
39.4364
27.4191
15.3881
4.64797
0.857253
0.127239
0.0207461
0.00860975
0.00764596
0.00765958
0.00775452
0.00793327
0.0082088
0.00835425
0.00822086
0.00824737
0.00851756
0.00891253
2.45129e-05
8.60764e-05
0.00111898
0.00689508
0.025638
0.0690741
0.14857
0.271127
0.438606
0.650028
0.895826
1.17354
1.49829
1.87775
2.31754
2.82351
3.40269
4.06356
4.81386
5.65801
6.59705
7.61896
8.73456
9.96767
11.3244
12.8183
14.4604
16.2704
18.2597
20.4506
22.8586
25.4945
28.3465
31.427
34.7243
38.2219
41.8783
45.6584
49.4854
53.2752
56.7001
59.4112
61.2863
62.0784
61.4915
59.5129
56.9031
55.4999
54.7051
44.2473
31.4644
19.749
7.74809
1.64628
0.267666
0.0401307
0.0106858
0.00777175
0.0076284
0.00769625
0.0077846
0.00802339
0.00826341
0.00827294
0.00815139
0.00823542
0.00851705
0.00891253
2.45102e-05
8.61905e-05
0.0011195
0.00690158
0.0256649
0.0691427
0.148704
0.27133
0.438855
0.650111
0.895631
1.17288
1.49706
1.87541
2.31424
2.81875
3.39718
4.05593
4.80453
5.64916
6.59038
7.61494
8.73516
9.97312
11.339
12.8391
14.4881
16.2974
18.2876
20.4703
22.8681
25.4957
28.3618
31.4484
34.7639
38.2886
41.9966
45.8302
49.7358
53.6144
57.2034
60.1147
62.2382
63.3477
63.1376
61.4978
58.9695
57.1252
56.9335
48.7782
36.234
23.7345
11.5569
2.93726
0.524382
0.080244
0.0156044
0.0082023
0.00761946
0.00765328
0.00771618
0.00784357
0.00811704
0.00829225
0.00815252
0.00808071
0.00822988
0.00851683
0.00891254
2.4507e-05
8.61468e-05
0.00112128
0.00690564
0.0256883
0.0692103
0.148836
0.271552
0.439168
0.650481
0.895857
1.17271
1.49643
1.87401
2.31162
2.81508
3.39168
4.04942
4.79562
5.63876
6.58057
7.6074
8.73096
9.97422
11.3457
12.8564
14.5125
16.3295
18.3193
20.5034
22.8925
25.5098
28.3677
31.4726
34.7969
38.3456
42.0881
45.9844
49.9564
53.9304
57.6615
60.7778
63.1173
64.5127
64.6523
63.3488
60.9549
58.7883
58.3251
52.8806
40.6597
27.868
15.6515
4.85902
0.961223
0.155662
0.0260307
0.00931393
0.00766666
0.00761878
0.0076607
0.00775734
0.00794037
0.00816838
0.0082657
0.00808331
0.0080448
0.00822745
0.00851675
0.00891254
2.45028e-05
8.61393e-05
0.00112053
0.00691547
0.0257031
0.0692689
0.148975
0.27179
0.439506
0.650921
0.896424
1.17308
1.49621
1.87334
2.30992
2.81219
3.38706
4.04303
4.78788
5.62859
6.56916
7.5967
8.72271
9.96983
11.3475
12.8646
14.5327
16.358
18.3566
20.5405
22.9318
25.54
28.3878
31.4845
34.8337
38.3942
42.1679
46.1078
50.1559
54.2119
58.0971
61.3742
63.9486
65.5911
66.0571
65.0864
62.8804
60.4961
59.7019
56.6766
44.9757
32.0241
19.5714
7.4986
1.65437
0.287627
0.0461285
0.0117603
0.0078681
0.00758905
0.00762229
0.00768695
0.00780458
0.00801212
0.00820809
0.00818411
0.00800174
0.00802732
0.00822646
0.00851673
0.00891254
2.44975e-05
8.61265e-05
0.00112045
0.00691152
0.0257401
0.0693093
0.149096
0.272018
0.439857
0.651396
0.897095
1.17384
1.49665
1.87328
2.30902
2.81029
3.38382
4.03782
4.78047
5.6199
6.55797
7.58457
8.71075
9.96089
11.343
12.8672
14.5428
16.3818
18.3899
20.5839
22.9754
25.5868
28.4255
31.5131
34.8534
38.4481
42.237
46.2171
50.32
54.4683
58.5021
61.938
64.7014
66.6084
67.3623
66.7291
64.7582
62.3001
61.1404
60.2161
49.2683
35.7158
23.3089
10.7161
2.70021
0.504192
0.0821947
0.0166108
0.00836495
0.0075974
0.00759534
0.00764805
0.00772408
0.00785593
0.00808694
0.00819366
0.00804737
0.00792144
0.00801985
0.00822609
0.00851674
0.00891254
2.44838e-05
8.61059e-05
0.00112026
0.00691102
0.0257251
0.0694062
0.149177
0.272219
0.440206
0.651897
0.897776
1.1747
1.49765
1.87386
2.3091
2.80918
3.38171
4.03415
4.77485
5.61151
6.54849
7.57336
8.69731
9.94771
11.3335
12.8629
14.5467
16.3942
18.418
20.6228
23.0261
25.6382
28.4814
31.56
34.8931
38.4779
42.3088
46.3129
50.4672
54.6842
58.8605
62.4652
65.4094
67.5373
68.5884
68.2684
66.575
64.1417
62.63
62.5631
53.3263
39.8008
26.8254
14.2849
4.17692
0.842335
0.142953
0.0255272
0.00940358
0.00766079
0.00757121
0.00762544
0.00768815
0.00776661
0.00794053
0.00812285
0.00821765
0.00797487
0.00788356
0.00801715
0.00822599
0.00851676
0.00891254
2.44757e-05
8.60594e-05
0.00111995
0.00690967
0.0257232
0.0693635
0.149372
0.272359
0.440504
0.652383
0.898408
1.17556
1.49878
1.87508
2.31015
2.80928
3.38075
4.03182
4.77084
5.60486
6.539
7.56382
8.68479
9.93274
11.3189
12.8527
14.5425
16.3996
18.4333
20.656
23.0715
25.6973
28.5421
31.6269
34.9519
38.5333
42.3603
46.4085
50.5975
54.8795
59.1412
62.9601
66.0678
68.4118
69.7135
69.7099
68.2854
65.9554
64.1376
63.9051
57.0829
43.7973
30.3211
17.8518
6.15294
1.34046
0.239957
0.0408922
0.0113796
0.00783695
0.007549
0.00759706
0.00766634
0.00772386
0.00781954
0.00801152
0.00818474
0.00807734
0.0078418
0.00786766
0.00801632
0.00822598
0.00851679
0.00891254
2.44555e-05
8.59907e-05
0.00111921
0.00690758
0.0257176
0.0693576
0.149278
0.272699
0.440711
0.652791
0.899049
1.17647
1.50001
1.87645
2.31172
2.81063
3.38118
4.0309
4.76831
5.60035
6.53153
7.55413
8.67426
9.9189
11.3024
12.8369
14.532
16.3961
18.4407
20.6749
23.1107
25.7506
28.6111
31.6987
35.0321
38.6069
42.4322
46.4855
50.7246
55.0539
59.3974
63.4011
66.6901
69.2235
70.7755
71.036
69.8926
67.6725
65.6324
65.1742
60.5873
47.7422
33.8565
21.1408
8.61768
2.04444
0.38594
0.0658791
0.014862
0.0082074
0.00754909
0.00755776
0.0076361
0.0076889
0.00776192
0.00788373
0.00809268
0.00813301
0.00790848
0.00777672
0.00786225
0.00801613
0.00822602
0.00851683
0.00891254
2.44346e-05
8.59109e-05
0.00111841
0.00690355
0.0257095
0.0693452
0.149271
0.272517
0.441249
0.653093
0.899636
1.1773
1.50116
1.87803
2.31334
2.81285
3.38266
4.03146
4.76698
5.59756
6.52619
7.5466
8.66341
9.90721
11.2871
12.8188
14.5148
16.3853
18.438
20.6849
23.1341
25.797
28.6738
31.7797
35.1175
38.7033
42.5243
46.5798
50.8332
55.2219
59.628
63.8057
67.2673
69.9845
71.7633
72.2968
71.3939
69.3328
67.1225
66.4369
63.8595
51.6762
37.0565
24.196
11.4142
3.00541
0.596327
0.10407
0.0206306
0.00889747
0.0075886
0.00752443
0.00759457
0.00765708
0.00771315
0.00778884
0.00797199
0.0081306
0.00805883
0.00777994
0.00775098
0.00786077
0.00801614
0.00822607
0.00851688
0.00891254
2.43967e-05
8.57888e-05
0.00111697
0.00689729
0.0256931
0.0693201
0.149235
0.272499
0.440936
0.653868
0.900089
1.17799
1.50226
1.87963
2.31521
2.81503
3.38546
4.0331
4.76739
5.59613
6.52317
7.54115
8.65521
9.89524
11.2743
12.802
14.4952
16.3669
18.4274
20.6836
23.1474
25.8259
28.7287
31.8534
35.2126
38.805
42.6405
46.695
50.957
55.3703
59.8484
64.1697
67.805
70.6923
72.6904
73.4791
72.8419
70.9298
68.6762
67.7413
66.8993
55.434
40.6139
27.1397
14.3527
4.26128
0.890238
0.159793
0.0295701
0.0100708
0.00769184
0.0075035
0.00755618
0.00762414
0.0076793
0.00771806
0.00784379
0.00804264
0.00813191
0.00787112
0.00769105
0.00774284
0.00786049
0.00801621
0.00822614
0.00851693
0.00891254
2.4354e-05
8.56323e-05
0.00111548
0.00688935
0.0256729
0.069283
0.149192
0.272452
0.440923
0.653382
0.901069
1.17855
1.5031
1.88102
2.31718
2.8171
3.38804
4.03619
4.76943
5.59665
6.52192
7.53808
8.64925
9.88625
11.2611
12.788
14.4768
16.3457
18.4078
20.6734
23.1481
25.8433
28.7643
31.9184
35.2995
38.9171
42.7619
46.8354
51.101
55.5316
60.047
64.5131
68.2949
71.3605
73.549
74.5989
74.218
72.5069
70.2291
69.0648
69.1134
58.9665
44.1769
30.0854
17.3149
5.82226
1.29053
0.238616
0.0427634
0.0119229
0.00788584
0.00749764
0.00752698
0.00759289
0.0076536
0.0076888
0.00776137
0.00793232
0.00804258
0.00801318
0.0077272
0.00765675
0.00774094
0.00786051
0.00801631
0.00822623
0.00851699
0.00891254
2.43135e-05
8.54537e-05
0.00111323
0.00687881
0.0256406
0.0692241
0.149112
0.272379
0.440844
0.653355
0.90047
1.17995
1.50378
1.88217
2.31893
2.81938
3.39048
4.03948
4.77315
5.59952
6.52305
7.53691
8.64603
9.87982
11.2513
12.7736
14.4616
16.3258
18.3851
20.6529
23.1391
25.8469
28.7873
31.9626
35.3768
39.0197
42.894
46.9806
51.2708
55.7119
60.2557
64.7923
68.7578
71.9772
74.3636
75.638
75.5334
74.0283
71.7972
70.3536
70.351
62.2897
47.7576
33.1082
20.1281
7.70253
1.81438
0.348235
0.0616405
0.0147021
0.00820996
0.00750687
0.00750235
0.00756469
0.00763146
0.00767514
0.00773059
0.00785183
0.00798206
0.00805949
0.00783665
0.00761465
0.00764723
0.00774067
0.00786062
0.00801642
0.00822633
0.00851705
0.00891254
2.42693e-05
8.52667e-05
0.00111074
0.00686577
0.0256051
0.0691449
0.148993
0.272237
0.440725
0.653257
0.900391
1.17921
1.50556
1.88294
2.32038
2.82156
3.39334
4.04302
4.77756
5.60449
6.52655
7.53844
8.64493
9.87648
11.2444
12.7629
14.4459
16.3095
18.3638
20.629
23.1179
25.8399
28.7946
31.9923
35.4314
39.1118
43.0157
47.1368
51.4449
55.9176
60.4809
65.0603
69.1789
72.5607
75.1192
76.6191
76.7622
75.4868
73.3188
71.648
71.4619
65.3624
51.3261
36.1076
22.8164
9.84133
2.48725
0.494959
0.0882509
0.0187252
0.0087126
0.00753833
0.00748052
0.00753956
0.00760819
0.00766039
0.00771243
0.00779159
0.00789545
0.00805371
0.0079823
0.00765688
0.00757724
0.00764537
0.00774073
0.00786074
0.00801656
0.00822645
0.00851711
0.00891254
2.42213e-05
8.50691e-05
0.00110813
0.00685067
0.0255568
0.0690493
0.148835
0.272037
0.440518
0.653101
0.900311
1.17909
1.50475
1.88508
2.32147
2.82338
3.39601
4.04654
4.78234
5.60964
6.53222
7.54217
8.64699
9.87554
11.241
12.7555
14.4345
16.2925
18.3464
20.6064
23.093
25.8183
28.7908
32.0048
35.4697
39.1791
43.1256
47.2811
51.6298
56.1264
60.7302
65.3409