# Wall heat-flux
# Time        	patch         	min           	max           	integral      
2000          	base	-2.835303e+06	-6.204945e+04	-3.307526e+03
