# p  FACE_DATA 240
# x  y  z  p
-0.771783 0 0.026 3546.1
-0.74637 0 0.026 2974.34
-0.719597 0 0.026 2807.5
-0.693782 0 0.026 2748.36
-0.66889 0 0.026 2728.61
-0.644887 0 0.026 2716.33
-0.621743 0 0.026 2707.24
-0.599426 0 0.026 2700.58
-0.577906 0 0.026 2694.15
-0.557155 0 0.026 2686.12
-0.537145 0 0.026 2678.09
-0.517849 0 0.026 2671.82
-0.499243 0 0.026 2668.04
-0.481301 0 0.026 2665.77
-0.463999 0 0.026 2662.19
-0.447315 0 0.026 2657.14
-0.431226 0 0.026 2651.77
-0.41571 0 0.026 2647.97
-0.400747 0 0.026 2646.23
-0.386317 0 0.026 2646.49
-0.372401 0 0.026 2647.22
-0.358982 0 0.026 2645.76
-0.346039 0 0.026 2643.02
-0.333557 0 0.026 2639.56
-0.321518 0 0.026 2635.97
-0.309908 0 0.026 2633.49
-0.298709 0 0.026 2632.81
-0.287908 0 0.026 2633.51
-0.27749 0 0.026 2635.52
-0.267441 0 0.026 2637.45
-0.257748 0 0.026 2638.95
-0.248397 0 0.026 2639.06
-0.239378 0 0.026 2639.25
-0.230676 0 0.026 2638.35
-0.222282 0 0.026 2635.92
-0.214183 0 0.026 2633.04
-0.20637 0 0.026 2630.27
-0.19883 0 0.026 2627.9
-0.191555 0 0.026 2626.22
-0.184536 0 0.026 2625.37
-0.177762 0 0.026 2625.41
-0.171224 0 0.026 2625.84
-0.165013 0 0.026 2626.76
-0.159119 0 0.026 2628.26
-0.153435 0 0.026 2630.24
-0.14795 0 0.026 2632.47
-0.14266 0 0.026 2634.63
-0.137557 0 0.026 2636.56
-0.132633 0 0.026 2638.22
-0.127882 0 0.026 2639.6
-0.123298 0 0.026 2640.65
-0.118874 0 0.026 2641.43
-0.114605 0 0.026 2642.05
-0.110484 0 0.026 2642.49
-0.106508 0 0.026 2642.66
-0.10267 0 0.026 2642.61
-0.0989664 0 0.026 2642.41
-0.0953906 0 0.026 2642.04
-0.0919392 0 0.026 2641.45
-0.0886074 0 0.026 2640.7
-0.085391 0 0.026 2639.82
-0.0822859 0 0.026 2638.83
-0.079288 0 0.026 2637.72
-0.0763938 0 0.026 2636.56
-0.0735993 0 0.026 2635.36
-0.0709011 0 0.026 2634.16
-0.0682959 0 0.026 2633.03
-0.0657802 0 0.026 2631.98
-0.063351 0 0.026 2630.97
-0.0610052 0 0.026 2630.04
-0.05874 0 0.026 2629.18
-0.0565524 0 0.026 2628.41
-0.0544398 0 0.026 2627.74
-0.0523995 0 0.026 2627.13
-0.0504291 0 0.026 2626.59
-0.048526 0 0.026 2626.08
-0.046688 0 0.026 2625.62
-0.0449127 0 0.026 2625.23
-0.043198 0 0.026 2624.88
-0.0415419 0 0.026 2624.58
-0.0399422 0 0.026 2624.32
-0.0383971 0 0.026 2624.09
-0.0369046 0 0.026 2623.91
-0.0354628 0 0.026 2623.75
-0.0340701 0 0.026 2623.63
-0.0327248 0 0.026 2623.51
-0.0314253 0 0.026 2623.43
-0.0301698 0 0.026 2623.38
-0.0289571 0 0.026 2623.35
-0.0277855 0 0.026 2623.33
-0.0266537 0 0.026 2623.34
-0.0255603 0 0.026 2623.36
-0.0245039 0 0.026 2623.45
-0.0234834 0 0.026 2623.39
-0.0224975 0 0.026 2623.44
-0.0215449 0 0.026 2623.49
-0.0206246 0 0.026 2623.56
-0.0197355 0 0.026 2623.65
-0.0188765 0 0.026 2623.74
-0.0180466 0 0.026 2623.83
-0.0172447 0 0.026 2623.93
-0.0164699 0 0.026 2624.04
-0.0157213 0 0.026 2624.14
-0.0149981 0 0.026 2624.25
-0.0142993 0 0.026 2624.36
-0.0136241 0 0.026 2624.48
-0.0129717 0 0.026 2624.6
-0.0123413 0 0.026 2624.73
-0.0117322 0 0.026 2624.85
-0.0111437 0 0.026 2625.01
-0.010575 0 0.026 2625.76
-0.0100256 0 0.026 2647.81
-0.00949468 0 0.026 3396.59
-0.00898166 0 0.026 7974.27
-0.00848594 0 0.026 10586.8
-0.00800694 0 0.026 13067.9
-0.00754409 0 0.026 13495.5
-0.00709684 0 0.026 13248.5
-0.00666467 0 0.026 12994.1
-0.00624706 0 0.026 12773.3
-0.00584352 0 0.026 12610.8
-0.00545358 0 0.026 12515.5
-0.00507677 0 0.026 12478.7
-0.00471265 0 0.026 12488.5
-0.0043608 0 0.026 12537.2
-0.0040208 0 0.026 12616.4
-0.00369224 0 0.026 12718.7
-0.00337474 0 0.026 12837.6
-0.00306793 0 0.026 12967.7
-0.00277146 0 0.026 13106
-0.00248495 0 0.026 13252.5
-0.00220809 0 0.026 13408.6
-0.00194054 0 0.026 13578.4
-0.001682 0 0.026 13768.1
-0.00143216 0 0.026 13984.7
-0.00119071 0 0.026 14249.1
-0.000957397 0 0.026 14514
-0.000731928 0 0.026 14816
-0.00051404 0 0.026 15141.2
-0.00030348 0 0.026 15636.6
-0.0001 0 0.026 17199.3
8.66025e-05 5e-05 0.026 15109.3
0.000259964 0.00015009 0.026 15332
0.000433795 0.000250451 0.026 15223.8
0.000608407 0.000351264 0.026 15215.6
0.000784117 0.000452711 0.026 15302.5
0.000961243 0.000554974 0.026 15475.9
0.0011401 0.000658238 0.026 15703.8
0.00132102 0.000762689 0.026 15970
0.00150431 0.000868516 0.026 16277.6
0.00169033 0.000975909 0.026 16613.9
0.00187939 0.00108506 0.026 16973
0.00207184 0.00119618 0.026 17356.2
0.00226802 0.00130945 0.026 17761.5
0.00246831 0.00142508 0.026 18182.7
0.00267303 0.00154328 0.026 18627.4
0.00288259 0.00166427 0.026 19090.1
0.00309735 0.00178825 0.026 19579.7
0.00331769 0.00191547 0.026 20092.9
0.00354401 0.00204614 0.026 20637
0.00377673 0.0021805 0.026 21214.7
0.00401626 0.00231879 0.026 21831.3
0.00426304 0.00246127 0.026 22493.4
0.0045175 0.00260818 0.026 23201.6
0.00478012 0.0027598 0.026 23959
0.00505136 0.0029164 0.026 24766.9
0.0053317 0.00307826 0.026 25628.9
0.00562167 0.00324567 0.026 26560.7
0.00592177 0.00341894 0.026 27609.7
0.00623257 0.00359837 0.026 28733.2
0.0065546 0.0037843 0.026 29870.5
0.00688845 0.00397706 0.026 30941.3
0.00723473 0.00417698 0.026 31986.9
0.00759407 0.00438444 0.026 33117.9
0.0079671 0.00459981 0.026 34600.7
0.0083545 0.00482347 0.026 36628.4
0.00875697 0.00505584 0.026 39333.7
0.00917525 0.00529733 0.026 42857.6
0.00961007 0.00554838 0.026 47246.7
0.0100622 0.00580943 0.026 52277.1
0.0105325 0.00608095 0.026 57625.4
0.0110218 0.00636345 0.026 63665.2
0.011531 0.00665743 0.026 70798.5
0.012061 0.00696343 0.026 77353.7
0.0126127 0.00728197 0.026 81193.4
0.0131872 0.00761366 0.026 86534.2
0.0137855 0.00795908 0.026 89432.5
0.0144087 0.00831886 0.026 85891.9
0.0150578 0.00869364 0.026 81682.3
0.0157341 0.0090841 0.026 91149.7
0.0164388 0.00949095 0.026 104703
0.0171732 0.00991493 0.026 104336
0.0179385 0.0103568 0.026 103249
0.0187362 0.0108173 0.026 103754
0.0195677 0.0112974 0.026 103874
0.0204344 0.0117978 0.026 103429
0.0213381 0.0123195 0.026 104054
0.0222801 0.0128635 0.026 105428
0.0232625 0.0134306 0.026 106024
0.0242867 0.014022 0.026 104786
0.0253548 0.0146386 0.026 104623
0.0264686 0.0152817 0.026 97334.7
0.0276302 0.0159524 0.026 98705.1
0.0288416 0.0166517 0.026 97178.2
0.0301051 0.0173812 0.026 101624
0.0314228 0.018142 0.026 104446
0.0327972 0.0189355 0.026 100527
0.0342308 0.0197632 0.026 100914
0.0357262 0.0206265 0.026 106830
0.0372859 0.021527 0.026 103259
0.038913 0.0224664 0.026 102612
0.0406102 0.0234463 0.026 102104
0.0423807 0.0244685 0.026 97226.3
0.0442276 0.0255348 0.026 100456
0.0461543 0.0266472 0.026 100227
0.0481643 0.0278077 0.026 101024
0.0502611 0.0290183 0.026 101768
0.0524487 0.0302813 0.026 106369
0.0547308 0.0315988 0.026 102590
0.0571116 0.0329735 0.026 95437.4
0.0595956 0.0344075 0.026 101661
0.0621869 0.0359036 0.026 106745
0.0648905 0.0374645 0.026 102636
0.0677111 0.039093 0.026 106309
0.0706539 0.040792 0.026 100775
0.073724 0.0425646 0.026 104750
0.0769272 0.044414 0.026 105842
0.0802692 0.0463434 0.026 101596
0.0837559 0.0483565 0.026 88881.1
0.0873938 0.0504568 0.026 96303.6
0.0911892 0.0526481 0.026 90802.8
0.0951492 0.0549344 0.026 98229.3
0.0992806 0.0573198 0.026 91956.4
0.103592 0.0598086 0.026 102119
0.10809 0.0624052 0.026 104573
0.112782 0.0651144 0.026 102556
0.117678 0.0679412 0.026 96537.5
0.122786 0.0708904 0.026 101051
0.128115 0.0739676 0.026 105933
0.133677 0.0771782 0.026 100792
