# p  FACE_DATA 448
# x  y  z  p
-0.778 -3.80769e-06 0 1196.57
-0.773968 -3.80769e-06 0 934.752
-0.769872 -3.80769e-06 0 761.608
-0.76571 -3.80769e-06 0 735.179
-0.761486 -3.80769e-06 0 699.293
-0.757196 -3.80769e-06 0 676.506
-0.752841 -3.80769e-06 0 664.011
-0.748422 -3.80769e-06 0 654.562
-0.743939 -3.80769e-06 0 648.071
-0.739391 -3.80769e-06 0 642.698
-0.73478 -3.80769e-06 0 638.031
-0.730104 -3.80769e-06 0 633.942
-0.725364 -3.80769e-06 0 629.992
-0.720562 -3.80769e-06 0 625.582
-0.715696 -3.80769e-06 0 619.743
-0.710769 -3.80769e-06 0 613.421
-0.705778 -3.80769e-06 0 607.533
-0.700727 -3.80769e-06 0 604.916
-0.695615 -3.80769e-06 0 604.678
-0.690443 -3.80769e-06 0 606.924
-0.685211 -3.80769e-06 0 609.549
-0.67992 -3.80769e-06 0 612.369
-0.674571 -3.80769e-06 0 615.015
-0.669166 -3.80769e-06 0 617.274
-0.663704 -3.80769e-06 0 619.27
-0.658187 -3.80769e-06 0 621.077
-0.652616 -3.80769e-06 0 622.613
-0.646993 -3.80769e-06 0 623.774
-0.641317 -3.80769e-06 0 624.553
-0.635592 -3.80769e-06 0 625.141
-0.629817 -3.80769e-06 0 625.632
-0.623994 -3.80769e-06 0 625.928
-0.618125 -3.80769e-06 0 626.059
-0.61221 -3.80769e-06 0 626.084
-0.606252 -3.80769e-06 0 626.042
-0.600253 -3.80769e-06 0 625.873
-0.594213 -3.80769e-06 0 625.629
-0.588134 -3.80769e-06 0 625.396
-0.582018 -3.80769e-06 0 625.23
-0.575867 -3.80769e-06 0 624.963
-0.569683 -3.80769e-06 0 624.522
-0.563467 -3.80769e-06 0 623.956
-0.557221 -3.80769e-06 0 623.481
-0.550946 -3.80769e-06 0 623.197
-0.544647 -3.80769e-06 0 622.985
-0.538323 -3.80769e-06 0 622.587
-0.531979 -3.80769e-06 0 622.036
-0.525613 -3.80769e-06 0 621.457
-0.51923 -3.80769e-06 0 621.082
-0.512832 -3.80769e-06 0 620.908
-0.50642 -3.80769e-06 0 620.596
-0.499995 -3.80769e-06 0 620.029
-0.493562 -3.80769e-06 0 619.342
-0.487123 -3.80769e-06 0 618.715
-0.480677 -3.80769e-06 0 618.394
-0.47423 -3.80769e-06 0 618.442
-0.467782 -3.80769e-06 0 618.471
-0.461335 -3.80769e-06 0 618.14
-0.454892 -3.80769e-06 0 617.502
-0.448455 -3.80769e-06 0 616.743
-0.442026 -3.80769e-06 0 616.08
-0.435607 -3.80769e-06 0 615.752
-0.429202 -3.80769e-06 0 615.86
-0.42281 -3.80769e-06 0 616.075
-0.416434 -3.80769e-06 0 616.139
-0.410078 -3.80769e-06 0 615.725
-0.403743 -3.80769e-06 0 614.908
-0.39743 -3.80769e-06 0 614.018
-0.391141 -3.80769e-06 0 613.217
-0.38488 -3.80769e-06 0 612.732
-0.378648 -3.80769e-06 0 612.565
-0.372446 -3.80769e-06 0 613.17
-0.366277 -3.80769e-06 0 613.543
-0.360142 -3.80769e-06 0 613.694
-0.354042 -3.80769e-06 0 613.479
-0.347981 -3.80769e-06 0 612.814
-0.341959 -3.80769e-06 0 611.764
-0.335978 -3.80769e-06 0 610.715
-0.33004 -3.80769e-06 0 609.806
-0.324146 -3.80769e-06 0 609.22
-0.318298 -3.80769e-06 0 609.002
-0.312497 -3.80769e-06 0 609.458
-0.306744 -3.80769e-06 0 610.15
-0.301041 -3.80769e-06 0 610.811
-0.29539 -3.80769e-06 0 611.277
-0.28979 -3.80769e-06 0 611.479
-0.284243 -3.80769e-06 0 611.455
-0.278752 -3.80769e-06 0 611.006
-0.273316 -3.80769e-06 0 610.227
-0.267937 -3.80769e-06 0 609.141
-0.262614 -3.80769e-06 0 608.033
-0.25735 -3.80769e-06 0 607.038
-0.252146 -3.80769e-06 0 606.222
-0.247001 -3.80769e-06 0 605.698
-0.241916 -3.80769e-06 0 605.506
-0.236893 -3.80769e-06 0 605.709
-0.231931 -3.80769e-06 0 606.144
-0.227031 -3.80769e-06 0 606.791
-0.222195 -3.80769e-06 0 607.425
-0.217421 -3.80769e-06 0 607.989
-0.212711 -3.80769e-06 0 608.407
-0.208064 -3.80769e-06 0 608.633
-0.203482 -3.80769e-06 0 608.682
-0.198964 -3.80769e-06 0 608.587
-0.19451 -3.80769e-06 0 608.265
-0.19012 -3.80769e-06 0 607.784
-0.185796 -3.80769e-06 0 607.15
-0.181535 -3.80769e-06 0 606.429
-0.17734 -3.80769e-06 0 605.624
-0.173208 -3.80769e-06 0 604.831
-0.169141 -3.80769e-06 0 604.089
-0.165138 -3.80769e-06 0 603.426
-0.161199 -3.80769e-06 0 602.862
-0.157325 -3.80769e-06 0 602.444
-0.153513 -3.80769e-06 0 602.183
-0.149765 -3.80769e-06 0 602.082
-0.14608 -3.80769e-06 0 602.062
-0.142457 -3.80769e-06 0 602.335
-0.138897 -3.80769e-06 0 602.619
-0.135398 -3.80769e-06 0 603.041
-0.131961 -3.80769e-06 0 603.51
-0.128584 -3.80769e-06 0 604.029
-0.125268 -3.80769e-06 0 604.555
-0.122011 -3.80769e-06 0 605.05
-0.118815 -3.80769e-06 0 605.482
-0.115677 -3.80769e-06 0 605.85
-0.112597 -3.80769e-06 0 606.143
-0.109574 -3.80769e-06 0 606.359
-0.106609 -3.80769e-06 0 606.499
-0.1037 -3.80769e-06 0 606.591
-0.100846 -3.80769e-06 0 606.627
-0.098048 -3.80769e-06 0 606.626
-0.0953042 -3.80769e-06 0 606.541
-0.0926143 -3.80769e-06 0 606.437
-0.0899773 -3.80769e-06 0 606.283
-0.0873927 -3.80769e-06 0 606.085
-0.0848599 -3.80769e-06 0 605.841
-0.082378 -3.80769e-06 0 605.566
-0.0799465 -3.80769e-06 0 605.261
-0.0775645 -3.80769e-06 0 604.933
-0.0752312 -3.80769e-06 0 604.583
-0.0729462 -3.80769e-06 0 604.224
-0.0707085 -3.80769e-06 0 603.859
-0.0685175 -3.80769e-06 0 603.491
-0.0663725 -3.80769e-06 0 603.124
-0.0642727 -3.80769e-06 0 602.768
-0.0622173 -3.80769e-06 0 602.422
-0.0602058 -3.80769e-06 0 602.087
-0.0582373 -3.80769e-06 0 601.765
-0.0563111 -3.80769e-06 0 601.457
-0.0544265 -3.80769e-06 0 601.163
-0.0525827 -3.80769e-06 0 600.878
-0.0507792 -3.80769e-06 0 600.61
-0.0490152 -3.80769e-06 0 600.357
-0.0472898 -3.80769e-06 0 600.123
-0.0456025 -3.80769e-06 0 599.902
-0.0439526 -3.80769e-06 0 599.701
-0.0423394 -3.80769e-06 0 599.516
-0.0407622 -3.80769e-06 0 599.351
-0.0392203 -3.80769e-06 0 599.196
-0.0377131 -3.80769e-06 0 599.06
-0.0362398 -3.80769e-06 0 598.935
-0.0347999 -3.80769e-06 0 598.826
-0.0333926 -3.80769e-06 0 598.722
-0.0320175 -3.80769e-06 0 598.632
-0.0306737 -3.80769e-06 0 598.542
-0.0293607 -3.80769e-06 0 598.459
-0.0280779 -3.80769e-06 0 598.377
-0.0268246 -3.80769e-06 0 598.382
-0.0256004 -3.80769e-06 0 600.1
-0.0244045 -3.80769e-06 0 612.77
-0.0232363 -3.80769e-06 0 667.157
-0.0220954 -3.80769e-06 0 784.995
-0.0209812 -3.80769e-06 0 915.156
-0.019893 -3.80769e-06 0 1015.67
-0.0188303 -3.80769e-06 0 1089.75
-0.0177927 -3.80769e-06 0 1150.93
-0.0167794 -3.80769e-06 0 1205.23
-0.0157901 -3.80769e-06 0 1254.74
-0.0148243 -3.80769e-06 0 1300.19
-0.0138814 -3.80769e-06 0 1341.76
-0.0129608 -3.80769e-06 0 1380.28
-0.0120623 -3.80769e-06 0 1415.85
-0.0111851 -3.80769e-06 0 1448.85
-0.0103289 -3.80769e-06 0 1479.69
-0.00949328 -3.80769e-06 0 1508.67
-0.00867767 -3.80769e-06 0 1535.89
-0.00788168 -3.80769e-06 0 1561.57
-0.00710485 -3.80769e-06 0 1585.45
-0.00634675 -3.80769e-06 0 1607.42
-0.00560698 -3.80769e-06 0 1626.77
-0.0048851 -3.80769e-06 0 1643.66
-0.00418071 -3.80769e-06 0 1658.49
-0.00349342 -3.80769e-06 0 1673.07
-0.00282284 -3.80769e-06 0 1688.45
-0.00216857 -3.80769e-06 0 1706.13
-0.00153026 -3.80769e-06 0 1736.37
-0.00090752 -3.80769e-06 0 1787.78
-0.0003 -3.80769e-06 0 1878.24
0.000259937 0.000146262 2.25537e-21 1742.59
0.000779437 0.000446185 0 1792.51
0.00129893 0.000746101 0 1803.89
0.00181858 0.00104611 2.2554e-21 1829.33
0.00233835 0.00134618 -2.25541e-21 1868.04
0.00285828 0.00164636 2.25542e-21 1919.46
0.00337841 0.00194664 0 1978.51
0.00389877 0.00224706 0 2044.86
0.00441941 0.00254764 -2.25544e-21 2117.92
0.00494034 0.00284839 2.25545e-21 2197.06
0.00546162 0.00314934 -2.25546e-21 2282.25
0.00598328 0.0034505 2.25547e-21 2373.49
0.00650535 0.00375191 2.25547e-21 2470.68
0.00702786 0.00405357 2.25548e-21 2573.84
0.00755087 0.00435552 0 2683.07
0.00807439 0.00465776 -2.25549e-21 2799.04
0.00859847 0.00496033 2.2555e-21 2922.64
0.00912315 0.00526324 0 3054.9
0.00964845 0.00556651 2.25551e-21 3196.46
0.0101744 0.00587017 0 3347.7
0.0107011 0.00617424 0 3508.63
0.0112285 0.00647873 -2.25552e-21 3679.29
0.0117567 0.00678367 0 3859.68
0.0122857 0.00708907 0 4050.17
0.0128156 0.00739497 0 4251.08
0.0133463 0.00770137 -2.25554e-21 4462.77
0.0138779 0.00800831 0 4685.89
0.0144106 0.0083158 0 4920.54
0.0149442 0.00862387 0 5166.89
0.0154788 0.00893253 0 5425.56
0.0160145 0.00924181 0 5696.76
0.0165513 0.00955172 2.25556e-21 5981.12
0.0170893 0.00986231 -2.25556e-21 6278.57
0.0176284 0.0101736 0 6589.65
0.0181687 0.0104855 0 6914.97
0.0187103 0.0107982 2.25556e-21 7253.92
0.0192532 0.0111117 2.25557e-21 7607.27
0.0197975 0.0114259 2.25557e-21 7972.53
0.0203431 0.0117408 0 8349.26
0.0208901 0.0120566 4.51114e-21 8733.91
0.0214385 0.0123732 -4.51114e-21 9122.13
0.0219884 0.0126907 0 9505.99
0.0225398 0.0130091 4.51114e-21 9879.16
0.0230928 0.0133283 0 10239.3
0.0236474 0.0136485 0 10597.3
0.0242037 0.0139697 0 10969.1
0.0247616 0.0142918 -4.51113e-21 11367
0.0253212 0.0146148 -4.51113e-21 11785.1
0.0258825 0.0149389 -4.51114e-21 12194.6
0.0264456 0.015264 0 12563.8
0.0270106 0.0155902 0 12868.5
0.0275774 0.0159174 -4.51112e-21 13098.2
0.0281462 0.0162457 0 13261.5
0.0287168 0.0165752 4.51111e-21 13372.2
0.0292895 0.0169059 -4.51111e-21 13448.3
0.0298642 0.0172376 0 13515.8
0.0304409 0.0175706 0 13598.3
0.0310198 0.0179048 4.5111e-21 13677.6
0.0316007 0.0182402 4.5111e-21 13758.8
0.0321839 0.0185768 -4.51107e-21 13836.1
0.0327693 0.0189148 0 13895.6
0.0333569 0.0192541 0 13937.1
0.0339469 0.0195947 4.51106e-21 13953.3
0.0345392 0.0199366 0 13981.3
0.0351339 0.02028 0 13985.6
0.035731 0.0206247 4.51105e-21 13999.3
0.0363305 0.0209708 -4.51103e-21 14006.3
0.0369326 0.0213184 4.51102e-21 13997
0.0375373 0.0216675 0 13990.4
0.0381445 0.0220181 0 13946.9
0.0387543 0.0223702 0 13913.4
0.0393668 0.0227238 4.51099e-21 13879.6
0.0399821 0.023079 -4.51097e-21 13849.5
0.0406001 0.0234358 4.51097e-21 13819.4
0.041221 0.0237942 0 13784.4
0.0418446 0.0241542 0 13743.9
0.0424712 0.024516 4.51092e-21 13701.4
0.0431006 0.0248794 -4.51094e-21 13644.5
0.0437331 0.0252445 0 13603
0.0443686 0.0256114 4.51089e-21 13566.9
0.0450071 0.02598 4.51089e-21 13529.2
0.0456487 0.0263505 0 13505.3
0.0462935 0.0267227 0 13464.5
0.0469415 0.0270968 -4.51085e-21 13438.8
0.0475927 0.0274728 0 13395.4
0.0482473 0.0278507 -4.51081e-21 13353.2
0.0489051 0.0282305 4.51081e-21 13316.6
0.0495663 0.0286122 -4.51079e-21 13275.6
0.050231 0.0289959 0 13245.1
0.0508991 0.0293816 -4.51077e-21 13218.3
0.0515707 0.0297694 4.51073e-21 13200.6
0.0522459 0.0301592 -4.51073e-21 13180.2
0.0529247 0.0305511 0 13167.5
0.0536071 0.0309451 0 13141.2
0.0542933 0.0313412 -4.51067e-21 13121.4
0.0549832 0.0317395 0 13094.7
0.0556769 0.03214 0 13066.3
0.0563744 0.0325427 0 13035.7
0.0570758 0.0329477 -4.5106e-21 13009.8
0.0577812 0.0333549 0 12991.8
0.0584905 0.0337645 0 12974.7
0.0592039 0.0341763 -4.51056e-21 12959.2
0.0599214 0.0345905 4.51053e-21 12948.9
0.060643 0.0350071 0 12934.1
0.0613688 0.0354262 4.51049e-21 12923.4
0.0620989 0.0358477 -4.51048e-21 12905.3
0.0628332 0.0362716 4.51046e-21 12892.8
0.0635719 0.0366981 0 12880.5
0.0643149 0.037127 4.51041e-21 12863.8
0.0650624 0.0375586 0 12858.7
0.0658144 0.0379927 0 12838.9
0.0665709 0.0384295 4.51035e-21 12828.6
0.0673321 0.0388689 -4.51035e-21 12808.4
0.0680979 0.039311 0 12793.3
0.0688683 0.0397558 -4.51029e-21 12776.3
0.0696435 0.0402034 4.51029e-21 12758.6
0.0704236 0.0406537 0 12746.7
0.0712085 0.0411069 0 12730.8
0.0719983 0.0415628 0 12722.2
0.0727931 0.0420217 0 12716.4
0.0735929 0.0424834 0 12713.6
0.0743978 0.0429481 0 12717.3
0.0752078 0.0434158 0 12712.8
0.076023 0.0438864 4.5101e-21 12709.3
0.0768435 0.0443601 -4.51009e-21 12694.1
0.0776693 0.0448369 -4.51004e-21 12675.6
0.0785004 0.0453167 4.51003e-21 12651.8
0.079337 0.0457997 0 12627.1
0.080179 0.0462858 0 12605.2
0.0810266 0.0467751 0 12586.4
0.0818797 0.0472677 0 12569.5
0.0827385 0.0477635 0 12562.5
0.083603 0.0482626 0 12555
0.0844733 0.0487651 4.50985e-21 12555.5
0.0853495 0.0492709 -4.50983e-21 12554.3
0.0862316 0.0497801 0 12556.1
0.0871195 0.0502927 -4.50978e-21 12557.6
0.0880135 0.0508089 0 12551.2
0.0889136 0.0513285 0 12546.2
0.0898198 0.0518517 0 12536.3
0.0907322 0.0523785 0 12523.1
0.0916509 0.0529089 0 12508.1
0.0925758 0.0534429 4.50963e-21 12489.2
0.0935072 0.0539806 4.50959e-21 12469.5
0.094445 0.054522 0 12450.8
0.0953894 0.0550672 4.50953e-21 12431.5
0.0963404 0.0556162 0 12418.4
0.0972979 0.0561691 0 12405.2
0.0982622 0.0567258 0 12393.2
0.0992333 0.0572865 0 12382.3
0.100211 0.057851 0 12379.2
0.101196 0.0584196 0 12378.9
0.102188 0.0589922 4.50935e-21 12373.9
0.103187 0.0595689 4.50932e-21 12370.7
0.104193 0.0601497 -4.50928e-21 12370.1
0.105206 0.0607347 0 12357.2
0.106226 0.0613239 0 12348.5
0.107254 0.0619172 0 12332.9
0.10829 0.0625149 4.50918e-21 12325.9
0.109332 0.0631169 4.50915e-21 12319.7
0.110382 0.0637232 -4.50911e-21 12309.5
0.11144 0.064334 -4.50908e-21 12297.4
0.112506 0.0649492 4.50905e-21 12289.3
0.11358 0.0655688 4.50902e-21 12295.8
0.114661 0.066193 0 12287.8
0.11575 0.0668218 0 12291
0.116847 0.0674552 0 12291.5
0.117952 0.0680932 0 12285.4
0.119065 0.068736 0 12275.5
0.120187 0.0693834 4.50884e-21 12271.9
0.121316 0.0700357 0 12250.1
0.122455 0.0706928 0 12234.2
0.123601 0.0713548 -4.50875e-21 12225.8
0.124756 0.0720217 0 12206.1
0.12592 0.0726935 -4.5087e-21 12200.7
0.127093 0.0733704 0 12195.2
0.128274 0.0740524 0 12188.9
0.129464 0.0747395 4.50859e-21 12178.3
0.130663 0.0754317 0 12169.9
0.131871 0.0761292 4.50853e-21 12176.7
0.133088 0.0768319 4.50851e-21 12166.8
0.134315 0.0775399 0 12172
0.13555 0.0782532 4.50845e-21 12165.6
0.136795 0.078972 0 12161.8
0.13805 0.0796962 0 12153.3
0.139314 0.080426 -4.50834e-21 12145.1
0.140587 0.0811613 -4.50831e-21 12140.2
0.14187 0.0819021 4.50827e-21 12134.3
0.143163 0.0826487 0 12125.5
0.144466 0.0834009 0 12118
0.145779 0.0841589 0 12113.1
0.147102 0.0849227 4.50815e-21 12104.9
0.148435 0.0856924 4.50811e-21 12083
0.149779 0.0864679 0 12069
0.151133 0.0872495 4.50805e-21 12053
0.152497 0.0880371 4.50801e-21 12047
0.153871 0.0888307 4.50798e-21 12041.8
0.155257 0.0896305 0 12037.2
0.156653 0.0904364 4.50791e-21 12041.1
0.15806 0.0912487 4.50787e-21 12034
0.159478 0.0920672 0 12037
0.160907 0.092892 0 12024.3
0.162347 0.0937233 0 12014.6
0.163798 0.0945611 4.50774e-21 12018.6
0.16526 0.0954054 0 12006.1
0.166734 0.0962563 0 12009
0.168219 0.0971138 0 12006
0.169716 0.097978 4.50761e-21 11998.6
0.171225 0.098849 4.50758e-21 11992.9
0.172745 0.0997268 4.50754e-21 11977.4
0.174278 0.100611 0 11968.6
0.175822 0.101503 0 11964.6
0.177379 0.102402 0 11975.5
0.178947 0.103308 4.50741e-21 11971.6
0.180529 0.10422 4.50737e-21 11969
0.182122 0.10514 4.50734e-21 11975.1
0.183728 0.106068 0 11968.7
0.185347 0.107002 -4.50727e-21 11959.9
0.186979 0.107944 0 11947.9
0.188623 0.108894 0 11947.8
0.190281 0.109851 4.50716e-21 11936.9
0.191952 0.110815 0 11942.8
0.193636 0.111787 -4.5071e-21 11943
0.195333 0.112767 -4.50707e-21 11945.1
0.197044 0.113755 -4.50702e-21 11934
0.198768 0.114751 -4.507e-21 11927.7
0.200506 0.115754 -4.50696e-21 11897.2
0.202258 0.116766 0 11892.7
0.204024 0.117785 4.50688e-21 11880.3
0.205805 0.118813 4.50686e-21 11887.5
0.207599 0.119849 0 11894.7
0.209408 0.120893 -4.50679e-21 11904.3
0.211231 0.121946 -4.50676e-21 11910.6
0.213068 0.123007 0 11897.9
0.214921 0.124076 0 11890
0.216788 0.125154 0 11876.1
0.21867 0.126241 0 11859.8
0.220567 0.127336 0 11849.3
0.22248 0.12844 0 11853
0.224408 0.129553 0 11855.6
0.226351 0.130675 0 11860.1
0.22831 0.131806 0 11862.2
0.230284 0.132946 9.01282e-21 11839.8
0.232275 0.134095 0 11819.4
0.234282 0.135254 9.01268e-21 11813.6
0.236304 0.136421 0 11794.6
0.238344 0.137598 9.01253e-21 11799.6
0.2404 0.138785 0 11801.4
0.242472 0.139982 0 11824.7
