# wallHeatFlux  FACE_DATA 448
# x  y  z  wallHeatFlux
-0.778 -3.80769e-06 0 -198882
-0.773968 -3.80769e-06 0 -40154.3
-0.769872 -3.80769e-06 0 -24476.2
-0.76571 -3.80769e-06 0 -19627.1
-0.761486 -3.80769e-06 0 -16560.4
-0.757196 -3.80769e-06 0 -14607.2
-0.752841 -3.80769e-06 0 -13270.9
-0.748422 -3.80769e-06 0 -12263.6
-0.743939 -3.80769e-06 0 -11470.2
-0.739391 -3.80769e-06 0 -10807.6
-0.73478 -3.80769e-06 0 -10249.8
-0.730104 -3.80769e-06 0 -9781.65
-0.725364 -3.80769e-06 0 -9408.76
-0.720562 -3.80769e-06 0 -9163.24
-0.715696 -3.80769e-06 0 -9045.38
-0.710769 -3.80769e-06 0 -9189.27
-0.705778 -3.80769e-06 0 -9590.03
-0.700727 -3.80769e-06 0 -10274.6
-0.695615 -3.80769e-06 0 -11077.6
-0.690443 -3.80769e-06 0 -11827.8
-0.685211 -3.80769e-06 0 -12423.4
-0.67992 -3.80769e-06 0 -12901.6
-0.674571 -3.80769e-06 0 -13267.6
-0.669166 -3.80769e-06 0 -13553.5
-0.663704 -3.80769e-06 0 -13764.4
-0.658187 -3.80769e-06 0 -13921.7
-0.652616 -3.80769e-06 0 -14036
-0.646993 -3.80769e-06 0 -14107.3
-0.641317 -3.80769e-06 0 -14135.8
-0.635592 -3.80769e-06 0 -14152.3
-0.629817 -3.80769e-06 0 -14143.3
-0.623994 -3.80769e-06 0 -14116.3
-0.618125 -3.80769e-06 0 -14074.1
-0.61221 -3.80769e-06 0 -14025.8
-0.606252 -3.80769e-06 0 -13972
-0.600253 -3.80769e-06 0 -13912.5
-0.594213 -3.80769e-06 0 -13841.9
-0.588134 -3.80769e-06 0 -13776.5
-0.582018 -3.80769e-06 0 -13716.2
-0.575867 -3.80769e-06 0 -13650.2
-0.569683 -3.80769e-06 0 -13583.9
-0.563467 -3.80769e-06 0 -13511.9
-0.557221 -3.80769e-06 0 -13440
-0.550946 -3.80769e-06 0 -13377.5
-0.544647 -3.80769e-06 0 -13321.3
-0.538323 -3.80769e-06 0 -13259.1
-0.531979 -3.80769e-06 0 -13196.6
-0.525613 -3.80769e-06 0 -13133.8
-0.51923 -3.80769e-06 0 -13076.1
-0.512832 -3.80769e-06 0 -13023.6
-0.50642 -3.80769e-06 0 -12970.9
-0.499995 -3.80769e-06 0 -12918.3
-0.493562 -3.80769e-06 0 -12859.3
-0.487123 -3.80769e-06 0 -12805.9
-0.480677 -3.80769e-06 0 -12752.3
-0.47423 -3.80769e-06 0 -12714.3
-0.467782 -3.80769e-06 0 -12676.7
-0.461335 -3.80769e-06 0 -12633.5
-0.454892 -3.80769e-06 0 -12589.1
-0.448455 -3.80769e-06 0 -12535
-0.442026 -3.80769e-06 0 -12484.9
-0.435607 -3.80769e-06 0 -12446.3
-0.429202 -3.80769e-06 0 -12412.8
-0.42281 -3.80769e-06 0 -12389.8
-0.416434 -3.80769e-06 0 -12361.6
-0.410078 -3.80769e-06 0 -12321.4
-0.403743 -3.80769e-06 0 -12276.6
-0.39743 -3.80769e-06 0 -12231.8
-0.391141 -3.80769e-06 0 -12185.8
-0.38488 -3.80769e-06 0 -12146.2
-0.378648 -3.80769e-06 0 -12111.4
-0.372446 -3.80769e-06 0 -12103.6
-0.366277 -3.80769e-06 0 -12085.2
-0.360142 -3.80769e-06 0 -12065.7
-0.354042 -3.80769e-06 0 -12041.7
-0.347981 -3.80769e-06 0 -12006.5
-0.341959 -3.80769e-06 0 -11960.8
-0.335978 -3.80769e-06 0 -11914.4
-0.33004 -3.80769e-06 0 -11873.3
-0.324146 -3.80769e-06 0 -11838.6
-0.318298 -3.80769e-06 0 -11813.7
-0.312497 -3.80769e-06 0 -11805.2
-0.306744 -3.80769e-06 0 -11796.7
-0.301041 -3.80769e-06 0 -11793.6
-0.29539 -3.80769e-06 0 -11784.7
-0.28979 -3.80769e-06 0 -11776.8
-0.284243 -3.80769e-06 0 -11762.5
-0.278752 -3.80769e-06 0 -11732.4
-0.273316 -3.80769e-06 0 -11702.5
-0.267937 -3.80769e-06 0 -11661.7
-0.262614 -3.80769e-06 0 -11625.9
-0.25735 -3.80769e-06 0 -11586
-0.252146 -3.80769e-06 0 -11555.7
-0.247001 -3.80769e-06 0 -11525.8
-0.241916 -3.80769e-06 0 -11506.7
-0.236893 -3.80769e-06 0 -11498.4
-0.231931 -3.80769e-06 0 -11489.9
-0.227031 -3.80769e-06 0 -11487.9
-0.222195 -3.80769e-06 0 -11490.1
-0.217421 -3.80769e-06 0 -11492.8
-0.212711 -3.80769e-06 0 -11489.8
-0.208064 -3.80769e-06 0 -11482.7
-0.203482 -3.80769e-06 0 -11473.9
-0.198964 -3.80769e-06 0 -11461.2
-0.19451 -3.80769e-06 0 -11442.9
-0.19012 -3.80769e-06 0 -11424.6
-0.185796 -3.80769e-06 0 -11401.5
-0.181535 -3.80769e-06 0 -11377.5
-0.17734 -3.80769e-06 0 -11353.6
-0.173208 -3.80769e-06 0 -11325.8
-0.169141 -3.80769e-06 0 -11296.2
-0.165138 -3.80769e-06 0 -11273.9
-0.161199 -3.80769e-06 0 -11250.5
-0.157325 -3.80769e-06 0 -11232.8
-0.153513 -3.80769e-06 0 -11220.6
-0.149765 -3.80769e-06 0 -11208
-0.14608 -3.80769e-06 0 -11196.4
-0.142457 -3.80769e-06 0 -11195.6
-0.138897 -3.80769e-06 0 -11193.3
-0.135398 -3.80769e-06 0 -11193.3
-0.131961 -3.80769e-06 0 -11191.9
-0.128584 -3.80769e-06 0 -11195.8
-0.125268 -3.80769e-06 0 -11200.9
-0.122011 -3.80769e-06 0 -11206.1
-0.118815 -3.80769e-06 0 -11209.6
-0.115677 -3.80769e-06 0 -11209.6
-0.112597 -3.80769e-06 0 -11209
-0.109574 -3.80769e-06 0 -11209.2
-0.106609 -3.80769e-06 0 -11208.2
-0.1037 -3.80769e-06 0 -11202.6
-0.100846 -3.80769e-06 0 -11196.8
-0.098048 -3.80769e-06 0 -11191.5
-0.0953042 -3.80769e-06 0 -11186.1
-0.0926143 -3.80769e-06 0 -11180.7
-0.0899773 -3.80769e-06 0 -11170.1
-0.0873927 -3.80769e-06 0 -11164.7
-0.0848599 -3.80769e-06 0 -11154.4
-0.082378 -3.80769e-06 0 -11143.9
-0.0799465 -3.80769e-06 0 -11133.6
-0.0775645 -3.80769e-06 0 -11123.4
-0.0752312 -3.80769e-06 0 -11107.7
-0.0729462 -3.80769e-06 0 -11097.6
-0.0707085 -3.80769e-06 0 -11087.4
-0.0685175 -3.80769e-06 0 -11072.1
-0.0663725 -3.80769e-06 0 -11062
-0.0642727 -3.80769e-06 0 -11052.1
-0.0622173 -3.80769e-06 0 -11042.3
-0.0602058 -3.80769e-06 0 -11027
-0.0582373 -3.80769e-06 0 -11017.3
-0.0563111 -3.80769e-06 0 -11007.6
-0.0544265 -3.80769e-06 0 -10998
-0.0525827 -3.80769e-06 0 -10988.4
-0.0507792 -3.80769e-06 0 -10978.9
-0.0490152 -3.80769e-06 0 -10969.4
-0.0472898 -3.80769e-06 0 -10960.1
-0.0456025 -3.80769e-06 0 -10956
-0.0439526 -3.80769e-06 0 -10946.7
-0.0423394 -3.80769e-06 0 -10937.4
-0.0407622 -3.80769e-06 0 -10933.7
-0.0392203 -3.80769e-06 0 -10924.6
-0.0377131 -3.80769e-06 0 -10921
-0.0362398 -3.80769e-06 0 -10917.5
-0.0347999 -3.80769e-06 0 -10908.6
-0.0333926 -3.80769e-06 0 -10905.2
-0.0320175 -3.80769e-06 0 -10902
-0.0306737 -3.80769e-06 0 -10898.8
-0.0293607 -3.80769e-06 0 -10890.5
-0.0280779 -3.80769e-06 0 -10887.4
-0.0268246 -3.80769e-06 0 -10884.9
-0.0256004 -3.80769e-06 0 -10898.1
-0.0244045 -3.80769e-06 0 -10949.4
-0.0232363 -3.80769e-06 0 -11049.4
-0.0220954 -3.80769e-06 0 -10751.7
-0.0209812 -3.80769e-06 0 -9653.55
-0.019893 -3.80769e-06 0 -8732.19
-0.0188303 -3.80769e-06 0 -8644.3
-0.0177927 -3.80769e-06 0 -9412.35
-0.0167794 -3.80769e-06 0 -10391.6
-0.0157901 -3.80769e-06 0 -11264.3
-0.0148243 -3.80769e-06 0 -11977.5
-0.0138814 -3.80769e-06 0 -12530.8
-0.0129608 -3.80769e-06 0 -13010.9
-0.0120623 -3.80769e-06 0 -13422.5
-0.0111851 -3.80769e-06 0 -13784.9
-0.0103289 -3.80769e-06 0 -14107.3
-0.00949328 -3.80769e-06 0 -14385.5
-0.00867767 -3.80769e-06 0 -14620.2
-0.00788168 -3.80769e-06 0 -14810
-0.00710485 -3.80769e-06 0 -14955.6
-0.00634675 -3.80769e-06 0 -15057.4
-0.00560698 -3.80769e-06 0 -15183.6
-0.0048851 -3.80769e-06 0 -15433.2
-0.00418071 -3.80769e-06 0 -15814.2
-0.00349342 -3.80769e-06 0 -16558.4
-0.00282284 -3.80769e-06 0 -17650.1
-0.00216857 -3.80769e-06 0 -19009.8
-0.00153026 -3.80769e-06 0 -20236
-0.00090752 -3.80769e-06 0 -20209.9
-0.0003 -3.80769e-06 0 -18117.6
0.000259937 0.000146262 2.25537e-21 -15865
0.000779437 0.000446185 0 -19203
0.00129893 0.000746101 0 -22640.1
0.00181858 0.00104611 2.2554e-21 -25248.2
0.00233835 0.00134618 -2.25541e-21 -27351
0.00285828 0.00164636 2.25542e-21 -29247.7
0.00337841 0.00194664 0 -31072.4
0.00389877 0.00224706 0 -32929.8
0.00441941 0.00254764 -2.25544e-21 -34877.7
0.00494034 0.00284839 2.25545e-21 -36902.5
0.00546162 0.00314934 -2.25546e-21 -39036.1
0.00598328 0.0034505 2.25547e-21 -41254.4
0.00650535 0.00375191 2.25547e-21 -43560.3
0.00702786 0.00405357 2.25548e-21 -45936.6
0.00755087 0.00435552 0 -48415.5
0.00807439 0.00465776 -2.25549e-21 -51037.3
0.00859847 0.00496033 2.2555e-21 -53856.7
0.00912315 0.00526324 0 -56897.6
0.00964845 0.00556651 2.25551e-21 -60165.5
0.0101744 0.00587017 0 -63622.8
0.0107011 0.00617424 0 -67270.1
0.0112285 0.00647873 -2.25552e-21 -71053.9
0.0117567 0.00678367 0 -74957.9
0.0122857 0.00708907 0 -78961.6
0.0128156 0.00739497 0 -83046.8
0.0133463 0.00770137 -2.25554e-21 -87198.4
0.0138779 0.00800831 0 -91377.9
0.0144106 0.0083158 0 -95582.1
0.0149442 0.00862387 0 -99833.7
0.0154788 0.00893253 0 -104184
0.0160145 0.00924181 0 -108669
0.0165513 0.00955172 2.25556e-21 -113331
0.0170893 0.00986231 -2.25556e-21 -118158
0.0176284 0.0101736 0 -123180
0.0181687 0.0104855 0 -128376
0.0187103 0.0107982 2.25556e-21 -133792
0.0192532 0.0111117 2.25557e-21 -139503
0.0197975 0.0114259 2.25557e-21 -145436
0.0203431 0.0117408 0 -151558
0.0208901 0.0120566 4.51114e-21 -157884
0.0214385 0.0123732 -4.51114e-21 -164261
0.0219884 0.0126907 0 -170663
0.0225398 0.0130091 4.51114e-21 -176786
0.0230928 0.0133283 0 -182652
0.0236474 0.0136485 0 -188263
0.0242037 0.0139697 0 -194215
0.0247616 0.0142918 -4.51113e-21 -200639
0.0253212 0.0146148 -4.51113e-21 -207692
0.0258825 0.0149389 -4.51114e-21 -214358
0.0264456 0.015264 0 -220821
0.0270106 0.0155902 0 -225928
0.0275774 0.0159174 -4.51112e-21 -229324
0.0281462 0.0162457 0 -231090
0.0287168 0.0165752 4.51111e-21 -231775
0.0292895 0.0169059 -4.51111e-21 -231991
0.0298642 0.0172376 0 -232006
0.0304409 0.0175706 0 -231970
0.0310198 0.0179048 4.5111e-21 -232271
0.0316007 0.0182402 4.5111e-21 -232847
0.0321839 0.0185768 -4.51107e-21 -233106
0.0327693 0.0189148 0 -233226
0.0333569 0.0192541 0 -232775
0.0339469 0.0195947 4.51106e-21 -232411
0.0345392 0.0199366 0 -230908
0.0351339 0.02028 0 -230306
0.035731 0.0206247 4.51105e-21 -229130
0.0363305 0.0209708 -4.51103e-21 -227867
0.0369326 0.0213184 4.51102e-21 -226664
0.0375373 0.0216675 0 -225205
0.0381445 0.0220181 0 -223169
0.0387543 0.0223702 0 -221976
0.0393668 0.0227238 4.51099e-21 -220003
0.0399821 0.023079 -4.51097e-21 -218413
0.0406001 0.0234358 4.51097e-21 -216429
0.041221 0.0237942 0 -214585
0.0418446 0.0241542 0 -212557
0.0424712 0.024516 4.51092e-21 -210121
0.0431006 0.0248794 -4.51094e-21 -208193
0.0437331 0.0252445 0 -206529
0.0443686 0.0256114 4.51089e-21 -204151
0.0450071 0.02598 4.51089e-21 -202879
0.0456487 0.0263505 0 -201012
0.0462935 0.0267227 0 -199915
0.0469415 0.0270968 -4.51085e-21 -197648
0.0475927 0.0274728 0 -196004
0.0482473 0.0278507 -4.51081e-21 -194188
0.0489051 0.0282305 4.51081e-21 -192281
0.0495663 0.0286122 -4.51079e-21 -190888
0.050231 0.0289959 0 -189733
0.0508991 0.0293816 -4.51077e-21 -188155
0.0515707 0.0297694 4.51073e-21 -186985
0.0522459 0.0301592 -4.51073e-21 -186096
0.0529247 0.0305511 0 -184194
0.0536071 0.0309451 0 -183271
0.0542933 0.0313412 -4.51067e-21 -181873
0.0549832 0.0317395 0 -180734
0.0556769 0.03214 0 -179495
0.0563744 0.0325427 0 -178332
0.0570758 0.0329477 -4.5106e-21 -177382
0.0577812 0.0333549 0 -176362
0.0584905 0.0337645 0 -174976
0.0592039 0.0341763 -4.51056e-21 -174487
0.0599214 0.0345905 4.51053e-21 -173065
0.060643 0.0350071 0 -172360
0.0613688 0.0354262 4.51049e-21 -171322
0.0620989 0.0358477 -4.51048e-21 -170597
0.0628332 0.0362716 4.51046e-21 -169675
0.0635719 0.0366981 0 -168806
0.0643149 0.037127 4.51041e-21 -168266
0.0650624 0.0375586 0 -167228
0.0658144 0.0379927 0 -166756
0.0665709 0.0384295 4.51035e-21 -165831
0.0673321 0.0388689 -4.51035e-21 -165196
0.0680979 0.039311 0 -164721
0.0688683 0.0397558 -4.51029e-21 -163544
0.0696435 0.0402034 4.51029e-21 -163174
0.0704236 0.0406537 0 -162232
0.0712085 0.0411069 0 -161940
0.0719983 0.0415628 0 -161141
0.0727931 0.0420217 0 -160678
0.0735929 0.0424834 0 -160410
0.0743978 0.0429481 0 -159844
0.0752078 0.0434158 0 -159659
0.076023 0.0438864 4.5101e-21 -158962
0.0768435 0.0443601 -4.51009e-21 -158490
0.0776693 0.0448369 -4.51004e-21 -157628
0.0785004 0.0453167 4.51003e-21 -156624
0.079337 0.0457997 0 -156094
0.080179 0.0462858 0 -155035
0.0810266 0.0467751 0 -154214
0.0818797 0.0472677 0 -153891
0.0827385 0.0477635 0 -153111
0.083603 0.0482626 0 -153049
0.0844733 0.0487651 4.50985e-21 -152896
0.0853495 0.0492709 -4.50983e-21 -152652
0.0862316 0.0497801 0 -152672
0.0871195 0.0502927 -4.50978e-21 -152033
0.0880135 0.0508089 0 -152007
0.0889136 0.0513285 0 -151619
0.0898198 0.0518517 0 -150944
0.0907322 0.0523785 0 -150572
0.0916509 0.0529089 0 -149761
0.0925758 0.0534429 4.50963e-21 -149162
0.0935072 0.0539806 4.50959e-21 -148424
0.094445 0.054522 0 -147958
0.0953894 0.0550672 4.50953e-21 -147312
0.0963404 0.0556162 0 -146767
0.0972979 0.0561691 0 -146256
0.0982622 0.0567258 0 -145896
0.0992333 0.0572865 0 -145745
0.100211 0.057851 0 -145408
0.101196 0.0584196 0 -144625
0.102188 0.0589922 4.50935e-21 -144886
0.103187 0.0595689 4.50932e-21 -144630
0.104193 0.0601497 -4.50928e-21 -143661
0.105206 0.0607347 0 -143861
0.106226 0.0613239 0 -143178
0.107254 0.0619172 0 -142953
0.10829 0.0625149 4.50918e-21 -142364
0.109332 0.0631169 4.50915e-21 -142054
0.110382 0.0637232 -4.50911e-21 -141962
0.11144 0.064334 -4.50908e-21 -141444
0.112506 0.0649492 4.50905e-21 -141488
0.11358 0.0655688 4.50902e-21 -140597
0.114661 0.066193 0 -140675
0.11575 0.0668218 0 -140614
0.116847 0.0674552 0 -140392
0.117952 0.0680932 0 -140069
0.119065 0.068736 0 -139932
0.120187 0.0693834 4.50884e-21 -138871
0.121316 0.0700357 0 -138698
0.122455 0.0706928 0 -138478
0.123601 0.0713548 -4.50875e-21 -137117
0.124756 0.0720217 0 -137617
0.12592 0.0726935 -4.5087e-21 -136852
0.127093 0.0733704 0 -136784
0.128274 0.0740524 0 -136048
0.129464 0.0747395 4.50859e-21 -136186
0.130663 0.0754317 0 -135845
0.131871 0.0761292 4.50853e-21 -135159
0.133088 0.0768319 4.50851e-21 -135636
0.134315 0.0775399 0 -135117
0.13555 0.0782532 4.50845e-21 -134498
0.136795 0.078972 0 -134734
0.13805 0.0796962 0 -133807
0.139314 0.080426 -4.50834e-21 -134072
0.140587 0.0811613 -4.50831e-21 -133278
0.14187 0.0819021 4.50827e-21 -132956
0.143163 0.0826487 0 -132711
0.144466 0.0834009 0 -132527
0.145779 0.0841589 0 -132567
0.147102 0.0849227 4.50815e-21 -131526
0.148435 0.0856924 4.50811e-21 -131589
0.149779 0.0864679 0 -131157
0.151133 0.0872495 4.50805e-21 -130541
0.152497 0.0880371 4.50801e-21 -130184
0.153871 0.0888307 4.50798e-21 -130538
0.155257 0.0896305 0 -129791
0.156653 0.0904364 4.50791e-21 -129432
0.15806 0.0912487 4.50787e-21 -129851
0.159478 0.0920672 0 -128964
0.160907 0.092892 0 -128671
0.162347 0.0937233 0 -128893
0.163798 0.0945611 4.50774e-21 -127724
0.16526 0.0954054 0 -128146
0.166734 0.0962563 0 -127976
0.168219 0.0971138 0 -127265
0.169716 0.097978 4.50761e-21 -127412
0.171225 0.098849 4.50758e-21 -126962
0.172745 0.0997268 4.50754e-21 -127116
0.174278 0.100611 0 -126073
0.175822 0.101503 0 -126377
0.177379 0.102402 0 -125391
0.178947 0.103308 4.50741e-21 -126152
0.180529 0.10422 4.50737e-21 -125763
0.182122 0.10514 4.50734e-21 -125011
0.183728 0.106068 0 -125704
0.185347 0.107002 -4.50727e-21 -125243
0.186979 0.107944 0 -124331
0.188623 0.108894 0 -124851
0.190281 0.109851 4.50716e-21 -124117
0.191952 0.110815 0 -124307
0.193636 0.111787 -4.5071e-21 -123213
0.195333 0.112767 -4.50707e-21 -123442
0.197044 0.113755 -4.50702e-21 -122836
0.198768 0.114751 -4.507e-21 -122532
0.200506 0.115754 -4.50696e-21 -122107
0.202258 0.116766 0 -122290
0.204024 0.117785 4.50688e-21 -121432
0.205805 0.118813 4.50686e-21 -121970
0.207599 0.119849 0 -121378
0.209408 0.120893 -4.50679e-21 -121210
0.211231 0.121946 -4.50676e-21 -120781
0.213068 0.123007 0 -121564
0.214921 0.124076 0 -120747
0.216788 0.125154 0 -119785
0.21867 0.126241 0 -120669
0.220567 0.127336 0 -119865
0.22248 0.12844 0 -118984
0.224408 0.129553 0 -119911
0.226351 0.130675 0 -118935
0.22831 0.131806 0 -119080
0.230284 0.132946 9.01282e-21 -118649
0.232275 0.134095 0 -118796
0.234282 0.135254 9.01268e-21 -117923
0.236304 0.136421 0 -118406
0.238344 0.137598 9.01253e-21 -117937
0.2404 0.138785 0 -117252
0.242472 0.139982 0 -116634
