# p  FACE_DATA 203
# x  y  z  p
-0.873265 0 0.0205 3480.38
-0.846493 0 0.0205 2976.01
-0.820677 0 0.0205 2846.17
-0.795786 0 0.0205 2797.3
-0.771783 0 0.0205 2777.1
-0.74637 0 0.0205 2774.64
-0.719597 0 0.0205 2773.04
-0.693782 0 0.0205 2767.79
-0.66889 0 0.0205 2764.53
-0.644887 0 0.0205 2764.05
-0.621743 0 0.0205 2763.24
-0.599426 0 0.0205 2761.13
-0.577905 0 0.0205 2758.93
-0.557154 0 0.0205 2757.21
-0.537145 0 0.0205 2755.95
-0.517849 0 0.0205 2754.36
-0.499243 0 0.0205 2752.49
-0.481301 0 0.0205 2750.84
-0.463999 0 0.0205 2749.88
-0.447314 0 0.0205 2749.71
-0.431225 0 0.0205 2749.92
-0.41571 0 0.0205 2749.42
-0.400747 0 0.0205 2747.7
-0.386317 0 0.0205 2745.53
-0.372401 0 0.0205 2743.42
-0.358981 0 0.0205 2741.92
-0.346039 0 0.0205 2741.32
-0.333556 0 0.0205 2741.75
-0.321518 0 0.0205 2743.02
-0.309908 0 0.0205 2744.52
-0.298709 0 0.0205 2745.41
-0.287908 0 0.0205 2745.56
-0.27749 0 0.0205 2744.34
-0.267441 0 0.0205 2742.26
-0.257748 0 0.0205 2739.65
-0.248397 0 0.0205 2737
-0.239378 0 0.0205 2734.7
-0.230677 0 0.0205 2732.87
-0.222282 0 0.0205 2731.69
-0.214183 0 0.0205 2731.15
-0.20637 0 0.0205 2731.22
-0.19883 0 0.0205 2732.08
-0.191555 0 0.0205 2733.36
-0.184536 0 0.0205 2734.91
-0.177762 0 0.0205 2736.54
-0.171224 0 0.0205 2738.13
-0.164914 0 0.0205 2739.55
-0.158824 0 0.0205 2740.82
-0.152944 0 0.0205 2741.87
-0.147268 0 0.0205 2742.66
-0.141788 0 0.0205 2743.12
-0.136496 0 0.0205 2743.29
-0.131387 0 0.0205 2743.07
-0.126452 0 0.0205 2742.49
-0.121685 0 0.0205 2741.6
-0.117081 0 0.0205 2740.46
-0.112632 0 0.0205 2739.16
-0.108332 0 0.0205 2737.74
-0.104177 0 0.0205 2736.26
-0.100161 0 0.0205 2734.78
-0.0962773 0 0.0205 2733.32
-0.0925221 0 0.0205 2731.91
-0.08889 0 0.0205 2730.57
-0.0853762 0 0.0205 2729.3
-0.0819759 0 0.0205 2728.11
-0.0786847 0 0.0205 2727.01
-0.0754981 0 0.0205 2726.02
-0.0724121 0 0.0205 2725.14
-0.0694223 0 0.0205 2724.36
-0.066525 0 0.0205 2723.68
-0.0637161 0 0.0205 2723.08
-0.060992 0 0.0205 2722.54
-0.0583491 0 0.0205 2722.07
-0.0557837 0 0.0205 2721.65
-0.0532926 0 0.0205 2721.29
-0.0508723 0 0.0205 2720.97
-0.0485197 0 0.0205 2720.76
-0.0462317 0 0.0205 2720.59
-0.0440053 0 0.0205 2720.56
-0.0418373 0 0.0205 2721
-0.039725 0 0.0205 2722.24
-0.0376655 0 0.0205 2730.71
-0.0356562 0 0.0205 2812.22
-0.0336943 0 0.0205 3426.38
-0.0317773 0 0.0205 4960.09
-0.0299025 0 0.0205 6397.82
-0.0280674 0 0.0205 7281.46
-0.0262697 0 0.0205 7939.42
-0.024507 0 0.0205 8434.79
-0.0227768 0 0.0205 8845.08
-0.021077 0 0.0205 9202.39
-0.0194052 0 0.0205 9514.17
-0.0177593 0 0.0205 9793.74
-0.016137 0 0.0205 10051.1
-0.014536 0 0.0205 10287.9
-0.0129545 0 0.0205 10508.2
-0.0113902 0 0.0205 10712.2
-0.00984104 0 0.0205 10894.1
-0.00830498 0 0.0205 11052.3
-0.00677997 0 0.0205 11184.9
-0.00526398 0 0.0205 11302.7
-0.00375499 0 0.0205 11397.1
-0.002251 0 0.0205 11629.1
-0.00075 0 0.0205 12838.7
0.000689475 0.000398068 0.0205 11935.8
0.00206843 0.0011942 0.0205 12381.9
0.00344737 0.00199034 0.0205 13034.7
0.00482631 0.00278648 0.0205 13820
0.00620527 0.00358261 0.0205 14819.2
0.00758422 0.00437875 0.0205 16020.4
0.00896317 0.00517489 0.0205 17451.6
0.0103421 0.00597102 0.0205 19144.8
0.0117211 0.00676715 0.0205 21146.2
0.0131 0.00756329 0.0205 23497.8
0.0144789 0.00835943 0.0205 26238.9
0.0158579 0.00915557 0.0205 29411.3
0.0172368 0.00995171 0.0205 33103.9
0.0186158 0.0107478 0.0205 37364.3
0.0199947 0.0115439 0.0205 42278.2
0.0213737 0.0123401 0.0205 47956.5
0.0227526 0.0131362 0.0205 54556.7
0.0241316 0.0139323 0.0205 62172.1
0.0255106 0.0147285 0.0205 70816.4
0.0268895 0.0155246 0.0205 80422.8
0.0282685 0.0163208 0.0205 90796.6
0.0296474 0.0171169 0.0205 101727
0.0310264 0.017913 0.0205 113073
0.0324053 0.0187092 0.0205 123859
0.0337843 0.0195054 0.0205 132484
0.0351632 0.0203015 0.0205 137928
0.0365421 0.0210976 0.0205 139821
0.037921 0.0218938 0.0205 139202
0.0393 0.0226898 0.0205 132295
0.0406789 0.023486 0.0205 126870
0.0420579 0.0242821 0.0205 122184
0.0434368 0.0250783 0.0205 117947
0.0448158 0.0258745 0.0205 114088
0.0461948 0.0266706 0.0205 110903
0.0475737 0.0274667 0.0205 108426
0.0489527 0.0282628 0.0205 106482
0.0503316 0.029059 0.0205 104661
0.0517106 0.0298551 0.0205 102990
0.0530895 0.0306512 0.0205 101637
0.0544684 0.0314473 0.0205 100721
0.0558474 0.0322435 0.0205 100630
0.0572264 0.0330397 0.0205 100821
0.0586053 0.0338357 0.0205 100700
0.0599842 0.0346319 0.0205 100527
0.0613632 0.0354281 0.0205 100173
0.0627422 0.0362242 0.0205 100057
0.0641211 0.0370204 0.0205 100169
0.0655001 0.0378164 0.0205 100470
0.066879 0.0386126 0.0205 100769
0.0682579 0.0394088 0.0205 100880
0.0696369 0.0402049 0.0205 100787
0.0710158 0.041001 0.0205 100586
0.0723947 0.0417971 0.0205 100377
0.0737737 0.0425932 0.0205 100110
0.0751527 0.0433894 0.0205 100089
0.0765316 0.0441856 0.0205 100130
0.0779106 0.0449817 0.0205 100321
0.0792895 0.0457778 0.0205 100552
0.0806685 0.0465739 0.0205 100782
0.0820474 0.0473701 0.0205 100956
0.0834263 0.0481662 0.0205 101149
0.0848053 0.0489624 0.0205 101239
0.0861843 0.0497585 0.0205 101369
0.0875632 0.0505546 0.0205 101444
0.0889421 0.0513508 0.0205 101495
0.0903211 0.0521469 0.0205 101550
0.0917 0.0529431 0.0205 101579
0.093079 0.0537392 0.0205 101545
0.094458 0.0545353 0.0205 101619
0.0958369 0.0553315 0.0205 101617
0.0972159 0.0561276 0.0205 101683
0.0985948 0.0569238 0.0205 101728
0.0999737 0.0577198 0.0205 101805
0.101352 0.058516 0.0205 101840
0.102732 0.0593121 0.0205 101923
0.10411 0.0601083 0.0205 101990
0.105489 0.0609044 0.0205 102075
0.106868 0.0617005 0.0205 102136
0.108248 0.0624967 0.0205 102177
0.109627 0.0632928 0.0205 102261
0.111006 0.064089 0.0205 102294
0.112385 0.0648851 0.0205 102326
0.113764 0.0656812 0.0205 102336
0.115143 0.0664774 0.0205 102317
0.116522 0.0672735 0.0205 102309
0.117901 0.0680697 0.0205 102279
0.119279 0.0688658 0.0205 102349
0.120658 0.0696619 0.0205 102227
0.122037 0.0704581 0.0205 102186
0.123415 0.0712542 0.0205 102127
0.124794 0.0720503 0.0205 102133
0.126173 0.0728465 0.0205 102116
0.127552 0.0736426 0.0205 102081
0.128931 0.0744387 0.0205 102126
0.13031 0.0752348 0.0205 102130
0.131689 0.076031 0.0205 102154
0.133069 0.0768271 0.0205 102188
0.134447 0.0776233 0.0205 102283
0.135827 0.0784194 0.0205 102033
