# wallHeatFlux  FACE_DATA 203
# x  y  z  wallHeatFlux
-0.873265 0 0.0205 -297614
-0.846493 0 0.0205 -84236.5
-0.820677 0 0.0205 -79300.2
-0.795786 0 0.0205 -77707.8
-0.771783 0 0.0205 -76380.8
-0.74637 0 0.0205 -75743.9
-0.719597 0 0.0205 -75053.8
-0.693782 0 0.0205 -74098.4
-0.66889 0 0.0205 -73143
-0.644887 0 0.0205 -72293.7
-0.621743 0 0.0205 -71709.8
-0.599426 0 0.0205 -71338.3
-0.577905 0 0.0205 -70913.7
-0.557154 0 0.0205 -70276.7
-0.537145 0 0.0205 -69586.7
-0.517849 0 0.0205 -69055.9
-0.499243 0 0.0205 -68737.4
-0.481301 0 0.0205 -68472
-0.463999 0 0.0205 -68206.6
-0.447314 0 0.0205 -67835.1
-0.431225 0 0.0205 -67463.5
-0.41571 0 0.0205 -67145
-0.400747 0 0.0205 -66879.6
-0.386317 0 0.0205 -66614.3
-0.372401 0 0.0205 -66401.9
-0.358981 0 0.0205 -66189.6
-0.346039 0 0.0205 -65977.3
-0.333556 0 0.0205 -65765
-0.321518 0 0.0205 -65605.7
-0.309908 0 0.0205 -65446.5
-0.298709 0 0.0205 -65287.3
-0.287908 0 0.0205 -65181.1
-0.27749 0 0.0205 -64968.8
-0.267441 0 0.0205 -64809.6
-0.257748 0 0.0205 -64597.2
-0.248397 0 0.0205 -64438
-0.239378 0 0.0205 -64225.7
-0.230677 0 0.0205 -64066.5
-0.222282 0 0.0205 -63907.2
-0.214183 0 0.0205 -63801.1
-0.20637 0 0.0205 -63694.9
-0.19883 0 0.0205 -63641.8
-0.191555 0 0.0205 -63588.7
-0.184536 0 0.0205 -63588.7
-0.177762 0 0.0205 -63588.7
-0.171224 0 0.0205 -63588.7
-0.164914 0 0.0205 -63588.7
-0.158824 0 0.0205 -63588.7
-0.152944 0 0.0205 -63535.7
-0.147268 0 0.0205 -63535.7
-0.141788 0 0.0205 -63482.6
-0.136496 0 0.0205 -63429.5
-0.131387 0 0.0205 -63376.4
-0.126452 0 0.0205 -63270.3
-0.121685 0 0.0205 -63164.1
-0.117081 0 0.0205 -63058
-0.112632 0 0.0205 -62951.8
-0.108332 0 0.0205 -62845.6
-0.104177 0 0.0205 -62739.5
-0.100161 0 0.0205 -62633.3
-0.0962773 0 0.0205 -62474.1
-0.0925221 0 0.0205 -62367.9
-0.08889 0 0.0205 -62261.8
-0.0853762 0 0.0205 -62155.6
-0.0819759 0 0.0205 -62049.4
-0.0786847 0 0.0205 -61943.3
-0.0754981 0 0.0205 -61837.1
-0.0724121 0 0.0205 -61784.1
-0.0694223 0 0.0205 -61677.9
-0.066525 0 0.0205 -61571.7
-0.0637161 0 0.0205 -61465.6
-0.060992 0 0.0205 -61306.3
-0.0583491 0 0.0205 -61200.2
-0.0557837 0 0.0205 -61147.1
-0.0532926 0 0.0205 -61094
-0.0508723 0 0.0205 -61040.9
-0.0485197 0 0.0205 -61040.9
-0.0462317 0 0.0205 -61094
-0.0440053 0 0.0205 -61200.2
-0.0418373 0 0.0205 -61306.3
-0.039725 0 0.0205 -61359.4
-0.0376655 0 0.0205 -60669.4
-0.0356562 0 0.0205 -55202.2
-0.0336943 0 0.0205 -41614
-0.0317773 0 0.0205 -47452.7
-0.0299025 0 0.0205 -69905.2
-0.0280674 0 0.0205 -82909.5
-0.0262697 0 0.0205 -92092.2
-0.024507 0 0.0205 -98408.6
-0.0227768 0 0.0205 -103504
-0.021077 0 0.0205 -107963
-0.0194052 0 0.0205 -111678
-0.0177593 0 0.0205 -114916
-0.016137 0 0.0205 -117836
-0.014536 0 0.0205 -120277
-0.0129545 0 0.0205 -122241
-0.0113902 0 0.0205 -123780
-0.00984104 0 0.0205 -124948
-0.00830498 0 0.0205 -126328
-0.00677997 0 0.0205 -128451
-0.00526398 0 0.0205 -132273
-0.00375499 0 0.0205 -138749
-0.002251 0 0.0205 -153133
-0.00075 0 0.0205 -175108
0.000689475 0.000398068 0.0205 -160826
0.00206843 0.0011942 0.0205 -191287
0.00344737 0.00199034 0.0205 -214088
0.00482631 0.00278648 0.0205 -236029
0.00620527 0.00358261 0.0205 -261159
0.00758422 0.00437875 0.0205 -290578
0.00896317 0.00517489 0.0205 -325635
0.0103421 0.00597102 0.0205 -367375
0.0117211 0.00676715 0.0205 -417146
0.0131 0.00756329 0.0205 -475978
0.0144789 0.00835943 0.0205 -544877
0.0158579 0.00915557 0.0205 -624175
0.0172368 0.00995171 0.0205 -717419
0.0186158 0.0107478 0.0205 -821581
0.0199947 0.0115439 0.0205 -936087
0.0213737 0.0123401 0.0205 -1.08504e+06
0.0227526 0.0131362 0.0205 -1.2418e+06
0.0241316 0.0139323 0.0205 -1.41296e+06
0.0255106 0.0147285 0.0205 -1.63166e+06
0.0268895 0.0155246 0.0205 -1.84732e+06
0.0282685 0.0163208 0.0205 -2.08357e+06
0.0296474 0.0171169 0.0205 -2.34578e+06
0.0310264 0.017913 0.0205 -2.584e+06
0.0324053 0.0187092 0.0205 -2.83306e+06
0.0337843 0.0195054 0.0205 -3.05624e+06
0.0351632 0.0203015 0.0205 -3.20757e+06
0.0365421 0.0210976 0.0205 -3.23458e+06
0.037921 0.0218938 0.0205 -3.16926e+06
0.0393 0.0226898 0.0205 -2.95175e+06
0.0406789 0.023486 0.0205 -2.85468e+06
0.0420579 0.0242821 0.0205 -2.68588e+06
0.0434368 0.0250783 0.0205 -2.53284e+06
0.0448158 0.0258745 0.0205 -2.41191e+06
0.0461948 0.0266706 0.0205 -2.28386e+06
0.0475737 0.0274667 0.0205 -2.1838e+06
0.0489527 0.0282628 0.0205 -2.11188e+06
0.0503316 0.029059 0.0205 -2.02536e+06
0.0517106 0.0298551 0.0205 -1.95896e+06
0.0530895 0.0306512 0.0205 -1.90168e+06
0.0544684 0.0314473 0.0205 -1.82939e+06
0.0558474 0.0322435 0.0205 -1.82923e+06
0.0572264 0.0330397 0.0205 -1.7947e+06
0.0586053 0.0338357 0.0205 -1.74729e+06
0.0599842 0.0346319 0.0205 -1.75645e+06
0.0613632 0.0354281 0.0205 -1.71585e+06
0.0627422 0.0362242 0.0205 -1.6848e+06
0.0641211 0.0370204 0.0205 -1.65947e+06
0.0655001 0.0378164 0.0205 -1.62039e+06
0.066879 0.0386126 0.0205 -1.61147e+06
0.0682579 0.0394088 0.0205 -1.61408e+06
0.0696369 0.0402049 0.0205 -1.6074e+06
0.0710158 0.041001 0.0205 -1.58989e+06
0.0723947 0.0417971 0.0205 -1.56045e+06
0.0737737 0.0425932 0.0205 -1.51574e+06
0.0751527 0.0433894 0.0205 -1.52213e+06
0.0765316 0.0441856 0.0205 -1.49999e+06
0.0779106 0.0449817 0.0205 -1.48585e+06
0.0792895 0.0457778 0.0205 -1.48957e+06
0.0806685 0.0465739 0.0205 -1.47458e+06
0.0820474 0.0473701 0.0205 -1.4686e+06
0.0834263 0.0481662 0.0205 -1.47029e+06
0.0848053 0.0489624 0.0205 -1.44967e+06
0.0861843 0.0497585 0.0205 -1.44024e+06
0.0875632 0.0505546 0.0205 -1.43024e+06
0.0889421 0.0513508 0.0205 -1.40526e+06
0.0903211 0.0521469 0.0205 -1.42103e+06
0.0917 0.0529431 0.0205 -1.4087e+06
0.093079 0.0537392 0.0205 -1.38183e+06
0.094458 0.0545353 0.0205 -1.39667e+06
0.0958369 0.0553315 0.0205 -1.38127e+06
0.0972159 0.0561276 0.0205 -1.3727e+06
0.0985948 0.0569238 0.0205 -1.37404e+06
0.0999737 0.0577198 0.0205 -1.35665e+06
0.101352 0.058516 0.0205 -1.34889e+06
0.102732 0.0593121 0.0205 -1.35277e+06
0.10411 0.0601083 0.0205 -1.34891e+06
0.105489 0.0609044 0.0205 -1.34019e+06
0.106868 0.0617005 0.0205 -1.32636e+06
0.108248 0.0624967 0.0205 -1.30307e+06
0.109627 0.0632928 0.0205 -1.31984e+06
0.111006 0.064089 0.0205 -1.30987e+06
0.112385 0.0648851 0.0205 -1.30005e+06
0.113764 0.0656812 0.0205 -1.30227e+06
0.115143 0.0664774 0.0205 -1.28695e+06
0.116522 0.0672735 0.0205 -1.27994e+06
0.117901 0.0680697 0.0205 -1.28199e+06
0.119279 0.0688658 0.0205 -1.26916e+06
0.120658 0.0696619 0.0205 -1.2599e+06
0.122037 0.0704581 0.0205 -1.2549e+06
0.123415 0.0712542 0.0205 -1.23534e+06
0.124794 0.0720503 0.0205 -1.24997e+06
0.126173 0.0728465 0.0205 -1.2397e+06
0.127552 0.0736426 0.0205 -1.21855e+06
0.128931 0.0744387 0.0205 -1.23207e+06
0.13031 0.0752348 0.0205 -1.22021e+06
0.131689 0.076031 0.0205 -1.21399e+06
0.133069 0.0768271 0.0205 -1.21824e+06
0.134447 0.0776233 0.0205 -1.20347e+06
0.135827 0.0784194 0.0205 -1.20468e+06
