# p  FACE_DATA 203
# x  y  z  p
-0.873265 0 0.0205 3482.02
-0.846493 0 0.0205 2970.75
-0.820677 0 0.0205 2839.62
-0.795786 0 0.0205 2787.63
-0.771783 0 0.0205 2770.1
-0.74637 0 0.0205 2770.33
-0.719597 0 0.0205 2768
-0.693782 0 0.0205 2762.78
-0.66889 0 0.0205 2760.46
-0.644887 0 0.0205 2761.64
-0.621743 0 0.0205 2760.93
-0.599426 0 0.0205 2757.4
-0.577905 0 0.0205 2754.13
-0.557154 0 0.0205 2753.25
-0.537145 0 0.0205 2753.96
-0.517849 0 0.0205 2753.49
-0.499243 0 0.0205 2751.09
-0.481301 0 0.0205 2748.32
-0.463999 0 0.0205 2746.42
-0.447314 0 0.0205 2746.12
-0.431225 0 0.0205 2747.11
-0.41571 0 0.0205 2747.26
-0.400747 0 0.0205 2745.73
-0.386317 0 0.0205 2743.24
-0.372401 0 0.0205 2740.69
-0.358981 0 0.0205 2738.81
-0.346039 0 0.0205 2738.03
-0.333556 0 0.0205 2738.65
-0.321518 0 0.0205 2740.46
-0.309908 0 0.0205 2742.67
-0.298709 0 0.0205 2743.99
-0.287908 0 0.0205 2744.34
-0.27749 0 0.0205 2743.1
-0.267441 0 0.0205 2740.79
-0.257748 0 0.0205 2737.8
-0.248397 0 0.0205 2734.6
-0.239378 0 0.0205 2731.87
-0.230677 0 0.0205 2729.72
-0.222282 0 0.0205 2728.33
-0.214183 0 0.0205 2727.73
-0.20637 0 0.0205 2727.94
-0.19883 0 0.0205 2729
-0.191555 0 0.0205 2730.57
-0.184536 0 0.0205 2732.44
-0.177762 0 0.0205 2734.38
-0.171224 0 0.0205 2736.21
-0.164914 0 0.0205 2737.83
-0.158824 0 0.0205 2739.16
-0.152944 0 0.0205 2740.15
-0.147268 0 0.0205 2740.83
-0.141788 0 0.0205 2741.19
-0.136496 0 0.0205 2741.31
-0.131387 0 0.0205 2741.04
-0.126452 0 0.0205 2740.45
-0.121685 0 0.0205 2739.56
-0.117081 0 0.0205 2738.43
-0.112632 0 0.0205 2737.1
-0.108332 0 0.0205 2735.63
-0.104177 0 0.0205 2734.09
-0.100161 0 0.0205 2732.52
-0.0962773 0 0.0205 2730.97
-0.0925221 0 0.0205 2729.45
-0.08889 0 0.0205 2727.99
-0.0853762 0 0.0205 2726.6
-0.0819759 0 0.0205 2725.3
-0.0786847 0 0.0205 2724.1
-0.0754981 0 0.0205 2723.01
-0.0724121 0 0.0205 2722.04
-0.0694223 0 0.0205 2721.18
-0.066525 0 0.0205 2720.6
-0.0637161 0 0.0205 2720.89
-0.060992 0 0.0205 2722.36
-0.0583491 0 0.0205 2724.44
-0.0557837 0 0.0205 2727.35
-0.0532926 0 0.0205 2731.66
-0.0508723 0 0.0205 2736.83
-0.0485197 0 0.0205 2741.73
-0.0462317 0 0.0205 2746.1
-0.0440053 0 0.0205 2750.4
-0.0418373 0 0.0205 2755.57
-0.039725 0 0.0205 2764.1
-0.0376655 0 0.0205 2779.06
-0.0356562 0 0.0205 2803.51
-0.0336943 0 0.0205 2844.87
-0.0317773 0 0.0205 2916.46
-0.0299025 0 0.0205 3042.74
-0.0280674 0 0.0205 3263.97
-0.0262697 0 0.0205 3627.21
-0.024507 0 0.0205 4142.58
-0.0227768 0 0.0205 4737.56
-0.021077 0 0.0205 5340.7
-0.0194052 0 0.0205 5901.46
-0.0177593 0 0.0205 6413.09
-0.016137 0 0.0205 6882.91
-0.014536 0 0.0205 7312.83
-0.0129545 0 0.0205 7706.02
-0.0113902 0 0.0205 8069.5
-0.00984104 0 0.0205 8408.77
-0.00830498 0 0.0205 8725.11
-0.00677997 0 0.0205 9010.62
-0.00526398 0 0.0205 9267.32
-0.00375499 0 0.0205 9483.31
-0.002251 0 0.0205 9716.7
-0.00075 0 0.0205 10078.5
0.000689475 0.000398068 0.0205 10350.8
0.00206843 0.0011942 0.0205 10984.5
0.00344737 0.00199034 0.0205 12093.3
0.00482631 0.00278648 0.0205 13412.2
0.00620527 0.00358261 0.0205 15067
0.00758422 0.00437875 0.0205 17073.3
0.00896317 0.00517489 0.0205 19494.2
0.0103421 0.00597102 0.0205 22373.8
0.0117211 0.00676715 0.0205 25761.8
0.0131 0.00756329 0.0205 29680.3
0.0144789 0.00835943 0.0205 34160.6
0.0158579 0.00915557 0.0205 39466.8
0.0172368 0.00995171 0.0205 46142.4
0.0186158 0.0107478 0.0205 54020.3
0.0199947 0.0115439 0.0205 62989.8
0.0213737 0.0123401 0.0205 73195.3
0.0227526 0.0131362 0.0205 84179.6
0.0241316 0.0139323 0.0205 94919.9
0.0255106 0.0147285 0.0205 104684
0.0268895 0.0155246 0.0205 112749
0.0282685 0.0163208 0.0205 119009
0.0296474 0.0171169 0.0205 122785
0.0310264 0.017913 0.0205 124364
0.0324053 0.0187092 0.0205 120177
0.0337843 0.0195054 0.0205 115435
0.0351632 0.0203015 0.0205 112830
0.0365421 0.0210976 0.0205 111709
0.037921 0.0218938 0.0205 110582
0.0393 0.0226898 0.0205 108118
0.0406789 0.023486 0.0205 105018
0.0420579 0.0242821 0.0205 102672
0.0434368 0.0250783 0.0205 101949
0.0448158 0.0258745 0.0205 101895
0.0461948 0.0266706 0.0205 102164
0.0475737 0.0274667 0.0205 101867
0.0489527 0.0282628 0.0205 101420
0.0503316 0.029059 0.0205 101088
0.0517106 0.0298551 0.0205 101005
0.0530895 0.0306512 0.0205 101107
0.0544684 0.0314473 0.0205 101149
0.0558474 0.0322435 0.0205 101066
0.0572264 0.0330397 0.0205 101072
0.0586053 0.0338357 0.0205 101220
0.0599842 0.0346319 0.0205 101560
0.0613632 0.0354281 0.0205 101749
0.0627422 0.0362242 0.0205 101831
0.0641211 0.0370204 0.0205 101633
0.0655001 0.0378164 0.0205 101231
0.066879 0.0386126 0.0205 100913
0.0682579 0.0394088 0.0205 100818
0.0696369 0.0402049 0.0205 100865
0.0710158 0.041001 0.0205 101024
0.0723947 0.0417971 0.0205 101268
0.0737737 0.0425932 0.0205 101479
0.0751527 0.0433894 0.0205 101702
0.0765316 0.0441856 0.0205 101800
0.0779106 0.0449817 0.0205 101866
0.0792895 0.0457778 0.0205 101788
0.0806685 0.0465739 0.0205 101657
0.0820474 0.0473701 0.0205 101391
0.0834263 0.0481662 0.0205 101164
0.0848053 0.0489624 0.0205 100955
0.0861843 0.0497585 0.0205 100889
0.0875632 0.0505546 0.0205 100916
0.0889421 0.0513508 0.0205 101151
0.0903211 0.0521469 0.0205 101496
0.0917 0.0529431 0.0205 101944
0.093079 0.0537392 0.0205 102367
0.094458 0.0545353 0.0205 102789
0.0958369 0.0553315 0.0205 102870
0.0972159 0.0561276 0.0205 102872
0.0985948 0.0569238 0.0205 102674
0.0999737 0.0577198 0.0205 102434
0.101352 0.058516 0.0205 102156
0.102732 0.0593121 0.0205 101982
0.10411 0.0601083 0.0205 101901
0.105489 0.0609044 0.0205 101893
0.106868 0.0617005 0.0205 101968
0.108248 0.0624967 0.0205 102104
0.109627 0.0632928 0.0205 102270
0.111006 0.064089 0.0205 102386
0.112385 0.0648851 0.0205 102491
0.113764 0.0656812 0.0205 102542
0.115143 0.0664774 0.0205 102556
0.116522 0.0672735 0.0205 102563
0.117901 0.0680697 0.0205 102520
0.119279 0.0688658 0.0205 102551
0.120658 0.0696619 0.0205 102352
0.122037 0.0704581 0.0205 102231
0.123415 0.0712542 0.0205 102103
0.124794 0.0720503 0.0205 102023
0.126173 0.0728465 0.0205 101937
0.127552 0.0736426 0.0205 101876
0.128931 0.0744387 0.0205 101874
0.13031 0.0752348 0.0205 101876
0.131689 0.076031 0.0205 101907
0.133069 0.0768271 0.0205 101934
0.134447 0.0776233 0.0205 101978
0.135827 0.0784194 0.0205 101753
