# wallHeatFlux  FACE_DATA 203
# x  y  z  wallHeatFlux
-0.873265 0 0.0205 -297614
-0.846493 0 0.0205 -78238.6
-0.820677 0 0.0205 -76699.3
-0.795786 0 0.0205 -75478.5
-0.771783 0 0.0205 -74576.1
-0.74637 0 0.0205 -74151.5
-0.719597 0 0.0205 -73567.6
-0.693782 0 0.0205 -72559.1
-0.66889 0 0.0205 -71762.9
-0.644887 0 0.0205 -71232.1
-0.621743 0 0.0205 -70648.3
-0.599426 0 0.0205 -69958.2
-0.577905 0 0.0205 -69321.3
-0.557154 0 0.0205 -68843.6
-0.537145 0 0.0205 -68418.9
-0.517849 0 0.0205 -67888.1
-0.499243 0 0.0205 -67357.4
-0.481301 0 0.0205 -66826.6
-0.463999 0 0.0205 -66455
-0.447314 0 0.0205 -66136.5
-0.431225 0 0.0205 -65924.2
-0.41571 0 0.0205 -65711.9
-0.400747 0 0.0205 -65340.4
-0.386317 0 0.0205 -64968.8
-0.372401 0 0.0205 -64544.2
-0.358981 0 0.0205 -64225.7
-0.346039 0 0.0205 -63960.3
-0.333556 0 0.0205 -63801.1
-0.321518 0 0.0205 -63748
-0.309908 0 0.0205 -63694.9
-0.298709 0 0.0205 -63588.7
-0.287908 0 0.0205 -63482.6
-0.27749 0 0.0205 -63270.3
-0.267441 0 0.0205 -62951.8
-0.257748 0 0.0205 -62633.3
-0.248397 0 0.0205 -62314.8
-0.239378 0 0.0205 -62049.4
-0.230677 0 0.0205 -61784.1
-0.222282 0 0.0205 -61571.7
-0.214183 0 0.0205 -61412.5
-0.20637 0 0.0205 -61306.3
-0.19883 0 0.0205 -61253.3
-0.191555 0 0.0205 -61253.3
-0.184536 0 0.0205 -61253.3
-0.177762 0 0.0205 -61306.3
-0.171224 0 0.0205 -61359.4
-0.164914 0 0.0205 -61359.4
-0.158824 0 0.0205 -61412.5
-0.152944 0 0.0205 -61359.4
-0.147268 0 0.0205 -61359.4
-0.141788 0 0.0205 -61306.3
-0.136496 0 0.0205 -61253.3
-0.131387 0 0.0205 -61147.1
-0.126452 0 0.0205 -61040.9
-0.121685 0 0.0205 -60934.8
-0.117081 0 0.0205 -60828.6
-0.112632 0 0.0205 -60669.4
-0.108332 0 0.0205 -60563.2
-0.104177 0 0.0205 -60404
-0.100161 0 0.0205 -60297.8
-0.0962773 0 0.0205 -60138.6
-0.0925221 0 0.0205 -59979.4
-0.08889 0 0.0205 -59873.2
-0.0853762 0 0.0205 -59714
-0.0819759 0 0.0205 -59607.8
-0.0786847 0 0.0205 -59501.7
-0.0754981 0 0.0205 -59395.5
-0.0724121 0 0.0205 -59289.3
-0.0694223 0 0.0205 -59183.2
-0.066525 0 0.0205 -59077
-0.0637161 0 0.0205 -58811.6
-0.060992 0 0.0205 -58227.8
-0.0583491 0 0.0205 -57378.5
-0.0557837 0 0.0205 -56370
-0.0532926 0 0.0205 -55096.1
-0.0508723 0 0.0205 -53556.8
-0.0485197 0 0.0205 -51858.3
-0.0462317 0 0.0205 -50372.1
-0.0440053 0 0.0205 -49098.2
-0.0418373 0 0.0205 -48089.6
-0.039725 0 0.0205 -47028.1
-0.0376655 0 0.0205 -45541.9
-0.0356562 0 0.0205 -42941
-0.0336943 0 0.0205 -38747.7
-0.0317773 0 0.0205 -32378.2
-0.0299025 0 0.0205 -23991.7
-0.0280674 0 0.0205 -15658.3
-0.0262697 0 0.0205 -11730.5
-0.024507 0 0.0205 -15764.5
-0.0227768 0 0.0205 -25478
-0.021077 0 0.0205 -36996.1
-0.0194052 0 0.0205 -47452.7
-0.0177593 0 0.0205 -56794.6
-0.016137 0 0.0205 -64862.6
-0.014536 0 0.0205 -71869.1
-0.0129545 0 0.0205 -77920.1
-0.0113902 0 0.0205 -83015.7
-0.00984104 0 0.0205 -87580.5
-0.00830498 0 0.0205 -92092.2
-0.00677997 0 0.0205 -96550.9
-0.00526398 0 0.0205 -102018
-0.00375499 0 0.0205 -109502
-0.002251 0 0.0205 -119640
-0.00075 0 0.0205 -124789
0.000689475 0.000398068 0.0205 -146607
0.00206843 0.0011942 0.0205 -183074
0.00344737 0.00199034 0.0205 -217153
0.00482631 0.00278648 0.0205 -253619
0.00620527 0.00358261 0.0205 -297811
0.00758422 0.00437875 0.0205 -350949
0.00896317 0.00517489 0.0205 -415610
0.0103421 0.00597102 0.0205 -492959
0.0117211 0.00676715 0.0205 -583673
0.0131 0.00756329 0.0205 -685834
0.0144789 0.00835943 0.0205 -798500
0.0158579 0.00915557 0.0205 -926395
0.0172368 0.00995171 0.0205 -1.09234e+06
0.0186158 0.0107478 0.0205 -1.28248e+06
0.0199947 0.0115439 0.0205 -1.48132e+06
0.0213737 0.0123401 0.0205 -1.72896e+06
0.0227526 0.0131362 0.0205 -1.97091e+06
0.0241316 0.0139323 0.0205 -2.18772e+06
0.0255106 0.0147285 0.0205 -2.41926e+06
0.0268895 0.0155246 0.0205 -2.56802e+06
0.0282685 0.0163208 0.0205 -2.68294e+06
0.0296474 0.0171169 0.0205 -2.74465e+06
0.0310264 0.017913 0.0205 -2.74924e+06
0.0324053 0.0187092 0.0205 -2.62026e+06
0.0337843 0.0195054 0.0205 -2.52363e+06
0.0351632 0.0203015 0.0205 -2.45321e+06
0.0365421 0.0210976 0.0205 -2.38619e+06
0.037921 0.0218938 0.0205 -2.32143e+06
0.0393 0.0226898 0.0205 -2.20672e+06
0.0406789 0.023486 0.0205 -2.13015e+06
0.0420579 0.0242821 0.0205 -2.01562e+06
0.0434368 0.0250783 0.0205 -1.9532e+06
0.0448158 0.0258745 0.0205 -1.92473e+06
0.0461948 0.0266706 0.0205 -1.89362e+06
0.0475737 0.0274667 0.0205 -1.85485e+06
0.0489527 0.0282628 0.0205 -1.81407e+06
0.0503316 0.029059 0.0205 -1.75698e+06
0.0517106 0.0298551 0.0205 -1.71489e+06
0.0530895 0.0306512 0.0205 -1.6765e+06
0.0544684 0.0314473 0.0205 -1.61898e+06
0.0558474 0.0322435 0.0205 -1.59798e+06
0.0572264 0.0330397 0.0205 -1.55555e+06
0.0586053 0.0338357 0.0205 -1.5063e+06
0.0599842 0.0346319 0.0205 -1.50172e+06
0.0613632 0.0354281 0.0205 -1.46892e+06
0.0627422 0.0362242 0.0205 -1.43736e+06
0.0641211 0.0370204 0.0205 -1.4072e+06
0.0655001 0.0378164 0.0205 -1.35917e+06
0.066879 0.0386126 0.0205 -1.3253e+06
0.0682579 0.0394088 0.0205 -1.31161e+06
0.0696369 0.0402049 0.0205 -1.29715e+06
0.0710158 0.041001 0.0205 -1.28509e+06
0.0723947 0.0417971 0.0205 -1.27441e+06
0.0737737 0.0425932 0.0205 -1.24613e+06
0.0751527 0.0433894 0.0205 -1.24662e+06
0.0765316 0.0441856 0.0205 -1.2267e+06
0.0779106 0.0449817 0.0205 -1.2028e+06
0.0792895 0.0457778 0.0205 -1.18993e+06
0.0806685 0.0465739 0.0205 -1.17181e+06
0.0820474 0.0473701 0.0205 -1.15761e+06
0.0834263 0.0481662 0.0205 -1.15655e+06
0.0848053 0.0489624 0.0205 -1.14035e+06
0.0861843 0.0497585 0.0205 -1.13262e+06
0.0875632 0.0505546 0.0205 -1.12705e+06
0.0889421 0.0513508 0.0205 -1.10807e+06
0.0903211 0.0521469 0.0205 -1.11354e+06
0.0917 0.0529431 0.0205 -1.10868e+06
0.093079 0.0537392 0.0205 -1.08899e+06
0.094458 0.0545353 0.0205 -1.09921e+06
0.0958369 0.0553315 0.0205 -1.08972e+06
0.0972159 0.0561276 0.0205 -1.08064e+06
0.0985948 0.0569238 0.0205 -1.07808e+06
0.0999737 0.0577198 0.0205 -1.06349e+06
0.101352 0.058516 0.0205 -1.05212e+06
0.102732 0.0593121 0.0205 -1.05068e+06
0.10411 0.0601083 0.0205 -1.04155e+06
0.105489 0.0609044 0.0205 -1.03239e+06
0.106868 0.0617005 0.0205 -1.02298e+06
0.108248 0.0624967 0.0205 -1.00312e+06
0.109627 0.0632928 0.0205 -1.00965e+06
0.111006 0.064089 0.0205 -1.00416e+06
0.112385 0.0648851 0.0205 -995429
0.113764 0.0656812 0.0205 -996501
0.115143 0.0664774 0.0205 -987491
0.116522 0.0672735 0.0205 -980780
0.117901 0.0680697 0.0205 -981914
0.119279 0.0688658 0.0205 -973510
0.120658 0.0696619 0.0205 -964232
0.122037 0.0704581 0.0205 -960401
0.123415 0.0712542 0.0205 -942811
0.124794 0.0720503 0.0205 -946764
0.126173 0.0728465 0.0205 -940299
0.127552 0.0736426 0.0205 -921789
0.128931 0.0744387 0.0205 -927457
0.13031 0.0752348 0.0205 -919338
0.131689 0.076031 0.0205 -912134
0.133069 0.0768271 0.0205 -913944
0.134447 0.0776233 0.0205 -903770
0.135827 0.0784194 0.0205 -902695
