# Wall heat-flux
# Time        	patch         	min           	max           	integral      
5800          	base	-1.314272e+04	3.331191e+04	3.953300e+02
