# y+ ()       
# Time        	patch         	min           	max           	average       
2400          	base	3.368961e-03	2.998200e+01	5.643189e+00
