# Wall heat-flux
# Time        	patch         	min           	max           	integral      
1000          	base	-3.630244e+06	-8.598812e+03	-3.571618e+03
