# Wall heat-flux
# Time        	patch         	min           	max           	integral      
5100          	base	-3.698697e+05	-5.305818e+03	-6.021803e+02
