# y+ ()       
# Time        	patch         	min           	max           	average       
1200          	base	2.248234e-03	2.810724e+01	4.909233e+00
