# y+ ()       
# Time        	patch         	min           	max           	average       
8600          	base	7.248888e-03	2.420576e+01	5.480955e+00
