# Wall heat-flux
# Time        	patch         	min           	max           	integral      
4500          	base	-3.509831e+06	-3.496291e+04	-9.448622e+03
