# p  FACE_DATA 398
# x  y  z  p
-0.7975 0 0.025 4472.94
-0.79239 0 0.025 3650.86
-0.787056 0 0.025 2980.2
-0.781492 0 0.025 2873.31
-0.775691 0 0.025 2796.33
-0.769649 0 0.025 2780.03
-0.763362 0 0.025 2785.85
-0.756822 0 0.025 2783.92
-0.750025 0 0.025 2793.49
-0.742968 0 0.025 2798.35
-0.735648 0 0.025 2799.27
-0.72806 0 0.025 2797.3
-0.720203 0 0.025 2797.55
-0.712076 0 0.025 2795.93
-0.703677 0 0.025 2794
-0.695006 0 0.025 2792.96
-0.686065 0 0.025 2791.5
-0.676855 0 0.025 2788.28
-0.667379 0 0.025 2785.24
-0.65764 0 0.025 2783.59
-0.647644 0 0.025 2782.41
-0.637397 0 0.025 2780.58
-0.626906 0 0.025 2778.24
-0.616179 0 0.025 2776.47
-0.605224 0 0.025 2775.13
-0.594054 0 0.025 2773.64
-0.582678 0 0.025 2771.6
-0.57111 0 0.025 2769.86
-0.559364 0 0.025 2768.3
-0.547454 0 0.025 2766.71
-0.535396 0 0.025 2765.2
-0.523205 0 0.025 2764.48
-0.510901 0 0.025 2763.57
-0.4985 0 0.025 2761.85
-0.486021 0 0.025 2759.49
-0.473483 0 0.025 2758.13
-0.460905 0 0.025 2757.91
-0.448308 0 0.025 2757.63
-0.435709 0 0.025 2755.92
-0.42313 0 0.025 2753.73
-0.41059 0 0.025 2752.33
-0.39811 0 0.025 2752.3
-0.385706 0 0.025 2752.67
-0.373398 0 0.025 2751.64
-0.361205 0 0.025 2749.32
-0.349141 0 0.025 2746.62
-0.337226 0 0.025 2744.96
-0.325475 0 0.025 2744.71
-0.313901 0 0.025 2747.37
-0.30252 0 0.025 2749.09
-0.291343 0 0.025 2749.89
-0.280382 0 0.025 2748.56
-0.269646 0 0.025 2745.22
-0.259148 0 0.025 2741.29
-0.248893 0 0.025 2737.72
-0.23889 0 0.025 2735.24
-0.229143 0 0.025 2734.45
-0.219659 0 0.025 2735.99
-0.210441 0 0.025 2739.04
-0.201491 0 0.025 2742.56
-0.192812 0 0.025 2745.72
-0.184405 0 0.025 2747.59
-0.176269 0 0.025 2748.29
-0.168404 0 0.025 2747.62
-0.160808 0 0.025 2745.7
-0.15348 0 0.025 2742.86
-0.146415 0 0.025 2739.48
-0.13961 0 0.025 2735.84
-0.133063 0 0.025 2732.53
-0.126767 0 0.025 2729.54
-0.120718 0 0.025 2727.22
-0.11491 0 0.025 2725.58
-0.109339 0 0.025 2724.65
-0.103997 0 0.025 2724.31
-0.0988805 0 0.025 2724.28
-0.0939808 0 0.025 2724.93
-0.0892928 0 0.025 2725.92
-0.0848096 0 0.025 2727.25
-0.0805248 0 0.025 2728.82
-0.0764316 0 0.025 2730.5
-0.0725237 0 0.025 2732.2
-0.0687943 0 0.025 2733.91
-0.065237 0 0.025 2735.59
-0.0618454 0 0.025 2737.19
-0.058613 0 0.025 2738.73
-0.0555337 0 0.025 2740.19
-0.0526013 0 0.025 2741.49
-0.0498099 0 0.025 2742.64
-0.0471536 0 0.025 2743.6
-0.0446266 0 0.025 2744.38
-0.0422235 0 0.025 2744.98
-0.039939 0 0.025 2745.39
-0.0377676 0 0.025 2745.63
-0.0357044 0 0.025 2746.37
-0.0337445 0 0.025 2773.57
-0.0318832 0 0.025 3114.33
-0.0301159 0 0.025 4210.86
-0.0284383 0 0.025 5410.61
-0.0268461 0 0.025 6319.87
-0.0253353 0 0.025 6934.36
-0.023902 0 0.025 7407.49
-0.0225426 0 0.025 7808.94
-0.0212532 0 0.025 8133.97
-0.0200306 0 0.025 8426.64
-0.0188715 0 0.025 8690.06
-0.0177728 0 0.025 8904.86
-0.0167313 0 0.025 9110.11
-0.0157444 0 0.025 9287.29
-0.0148092 0 0.025 9452.24
-0.0139232 0 0.025 9604.05
-0.0130838 0 0.025 9738.03
-0.0122887 0 0.025 9854.81
-0.0115356 0 0.025 9964.43
-0.0108223 0 0.025 10077.5
-0.0101469 0 0.025 10178.8
-0.00950727 0 0.025 10267.8
-0.00890168 0 0.025 10342.5
-0.00832835 0 0.025 10408.8
-0.00778557 0 0.025 10468.1
-0.00727176 0 0.025 10522
-0.0067854 0 0.025 10571.2
-0.00632507 0 0.025 10616.1
-0.00588937 0 0.025 10657
-0.00547703 0 0.025 10694.7
-0.0050868 0 0.025 10730.3
-0.00471753 0 0.025 10764.5
-0.0043681 0 0.025 10798.4
-0.00403746 0 0.025 10833.8
-0.00372461 0 0.025 10872.4
-0.0034286 0 0.025 10914.8
-0.00314855 0 0.025 10962.1
-0.0028836 0 0.025 11014.9
-0.00263294 0 0.025 11075.4
-0.00239581 0 0.025 11147.3
-0.0021715 0 0.025 11223.1
-0.00195929 0 0.025 11306.5
-0.00175856 0 0.025 11398.6
-0.00156869 0 0.025 11498.4
-0.00138908 0 0.025 11605.6
-0.0012192 0 0.025 11719.2
-0.00105853 0 0.025 11837.5
-0.000906546 0 0.025 11959.2
-0.000762803 0 0.025 12081.1
-0.000626848 0 0.025 12198.6
-0.000498265 0 0.025 12304.1
-0.000376656 0 0.025 12387.1
-0.000261642 0 0.025 12438
-0.00015287 0 0.025 12453.5
-5e-05 0 0.025 12554.3
4.14519e-05 2.79596e-05 0.025 12113.2
0.000125371 8.45641e-05 0.025 12207.7
0.000211347 0.000142556 0.025 12173.4
0.000299429 0.000201968 0.025 12102.1
0.000389669 0.000262835 0.025 12018.4
0.000482118 0.000325193 0.025 11932.8
0.000576831 0.000389077 0.025 11850.6
0.000673861 0.000454524 0.025 11775.2
0.000773265 0.000521574 0.025 11709.5
0.0008751 0.000590262 0.025 11655.2
0.000979426 0.000660632 0.025 11613.3
0.0010863 0.000732721 0.025 11584.6
0.00119579 0.000806572 0.025 11566.2
0.00130795 0.000882227 0.025 11561
0.00142285 0.00095973 0.025 11568.3
0.00154056 0.00103912 0.025 11585.7
0.00166115 0.00112046 0.025 11613
0.00178467 0.00120378 0.025 11650.2
0.00191121 0.00128913 0.025 11696
0.00204083 0.00137656 0.025 11750.9
0.00217362 0.00146612 0.025 11814.3
0.00230964 0.00155787 0.025 11885.4
0.00244897 0.00165185 0.025 11965
0.00259169 0.00174812 0.025 12052.5
0.00273789 0.00184673 0.025 12147.6
0.00288765 0.00194774 0.025 12250.5
0.00304105 0.00205122 0.025 12361.2
0.00319818 0.00215719 0.025 12480.3
0.00335912 0.00226575 0.025 12607.5
0.00352397 0.00237695 0.025 12743.2
0.00369283 0.00249085 0.025 12888.2
0.00386579 0.00260751 0.025 13043
0.00404294 0.00272699 0.025 13208.1
0.00422438 0.00284938 0.025 13384.5
0.00441022 0.00297474 0.025 13573.6
0.00460056 0.00310312 0.025 13776.9
0.00479552 0.00323462 0.025 13995.4
0.00499519 0.0033693 0.025 14230.7
0.00519968 0.00350723 0.025 14485.5
0.00540911 0.00364849 0.025 14761.1
0.00562361 0.00379318 0.025 15059.6
0.00584329 0.00394134 0.025 15383.6
0.00606826 0.00409309 0.025 15735.5
0.00629865 0.00424849 0.025 16117.3
0.0065346 0.00440764 0.025 16532.3
0.00677623 0.00457063 0.025 16982.9
0.00702368 0.00473753 0.025 17472.3
0.00727707 0.00490844 0.025 18003.2
0.00753655 0.00508347 0.025 18579.6
0.00780227 0.00526269 0.025 19205
0.00807436 0.00544622 0.025 19883.1
0.00835298 0.00563415 0.025 20618.7
0.00863826 0.00582659 0.025 21415.7
0.00893038 0.00602362 0.025 22278.8
0.00922949 0.00622537 0.025 23213
0.00953574 0.00643195 0.025 24223.7
0.00984929 0.00664345 0.025 25315.1
0.0101703 0.00686 0.025 26497.5
0.0104991 0.00708171 0.025 27776.2
0.0108356 0.00730871 0.025 29160.9
0.0111801 0.0075411 0.025 30666.8
0.0115329 0.00777902 0.025 32302.5
0.011894 0.00802259 0.025 34075.4
0.0122637 0.00827194 0.025 35966.4
0.0126421 0.00852719 0.025 38201.7
0.0130295 0.0087885 0.025 40522.3
0.013426 0.00905597 0.025 42925.2
0.013832 0.00932978 0.025 45549.9
0.0142475 0.00961003 0.025 48735
0.0146727 0.0098969 0.025 51959.1
0.0151081 0.0101905 0.025 55340.7
0.0155536 0.010491 0.025 59301.3
0.0160097 0.0107986 0.025 63569.8
0.0164764 0.0111134 0.025 68525.9
0.016954 0.0114356 0.025 73513.6
0.0174427 0.0117653 0.025 79576.5
0.0179429 0.0121026 0.025 85984
0.0184548 0.0124479 0.025 93021.4
0.0189786 0.0128013 0.025 100724
0.0195146 0.0131628 0.025 109165
0.020063 0.0135327 0.025 118326
0.0206242 0.0139112 0.025 128119
0.0211983 0.0142984 0.025 138487
0.0217857 0.0146947 0.025 149370
0.0223867 0.0151 0.025 160776
0.0230015 0.0155147 0.025 172136
0.0236304 0.0159389 0.025 183006
0.0242738 0.0163729 0.025 190883
0.0249318 0.0168167 0.025 196139
0.025605 0.0172708 0.025 191773
0.0262935 0.0177352 0.025 184223
0.0269977 0.0182102 0.025 175139
0.0277178 0.0186959 0.025 166404
0.0284544 0.0191927 0.025 158457
0.0292075 0.0197008 0.025 151194
0.0299777 0.0202203 0.025 144738
0.0307653 0.0207514 0.025 139287
0.0315704 0.0212945 0.025 135165
0.0323937 0.0218499 0.025 132151
0.0332354 0.0224176 0.025 129602
0.0340959 0.022998 0.025 127057
0.0349755 0.0235913 0.025 124725
0.0358747 0.0241978 0.025 123198
0.0367938 0.0248178 0.025 123483
0.0377331 0.0254513 0.025 124168
0.0386932 0.0260989 0.025 124244
0.0396743 0.0267606 0.025 123716
0.0406769 0.0274369 0.025 123103
0.0417013 0.0281279 0.025 123281
0.042748 0.0288339 0.025 123784
0.0438175 0.0295552 0.025 124450
0.04491 0.0302922 0.025 125312
0.0460262 0.031045 0.025 126136
0.0471662 0.031814 0.025 126267
0.0483306 0.0325995 0.025 125929
0.0495199 0.0334016 0.025 125438
0.0507344 0.0342208 0.025 124953
0.0519746 0.0350573 0.025 125185
0.0532409 0.0359114 0.025 125534
0.0545339 0.0367835 0.025 125594
0.0558538 0.0376739 0.025 125388
0.0572012 0.0385827 0.025 125512
0.0585766 0.0395104 0.025 126088
0.0599804 0.0404573 0.025 127174
0.061413 0.0414236 0.025 127978
0.0628748 0.0424096 0.025 128050
0.0643665 0.0434157 0.025 127821
0.0658883 0.0444422 0.025 127557
0.0674408 0.0454894 0.025 127426
0.0690245 0.0465576 0.025 127824
0.0706398 0.0476471 0.025 128271
0.0722871 0.0487582 0.025 128391
0.0739669 0.0498912 0.025 128098
0.0756797 0.0510466 0.025 127610
0.0774258 0.0522244 0.025 127277
0.0792059 0.053425 0.025 127371
0.0810203 0.0546489 0.025 127985
0.0828694 0.0558961 0.025 128412
0.0847537 0.0571671 0.025 128483
0.0866737 0.0584622 0.025 128508
0.0886298 0.0597816 0.025 128478
0.0906224 0.0611256 0.025 128433
0.0926518 0.0624944 0.025 128436
0.0947185 0.0638884 0.025 128566
0.096823 0.065308 0.025 128672
0.0989659 0.0667532 0.025 128788
0.101147 0.0682245 0.025 128801
0.103367 0.0697219 0.025 128426
0.105626 0.0712458 0.025 127920
0.107926 0.0727965 0.025 127187
0.110265 0.074374 0.025 126418
0.112644 0.0759789 0.025 125963
0.115063 0.0776111 0.025 126204
0.117524 0.0792709 0.025 127024
0.120026 0.0809585 0.025 127914
0.122569 0.0826741 0.025 129001
0.125155 0.0844179 0.025 129143
0.127782 0.0861901 0.025 129031
0.130451 0.0879908 0.025 128774
0.133163 0.08982 0.025 128375
0.135918 0.0916781 0.025 127953
0.138716 0.0935651 0.025 127694
0.141556 0.095481 0.025 127634
0.14444 0.097426 0.025 127777
0.147367 0.0994004 0.025 126820
0.150337 0.101404 0.025 127380
0.153351 0.103437 0.025 126981
0.156408 0.105498 0.025 125996
0.159508 0.107589 0.025 126883
0.162651 0.10971 0.025 126581
0.165838 0.111859 0.025 125326
0.169069 0.114039 0.025 126378
0.172343 0.116247 0.025 125381
0.175659 0.118483 0.025 124758
0.179018 0.120749 0.025 124039
0.182421 0.123045 0.025 123561
0.185866 0.125368 0.025 123207
0.189353 0.12772 0.025 123668
0.192882 0.1301 0.025 123197
0.196453 0.132509 0.025 123430
0.200065 0.134946 0.025 122227
0.203718 0.13741 0.025 122246
0.207412 0.139901 0.025 121655
0.211146 0.14242 0.025 121092
0.214919 0.144965 0.025 120807
0.218732 0.147537 0.025 120840
0.222583 0.150134 0.025 120025
0.226472 0.152757 0.025 120671
0.230399 0.155406 0.025 120599
0.234362 0.15808 0.025 120579
0.238362 0.160777 0.025 120832
0.242396 0.163498 0.025 120483
0.246466 0.166244 0.025 121123
0.250569 0.169012 0.025 121767
0.254706 0.171801 0.025 121600
0.258874 0.174613 0.025 121438
0.263074 0.177446 0.025 120430
0.267304 0.180299 0.025 121288
0.271564 0.183172 0.025 121715
0.275852 0.186064 0.025 121790
0.280168 0.188975 0.025 122217
0.28451 0.191904 0.025 122295
0.288876 0.19485 0.025 121777
0.293268 0.197812 0.025 122506
0.297683 0.20079 0.025 121591
0.302119 0.203782 0.025 120791
0.306577 0.206788 0.025 121077
0.311054 0.209808 0.025 120508
0.315549 0.212841 0.025 121215
0.320063 0.215885 0.025 120990
0.324591 0.218939 0.025 121652
0.329134 0.222003 0.025 122011
0.333691 0.225077 0.025 121076
0.33826 0.228159 0.025 122105
0.342839 0.231248 0.025 120661
0.347428 0.234343 0.025 121210
0.352025 0.237444 0.025 119811
0.356628 0.240548 0.025 120057
0.361237 0.243658 0.025 119780
0.36585 0.246769 0.025 118950
0.370465 0.249882 0.025 120256
0.375082 0.252996 0.025 120655
0.379698 0.25611 0.025 121228
0.384313 0.259223 0.025 122287
0.388926 0.262333 0.025 122169
0.393534 0.265442 0.025 122966
0.398136 0.268546 0.025 122970
0.40273 0.271645 0.025 122131
0.407317 0.274739 0.025 122312
0.411894 0.277826 0.025 121524
0.41646 0.280906 0.025 121769
0.421014 0.283977 0.025 121263
0.425554 0.28704 0.025 121033
0.430079 0.290092 0.025 120937
0.434588 0.293133 0.025 120421
0.439079 0.296162 0.025 121262
0.443551 0.299179 0.025 121130
0.448004 0.302183 0.025 121148
0.452437 0.305172 0.025 121298
0.456846 0.308146 0.025 121451
0.461232 0.311105 0.025 121368
0.465593 0.314047 0.025 121211
0.469929 0.316971 0.025 121274
0.474238 0.319878 0.025 121652
0.47852 0.322766 0.025 121449
0.482773 0.325635 0.025 121269
0.486996 0.328483 0.025 121093
0.491189 0.331311 0.025 120732
0.49535 0.334118 0.025 121804
