# wallHeatFlux  FACE_DATA 398
# x  y  z  wallHeatFlux
-0.7975 0 0.025 -653698
-0.79239 0 0.025 -120536
-0.787056 0 0.025 -68077.8
-0.781492 0 0.025 -66893.9
-0.775691 0 0.025 -71968.9
-0.769649 0 0.025 -76413.9
-0.763362 0 0.025 -79307.5
-0.756822 0 0.025 -80905.6
-0.750025 0 0.025 -81926.3
-0.742968 0 0.025 -82323.1
-0.735648 0 0.025 -82293.8
-0.72806 0 0.025 -81971.9
-0.720203 0 0.025 -81571.9
-0.712076 0 0.025 -81094
-0.703677 0 0.025 -80572.9
-0.695006 0 0.025 -80051.3
-0.686065 0 0.025 -79497.3
-0.676855 0 0.025 -78889.5
-0.667379 0 0.025 -78301.7
-0.65764 0 0.025 -77762.1
-0.647644 0 0.025 -77239.7
-0.637397 0 0.025 -76710.3
-0.626906 0 0.025 -76177.2
-0.616179 0 0.025 -75658.5
-0.605224 0 0.025 -75172.8
-0.594054 0 0.025 -74695.1
-0.582678 0 0.025 -74233.9
-0.57111 0 0.025 -73775.2
-0.559364 0 0.025 -73336.9
-0.547454 0 0.025 -72904.8
-0.535396 0 0.025 -72492.2
-0.523205 0 0.025 -72105.6
-0.510901 0 0.025 -71719.2
-0.4985 0 0.025 -71326.5
-0.486021 0 0.025 -70926.1
-0.473483 0 0.025 -70571.1
-0.460905 0 0.025 -70254.9
-0.448308 0 0.025 -69937.3
-0.435709 0 0.025 -69600.9
-0.42313 0 0.025 -69265.5
-0.41059 0 0.025 -68960.6
-0.39811 0 0.025 -68707.1
-0.385706 0 0.025 -68466.8
-0.373398 0 0.025 -68194.2
-0.361205 0 0.025 -67904
-0.349141 0 0.025 -67615.9
-0.337226 0 0.025 -67365.3
-0.325475 0 0.025 -67167.6
-0.313901 0 0.025 -67050
-0.30252 0 0.025 -66904.4
-0.291343 0 0.025 -66733.6
-0.280382 0 0.025 -66519.8
-0.269646 0 0.025 -66261.8
-0.259148 0 0.025 -66004.6
-0.248893 0 0.025 -65766.1
-0.23889 0 0.025 -65560.4
-0.229143 0 0.025 -65407.6
-0.219659 0 0.025 -65327
-0.210441 0 0.025 -65278.1
-0.201491 0 0.025 -65244.6
-0.192812 0 0.025 -65202.3
-0.184405 0 0.025 -65134.7
-0.176269 0 0.025 -65037.6
-0.168404 0 0.025 -64921.7
-0.160808 0 0.025 -64768.5
-0.15348 0 0.025 -64598.5
-0.146415 0 0.025 -64418.9
-0.13961 0 0.025 -64242.8
-0.133063 0 0.025 -64074.8
-0.126767 0 0.025 -63918.9
-0.120718 0 0.025 -63790.5
-0.11491 0 0.025 -63679.2
-0.109339 0 0.025 -63590.2
-0.103997 0 0.025 -63521.6
-0.0988805 0 0.025 -63464.2
-0.0939808 0 0.025 -63429.7
-0.0892928 0 0.025 -63408
-0.0848096 0 0.025 -63391.7
-0.0805248 0 0.025 -63386.9
-0.0764316 0 0.025 -63387.8
-0.0725237 0 0.025 -63388.8
-0.0687943 0 0.025 -63401.7
-0.065237 0 0.025 -63402.9
-0.0618454 0 0.025 -63400.3
-0.058613 0 0.025 -63407.3
-0.0555337 0 0.025 -63410.3
-0.0526013 0 0.025 -63412.5
-0.0498099 0 0.025 -63409.8
-0.0471536 0 0.025 -63407
-0.0446266 0 0.025 -63399
-0.0422235 0 0.025 -63385.6
-0.039939 0 0.025 -63372.3
-0.0377676 0 0.025 -63363.8
-0.0357044 0 0.025 -63260.3
-0.0337445 0 0.025 -61188.4
-0.0318832 0 0.025 -49259.2
-0.0301159 0 0.025 -34968.3
-0.0284383 0 0.025 -44365.9
-0.0268461 0 0.025 -56956.4
-0.0253353 0 0.025 -64546.6
-0.023902 0 0.025 -70342
-0.0225426 0 0.025 -74995.4
-0.0212532 0 0.025 -78488.9
-0.0200306 0 0.025 -81679.7
-0.0188715 0 0.025 -84384.3
-0.0177728 0 0.025 -86408.1
-0.0167313 0 0.025 -88416.6
-0.0157444 0 0.025 -89953.4
-0.0148092 0 0.025 -91392.7
-0.0139232 0 0.025 -92655.3
-0.0130838 0 0.025 -93438.9
-0.0122887 0 0.025 -93822.7
-0.0115356 0 0.025 -94195.9
-0.0108223 0 0.025 -94953.4
-0.0101469 0 0.025 -95636.4
-0.00950727 0 0.025 -96170.6
-0.00890168 0 0.025 -96463.8
-0.00832835 0 0.025 -96720.8
-0.00778557 0 0.025 -97059.8
-0.00727176 0 0.025 -97578.5
-0.0067854 0 0.025 -98313.6
-0.00632507 0 0.025 -99273.3
-0.00588937 0 0.025 -100450
-0.00547703 0 0.025 -101836
-0.0050868 0 0.025 -103431
-0.00471753 0 0.025 -105216
-0.0043681 0 0.025 -107194
-0.00403746 0 0.025 -109359
-0.00372461 0 0.025 -111724
-0.0034286 0 0.025 -114273
-0.00314855 0 0.025 -117015
-0.0028836 0 0.025 -119962
-0.00263294 0 0.025 -123125
-0.00239581 0 0.025 -126429
-0.0021715 0 0.025 -129690
-0.00195929 0 0.025 -133109
-0.00175856 0 0.025 -136673
-0.00156869 0 0.025 -140315
-0.00138908 0 0.025 -144022
-0.0012192 0 0.025 -147728
-0.00105853 0 0.025 -151395
-0.000906546 0 0.025 -154814
-0.000762803 0 0.025 -157789
-0.000626848 0 0.025 -159971
-0.000498265 0 0.025 -160286
-0.000376656 0 0.025 -156993
-0.000261642 0 0.025 -146619
-0.00015287 0 0.025 -123192
-5e-05 0 0.025 -74350.7
4.14519e-05 2.79596e-05 0.025 -51696.1
0.000125371 8.45641e-05 0.025 -62740.7
0.000211347 0.000142556 0.025 -75983.5
0.000299429 0.000201968 0.025 -85875.1
0.000389669 0.000262835 0.025 -94439
0.000482118 0.000325193 0.025 -102702
0.000576831 0.000389077 0.025 -110454
0.000673861 0.000454524 0.025 -117410
0.000773265 0.000521574 0.025 -123495
0.0008751 0.000590262 0.025 -128766
0.000979426 0.000660632 0.025 -133352
0.0010863 0.000732721 0.025 -137376
0.00119579 0.000806572 0.025 -140933
0.00130795 0.000882227 0.025 -144254
0.00142285 0.00095973 0.025 -147279
0.00154056 0.00103912 0.025 -150124
0.00166115 0.00112046 0.025 -152806
0.00178467 0.00120378 0.025 -155420
0.00191121 0.00128913 0.025 -157992
0.00204083 0.00137656 0.025 -160485
0.00217362 0.00146612 0.025 -162993
0.00230964 0.00155787 0.025 -165518
0.00244897 0.00165185 0.025 -168062
0.00259169 0.00174812 0.025 -170620
0.00273789 0.00184673 0.025 -173252
0.00288765 0.00194774 0.025 -175987
0.00304105 0.00205122 0.025 -178786
0.00319818 0.00215719 0.025 -181690
0.00335912 0.00226575 0.025 -184771
0.00352397 0.00237695 0.025 -187964
0.00369283 0.00249085 0.025 -191353
0.00386579 0.00260751 0.025 -194931
0.00404294 0.00272699 0.025 -198743
0.00422438 0.00284938 0.025 -202833
0.00441022 0.00297474 0.025 -207213
0.00460056 0.00310312 0.025 -211909
0.00479552 0.00323462 0.025 -216937
0.00499519 0.0033693 0.025 -222412
0.00519968 0.00350723 0.025 -228241
0.00540911 0.00364849 0.025 -234581
0.00562361 0.00379318 0.025 -241383
0.00584329 0.00394134 0.025 -248665
0.00606826 0.00409309 0.025 -256608
0.00629865 0.00424849 0.025 -265105
0.0065346 0.00440764 0.025 -274275
0.00677623 0.00457063 0.025 -284144
0.00702368 0.00473753 0.025 -294792
0.00727707 0.00490844 0.025 -306369
0.00753655 0.00508347 0.025 -318745
0.00780227 0.00526269 0.025 -332222
0.00807436 0.00544622 0.025 -346829
0.00835298 0.00563415 0.025 -362566
0.00863826 0.00582659 0.025 -379617
0.00893038 0.00602362 0.025 -397990
0.00922949 0.00622537 0.025 -417874
0.00953574 0.00643195 0.025 -439220
0.00984929 0.00664345 0.025 -462541
0.0101703 0.00686 0.025 -487316
0.0104991 0.00708171 0.025 -514675
0.0108356 0.00730871 0.025 -544657
0.0111801 0.0075411 0.025 -576366
0.0115329 0.00777902 0.025 -614959
0.011894 0.00802259 0.025 -724796
0.0122637 0.00827194 0.025 -779808
0.0126421 0.00852719 0.025 -855324
0.0130295 0.0087885 0.025 -921732
0.013426 0.00905597 0.025 -849621
0.013832 0.00932978 0.025 -1.04275e+06
0.0142475 0.00961003 0.025 -1.14023e+06
0.0146727 0.0098969 0.025 -1.21378e+06
0.0151081 0.0101905 0.025 -1.28552e+06
0.0155536 0.010491 0.025 -1.36004e+06
0.0160097 0.0107986 0.025 -1.46488e+06
0.0164764 0.0111134 0.025 -1.52989e+06
0.016954 0.0114356 0.025 -1.60919e+06
0.0174427 0.0117653 0.025 -1.69706e+06
0.0179429 0.0121026 0.025 -1.77602e+06
0.0184548 0.0124479 0.025 -1.85406e+06
0.0189786 0.0128013 0.025 -1.87372e+06
0.0195146 0.0131628 0.025 -1.8956e+06
0.020063 0.0135327 0.025 -1.93193e+06
0.0206242 0.0139112 0.025 -1.93571e+06
0.0211983 0.0142984 0.025 -1.92678e+06
0.0217857 0.0146947 0.025 -1.9274e+06
0.0223867 0.0151 0.025 -1.92259e+06
0.0230015 0.0155147 0.025 -1.91227e+06
0.0236304 0.0159389 0.025 -1.90918e+06
0.0242738 0.0163729 0.025 -1.87361e+06
0.0249318 0.0168167 0.025 -1.86617e+06
0.025605 0.0172708 0.025 -1.9091e+06
0.0262935 0.0177352 0.025 -1.90899e+06
0.0269977 0.0182102 0.025 -1.88161e+06
0.0277178 0.0186959 0.025 -1.84632e+06
0.0284544 0.0191927 0.025 -1.84048e+06
0.0292075 0.0197008 0.025 -1.78404e+06
0.0299777 0.0202203 0.025 -1.72544e+06
0.0307653 0.0207514 0.025 -1.67852e+06
0.0315704 0.0212945 0.025 -1.63761e+06
0.0323937 0.0218499 0.025 -1.60458e+06
0.0332354 0.0224176 0.025 -1.57716e+06
0.0340959 0.022998 0.025 -1.55136e+06
0.0349755 0.0235913 0.025 -1.52251e+06
0.0358747 0.0241978 0.025 -1.51434e+06
0.0367938 0.0248178 0.025 -1.49911e+06
0.0377331 0.0254513 0.025 -1.48558e+06
0.0386932 0.0260989 0.025 -1.47701e+06
0.0396743 0.0267606 0.025 -1.45677e+06
0.0406769 0.0274369 0.025 -1.45201e+06
0.0417013 0.0281279 0.025 -1.43485e+06
0.042748 0.0288339 0.025 -1.44026e+06
0.0438175 0.0295552 0.025 -1.4272e+06
0.04491 0.0302922 0.025 -1.41489e+06
0.0460262 0.031045 0.025 -1.41943e+06
0.0471662 0.031814 0.025 -1.42795e+06
0.0483306 0.0325995 0.025 -1.40131e+06
0.0495199 0.0334016 0.025 -1.39861e+06
0.0507344 0.0342208 0.025 -1.38711e+06
0.0519746 0.0350573 0.025 -1.36985e+06
0.0532409 0.0359114 0.025 -1.37218e+06
0.0545339 0.0367835 0.025 -1.35638e+06
0.0558538 0.0376739 0.025 -1.343e+06
0.0572012 0.0385827 0.025 -1.34372e+06
0.0585766 0.0395104 0.025 -1.33871e+06
0.0599804 0.0404573 0.025 -1.34919e+06
0.061413 0.0414236 0.025 -1.33506e+06
0.0628748 0.0424096 0.025 -1.34455e+06
0.0643665 0.0434157 0.025 -1.33443e+06
0.0658883 0.0444422 0.025 -1.31637e+06
0.0674408 0.0454894 0.025 -1.29801e+06
0.0690245 0.0465576 0.025 -1.30505e+06
0.0706398 0.0476471 0.025 -1.30082e+06
0.0722871 0.0487582 0.025 -1.2792e+06
0.0739669 0.0498912 0.025 -1.26886e+06
0.0756797 0.0510466 0.025 -1.26756e+06
0.0774258 0.0522244 0.025 -1.27144e+06
0.0792059 0.053425 0.025 -1.25492e+06
0.0810203 0.0546489 0.025 -1.28374e+06
0.0828694 0.0558961 0.025 -1.2587e+06
0.0847537 0.0571671 0.025 -1.2638e+06
0.0866737 0.0584622 0.025 -1.24178e+06
0.0886298 0.0597816 0.025 -1.23212e+06
0.0906224 0.0611256 0.025 -1.23103e+06
0.0926518 0.0624944 0.025 -1.21131e+06
0.0947185 0.0638884 0.025 -1.2262e+06
0.096823 0.065308 0.025 -1.20026e+06
0.0989659 0.0667532 0.025 -1.23618e+06
0.101147 0.0682245 0.025 -1.45288e+06
0.103367 0.0697219 0.025 -1.37149e+06
0.105626 0.0712458 0.025 -1.15024e+06
0.107926 0.0727965 0.025 -1.16682e+06
0.110265 0.074374 0.025 -1.15262e+06
0.112644 0.0759789 0.025 -1.41485e+06
0.115063 0.0776111 0.025 -1.15291e+06
0.117524 0.0792709 0.025 -1.34641e+06
0.120026 0.0809585 0.025 -1.68466e+06
0.122569 0.0826741 0.025 -1.34425e+06
0.125155 0.0844179 0.025 -1.35148e+06
0.127782 0.0861901 0.025 -1.20226e+06
0.130451 0.0879908 0.025 -1.13725e+06
0.133163 0.08982 0.025 -1.12957e+06
0.135918 0.0916781 0.025 -1.09967e+06
0.138716 0.0935651 0.025 -1.09857e+06
0.141556 0.095481 0.025 -1.09095e+06
0.14444 0.097426 0.025 -1.23229e+06
0.147367 0.0994004 0.025 -2.01684e+06
0.150337 0.101404 0.025 -1.2689e+06
0.153351 0.103437 0.025 -1.26227e+06
0.156408 0.105498 0.025 -1.97815e+06
0.159508 0.107589 0.025 -962226
0.162651 0.10971 0.025 -1.16687e+06
0.165838 0.111859 0.025 -2.50384e+06
0.169069 0.114039 0.025 -1.3026e+06
0.172343 0.116247 0.025 -1.3153e+06
0.175659 0.118483 0.025 -1.27539e+06
0.179018 0.120749 0.025 -1.28362e+06
0.182421 0.123045 0.025 -1.24621e+06
0.185866 0.125368 0.025 -1.59713e+06
0.189353 0.12772 0.025 -1.23136e+06
0.192882 0.1301 0.025 -1.73802e+06
0.196453 0.132509 0.025 -1.21087e+06
0.200065 0.134946 0.025 -1.83786e+06
0.203718 0.13741 0.025 -1.20439e+06
0.207412 0.139901 0.025 -867308
0.211146 0.14242 0.025 -908543
0.214919 0.144965 0.025 -1.16376e+06
0.218732 0.147537 0.025 -903794
0.222583 0.150134 0.025 -1.67026e+06
0.226472 0.152757 0.025 -880460
0.230399 0.155406 0.025 -1.16986e+06
0.234362 0.15808 0.025 -1.13111e+06
0.238362 0.160777 0.025 -1.21232e+06
0.242396 0.163498 0.025 -1.88806e+06
0.246466 0.166244 0.025 -1.41611e+06
0.250569 0.169012 0.025 -849146
0.254706 0.171801 0.025 -1.1101e+06
0.258874 0.174613 0.025 -1.10748e+06
0.263074 0.177446 0.025 -1.72571e+06
0.267304 0.180299 0.025 -1.08901e+06
0.271564 0.183172 0.025 -858590
0.275852 0.186064 0.025 -1.08909e+06
0.280168 0.188975 0.025 -843141
0.28451 0.191904 0.025 -1.20755e+06
0.288876 0.19485 0.025 -1.88705e+06
0.293268 0.197812 0.025 -1.08022e+06
0.297683 0.20079 0.025 -1.00726e+06
0.302119 0.203782 0.025 -1.68539e+06
0.306577 0.206788 0.025 -984140
0.311054 0.209808 0.025 -1.46122e+06
0.315549 0.212841 0.025 -973346
0.320063 0.215885 0.025 -1.1044e+06
0.324591 0.218939 0.025 -1.08203e+06
0.329134 0.222003 0.025 -987678
0.333691 0.225077 0.025 -1.80569e+06
0.33826 0.228159 0.025 -992116
0.342839 0.231248 0.025 -1.71886e+06
0.347428 0.234343 0.025 -770779
0.352025 0.237444 0.025 -1.68215e+06
0.356628 0.240548 0.025 -989357
0.361237 0.243658 0.025 -936630
0.36585 0.246769 0.025 -2.01184e+06
0.370465 0.249882 0.025 -1.02615e+06
0.375082 0.252996 0.025 -1.02692e+06
0.379698 0.25611 0.025 -1.21257e+06
0.384313 0.259223 0.025 -990283
0.388926 0.262333 0.025 -1.51952e+06
0.393534 0.265442 0.025 -1.01085e+06
0.398136 0.268546 0.025 -861126
0.40273 0.271645 0.025 -1.50164e+06
0.407317 0.274739 0.025 -1.04847e+06
0.411894 0.277826 0.025 -1.16183e+06
0.41646 0.280906 0.025 -764649
0.421014 0.283977 0.025 -1.01194e+06
0.425554 0.28704 0.025 -1.07339e+06
0.430079 0.290092 0.025 -966996
0.434588 0.293133 0.025 -1.55783e+06
0.439079 0.296162 0.025 -924921
0.443551 0.299179 0.025 -1.24186e+06
0.448004 0.302183 0.025 -1.04308e+06
0.452437 0.305172 0.025 -1.0374e+06
0.456846 0.308146 0.025 -1.01165e+06
0.461232 0.311105 0.025 -993695
0.465593 0.314047 0.025 -1.1987e+06
0.469929 0.316971 0.025 -1.06003e+06
0.474238 0.319878 0.025 -879896
0.47852 0.322766 0.025 -904024
0.482773 0.325635 0.025 -842123
0.486996 0.328483 0.025 -1.23374e+06
0.491189 0.331311 0.025 -1.65993e+06
0.49535 0.334118 0.025 -866537
