# Wall heat-flux
# Time        	patch         	min           	max           	integral      
8800          	base	-3.623645e+06	-3.246763e+04	-9.534067e+03
