# y+ ()       
# Time        	patch         	min           	max           	average       
0             	base	6.184869e-03	2.488606e+01	5.676645e+00
