# p  FACE_DATA 203
# x  y  z  p
-0.873265 0 0.0205 3481.93
-0.846493 0 0.0205 2971.78
-0.820677 0 0.0205 2839.15
-0.795786 0 0.0205 2787.08
-0.771783 0 0.0205 2769.86
-0.74637 0 0.0205 2770.74
-0.719597 0 0.0205 2770.06
-0.693782 0 0.0205 2766.18
-0.66889 0 0.0205 2764.68
-0.644887 0 0.0205 2765.57
-0.621743 0 0.0205 2765.56
-0.599426 0 0.0205 2763.64
-0.577905 0 0.0205 2761.5
-0.557154 0 0.0205 2759.94
-0.537145 0 0.0205 2758.96
-0.517849 0 0.0205 2757.78
-0.499243 0 0.0205 2756.2
-0.481301 0 0.0205 2754.61
-0.463999 0 0.0205 2753.3
-0.447314 0 0.0205 2752.64
-0.431225 0 0.0205 2752.33
-0.41571 0 0.0205 2751.5
-0.400747 0 0.0205 2749.75
-0.386317 0 0.0205 2747.55
-0.372401 0 0.0205 2745.3
-0.358981 0 0.0205 2743.49
-0.346039 0 0.0205 2742.52
-0.333556 0 0.0205 2742.43
-0.321518 0 0.0205 2743.57
-0.309908 0 0.0205 2744.86
-0.298709 0 0.0205 2745.61
-0.287908 0 0.0205 2745.55
-0.27749 0 0.0205 2744.18
-0.267441 0 0.0205 2742.01
-0.257748 0 0.0205 2739.22
-0.248397 0 0.0205 2736.33
-0.239378 0 0.0205 2733.62
-0.230677 0 0.0205 2731.34
-0.222282 0 0.0205 2729.73
-0.214183 0 0.0205 2728.9
-0.20637 0 0.0205 2728.67
-0.19883 0 0.0205 2729.32
-0.191555 0 0.0205 2730.49
-0.184536 0 0.0205 2732.02
-0.177762 0 0.0205 2733.69
-0.171224 0 0.0205 2735.29
-0.164914 0 0.0205 2736.76
-0.158824 0 0.0205 2737.98
-0.152944 0 0.0205 2738.92
-0.147268 0 0.0205 2739.55
-0.141788 0 0.0205 2739.89
-0.136496 0 0.0205 2739.96
-0.131387 0 0.0205 2739.61
-0.126452 0 0.0205 2738.97
-0.121685 0 0.0205 2738.06
-0.117081 0 0.0205 2736.93
-0.112632 0 0.0205 2735.6
-0.108332 0 0.0205 2734.11
-0.104177 0 0.0205 2732.51
-0.100161 0 0.0205 2730.83
-0.0962773 0 0.0205 2729.11
-0.0925221 0 0.0205 2727.41
-0.08889 0 0.0205 2725.75
-0.0853762 0 0.0205 2724.15
-0.0819759 0 0.0205 2722.65
-0.0786847 0 0.0205 2721.26
-0.0754981 0 0.0205 2719.99
-0.0724121 0 0.0205 2718.84
-0.0694223 0 0.0205 2717.81
-0.066525 0 0.0205 2716.88
-0.0637161 0 0.0205 2716.07
-0.060992 0 0.0205 2715.35
-0.0583491 0 0.0205 2714.73
-0.0557837 0 0.0205 2714.21
-0.0532926 0 0.0205 2713.75
-0.0508723 0 0.0205 2713.38
-0.0485197 0 0.0205 2713.07
-0.0462317 0 0.0205 2712.84
-0.0440053 0 0.0205 2712.68
-0.0418373 0 0.0205 2712.59
-0.039725 0 0.0205 2712.57
-0.0376655 0 0.0205 2712.62
-0.0356562 0 0.0205 2712.72
-0.0336943 0 0.0205 2712.89
-0.0317773 0 0.0205 2713.12
-0.0299025 0 0.0205 2727.16
-0.0280674 0 0.0205 3455.8
-0.0262697 0 0.0205 7125.79
-0.024507 0 0.0205 9536.52
-0.0227768 0 0.0205 10128.6
-0.021077 0 0.0205 10507.9
-0.0194052 0 0.0205 10751.8
-0.0177593 0 0.0205 10969.1
-0.016137 0 0.0205 11160.8
-0.014536 0 0.0205 11351.2
-0.0129545 0 0.0205 11530.2
-0.0113902 0 0.0205 11703.5
-0.00984104 0 0.0205 11861.1
-0.00830498 0 0.0205 12002.5
-0.00677997 0 0.0205 12128.6
-0.00526398 0 0.0205 12235.8
-0.00375499 0 0.0205 12321.8
-0.002251 0 0.0205 12552.6
-0.00075 0 0.0205 13894.2
0.000689475 0.000398068 0.0205 12923.6
0.00206843 0.0011942 0.0205 13417.2
0.00344737 0.00199034 0.0205 14197
0.00482631 0.00278648 0.0205 15135
0.00620527 0.00358261 0.0205 16328.7
0.00758422 0.00437875 0.0205 17756.6
0.00896317 0.00517489 0.0205 19451.6
0.0103421 0.00597102 0.0205 21433.6
0.0117211 0.00676715 0.0205 23736.1
0.0131 0.00756329 0.0205 26394.8
0.0144789 0.00835943 0.0205 29424.5
0.0158579 0.00915557 0.0205 32844
0.0172368 0.00995171 0.0205 36734.3
0.0186158 0.0107478 0.0205 41127.8
0.0199947 0.0115439 0.0205 46064.9
0.0213737 0.0123401 0.0205 51639.9
0.0227526 0.0131362 0.0205 58106.1
0.0241316 0.0139323 0.0205 65562.7
0.0255106 0.0147285 0.0205 74097.6
0.0268895 0.0155246 0.0205 83505.8
0.0282685 0.0163208 0.0205 93224.5
0.0296474 0.0171169 0.0205 102415
0.0310264 0.017913 0.0205 110743
0.0324053 0.0187092 0.0205 117926
0.0337843 0.0195054 0.0205 123408
0.0351632 0.0203015 0.0205 126710
0.0365421 0.0210976 0.0205 129090
0.037921 0.0218938 0.0205 127494
0.0393 0.0226898 0.0205 122719
0.0406789 0.023486 0.0205 118645
0.0420579 0.0242821 0.0205 116266
0.0434368 0.0250783 0.0205 115166
0.0448158 0.0258745 0.0205 114697
0.0461948 0.0266706 0.0205 112513
0.0475737 0.0274667 0.0205 109803
0.0489527 0.0282628 0.0205 106764
0.0503316 0.029059 0.0205 103969
0.0517106 0.0298551 0.0205 102270
0.0530895 0.0306512 0.0205 101416
0.0544684 0.0314473 0.0205 100881
0.0558474 0.0322435 0.0205 100514
0.0572264 0.0330397 0.0205 100189
0.0586053 0.0338357 0.0205 99839.1
0.0599842 0.0346319 0.0205 99636.5
0.0613632 0.0354281 0.0205 99508
0.0627422 0.0362242 0.0205 99569.6
0.0641211 0.0370204 0.0205 99747.9
0.0655001 0.0378164 0.0205 100043
0.066879 0.0386126 0.0205 100364
0.0682579 0.0394088 0.0205 100638
0.0696369 0.0402049 0.0205 100718
0.0710158 0.041001 0.0205 100609
0.0723947 0.0417971 0.0205 100271
0.0737737 0.0425932 0.0205 99906.6
0.0751527 0.0433894 0.0205 99765.1
0.0765316 0.0441856 0.0205 99721.7
0.0779106 0.0449817 0.0205 99816
0.0792895 0.0457778 0.0205 99972.6
0.0806685 0.0465739 0.0205 100142
0.0820474 0.0473701 0.0205 100305
0.0834263 0.0481662 0.0205 100493
0.0848053 0.0489624 0.0205 100629
0.0861843 0.0497585 0.0205 100878
0.0875632 0.0505546 0.0205 101068
0.0889421 0.0513508 0.0205 101197
0.0903211 0.0521469 0.0205 101214
0.0917 0.0529431 0.0205 101103
0.093079 0.0537392 0.0205 100854
0.094458 0.0545353 0.0205 100623
0.0958369 0.0553315 0.0205 100327
0.0972159 0.0561276 0.0205 100112
0.0985948 0.0569238 0.0205 99985.8
0.0999737 0.0577198 0.0205 100056
0.101352 0.058516 0.0205 100214
0.102732 0.0593121 0.0205 100526
0.10411 0.0601083 0.0205 100913
0.105489 0.0609044 0.0205 101292
0.106868 0.0617005 0.0205 101603
0.108248 0.0624967 0.0205 101836
0.109627 0.0632928 0.0205 101947
0.111006 0.064089 0.0205 101973
0.112385 0.0648851 0.0205 101931
0.113764 0.0656812 0.0205 101823
0.115143 0.0664774 0.0205 101657
0.116522 0.0672735 0.0205 101491
0.117901 0.0680697 0.0205 101345
0.119279 0.0688658 0.0205 101332
0.120658 0.0696619 0.0205 101186
0.122037 0.0704581 0.0205 101178
0.123415 0.0712542 0.0205 101184
0.124794 0.0720503 0.0205 101262
0.126173 0.0728465 0.0205 101324
0.127552 0.0736426 0.0205 101379
0.128931 0.0744387 0.0205 101478
0.13031 0.0752348 0.0205 101541
0.131689 0.076031 0.0205 101596
0.133069 0.0768271 0.0205 101627
0.134447 0.0776233 0.0205 101615
0.135827 0.0784194 0.0205 101437
