# wallHeatFlux  FACE_DATA 203
# x  y  z  wallHeatFlux
-0.873265 0 0.0205 -297614
-0.846493 0 0.0205 -77813.9
-0.820677 0 0.0205 -76433.9
-0.795786 0 0.0205 -75425.4
-0.771783 0 0.0205 -74735.3
-0.74637 0 0.0205 -74576.1
-0.719597 0 0.0205 -74151.5
-0.693782 0 0.0205 -73461.5
-0.66889 0 0.0205 -72771.4
-0.644887 0 0.0205 -72134.5
-0.621743 0 0.0205 -71603.7
-0.599426 0 0.0205 -71126
-0.577905 0 0.0205 -70595.2
-0.557154 0 0.0205 -70011.3
-0.537145 0 0.0205 -69374.4
-0.517849 0 0.0205 -68843.6
-0.499243 0 0.0205 -68472
-0.481301 0 0.0205 -68153.5
-0.463999 0 0.0205 -67782
-0.447314 0 0.0205 -67357.4
-0.431225 0 0.0205 -66932.7
-0.41571 0 0.0205 -66561.2
-0.400747 0 0.0205 -66295.8
-0.386317 0 0.0205 -65977.3
-0.372401 0 0.0205 -65765
-0.358981 0 0.0205 -65499.6
-0.346039 0 0.0205 -65234.2
-0.333556 0 0.0205 -65021.9
-0.321518 0 0.0205 -64809.6
-0.309908 0 0.0205 -64597.2
-0.298709 0 0.0205 -64384.9
-0.287908 0 0.0205 -64225.7
-0.27749 0 0.0205 -64066.5
-0.267441 0 0.0205 -63854.1
-0.257748 0 0.0205 -63641.8
-0.248397 0 0.0205 -63482.6
-0.239378 0 0.0205 -63270.3
-0.230677 0 0.0205 -63058
-0.222282 0 0.0205 -62898.7
-0.214183 0 0.0205 -62739.5
-0.20637 0 0.0205 -62633.3
-0.19883 0 0.0205 -62527.2
-0.191555 0 0.0205 -62474.1
-0.184536 0 0.0205 -62421
-0.177762 0 0.0205 -62421
-0.171224 0 0.0205 -62421
-0.164914 0 0.0205 -62367.9
-0.158824 0 0.0205 -62367.9
-0.152944 0 0.0205 -62314.8
-0.147268 0 0.0205 -62314.8
-0.141788 0 0.0205 -62261.8
-0.136496 0 0.0205 -62208.7
-0.131387 0 0.0205 -62102.5
-0.126452 0 0.0205 -62049.4
-0.121685 0 0.0205 -61943.3
-0.117081 0 0.0205 -61837.1
-0.112632 0 0.0205 -61784.1
-0.108332 0 0.0205 -61677.9
-0.104177 0 0.0205 -61571.7
-0.100161 0 0.0205 -61465.6
-0.0962773 0 0.0205 -61306.3
-0.0925221 0 0.0205 -61200.2
-0.08889 0 0.0205 -61094
-0.0853762 0 0.0205 -60987.9
-0.0819759 0 0.0205 -60881.7
-0.0786847 0 0.0205 -60775.6
-0.0754981 0 0.0205 -60669.4
-0.0724121 0 0.0205 -60616.3
-0.0694223 0 0.0205 -60510.2
-0.066525 0 0.0205 -60457.1
-0.0637161 0 0.0205 -60404
-0.060992 0 0.0205 -60297.8
-0.0583491 0 0.0205 -60244.8
-0.0557837 0 0.0205 -60191.7
-0.0532926 0 0.0205 -60138.6
-0.0508723 0 0.0205 -60138.6
-0.0485197 0 0.0205 -60085.5
-0.0462317 0 0.0205 -60032.4
-0.0440053 0 0.0205 -59979.4
-0.0418373 0 0.0205 -59979.4
-0.039725 0 0.0205 -59979.4
-0.0376655 0 0.0205 -59926.3
-0.0356562 0 0.0205 -59926.3
-0.0336943 0 0.0205 -59926.3
-0.0317773 0 0.0205 -59926.3
-0.0299025 0 0.0205 -60775.6
-0.0280674 0 0.0205 -100479
-0.0262697 0 0.0205 -158123
-0.024507 0 0.0205 -167571
-0.0227768 0 0.0205 -140819
-0.021077 0 0.0205 -123356
-0.0194052 0 0.0205 -110882
-0.0177593 0 0.0205 -101753
-0.016137 0 0.0205 -95330
-0.014536 0 0.0205 -92304.5
-0.0129545 0 0.0205 -91296
-0.0113902 0 0.0205 -91402.2
-0.00984104 0 0.0205 -92835.3
-0.00830498 0 0.0205 -95913.9
-0.00677997 0 0.0205 -101063
-0.00526398 0 0.0205 -108918
-0.00375499 0 0.0205 -120436
-0.002251 0 0.0205 -139333
-0.00075 0 0.0205 -160299
0.000689475 0.000398068 0.0205 -141458
0.00206843 0.0011942 0.0205 -187181
0.00344737 0.00199034 0.0205 -211943
0.00482631 0.00278648 0.0205 -239093
0.00620527 0.00358261 0.0205 -268575
0.00758422 0.00437875 0.0205 -302714
0.00896317 0.00517489 0.0205 -342919
0.0103421 0.00597102 0.0205 -389378
0.0117211 0.00676715 0.0205 -442704
0.0131 0.00756329 0.0205 -502823
0.0144789 0.00835943 0.0205 -569884
0.0158579 0.00915557 0.0205 -643297
0.0172368 0.00995171 0.0205 -724774
0.0186158 0.0107478 0.0205 -808159
0.0199947 0.0115439 0.0205 -894287
0.0213737 0.0123401 0.0205 -1.00193e+06
0.0227526 0.0131362 0.0205 -1.10807e+06
0.0241316 0.0139323 0.0205 -1.21972e+06
0.0255106 0.0147285 0.0205 -1.36007e+06
0.0268895 0.0155246 0.0205 -1.49539e+06
0.0282685 0.0163208 0.0205 -1.61793e+06
0.0296474 0.0171169 0.0205 -1.70893e+06
0.0310264 0.017913 0.0205 -1.75977e+06
0.0324053 0.0187092 0.0205 -1.79699e+06
0.0337843 0.0195054 0.0205 -1.83043e+06
0.0351632 0.0203015 0.0205 -1.83871e+06
0.0365421 0.0210976 0.0205 -1.84682e+06
0.037921 0.0218938 0.0205 -1.83105e+06
0.0393 0.0226898 0.0205 -1.72934e+06
0.0406789 0.023486 0.0205 -1.67867e+06
0.0420579 0.0242821 0.0205 -1.62471e+06
0.0434368 0.0250783 0.0205 -1.59967e+06
0.0448158 0.0258745 0.0205 -1.60847e+06
0.0461948 0.0266706 0.0205 -1.56223e+06
0.0475737 0.0274667 0.0205 -1.50666e+06
0.0489527 0.0282628 0.0205 -1.45632e+06
0.0503316 0.029059 0.0205 -1.38366e+06
0.0517106 0.0298551 0.0205 -1.33556e+06
0.0530895 0.0306512 0.0205 -1.31422e+06
0.0544684 0.0314473 0.0205 -1.28195e+06
0.0558474 0.0322435 0.0205 -1.28993e+06
0.0572264 0.0330397 0.0205 -1.28029e+06
0.0586053 0.0338357 0.0205 -1.2549e+06
0.0599842 0.0346319 0.0205 -1.26991e+06
0.0613632 0.0354281 0.0205 -1.25949e+06
0.0627422 0.0362242 0.0205 -1.25747e+06
0.0641211 0.0370204 0.0205 -1.26967e+06
0.0655001 0.0378164 0.0205 -1.26656e+06
0.066879 0.0386126 0.0205 -1.27394e+06
0.0682579 0.0394088 0.0205 -1.29617e+06
0.0696369 0.0402049 0.0205 -1.30371e+06
0.0710158 0.041001 0.0205 -1.30066e+06
0.0723947 0.0417971 0.0205 -1.28673e+06
0.0737737 0.0425932 0.0205 -1.25839e+06
0.0751527 0.0433894 0.0205 -1.27549e+06
0.0765316 0.0441856 0.0205 -1.2666e+06
0.0779106 0.0449817 0.0205 -1.26605e+06
0.0792895 0.0457778 0.0205 -1.28174e+06
0.0806685 0.0465739 0.0205 -1.27723e+06
0.0820474 0.0473701 0.0205 -1.28154e+06
0.0834263 0.0481662 0.0205 -1.30089e+06
0.0848053 0.0489624 0.0205 -1.29571e+06
0.0861843 0.0497585 0.0205 -1.30172e+06
0.0875632 0.0505546 0.0205 -1.31036e+06
0.0889421 0.0513508 0.0205 -1.30015e+06
0.0903211 0.0521469 0.0205 -1.32395e+06
0.0917 0.0529431 0.0205 -1.31854e+06
0.093079 0.0537392 0.0205 -1.29719e+06
0.094458 0.0545353 0.0205 -1.31582e+06
0.0958369 0.0553315 0.0205 -1.30184e+06
0.0972159 0.0561276 0.0205 -1.29786e+06
0.0985948 0.0569238 0.0205 -1.30908e+06
0.0999737 0.0577198 0.0205 -1.30112e+06
0.101352 0.058516 0.0205 -1.30409e+06
0.102732 0.0593121 0.0205 -1.32489e+06
0.10411 0.0601083 0.0205 -1.33739e+06
0.105489 0.0609044 0.0205 -1.34424e+06
0.106868 0.0617005 0.0205 -1.34462e+06
0.108248 0.0624967 0.0205 -1.32998e+06
0.109627 0.0632928 0.0205 -1.35729e+06
0.111006 0.064089 0.0205 -1.35057e+06
0.112385 0.0648851 0.0205 -1.34663e+06
0.113764 0.0656812 0.0205 -1.35676e+06
0.115143 0.0664774 0.0205 -1.34266e+06
0.116522 0.0672735 0.0205 -1.34019e+06
0.117901 0.0680697 0.0205 -1.34983e+06
0.119279 0.0688658 0.0205 -1.34125e+06
0.120658 0.0696619 0.0205 -1.33768e+06
0.122037 0.0704581 0.0205 -1.34266e+06
0.123415 0.0712542 0.0205 -1.33028e+06
0.124794 0.0720503 0.0205 -1.35741e+06
0.126173 0.0728465 0.0205 -1.3567e+06
0.127552 0.0736426 0.0205 -1.34254e+06
0.128931 0.0744387 0.0205 -1.37016e+06
0.13031 0.0752348 0.0205 -1.36448e+06
0.131689 0.076031 0.0205 -1.3663e+06
0.133069 0.0768271 0.0205 -1.38029e+06
0.134447 0.0776233 0.0205 -1.36932e+06
0.135827 0.0784194 0.0205 -1.37635e+06
