# Wall heat-flux
# Time        	patch         	min           	max           	integral      
6900          	base	-1.251226e+04	3.367010e+04	3.944027e+02
