# y+ ()       
# Time        	patch         	min           	max           	average       
1500          	base	3.679948e-03	2.943294e+01	5.067887e+00
