4.96314e-06 	28.4983 	-0.01735 	0
1.48429e-05 	83.6806 	-0.0462611 	0
2.46948e-05 	137.104 	-0.0709713 	0
3.46404e-05 	189.595 	-0.0955594 	0
4.47862e-05 	241.589 	-0.120638 	0
5.52311e-05 	292.983 	-0.146369 	0
6.60699e-05 	343.181 	-0.172735 	0
7.73965e-05 	391.355 	-0.199442 	0
8.93058e-05 	436.817 	-0.226262 	0
0.000101896 	479.238 	-0.253061 	0
0.000115268 	518.642 	-0.279143 	0
0.00012953 	555.38 	-0.303881 	0
0.000144795 	589.8 	-0.326569 	0
0.000161185 	622.09 	-0.346499 	0
0.000178829 	652.419 	-0.362924 	0
0.000197868 	680.96 	-0.375141 	0
0.00021845 	707.883 	-0.382575 	0
0.000240738 	733.344 	-0.384595 	0
0.000264909 	757.493 	-0.379891 	0
0.000291153 	780.473 	-0.368243 	0
0.000319676 	802.449 	-0.349584 	0
0.000350703 	823.588 	-0.323278 	0
0.000384479 	844.009 	-0.289418 	0
0.000421271 	863.792 	-0.248043 	0
0.000461366 	883.004 	-0.199486 	0
0.000505082 	901.708 	-0.144285 	0
0.000552762 	919.955 	-0.0830856 	0
0.000604783 	937.793 	-0.0166789 	0
0.000661554 	955.265 	0.0538081 	0
0.000723523 	972.412 	0.126883 	0
0.000791177 	989.267 	0.201017 	0
0.00086505 	1005.86 	0.274697 	0
0.000945722 	1022.24 	0.346581 	0
0.00103383 	1038.42 	0.41469 	0
0.00113007 	1054.43 	0.477746 	0
0.0012352 	1070.31 	0.534568 	0
0.00135004 	1086.07 	0.584303 	0
0.0014755 	1101.75 	0.626499 	0
0.00161258 	1117.38 	0.661304 	0
0.00176234 	1132.99 	0.689691 	0
0.00192597 	1148.6 	0.713704 	0
0.00210476 	1164.26 	0.736168 	0
0.00230012 	1180 	0.760629 	0
0.00251358 	1195.87 	0.791489 	0
0.00274683 	1211.89 	0.834507 	0
0.00300171 	1228.13 	0.897049 	0
0.00328023 	1244.67 	0.986953 	0
0.00358457 	1261.67 	1.11277 	0
0.00391714 	1279.28 	1.28362 	0
0.00428056 	1297.66 	1.50797 	0
0.00467769 	1316.92 	1.79582 	0
0.00511167 	1337.15 	2.15896 	0
0.00558591 	1358.25 	2.60469 	0
0.00610416 	1379.8 	3.14813 	0
0.0066705 	1401.17 	3.78735 	0
0.0072894 	1422.09 	4.54206 	0
0.00796574 	1442.63 	5.52818 	0
0.00855799 	1458.18 	6.62077 	0
0.00894392 	1466.81 	7.44875 	0
0.00951253 	1475.17 	8.75405 	0
0.0103952 	1481.2 	10.633 	0
0.0113598 	1482.32 	11.9477 	0
0.0124139 	1482.38 	12.2708 	0
0.013566 	1482.38 	12.3652 	0
0.0148251 	1482.4 	12.5928 	0
0.0162011 	1482.41 	12.7024 	0
0.017705 	1482.42 	12.7241 	0
0.0193486 	1482.42 	12.5486 	0
0.0202967 	1482.43 	12.4658 	0
0.0212348 	1482.43 	12.4265 	0
0.0231084 	1482.43 	12.411 	0
0.0252543 	1482.45 	12.6049 	0
0.0276001 	1482.43 	13.0586 	0
0.0301448 	1482.51 	13.4377 	0
0.031484 	1482.52 	13.6344 	0
0.0329673 	1482.51 	13.8029 	0
0.0360314 	1482.49 	13.9974 	0
0.0393815 	1482.5 	13.8406 	0
0.041589 	1482.44 	13.7073 	0
0.0435022 	1482.4 	13.58 	0
0.0470499 	1482.38 	13.3331 	0
0.0506434 	1482.34 	13.5574 	0
0.0529317 	1482.32 	13.7572 	0
0.0562215 	1482.33 	14.1071 	0
0.0602482 	1482.33 	14.7917 	0
0.0629866 	1482.33 	15.1817 	0
0.0671978 	1482.35 	15.637 	0
0.07057 	1482.29 	15.5236 	0
0.0738498 	1482.27 	14.9842 	0
0.078218 	1482.48 	12.3872 	0
0.0818093 	1482.75 	9.90814 	0
0.0859665 	1483.2 	6.63758 	0
0.0899001 	1483.53 	4.08657 	0
0.0938543 	1483.77 	1.94349 	0
0.098165 	1483.92 	0.560562 	0
0.101925 	1483.97 	0.278469 	0
0.106651 	1484 	0.0221268 	0
0.110224 	1484 	0.0132909 	0
0.113967 	1484 	0.00332393 	0
0.118805 	1484 	0.000155348 	0
0.122029 	1484 	9.05805e-05 	0
0.126872 	1484 	2.02904e-07 	0
0.130784 	1484 	1.62304e-07 	0
0.133691 	1484 	1.0666e-07 	0
0.138506 	1484 	-1.87477e-08 	0
0.142708 	1484 	-1.30796e-08 	0
0.145325 	1484 	-9.7201e-09 	0
0.148982 	1484 	-5.36956e-09 	0
0.15382 	1484 	-2.49409e-09 	0
0.15705 	1484 	-1.75796e-09 	0
0.159283 	1484 	-1.27584e-09 	0
0.16276 	1484 	-5.96153e-10 	0
0.166887 	1484 	-1.18095e-10 	0
0.1708 	1484 	-9.04033e-11 	0
0.172904 	1484 	-7.34808e-11 	0
0.174709 	1484 	-5.83501e-11 	0
0.178025 	1484 	-3.02101e-11 	0
0.181359 	1484 	-2.97848e-12 	0
0.184518 	1484 	-1.99759e-12 	0
0.187512 	1484 	-1.60961e-12 	0
0.189414 	1484 	-1.16665e-12 	0
0.190794 	1484 	-9.49223e-13 	0
0.193039 	1484 	-5.81162e-13 	0
0.195586 	1484 	-1.46386e-13 	0
0.197999 	1484 	5.56481e-13 	0
0.200286 	1484 	7.80354e-13 	0
0.202452 	1484 	2.5715e-13 	0
0.204504 	1484 	3.76809e-13 	0
0.206447 	1484 	3.27752e-13 	0
0.207887 	1484 	2.50249e-13 	0
0.208782 	1484 	1.72102e-13 	0
0.21003 	1484 	5.88202e-14 	0
0.21168 	1484 	-6.68141e-14 	0
0.213242 	1484 	-2.53254e-13 	0
0.214721 	1484 	-2.67881e-13 	0
0.216122 	1484 	-3.68474e-13 	0
0.217447 	1484 	-5.08243e-13 	0
0.218702 	1484 	-7.22611e-13 	0
0.219889 	1484 	-6.80102e-13 	0
0.221014 	1484 	-5.79956e-13 	0
0.222078 	1484 	-6.35381e-13 	0
0.223085 	1484 	-5.19928e-13 	0
0.224038 	1484 	-6.1001e-13 	0
0.22494 	1484 	-6.16921e-13 	0
0.225793 	1484 	-5.98411e-13 	0
0.2266 	1484 	-5.11891e-13 	0
0.227363 	1484 	-4.8344e-13 	0
0.228086 	1484 	-5.15781e-13 	0
0.228681 	1484 	-5.52992e-13 	0
0.229013 	1484 	-5.73173e-13 	0
0.229416 	1484 	-5.92242e-13 	0
0.230028 	1484 	-6.06807e-13 	0
0.230607 	1484 	-6.15198e-13 	0
0.231154 	1484 	-6.27698e-13 	0
0.231672 	1484 	-5.99933e-13 	0
0.232161 	1484 	-5.81818e-13 	0
0.232625 	1484 	-6.60172e-13 	0
0.233063 	1484 	-6.71366e-13 	0
0.233478 	1484 	-5.32562e-13 	0
0.23387 	1484 	-4.82649e-13 	0
0.234241 	1484 	-4.33064e-13 	0
0.234591 	1484 	-4.18943e-13 	0
0.234924 	1484 	-4.04352e-13 	0
0.235237 	1484 	-3.78716e-13 	0
0.235535 	1484 	-3.2057e-13 	0
0.235816 	1484 	-2.53536e-13 	0
0.236082 	1484 	-2.70919e-13 	0
0.236335 	1484 	-2.60619e-13 	0
0.236575 	1484 	-1.11064e-13 	0
0.236811 	1484 	-7.48055e-14 	0
0.237052 	1484 	-1.46307e-13 	0
0.237298 	1484 	-1.63493e-13 	0
0.237548 	1484 	-1.87909e-13 	0
0.237805 	1484 	-1.6594e-13 	0
0.238067 	1484 	-2.60157e-13 	0
0.238335 	1484 	-2.4851e-13 	0
0.23861 	1484 	-4.72627e-13 	0
0.238891 	1484 	-3.82829e-13 	0
0.239179 	1484 	-3.86819e-13 	0
0.239474 	1484 	-5.03807e-13 	0
0.239775 	1484 	-4.66076e-13 	0
0.240085 	1484 	-4.92697e-13 	0
0.240402 	1484 	-8.16777e-13 	0
0.240727 	1484 	-9.99437e-13 	0
0.241058 	1484 	-1.1205e-12 	0
0.241398 	1484 	-1.61899e-12 	0
0.241747 	1484 	-1.1073e-12 	0
0.242104 	1484 	-9.05809e-13 	0
0.242469 	1484 	-8.18585e-13 	0
0.242844 	1484 	-2.33386e-12 	0
0.243227 	1484 	-5.67063e-12 	0
0.24362 	1484 	-9.78241e-12 	0
0.244022 	1484 	-1.36426e-11 	0
0.244434 	1484 	-1.68587e-11 	0
0.244855 	1484 	-1.99001e-11 	0
0.245287 	1484 	-1.95973e-11 	0
0.245728 	1484 	-1.44226e-11 	0
0.246182 	1484 	1.38518e-11 	0
0.246646 	1484 	1.01531e-10 	0
0.24712 	1484 	2.86176e-10 	0
0.247605 	1484 	6.34775e-10 	0
0.248102 	1484 	1.2506e-09 	0
0.248612 	1484 	2.27722e-09 	0
0.249133 	1484 	3.91215e-09 	0
0.249667 	1484 	6.42966e-09 	0
0.250213 	1484 	1.01791e-08 	0
0.250772 	1484 	1.5604e-08 	0
0.251345 	1484 	2.32446e-08 	0
0.251931 	1484 	3.37588e-08 	0
0.252531 	1484 	4.78989e-08 	0
0.253145 	1484 	6.65333e-08 	0
0.253587 	1484 	8.269e-08 	0
0.253906 	1484 	9.6181e-08 	0
0.254418 	1484 	1.20993e-07 	0
0.255076 	1484 	1.58857e-07 	0
0.25575 	1484 	2.05277e-07 	0
0.25644 	1484 	2.61269e-07 	0
0.257146 	1484 	3.27816e-07 	0
0.257868 	1484 	4.05758e-07 	0
0.258608 	1484 	4.95584e-07 	0
0.259364 	1484 	5.97655e-07 	0
0.260139 	1484 	7.1196e-07 	0
0.260931 	1484 	8.38069e-07 	0
0.261741 	1484 	9.75121e-07 	0
0.262571 	1484 	1.12151e-06 	0
0.263419 	1484 	1.27528e-06 	0
0.264287 	1484 	1.43397e-06 	0
0.265176 	1484 	1.59417e-06 	0
0.266085 	1484 	1.75194e-06 	0
0.267014 	1484 	1.9022e-06 	0
0.267965 	1484 	2.04536e-06 	0
0.268938 	1484 	2.18174e-06 	0
0.269932 	1484 	2.29516e-06 	0
0.27095 	1484 	2.37894e-06 	0
0.271991 	1484 	2.42422e-06 	0
0.273056 	1484 	2.42925e-06 	0
0.274145 	1484 	2.39485e-06 	0
0.275258 	1484 	2.32339e-06 	0
0.276397 	1484 	2.18674e-06 	0
0.277562 	1484 	1.97763e-06 	0
0.278752 	1484 	1.69385e-06 	0
0.279969 	1484 	1.331e-06 	0
0.281073 	1484 	9.38432e-07 	0
0.281704 	1484 	6.94664e-07 	0
0.282492 	1484 	3.51831e-07 	0
0.283802 	1484 	-2.71514e-07 	0
0.285142 	1484 	-9.90267e-07 	0
0.286512 	1484 	-1.80518e-06 	0
0.287913 	1484 	-2.71275e-06 	0
0.289346 	1484 	-3.70633e-06 	0
0.290812 	1484 	-4.77739e-06 	0
0.29231 	1484 	-5.91628e-06 	0
0.293842 	1484 	-7.11045e-06 	0
0.295409 	1484 	-8.34777e-06 	0
0.29701 	1484 	-9.56421e-06 	0
0.298648 	1484 	-1.06443e-05 	0
0.300322 	1484 	-1.16919e-05 	0
0.302032 	1484 	-1.26878e-05 	0
0.303782 	1484 	-1.36106e-05 	0
0.305569 	1484 	-1.44407e-05 	0
0.307397 	1484 	-1.51575e-05 	0
0.309265 	1484 	-1.57404e-05 	0
0.310844 	1484 	-1.61153e-05 	0
0.311808 	1484 	-1.62861e-05 	0
0.313121 	1484 	-1.64448e-05 	0
0.315112 	1484 	-1.65333e-05 	0
0.317146 	1484 	-1.64227e-05 	0
0.319224 	1484 	-1.60994e-05 	0
0.321348 	1484 	-1.55581e-05 	0
0.323518 	1484 	-1.47879e-05 	0
0.325733 	1484 	-1.37837e-05 	0
0.327996 	1484 	-1.27556e-05 	0
0.330308 	1484 	-1.25775e-05 	0
0.332669 	1484 	-1.2287e-05 	0
0.33508 	1484 	-1.18828e-05 	0
0.337542 	1484 	-1.13706e-05 	0
0.340057 	1484 	-1.07482e-05 	0
0.342457 	1484 	-1.00716e-05 	0
0.343757 	1484 	-9.67599e-06 	0
0.345282 	1484 	-9.18365e-06 	0
0.348019 	1484 	-8.24059e-06 	0
0.350819 	1484 	-7.19759e-06 	0
0.35368 	1484 	-6.05965e-06 	0
0.356603 	1484 	-4.82833e-06 	0
0.359592 	1484 	-3.5072e-06 	0
0.362645 	1484 	-2.65445e-06 	0
0.365765 	1484 	-2.13425e-06 	0
0.368952 	1484 	-1.58856e-06 	0
0.372208 	1484 	-1.01747e-06 	0
0.375533 	1484 	-4.22282e-07 	0
0.377533 	1484 	-5.88675e-08 	0
