# Wall heat-flux
# Time        	patch         	min           	max           	integral      
3400          	base	-1.275474e+04	3.208382e+04	3.878188e+02
