# wallShearStress  FACE_DATA 317
# x  y  z  wallShearStress_x  wallShearStress_y  wallShearStress_z
-2.24217 0 0.27 -172.922 -0.32218 0
-2.12942 0 0.27 -173.044 -4.70376e-05 0
-2.02231 0 0.27 -166.891 -5.93061e-05 0
-1.92055 0 0.27 -162.32 -0.000373938 0
-1.82389 0 0.27 -158.855 -0.000114094 0
-1.73207 0 0.27 -155.997 0.000204517 0
-1.64485 0 0.27 -153.568 0.000151321 0
-1.562 0 0.27 -151.502 -0.000105663 0
-1.48331 0 0.27 -149.726 -0.000221245 0
-1.40856 0 0.27 -148.16 -0.000173651 0
-1.33756 0 0.27 -146.776 -6.67385e-05 0
-1.27013 0 0.27 -145.52 5.10741e-05 0
-1.20608 0 0.27 -144.388 8.73348e-05 0
-1.14539 0 0.27 -143.355 5.05726e-05 0
-1.08787 0 0.27 -142.418 -1.35427e-05 0
-1.03323 0 0.27 -141.567 -4.71359e-05 0
-0.981322 0 0.27 -140.804 -6.70637e-05 0
-0.932014 0 0.27 -140.105 -8.27163e-05 0
-0.885173 0 0.27 -139.477 -8.34742e-05 0
-0.84068 0 0.27 -138.903 -6.64769e-05 0
-0.798416 0 0.27 -138.383 -4.34931e-05 0
-0.758473 0 0.27 -137.908 -3.69471e-05 0
-0.720912 0 0.27 -137.478 -1.91134e-05 0
-0.685558 0 0.27 -137.087 8.96548e-05 0
-0.652245 0 0.27 -136.73 0.000205128 0
-0.620811 0 0.27 -136.4 0.000267464 0
-0.591171 0 0.27 -136.096 0.000237865 0
-0.563165 0 0.27 -135.815 8.48319e-05 0
-0.536572 0 0.27 -135.554 -8.25788e-05 0
-0.51125 0 0.27 -135.311 -0.000282448 0
-0.487059 0 0.27 -135.085 -0.000400519 0
-0.463863 0 0.27 -134.875 -0.000287328 0
-0.441526 0 0.27 -134.679 -0.000128385 0
-0.419915 0 0.27 -134.496 -0.000294209 0
-0.398896 0 0.27 -134.323 -5.71975e-05 0
-0.378338 0 0.27 -134.158 0.000353373 0
-0.358104 0 0.27 -133.992 -0.000269031 0
-0.33806 0 0.27 -133.86 -0.000826488 0
-0.318069 0 0.27 -134.057 -0.000689506 0
-0.296809 0 0.27 -164.51 -0.00235478 0
-0.275112 0 0.27 -133.344 -0.00323528 0
-0.255001 0 0.27 -133.802 -0.00227055 0
-0.23636 0 0.27 -145.323 -0.00273606 2.35448e-26
-0.219081 0 0.27 -140.129 -0.0015157 -2.08278e-26
-0.203066 0 0.27 -133.287 -0.00030837 -2.82613e-27
-0.188221 0 0.27 -132.566 0.000535359 0
-0.174462 0 0.27 -131.843 0.000975403 0
-0.161708 0 0.27 -131.777 0.00109585 0
-0.149886 0 0.27 -131.791 0.000763282 0
-0.138929 0 0.27 -131.768 0.000568277 0
-0.128773 0 0.27 -131.714 0.000197635 0
-0.119359 0 0.27 -131.684 -0.000390181 0
-0.110632 0 0.27 -131.658 -0.000922603 1.66996e-28
-0.102544 0 0.27 -131.622 -0.00150165 0
-0.0950472 0 0.27 -131.58 -0.00254614 0
-0.0880983 0 0.27 -131.545 -0.0037682 0
-0.0816572 0 0.27 -131.514 -0.00481349 0
-0.0756869 0 0.27 -131.485 -0.00573257 0
-0.070153 0 0.27 -131.441 -0.00673466 0
-0.0650234 0 0.27 -129.932 -0.00936711 0
-0.0602687 0 0.27 -99.05 -0.0239836 0
-0.0558616 0 0.27 -9.94 -0.0585717 0
-0.0517765 0 0.27 14.305 0.016682 2.61724e-27
-0.0479899 0 0.27 22.6081 -0.00222014 1.63847e-29
-0.04448 0 0.27 25.1726 0.00645117 0
-0.0412265 0 0.27 26.3611 0.00572322 0
-0.0382106 0 0.27 26.7972 0.00525521 -1.89286e-28
-0.0354151 0 0.27 26.8385 0.00461189 0
-0.0328237 0 0.27 27.3623 0.00655852 0
-0.0304215 0 0.27 27.9706 0.00610865 0
-0.0281948 0 0.27 28.4704 0.00338943 0
-0.0261306 0 0.27 28.9498 0.00305578 0
-0.0242171 0 0.27 29.4549 0.00272215 0
-0.0224431 0 0.27 29.9488 0.00248074 0
-0.0207985 0 0.27 30.4013 0.00229467 -1.33158e-28
-0.0192738 0 0.27 30.8101 0.0021388 -1.34226e-28
-0.0178602 0 0.27 31.1748 0.00206801 0
-0.0165496 0 0.27 31.5029 0.00308758 0
-0.0153345 0 0.27 31.8072 0.00295034 0
-0.0142077 0 0.27 32.1013 0.00174048 0
-0.0131629 0 0.27 32.4068 0.00223778 -3.06329e-29
-0.0121939 0 0.27 32.7327 0.00182383 0
-0.0112952 0 0.27 33.078 0.000898381 0
-0.0104616 0 0.27 33.4562 0.000983343 -1.8889e-29
-0.0096884 0 0.27 33.8898 0.000658547 0
-0.00897103 0 0.27 34.3408 3.16456e-05 2.31223e-29
-0.00830536 0 0.27 34.7962 -0.000209236 1.22627e-29
-0.00768758 0 0.27 35.2375 -0.000518155 -3.60052e-29
-0.0071141 0 0.27 35.6547 -0.000839112 4.65704e-29
-0.00658165 0 0.27 36.0426 -0.00111972 0
-0.00608714 0 0.27 36.3972 -0.00142869 7.10802e-28
-0.00562772 0 0.27 36.7159 -0.00170231 -2.15717e-28
-0.00520074 0 0.27 37.0087 -0.00197421 -8.04392e-28
-0.00480375 0 0.27 37.2818 -0.00216501 0
-0.00443446 0 0.27 37.5115 -0.00227833 1.3187e-27
-0.00409073 0 0.27 37.6908 -0.00234527 1.41669e-27
-0.00377059 0 0.27 37.8177 -0.00223174 0
-0.00347218 0 0.27 37.9413 -0.00268097 -1.88703e-27
-0.00319379 0 0.27 38.006 -0.0019883 4.51614e-28
-0.00293381 0 0.27 37.9814 -0.00208248 -4.83469e-28
-0.00269075 0 0.27 37.9313 -0.00197747 0
-0.00246319 0 0.27 37.841 -0.00185315 -1.0838e-27
-0.00224984 0 0.27 37.6973 -0.00227771 0
-0.00204945 0 0.27 37.504 -0.00166974 1.4867e-27
-0.00186089 0 0.27 37.2601 -0.000954467 3.79855e-28
-0.00168306 0 0.27 36.9786 -0.000340513 -5.63581e-28
-0.00151492 0 0.27 36.6499 0.000692555 2.77423e-28
-0.00135552 0 0.27 36.2606 0.00154307 3.86604e-27
-0.00120394 0 0.27 35.7824 0.0023742 5.00703e-28
-0.00105929 0 0.27 35.21 0.00318888 -1.31175e-27
-0.000920752 0 0.27 34.5171 0.00430588 8.46215e-28
-0.000787523 0 0.27 33.6966 0.00541995 -3.86069e-26
-0.000658834 0 0.27 32.716 0.00705628 0
-0.000533942 0 0.27 31.4355 0.0102459 3.38416e-27
-0.000412129 0 0.27 29.7204 0.0144716 -2.22483e-25
-0.000292693 0 0.27 26.9171 0.0257518 0
-0.000174943 0 0.27 23.381 0.0134664 -3.09466e-25
-5.82025e-05 0 0.27 12.0739 0.135659 0
6.0278e-05 2.68374e-05 0.27 10.2741 4.47935 1.18059e-20
0.000182584 8.12915e-05 0.27 19.7988 8.81184 -4.53768e-24
0.000308438 0.000137325 0.27 23.1111 10.2667 3.78166e-21
0.000437939 0.000194983 0.27 26.0055 11.5649 1.31016e-26
0.00057119 0.00025431 0.27 28.1467 12.5206 1.96797e-26
0.000708293 0.000315353 0.27 29.7795 13.2502 0
0.000849358 0.000378158 0.27 31.1181 13.8488 1.31153e-21
0.000994492 0.000442776 0.27 32.1897 14.3273 -1.01359e-21
0.00114381 0.000509256 0.27 33.1208 14.7426 0
0.00129743 0.000577649 0.27 33.9217 15.1001 0
0.00145545 0.000648007 0.27 34.6453 15.424 0
0.00161801 0.000720386 0.27 35.2996 15.7153 -3.65204e-22
0.00178523 0.000794839 0.27 35.8892 15.9775 -1.05388e-27
0.00195724 0.000871423 0.27 36.4269 16.2182 1.92121e-22
0.00213417 0.000950195 0.27 36.9244 16.4395 2.27102e-27
0.00231614 0.00103122 0.27 37.4063 16.6571 2.17743e-22
0.0025033 0.00111455 0.27 37.8331 16.8419 1.85867e-22
0.00269579 0.00120024 0.27 38.2107 17.0135 0
0.00289374 0.00128838 0.27 38.6045 17.1885 1.97447e-22
0.00309731 0.00137901 0.27 38.9705 17.3519 -1.41395e-22
0.00330663 0.00147221 0.27 39.2568 17.4795 2.4947e-27
0.00352187 0.00156804 0.27 39.534 17.6049 1.46265e-22
0.00374317 0.00166657 0.27 39.8039 17.7252 -5.43696e-27
0.0039707 0.00176788 0.27 40.0397 17.8287 -3.99758e-22
0.00420463 0.00187202 0.27 40.2497 17.9204 -1.729e-22
0.00444512 0.0019791 0.27 40.4425 18.0082 2.64065e-22
0.00469233 0.00208916 0.27 40.5928 18.0762 8.78657e-28
0.00494645 0.0022023 0.27 40.7092 18.1278 1.58185e-22
0.00520763 0.00231859 0.27 40.8088 18.1722 -4.47239e-22
0.00547608 0.00243811 0.27 40.8802 18.2057 -1.69163e-22
0.00575197 0.00256094 0.27 40.9776 18.2463 -1.00214e-21
0.00603549 0.00268717 0.27 41.0655 18.2857 0
0.00632683 0.00281688 0.27 41.1087 18.304 6.37176e-22
0.00662618 0.00295016 0.27 41.1096 18.3067 2.70053e-27
0.00693375 0.0030871 0.27 41.0744 18.2893 1.09971e-21
0.00724974 0.0032278 0.27 40.9952 18.2602 7.98617e-23
0.00757435 0.00337232 0.27 40.9032 18.2122 0
0.0079078 0.00352077 0.27 40.7341 18.1378 -5.35714e-22
0.00825029 0.00367327 0.27 40.5484 18.0588 3.71117e-22
0.00860204 0.00382988 0.27 40.3791 17.9837 6.39399e-22
0.00896328 0.00399071 0.27 40.1913 17.8952 -7.1377e-22
0.00933422 0.00415586 0.27 39.9881 17.8088 0
0.0097151 0.00432544 0.27 39.699 17.6751 0
0.0101061 0.00449954 0.27 39.2467 17.498 2.25419e-27
0.0105076 0.00467828 0.27 38.9566 17.3278 -3.45167e-21
0.0109197 0.00486175 0.27 38.4459 17.1205 2.08563e-27
0.0113426 0.00505007 0.27 37.8439 16.848 -1.26754e-27
0.0117768 0.00524333 0.27 37.3252 16.6232 4.98258e-22
0.0122222 0.00544166 0.27 36.7589 16.3649 -1.18802e-27
0.0126792 0.00564515 0.27 36.1527 16.1039 -2.55278e-21
0.0131482 0.00585394 0.27 35.3269 15.7315 5.53254e-22
0.0136292 0.00606812 0.27 34.4139 15.3228 -3.04051e-27
0.0141227 0.00628781 0.27 33.4931 14.9163 1.41236e-21
0.0146288 0.00651313 0.27 32.3244 14.3955 4.00215e-22
0.0151477 0.00674419 0.27 31.0549 13.828 -6.24751e-21
0.0156799 0.00698113 0.27 29.6807 13.2206 7.96352e-22
0.0162254 0.00722403 0.27 28.2298 12.5749 0
0.0167847 0.00747303 0.27 26.4821 11.809 0
0.017358 0.00772826 0.27 24.6737 10.9896 -6.3358e-21
0.0179454 0.00798982 0.27 22.7842 10.1596 -4.65009e-21
0.0185474 0.00825783 0.27 20.5717 9.18692 0
0.0191641 0.00853242 0.27 18.3566 8.18358 4.48427e-21
0.0197959 0.00881371 0.27 15.9408 7.09491 -5.04929e-21
0.0204431 0.00910183 0.27 13.3227 5.93517 0
0.0211057 0.00939688 0.27 10.6035 4.72552 0
0.0217843 0.00969898 0.27 7.62079 3.40141 0
0.0224789 0.0100083 0.27 4.51693 1.99908 -3.86658e-26
0.02319 0.0103248 0.27 1.17005 0.677355 3.81192e-26
0.0239176 0.0106488 0.27 -2.22062 -1.04322 1.33367e-26
0.0246623 0.0109804 0.27 -5.85553 -2.5976 -9.45501e-21
0.025424 0.0113195 0.27 -9.62649 -4.27431 -1.21511e-21
0.0262032 0.0116664 0.27 -13.7327 -6.11069 -1.95635e-27
0.0270001 0.0120212 0.27 -17.8961 -7.95761 9.84729e-21
0.0278149 0.012384 0.27 -21.9299 -9.73858 6.19747e-27
0.0286479 0.0127549 0.27 -26.4336 -11.7862 2.74453e-20
0.0294992 0.0131339 0.27 -30.9058 -13.7309 3.85462e-29
0.0303692 0.0135212 0.27 -35.3287 -15.7484 7.10513e-27
0.0312581 0.013917 0.27 -40.0973 -17.8535 -4.05934e-27
0.0321659 0.0143213 0.27 -44.308 -19.7216 0
0.0330931 0.014734 0.27 -49.0653 -21.7515 2.31319e-20
0.0340398 0.0151555 0.27 -53.2868 -23.8012 1.92375e-20
0.0350062 0.0155858 0.27 -57.0591 -25.3787 0
0.0359924 0.0160249 0.27 -60.3496 -26.8949 -4.94467e-21
0.0369987 0.0164729 0.27 -63.7957 -28.4032 -4.78325e-27
0.0380251 0.0169299 0.27 -67.4998 -30.0449 0
0.0390719 0.0173959 0.27 -71.1512 -31.6846 1.68789e-22
0.0401391 0.0178711 0.27 -75.8974 -33.7294 2.36481e-20
0.041227 0.0183554 0.27 -79.33 -35.3216 3.28345e-27
0.0423356 0.018849 0.27 -81.3945 -36.2583 3.82884e-27
0.043465 0.0193519 0.27 -84.8759 -37.7904 2.31445e-27
0.0446154 0.0198641 0.27 -88.1965 -39.2722 -8.14301e-27
0.0457867 0.0203856 0.27 -91.6405 -40.7539 -2.31996e-20
0.046979 0.0209164 0.27 -94.7876 -42.2544 -1.74344e-20
0.0481924 0.0214567 0.27 -98.532 -43.8656 -1.01885e-26
0.0494267 0.0220063 0.27 -101.79 -45.3088 2.93626e-27
0.0506823 0.0225652 0.27 -105.722 -47.1463 2.38794e-20
0.0519588 0.0231335 0.27 -108.264 -48.1127 0
0.0532563 0.0237113 0.27 -111.176 -49.6021 3.36413e-20
0.0545749 0.0242983 0.27 -114.43 -50.9484 0
0.0559142 0.0248946 0.27 -117.342 -52.2514 1.96657e-21
0.0572744 0.0255002 0.27 -120.439 -53.634 0
0.0586552 0.0261149 0.27 -123.86 -55.1563 0
0.0600565 0.0267388 0.27 -126.78 -56.3691 -5.48481e-28
0.0614781 0.0273718 0.27 -130.027 -57.9783 -2.59761e-27
0.0629198 0.0280137 0.27 -131.886 -58.717 -5.32059e-22
0.0643815 0.0286645 0.27 -135.187 -60.1731 -2.11462e-27
0.0658629 0.029324 0.27 -136.824 -60.9242 0
0.0673636 0.0299922 0.27 -139.975 -62.3512 1.65082e-20
0.0688836 0.030669 0.27 -142.651 -63.5136 1.72427e-20
0.0704223 0.0313541 0.27 -144.564 -64.378 2.4787e-21
0.0719795 0.0320474 0.27 -146.628 -65.2895 3.93267e-21
0.0735549 0.0327488 0.27 -148.952 -66.34 -1.17221e-20
0.075148 0.0334581 0.27 -151.468 -67.4391 5.59268e-21
0.0767585 0.0341751 0.27 -154.386 -68.7396 1.19099e-27
0.0783859 0.0348996 0.27 -156.88 -69.7859 -6.11761e-28
0.0800297 0.0356315 0.27 -156.755 -69.8676 4.04639e-20
0.0816895 0.0363706 0.27 -159.596 -71.0637 0
0.0833647 0.0371164 0.27 -161.876 -72.068 0
0.085055 0.0378689 0.27 -163.278 -72.6989 -2.20923e-20
0.0867595 0.0386278 0.27 -167.202 -74.4588 -2.90257e-27
0.0884779 0.0393929 0.27 -168.207 -74.8988 -3.36859e-21
0.0902095 0.0401639 0.27 -170.879 -76.0734 1.80456e-27
0.0919538 0.0409405 0.27 -172.697 -76.9334 1.70932e-20
0.09371 0.0417224 0.27 -174.219 -77.5699 1.75348e-21
0.0954776 0.0425094 0.27 -175.753 -78.2548 -2.76773e-27
0.0972558 0.0433011 0.27 -178.142 -79.3396 -1.49532e-20
0.0990439 0.0440972 0.27 -179.852 -80.0384 -5.78017e-21
0.100841 0.0448975 0.27 -189.848 -84.5478 2.82108e-21
0.102647 0.0457015 0.27 -185.209 -82.445 0
0.104461 0.046509 0.27 -196 -87.2547 -3.14511e-21
0.106282 0.0473197 0.27 -193.386 -86.1508 -2.87874e-20
0.108109 0.0481331 0.27 -192.395 -85.6418 0
0.109941 0.048949 0.27 -201.069 -89.5018 0
0.111779 0.0497671 0.27 -206.993 -92.279 0
0.11362 0.0505868 0.27 -198.513 -88.3638 0
0.115464 0.051408 0.27 -204.598 -90.9536 -3.06891e-20
0.117311 0.0522302 0.27 -214.504 -95.5412 -5.87172e-20
0.11916 0.0530531 0.27 -202.457 -90.0801 1.98325e-20
0.121009 0.0538763 0.27 -203.554 -90.6399 8.4788e-21
0.122857 0.0546995 0.27 -213.365 -95.0256 8.27436e-20
0.124705 0.0555223 0.27 -215.077 -95.7705 -7.99888e-20
0.126552 0.0563444 0.27 -211.697 -94.2256 4.0111e-20
0.128395 0.0571653 0.27 -207.179 -92.2843 1.86466e-21
0.130236 0.0579847 0.27 -209.601 -93.2077 -6.63971e-20
0.132072 0.0588023 0.27 -204.686 -91.1475 0
0.133904 0.0596177 0.27 -210.18 -93.5791 0
0.13573 0.0604306 0.27 -216.919 -96.6064 2.71285e-26
0.137549 0.0612407 0.27 -209.417 -93.2331 1.68635e-20
0.139361 0.0620475 0.27 -221.793 -98.7278 -8.42674e-21
0.141165 0.0628508 0.27 -206.261 -91.9893 0
0.14296 0.0636503 0.27 -206.985 -92.1479 1.75588e-20
0.144747 0.0644455 0.27 -211.632 -94.2231 0
0.146523 0.0652363 0.27 -214.778 -95.6315 1.79821e-20
0.148288 0.0660222 0.27 -228.732 -101.8 -2.35932e-20
0.150042 0.0668031 0.27 -214.635 -95.5428 6.81602e-21
0.151784 0.0675785 0.27 -231.093 -102.898 0
0.153513 0.0683483 0.27 -234.894 -104.578 -5.4411e-20
0.155228 0.0691121 0.27 -223.747 -99.6389 2.90082e-26
0.15693 0.0698698 0.27 -232.045 -103.314 3.49175e-26
0.158617 0.070621 0.27 -230.759 -102.736 0
0.160289 0.0713654 0.27 -236.187 -105.139 0
0.161946 0.072103 0.27 -241.682 -107.623 0
0.163586 0.0728334 0.27 -240.141 -106.896 5.64593e-26
0.165211 0.0735564 0.27 -238.769 -106.311 1.02257e-19
0.166817 0.0742718 0.27 -239.329 -106.588 0
0.168406 0.0749795 0.27 -240.061 -106.832 -3.67233e-20
0.169978 0.0756793 0.27 -241.968 -107.784 -7.43945e-21
0.171532 0.0763709 0.27 -244.785 -108.924 9.62558e-20
0.173067 0.0770543 0.27 -241.828 -107.707 0
0.174583 0.0777293 0.27 -237.89 -105.885 0
0.17608 0.0783958 0.27 -223.541 -99.5369 0
0.177557 0.0790535 0.27 -239.797 -106.791 1.19826e-20
0.179014 0.0797025 0.27 -243.875 -108.592 4.33783e-20
0.180452 0.0803425 0.27 -226.503 -100.7 0
0.18187 0.0809736 0.27 -222.353 -99.2045 0
0.183266 0.0815956 0.27 -217.717 -96.7808 5.21878e-20
0.184643 0.0822085 0.27 -219.628 -97.9048 0
0.185999 0.0828122 0.27 -237.299 -105.369 0
0.187334 0.0834066 0.27 -223.198 -99.7194 -8.42715e-20
0.188648 0.0839917 0.27 -239.755 -106.762 0
0.189942 0.0845675 0.27 -227.289 -101.168 8.51978e-21
0.191214 0.0851339 0.27 -238.213 -106.105 -6.15623e-20
0.192465 0.085691 0.27 -235.388 -104.86 -5.58179e-20
0.193695 0.0862387 0.27 -236.34 -104.858 -1.05083e-19
0.194904 0.086777 0.27 -234.245 -104.657 0
0.196093 0.0873059 0.27 -233.561 -103.594 4.29596e-20
0.197259 0.0878254 0.27 -233.524 -104.332 7.84048e-20
0.198405 0.0883357 0.27 -231.282 -102.687 -4.65678e-20
0.19953 0.0888366 0.27 -216.852 -96.5938 0
0.200635 0.0893284 0.27 -219.6 -97.7709 0
0.201718 0.0898108 0.27 -222.982 -98.907 0
0.202782 0.0902841 0.27 -218.501 -97.5066 0
0.203824 0.0907483 0.27 -222.993 -99.2244 0
0.204846 0.0912035 0.27 -219.247 -97.6984 0
0.205848 0.0916496 0.27 -216.281 -96.3054 0
0.206831 0.0920869 0.27 -215.771 -96.0276 -3.29351e-20
0.207793 0.0925153 0.27 -223.943 -99.5127 -3.22008e-20
0.208735 0.092935 0.27 -221.281 -98.6105 5.87601e-20
0.209658 0.093346 0.27 -225.945 -100.581 0
