# p  FACE_DATA 398
# x  y  z  p
-0.7975 0 0.025 4472.62
-0.79239 0 0.025 3680.39
-0.787056 0 0.025 2936.14
-0.781492 0 0.025 2837.9
-0.775691 0 0.025 2788.36
-0.769649 0 0.025 2786.61
-0.763362 0 0.025 2813.78
-0.756822 0 0.025 2837.76
-0.750025 0 0.025 2852.91
-0.742968 0 0.025 2860.23
-0.735648 0 0.025 2864.73
-0.72806 0 0.025 2866.17
-0.720203 0 0.025 2866.1
-0.712076 0 0.025 2864.78
-0.703677 0 0.025 2864.22
-0.695006 0 0.025 2863.36
-0.686065 0 0.025 2862.18
-0.676855 0 0.025 2861.65
-0.667379 0 0.025 2858.68
-0.65764 0 0.025 2854.29
-0.647644 0 0.025 2852.8
-0.637397 0 0.025 2852.85
-0.626906 0 0.025 2848.39
-0.616179 0 0.025 2847.1
-0.605224 0 0.025 2844.85
-0.594054 0 0.025 2843.2
-0.582678 0 0.025 2840.34
-0.57111 0 0.025 2838.28
-0.559364 0 0.025 2836.02
-0.547454 0 0.025 2835.38
-0.535396 0 0.025 2832.7
-0.523205 0 0.025 2831.12
-0.510901 0 0.025 2828.76
-0.4985 0 0.025 2826.37
-0.486021 0 0.025 2825.63
-0.473483 0 0.025 2824.37
-0.460905 0 0.025 2822.52
-0.448308 0 0.025 2820.97
-0.435709 0 0.025 2818.82
-0.42313 0 0.025 2816.53
-0.41059 0 0.025 2815.94
-0.39811 0 0.025 2815.79
-0.385706 0 0.025 2814.5
-0.373398 0 0.025 2812.48
-0.361205 0 0.025 2811.57
-0.349141 0 0.025 2810.71
-0.337226 0 0.025 2808.93
-0.325475 0 0.025 2806.9
-0.313901 0 0.025 2805.63
-0.30252 0 0.025 2805
-0.291343 0 0.025 2804.8
-0.280382 0 0.025 2804.29
-0.269646 0 0.025 2803.78
-0.259148 0 0.025 2803.1
-0.248893 0 0.025 2802.62
-0.23889 0 0.025 2801.62
-0.229143 0 0.025 2800.55
-0.219659 0 0.025 2799.23
-0.210441 0 0.025 2798.18
-0.201491 0 0.025 2796.9
-0.192812 0 0.025 2795.68
-0.184405 0 0.025 2794.47
-0.176269 0 0.025 2793.8
-0.168404 0 0.025 2793.35
-0.160808 0 0.025 2793.35
-0.15348 0 0.025 2793.4
-0.146415 0 0.025 2793.52
-0.13961 0 0.025 2793.53
-0.133063 0 0.025 2793.59
-0.126767 0 0.025 2793.5
-0.120718 0 0.025 2793.3
-0.11491 0 0.025 2792.77
-0.109339 0 0.025 2792.02
-0.103997 0 0.025 2791.04
-0.0988805 0 0.025 2790
-0.0939808 0 0.025 2788.98
-0.0892928 0 0.025 2788.14
-0.0848096 0 0.025 2787.49
-0.0805248 0 0.025 2787.05
-0.0764316 0 0.025 2786.77
-0.0725237 0 0.025 2786.57
-0.0687943 0 0.025 2786.47
-0.065237 0 0.025 2786.43
-0.0618454 0 0.025 2786.44
-0.058613 0 0.025 2786.47
-0.0555337 0 0.025 2786.54
-0.0526013 0 0.025 2786.6
-0.0498099 0 0.025 2786.68
-0.0471536 0 0.025 2786.74
-0.0446266 0 0.025 2786.84
-0.0422235 0 0.025 2786.94
-0.039939 0 0.025 2787.08
-0.0377676 0 0.025 2787.24
-0.0357044 0 0.025 2787.43
-0.0337445 0 0.025 2787.68
-0.0318832 0 0.025 2787.55
-0.0301159 0 0.025 2791.92
-0.0284383 0 0.025 2919.99
-0.0268461 0 0.025 3862.67
-0.0253353 0 0.025 5444.36
-0.023902 0 0.025 6576.03
-0.0225426 0 0.025 7404.39
-0.0212532 0 0.025 7976.65
-0.0200306 0 0.025 8437.71
-0.0188715 0 0.025 8838.4
-0.0177728 0 0.025 9179.78
-0.0167313 0 0.025 9478.13
-0.0157444 0 0.025 9743.66
-0.0148092 0 0.025 9978.89
-0.0139232 0 0.025 10193
-0.0130838 0 0.025 10390.5
-0.0122887 0 0.025 10574.2
-0.0115356 0 0.025 10744.6
-0.0108223 0 0.025 10901.8
-0.0101469 0 0.025 11046.7
-0.00950727 0 0.025 11179.6
-0.00890168 0 0.025 11300.5
-0.00832835 0 0.025 11410
-0.00778557 0 0.025 11508.9
-0.00727176 0 0.025 11598.4
-0.0067854 0 0.025 11679.6
-0.00632507 0 0.025 11754.1
-0.00588937 0 0.025 11823.3
-0.00547703 0 0.025 11888.9
-0.0050868 0 0.025 11952.4
-0.00471753 0 0.025 12014.7
-0.0043681 0 0.025 12077.3
-0.00403746 0 0.025 12142.1
-0.00372461 0 0.025 12210.1
-0.0034286 0 0.025 12281.6
-0.00314855 0 0.025 12356.9
-0.0028836 0 0.025 12437.8
-0.00263294 0 0.025 12528.4
-0.00239581 0 0.025 12620.3
-0.0021715 0 0.025 12716.7
-0.00195929 0 0.025 12818.3
-0.00175856 0 0.025 12924.6
-0.00156869 0 0.025 13034.3
-0.00138908 0 0.025 13146.9
-0.0012192 0 0.025 13261.4
-0.00105853 0 0.025 13376.4
-0.000906546 0 0.025 13490.2
-0.000762803 0 0.025 13600
-0.000626848 0 0.025 13701.7
-0.000498265 0 0.025 13788.7
-0.000376656 0 0.025 13852.6
-0.000261642 0 0.025 13886
-0.00015287 0 0.025 13894.2
-5e-05 0 0.025 13984.7
4.14519e-05 2.79596e-05 0.025 13557.1
0.000125371 8.45641e-05 0.025 13656.5
0.000211347 0.000142556 0.025 13620.9
0.000299429 0.000201968 0.025 13551.6
0.000389669 0.000262835 0.025 13470.3
0.000482118 0.000325193 0.025 13387.9
0.000576831 0.000389077 0.025 13310.3
0.000673861 0.000454524 0.025 13241.5
0.000773265 0.000521574 0.025 13184.1
0.0008751 0.000590262 0.025 13139.6
0.000979426 0.000660632 0.025 13109.6
0.0010863 0.000732721 0.025 13090.2
0.00119579 0.000806572 0.025 13086
0.00130795 0.000882227 0.025 13095
0.00142285 0.00095973 0.025 13115.7
0.00154056 0.00103912 0.025 13147.8
0.00166115 0.00112046 0.025 13191.1
0.00178467 0.00120378 0.025 13245.3
0.00191121 0.00128913 0.025 13309.1
0.00204083 0.00137656 0.025 13383.3
0.00217362 0.00146612 0.025 13466.6
0.00230964 0.00155787 0.025 13559.5
0.00244897 0.00165185 0.025 13660.4
0.00259169 0.00174812 0.025 13770.7
0.00273789 0.00184673 0.025 13889.5
0.00288765 0.00194774 0.025 14017
0.00304105 0.00205122 0.025 14153.2
0.00319818 0.00215719 0.025 14298.5
0.00335912 0.00226575 0.025 14452.4
0.00352397 0.00237695 0.025 14615.7
0.00369283 0.00249085 0.025 14788.4
0.00386579 0.00260751 0.025 14971
0.00404294 0.00272699 0.025 15163.7
0.00422438 0.00284938 0.025 15367.1
0.00441022 0.00297474 0.025 15581.9
0.00460056 0.00310312 0.025 15808.6
0.00479552 0.00323462 0.025 16048.3
0.00499519 0.0033693 0.025 16301.1
0.00519968 0.00350723 0.025 16568.8
0.00540911 0.00364849 0.025 16851.7
0.00562361 0.00379318 0.025 17151.3
0.00584329 0.00394134 0.025 17468.6
0.00606826 0.00409309 0.025 17805
0.00629865 0.00424849 0.025 18161.6
0.0065346 0.00440764 0.025 18540.6
0.00677623 0.00457063 0.025 18942.9
0.00702368 0.00473753 0.025 19371.2
0.00727707 0.00490844 0.025 19826.8
0.00753655 0.00508347 0.025 20312.3
0.00780227 0.00526269 0.025 20830.4
0.00807436 0.00544622 0.025 21383
0.00835298 0.00563415 0.025 21973.8
0.00863826 0.00582659 0.025 22605.1
0.00893038 0.00602362 0.025 23280.8
0.00922949 0.00622537 0.025 24003.4
0.00953574 0.00643195 0.025 24777.2
0.00984929 0.00664345 0.025 25604.7
0.0101703 0.00686 0.025 26493
0.0104991 0.00708171 0.025 27442.1
0.0108356 0.00730871 0.025 28459.7
0.0111801 0.0075411 0.025 29551.1
0.0115329 0.00777902 0.025 30722.2
0.011894 0.00802259 0.025 31980.7
0.0122637 0.00827194 0.025 33336.1
0.0126421 0.00852719 0.025 34796.7
0.0130295 0.0087885 0.025 36371.9
0.013426 0.00905597 0.025 38073
0.013832 0.00932978 0.025 39909.2
0.0142475 0.00961003 0.025 41891.8
0.0146727 0.0098969 0.025 44028.7
0.0151081 0.0101905 0.025 46333.8
0.0155536 0.010491 0.025 48825.4
0.0160097 0.0107986 0.025 51524.8
0.0164764 0.0111134 0.025 54440.6
0.016954 0.0114356 0.025 57595.9
0.0174427 0.0117653 0.025 60997.6
0.0179429 0.0121026 0.025 64673
0.0184548 0.0124479 0.025 68631.4
0.0189786 0.0128013 0.025 72886.9
0.0195146 0.0131628 0.025 77471.5
0.020063 0.0135327 0.025 82414.6
0.0206242 0.0139112 0.025 87769.1
0.0211983 0.0142984 0.025 93619.6
0.0217857 0.0146947 0.025 100053
0.0223867 0.0151 0.025 107090
0.0230015 0.0155147 0.025 114679
0.0236304 0.0159389 0.025 122929
0.0242738 0.0163729 0.025 131843
0.0249318 0.0168167 0.025 141236
0.025605 0.0172708 0.025 150518
0.0262935 0.0177352 0.025 158474
0.0269977 0.0182102 0.025 164072
0.0277178 0.0186959 0.025 166562
0.0284544 0.0191927 0.025 166982
0.0292075 0.0197008 0.025 165089
0.0299777 0.0202203 0.025 163689
0.0307653 0.0207514 0.025 161003
0.0315704 0.0212945 0.025 158285
0.0323937 0.0218499 0.025 155386
0.0332354 0.0224176 0.025 152090
0.0340959 0.022998 0.025 148459
0.0349755 0.0235913 0.025 144688
0.0358747 0.0241978 0.025 141152
0.0367938 0.0248178 0.025 137942
0.0377331 0.0254513 0.025 135267
0.0386932 0.0260989 0.025 133156
0.0396743 0.0267606 0.025 131527
0.0406769 0.0274369 0.025 130216
0.0417013 0.0281279 0.025 129072
0.042748 0.0288339 0.025 128256
0.0438175 0.0295552 0.025 127704
0.04491 0.0302922 0.025 127276
0.0460262 0.031045 0.025 126813
0.0471662 0.031814 0.025 126318
0.0483306 0.0325995 0.025 126351
0.0495199 0.0334016 0.025 126842
0.0507344 0.0342208 0.025 127130
0.0519746 0.0350573 0.025 127146
0.0532409 0.0359114 0.025 127002
0.0545339 0.0367835 0.025 126970
0.0558538 0.0376739 0.025 127135
0.0572012 0.0385827 0.025 127122
0.0585766 0.0395104 0.025 126819
0.0599804 0.0404573 0.025 126384
0.061413 0.0414236 0.025 126751
0.0628748 0.0424096 0.025 127710
0.0643665 0.0434157 0.025 128521
0.0658883 0.0444422 0.025 128580
0.0674408 0.0454894 0.025 128211
0.0690245 0.0465576 0.025 127886
0.0706398 0.0476471 0.025 127823
0.0722871 0.0487582 0.025 128364
0.0739669 0.0498912 0.025 128699
0.0756797 0.0510466 0.025 128719
0.0774258 0.0522244 0.025 128409
0.0792059 0.053425 0.025 128103
0.0810203 0.0546489 0.025 128420
0.0828694 0.0558961 0.025 129030
0.0847537 0.0571671 0.025 129719
0.0866737 0.0584622 0.025 129925
0.0886298 0.0597816 0.025 130004
0.0906224 0.0611256 0.025 130035
0.0926518 0.0624944 0.025 130097
0.0947185 0.0638884 0.025 130265
0.096823 0.065308 0.025 130325
0.0989659 0.0667532 0.025 130023
0.101147 0.0682245 0.025 129117
0.103367 0.0697219 0.025 128264
0.105626 0.0712458 0.025 127770
0.107926 0.0727965 0.025 127576
0.110265 0.074374 0.025 128199
0.112644 0.0759789 0.025 128807
0.115063 0.0776111 0.025 129949
0.117524 0.0792709 0.025 130210
0.120026 0.0809585 0.025 130259
0.122569 0.0826741 0.025 130292
0.125155 0.0844179 0.025 130029
0.127782 0.0861901 0.025 129638
0.130451 0.0879908 0.025 128897
0.133163 0.08982 0.025 128415
0.135918 0.0916781 0.025 128144
0.138716 0.0935651 0.025 128634
0.141556 0.095481 0.025 129347
0.14444 0.097426 0.025 129854
0.147367 0.0994004 0.025 129306
0.150337 0.101404 0.025 129685
0.153351 0.103437 0.025 128788
0.156408 0.105498 0.025 127229
0.159508 0.107589 0.025 127755
0.162651 0.10971 0.025 126699
0.165838 0.111859 0.025 124362
0.169069 0.114039 0.025 127403
0.172343 0.116247 0.025 125416
0.175659 0.118483 0.025 124912
0.179018 0.120749 0.025 124084
0.182421 0.123045 0.025 123002
0.185866 0.125368 0.025 122517
0.189353 0.12772 0.025 122139
0.192882 0.1301 0.025 122070
0.196453 0.132509 0.025 122328
0.200065 0.134946 0.025 121717
0.203718 0.13741 0.025 121712
0.207412 0.139901 0.025 121960
0.211146 0.14242 0.025 121142
0.214919 0.144965 0.025 120354
0.218732 0.147537 0.025 121158
0.222583 0.150134 0.025 120997
0.226472 0.152757 0.025 122490
0.230399 0.155406 0.025 122196
0.234362 0.15808 0.025 122290
0.238362 0.160777 0.025 121069
0.242396 0.163498 0.025 121072
0.246466 0.166244 0.025 120306
0.250569 0.169012 0.025 121227
0.254706 0.171801 0.025 120339
0.258874 0.174613 0.025 120285
0.263074 0.177446 0.025 119818
0.267304 0.180299 0.025 120554
0.271564 0.183172 0.025 121189
0.275852 0.186064 0.025 120798
0.280168 0.188975 0.025 121449
0.28451 0.191904 0.025 121056
0.288876 0.19485 0.025 120355
0.293268 0.197812 0.025 121007
0.297683 0.20079 0.025 119838
0.302119 0.203782 0.025 119339
0.306577 0.206788 0.025 120127
0.311054 0.209808 0.025 119290
0.315549 0.212841 0.025 119989
0.320063 0.215885 0.025 119357
0.324591 0.218939 0.025 120955
0.329134 0.222003 0.025 121569
0.333691 0.225077 0.025 121064
0.33826 0.228159 0.025 122003
0.342839 0.231248 0.025 121594
0.347428 0.234343 0.025 122509
0.352025 0.237444 0.025 121047
0.356628 0.240548 0.025 121301
0.361237 0.243658 0.025 121281
0.36585 0.246769 0.025 119657
0.370465 0.249882 0.025 122036
0.375082 0.252996 0.025 120901
0.379698 0.25611 0.025 120128
0.384313 0.259223 0.025 121372
0.388926 0.262333 0.025 120570
0.393534 0.265442 0.025 120988
0.398136 0.268546 0.025 121283
0.40273 0.271645 0.025 120550
0.407317 0.274739 0.025 120419
0.411894 0.277826 0.025 119962
0.41646 0.280906 0.025 121473
0.421014 0.283977 0.025 120614
0.425554 0.28704 0.025 120382
0.430079 0.290092 0.025 120899
0.434588 0.293133 0.025 120657
0.439079 0.296162 0.025 121426
0.443551 0.299179 0.025 121047
0.448004 0.302183 0.025 120957
0.452437 0.305172 0.025 121089
0.456846 0.308146 0.025 121411
0.461232 0.311105 0.025 121292
0.465593 0.314047 0.025 121449
0.469929 0.316971 0.025 121031
0.474238 0.319878 0.025 122174
0.47852 0.322766 0.025 121836
0.482773 0.325635 0.025 121936
0.486996 0.328483 0.025 121499
0.491189 0.331311 0.025 120744
0.49535 0.334118 0.025 122057
