# wallHeatFlux  FACE_DATA 398
# x  y  z  wallHeatFlux
-0.7975 0 0.025 -653671
-0.79239 0 0.025 -120061
-0.787056 0 0.025 -71276.2
-0.781492 0 0.025 -64100.2
-0.775691 0 0.025 -65549.8
-0.769649 0 0.025 -66345.3
-0.763362 0 0.025 -66935.6
-0.756822 0 0.025 -66866.2
-0.750025 0 0.025 -66371.1
-0.742968 0 0.025 -65637.3
-0.735648 0 0.025 -64726.3
-0.72806 0 0.025 -63771.9
-0.720203 0 0.025 -62796.8
-0.712076 0 0.025 -61913.1
-0.703677 0 0.025 -61097.6
-0.695006 0 0.025 -60318.6
-0.686065 0 0.025 -59592.3
-0.676855 0 0.025 -58924
-0.667379 0 0.025 -58222.4
-0.65764 0 0.025 -57520.6
-0.647644 0 0.025 -56932.9
-0.637397 0 0.025 -56402.8
-0.626906 0 0.025 -55787.9
-0.616179 0 0.025 -55274.9
-0.605224 0 0.025 -54767.7
-0.594054 0 0.025 -54285.1
-0.582678 0 0.025 -53766.7
-0.57111 0 0.025 -53294.4
-0.559364 0 0.025 -52864
-0.547454 0 0.025 -52511.1
-0.535396 0 0.025 -52075.9
-0.523205 0 0.025 -51641.5
-0.510901 0 0.025 -51250.3
-0.4985 0 0.025 -50897.5
-0.486021 0 0.025 -50618.5
-0.473483 0 0.025 -50304.9
-0.460905 0 0.025 -49961.4
-0.448308 0 0.025 -49622.4
-0.435709 0 0.025 -49302.9
-0.42313 0 0.025 -49018
-0.41059 0 0.025 -48791.1
-0.39811 0 0.025 -48583.9
-0.385706 0 0.025 -48337.1
-0.373398 0 0.025 -48074.1
-0.361205 0 0.025 -47826.3
-0.349141 0 0.025 -47592.3
-0.337226 0 0.025 -47369
-0.325475 0 0.025 -47161.2
-0.313901 0 0.025 -46985.5
-0.30252 0 0.025 -46830.4
-0.291343 0 0.025 -46676.5
-0.280382 0 0.025 -46522.6
-0.269646 0 0.025 -46373.1
-0.259148 0 0.025 -46234.8
-0.248893 0 0.025 -46098.4
-0.23889 0 0.025 -45951.8
-0.229143 0 0.025 -45810
-0.219659 0 0.025 -45659.3
-0.210441 0 0.025 -45497.7
-0.201491 0 0.025 -45328.7
-0.192812 0 0.025 -45162.7
-0.184405 0 0.025 -45022.9
-0.176269 0 0.025 -44913.3
-0.168404 0 0.025 -44832.2
-0.160808 0 0.025 -44778
-0.15348 0 0.025 -44748.3
-0.146415 0 0.025 -44740.8
-0.13961 0 0.025 -44732
-0.133063 0 0.025 -44714.4
-0.126767 0 0.025 -44692.4
-0.120718 0 0.025 -44660.3
-0.11491 0 0.025 -44612.9
-0.109339 0 0.025 -44544.7
-0.103997 0 0.025 -44470.4
-0.0988805 0 0.025 -44384.3
-0.0939808 0 0.025 -44295.4
-0.0892928 0 0.025 -44208
-0.0848096 0 0.025 -44120.7
-0.0805248 0 0.025 -44039.2
-0.0764316 0 0.025 -43963.3
-0.0725237 0 0.025 -43887.4
-0.0687943 0 0.025 -43828.4
-0.065237 0 0.025 -43774.1
-0.0618454 0 0.025 -43720.8
-0.058613 0 0.025 -43672.1
-0.0555337 0 0.025 -43635.1
-0.0526013 0 0.025 -43597.4
-0.0498099 0 0.025 -43565.4
-0.0471536 0 0.025 -43538.8
-0.0446266 0 0.025 -43512.2
-0.0422235 0 0.025 -43496.3
-0.039939 0 0.025 -43480.4
-0.0377676 0 0.025 -43464.1
-0.0357044 0 0.025 -43454.3
-0.0337445 0 0.025 -43448.7
-0.0318832 0 0.025 -43443.5
-0.0301159 0 0.025 -43261.4
-0.0284383 0 0.025 -40098.2
-0.0268461 0 0.025 -32612.4
-0.0253353 0 0.025 -42366.1
-0.023902 0 0.025 -60939.9
-0.0225426 0 0.025 -71519.5
-0.0212532 0 0.025 -77850.4
-0.0200306 0 0.025 -83208.9
-0.0188715 0 0.025 -87909.9
-0.0177728 0 0.025 -91775.1
-0.0167313 0 0.025 -95281.9
-0.0157444 0 0.025 -98489.3
-0.0148092 0 0.025 -101326
-0.0139232 0 0.025 -104018
-0.0130838 0 0.025 -106560
-0.0122887 0 0.025 -108869
-0.0115356 0 0.025 -110883
-0.0108223 0 0.025 -112605
-0.0101469 0 0.025 -114070
-0.00950727 0 0.025 -115318
-0.00890168 0 0.025 -116373
-0.00832835 0 0.025 -117290
-0.00778557 0 0.025 -118161
-0.00727176 0 0.025 -119050
-0.0067854 0 0.025 -120012
-0.00632507 0 0.025 -121091
-0.00588937 0 0.025 -122323
-0.00547703 0 0.025 -123716
-0.0050868 0 0.025 -125276
-0.00471753 0 0.025 -126999
-0.0043681 0 0.025 -128891
-0.00403746 0 0.025 -130965
-0.00372461 0 0.025 -133207
-0.0034286 0 0.025 -135603
-0.00314855 0 0.025 -138183
-0.0028836 0 0.025 -140992
-0.00263294 0 0.025 -143955
-0.00239581 0 0.025 -146813
-0.0021715 0 0.025 -149783
-0.00195929 0 0.025 -152889
-0.00175856 0 0.025 -156099
-0.00156869 0 0.025 -159414
-0.00138908 0 0.025 -162827
-0.0012192 0 0.025 -166323
-0.00105853 0 0.025 -169880
-0.000906546 0 0.025 -173490
-0.000762803 0 0.025 -177010
-0.000626848 0 0.025 -180166
-0.000498265 0 0.025 -182117
-0.000376656 0 0.025 -180929
-0.000261642 0 0.025 -172841
-0.00015287 0 0.025 -150557
-5e-05 0 0.025 -97882.4
4.14519e-05 2.79596e-05 0.025 -69774.1
0.000125371 8.45641e-05 0.025 -83414.6
0.000211347 0.000142556 0.025 -99218.3
0.000299429 0.000201968 0.025 -110459
0.000389669 0.000262835 0.025 -119889
0.000482118 0.000325193 0.025 -128851
0.000576831 0.000389077 0.025 -137257
0.000673861 0.000454524 0.025 -144869
0.000773265 0.000521574 0.025 -151600
0.0008751 0.000590262 0.025 -157537
0.000979426 0.000660632 0.025 -162794
0.0010863 0.000732721 0.025 -167498
0.00119579 0.000806572 0.025 -171852
0.00130795 0.000882227 0.025 -175892
0.00142285 0.00095973 0.025 -179670
0.00154056 0.00103912 0.025 -183314
0.00166115 0.00112046 0.025 -186839
0.00178467 0.00120378 0.025 -190331
0.00191121 0.00128913 0.025 -193820
0.00204083 0.00137656 0.025 -197257
0.00217362 0.00146612 0.025 -200755
0.00230964 0.00155787 0.025 -204318
0.00244897 0.00165185 0.025 -207894
0.00259169 0.00174812 0.025 -211558
0.00273789 0.00184673 0.025 -215339
0.00288765 0.00194774 0.025 -219265
0.00304105 0.00205122 0.025 -223290
0.00319818 0.00215719 0.025 -227446
0.00335912 0.00226575 0.025 -231812
0.00352397 0.00237695 0.025 -236312
0.00369283 0.00249085 0.025 -241036
0.00386579 0.00260751 0.025 -245940
0.00404294 0.00272699 0.025 -251071
0.00422438 0.00284938 0.025 -256465
0.00441022 0.00297474 0.025 -262142
0.00460056 0.00310312 0.025 -268112
0.00479552 0.00323462 0.025 -274364
0.00499519 0.0033693 0.025 -281004
0.00519968 0.00350723 0.025 -287949
0.00540911 0.00364849 0.025 -295362
0.00562361 0.00379318 0.025 -303200
0.00584329 0.00394134 0.025 -311455
0.00606826 0.00409309 0.025 -320264
0.00629865 0.00424849 0.025 -329547
0.0065346 0.00440764 0.025 -339424
0.00677623 0.00457063 0.025 -349963
0.00702368 0.00473753 0.025 -361168
0.00727707 0.00490844 0.025 -373122
0.00753655 0.00508347 0.025 -385862
0.00780227 0.00526269 0.025 -399539
0.00807436 0.00544622 0.025 -414233
0.00835298 0.00563415 0.025 -430008
0.00863826 0.00582659 0.025 -447272
0.00893038 0.00602362 0.025 -466107
0.00922949 0.00622537 0.025 -485917
0.00953574 0.00643195 0.025 -506837
0.00984929 0.00664345 0.025 -530896
0.0101703 0.00686 0.025 -557347
0.0104991 0.00708171 0.025 -585242
0.0108356 0.00730871 0.025 -619473
0.0111801 0.0075411 0.025 -656328
0.0115329 0.00777902 0.025 -696039
0.011894 0.00802259 0.025 -740494
0.0122637 0.00827194 0.025 -787325
0.0126421 0.00852719 0.025 -832209
0.0130295 0.0087885 0.025 -876223
0.013426 0.00905597 0.025 -921697
0.013832 0.00932978 0.025 -964123
0.0142475 0.00961003 0.025 -1.00705e+06
0.0146727 0.0098969 0.025 -1.04554e+06
0.0151081 0.0101905 0.025 -1.08657e+06
0.0155536 0.010491 0.025 -1.13064e+06
0.0160097 0.0107986 0.025 -1.17643e+06
0.0164764 0.0111134 0.025 -1.2264e+06
0.016954 0.0114356 0.025 -1.27975e+06
0.0174427 0.0117653 0.025 -1.33327e+06
0.0179429 0.0121026 0.025 -1.39105e+06
0.0184548 0.0124479 0.025 -1.45981e+06
0.0189786 0.0128013 0.025 -1.50752e+06
0.0195146 0.0131628 0.025 -1.55979e+06
0.020063 0.0135327 0.025 -1.62073e+06
0.0206242 0.0139112 0.025 -1.66e+06
0.0211983 0.0142984 0.025 -1.68837e+06
0.0217857 0.0146947 0.025 -1.72174e+06
0.0223867 0.0151 0.025 -1.74824e+06
0.0230015 0.0155147 0.025 -1.76889e+06
0.0236304 0.0159389 0.025 -1.79577e+06
0.0242738 0.0163729 0.025 -1.79595e+06
0.0249318 0.0168167 0.025 -1.8109e+06
0.025605 0.0172708 0.025 -1.82077e+06
0.0262935 0.0177352 0.025 -1.79723e+06
0.0269977 0.0182102 0.025 -1.76963e+06
0.0277178 0.0186959 0.025 -1.73146e+06
0.0284544 0.0191927 0.025 -1.74563e+06
0.0292075 0.0197008 0.025 -1.67959e+06
0.0299777 0.0202203 0.025 -1.64169e+06
0.0307653 0.0207514 0.025 -1.60892e+06
0.0315704 0.0212945 0.025 -1.58133e+06
0.0323937 0.0218499 0.025 -1.55778e+06
0.0332354 0.0224176 0.025 -1.53188e+06
0.0340959 0.022998 0.025 -1.5082e+06
0.0349755 0.0235913 0.025 -1.47515e+06
0.0358747 0.0241978 0.025 -1.47279e+06
0.0367938 0.0248178 0.025 -1.43736e+06
0.0377331 0.0254513 0.025 -1.41301e+06
0.0386932 0.0260989 0.025 -1.39244e+06
0.0396743 0.0267606 0.025 -1.37502e+06
0.0406769 0.0274369 0.025 -1.36238e+06
0.0417013 0.0281279 0.025 -1.34792e+06
0.042748 0.0288339 0.025 -1.34645e+06
0.0438175 0.0295552 0.025 -1.33322e+06
0.04491 0.0302922 0.025 -1.32086e+06
0.0460262 0.031045 0.025 -1.32232e+06
0.0471662 0.031814 0.025 -1.32698e+06
0.0483306 0.0325995 0.025 -1.31449e+06
0.0495199 0.0334016 0.025 -1.31696e+06
0.0507344 0.0342208 0.025 -1.31278e+06
0.0519746 0.0350573 0.025 -1.31174e+06
0.0532409 0.0359114 0.025 -1.31534e+06
0.0545339 0.0367835 0.025 -1.30119e+06
0.0558538 0.0376739 0.025 -1.29779e+06
0.0572012 0.0385827 0.025 -1.29579e+06
0.0585766 0.0395104 0.025 -1.29355e+06
0.0599804 0.0404573 0.025 -1.30193e+06
0.061413 0.0414236 0.025 -1.288e+06
0.0628748 0.0424096 0.025 -1.3161e+06
0.0643665 0.0434157 0.025 -1.31928e+06
0.0658883 0.0444422 0.025 -1.29502e+06
0.0674408 0.0454894 0.025 -1.28201e+06
0.0690245 0.0465576 0.025 -1.28245e+06
0.0706398 0.0476471 0.025 -1.27186e+06
0.0722871 0.0487582 0.025 -1.27025e+06
0.0739669 0.0498912 0.025 -1.26792e+06
0.0756797 0.0510466 0.025 -1.27688e+06
0.0774258 0.0522244 0.025 -1.28651e+06
0.0792059 0.053425 0.025 -1.27739e+06
0.0810203 0.0546489 0.025 -1.29891e+06
0.0828694 0.0558961 0.025 -1.27031e+06
0.0847537 0.0571671 0.025 -1.31537e+06
0.0866737 0.0584622 0.025 -1.27613e+06
0.0886298 0.0597816 0.025 -1.27708e+06
0.0906224 0.0611256 0.025 -1.28768e+06
0.0926518 0.0624944 0.025 -1.25324e+06
0.0947185 0.0638884 0.025 -1.29534e+06
0.096823 0.065308 0.025 -1.25305e+06
0.0989659 0.0667532 0.025 -1.33743e+06
0.101147 0.0682245 0.025 -1.67784e+06
0.103367 0.0697219 0.025 -1.57962e+06
0.105626 0.0712458 0.025 -1.19067e+06
0.107926 0.0727965 0.025 -1.18864e+06
0.110265 0.074374 0.025 -1.23149e+06
0.112644 0.0759789 0.025 -1.84841e+06
0.115063 0.0776111 0.025 -1.25335e+06
0.117524 0.0792709 0.025 -1.73826e+06
0.120026 0.0809585 0.025 -1.90419e+06
0.122569 0.0826741 0.025 -1.67985e+06
0.125155 0.0844179 0.025 -1.49277e+06
0.127782 0.0861901 0.025 -1.28873e+06
0.130451 0.0879908 0.025 -1.24406e+06
0.133163 0.08982 0.025 -1.21922e+06
0.135918 0.0916781 0.025 -1.1919e+06
0.138716 0.0935651 0.025 -1.19314e+06
0.141556 0.095481 0.025 -1.20327e+06
0.14444 0.097426 0.025 -1.58335e+06
0.147367 0.0994004 0.025 -2.35145e+06
0.150337 0.101404 0.025 -1.66388e+06
0.153351 0.103437 0.025 -1.61202e+06
0.156408 0.105498 0.025 -2.25442e+06
0.159508 0.107589 0.025 -1.02468e+06
0.162651 0.10971 0.025 -1.51042e+06
0.165838 0.111859 0.025 -3.60974e+06
0.169069 0.114039 0.025 -1.61349e+06
0.172343 0.116247 0.025 -1.97483e+06
0.175659 0.118483 0.025 -1.87188e+06
0.179018 0.120749 0.025 -1.86885e+06
0.182421 0.123045 0.025 -1.9347e+06
0.185866 0.125368 0.025 -1.69802e+06
0.189353 0.12772 0.025 -1.7356e+06
0.192882 0.1301 0.025 -1.84145e+06
0.196453 0.132509 0.025 -1.74278e+06
0.200065 0.134946 0.025 -2.14508e+06
0.203718 0.13741 0.025 -1.94308e+06
0.207412 0.139901 0.025 -924322
0.211146 0.14242 0.025 -986891
0.214919 0.144965 0.025 -1.61365e+06
0.218732 0.147537 0.025 -987196
0.222583 0.150134 0.025 -1.94009e+06
0.226472 0.152757 0.025 -977559
0.230399 0.155406 0.025 -1.82844e+06
0.234362 0.15808 0.025 -1.72409e+06
0.238362 0.160777 0.025 -2.35619e+06
0.242396 0.163498 0.025 -1.95454e+06
0.246466 0.166244 0.025 -2.11335e+06
0.250569 0.169012 0.025 -931943
0.254706 0.171801 0.025 -1.53111e+06
0.258874 0.174613 0.025 -1.53237e+06
0.263074 0.177446 0.025 -1.94995e+06
0.267304 0.180299 0.025 -1.57609e+06
0.271564 0.183172 0.025 -947534
0.275852 0.186064 0.025 -1.62237e+06
0.280168 0.188975 0.025 -924238
0.28451 0.191904 0.025 -1.64904e+06
0.288876 0.19485 0.025 -2.27546e+06
0.293268 0.197812 0.025 -1.6064e+06
0.297683 0.20079 0.025 -1.91385e+06
0.302119 0.203782 0.025 -2.24268e+06
0.306577 0.206788 0.025 -1.4688e+06
0.311054 0.209808 0.025 -1.58458e+06
0.315549 0.212841 0.025 -1.16339e+06
0.320063 0.215885 0.025 -2.01577e+06
0.324591 0.218939 0.025 -1.42381e+06
0.329134 0.222003 0.025 -1.40902e+06
0.333691 0.225077 0.025 -2.21544e+06
0.33826 0.228159 0.025 -1.78196e+06
0.342839 0.231248 0.025 -1.828e+06
0.347428 0.234343 0.025 -873883
0.352025 0.237444 0.025 -1.92621e+06
0.356628 0.240548 0.025 -1.41022e+06
0.361237 0.243658 0.025 -1.15377e+06
0.36585 0.246769 0.025 -2.55759e+06
0.370465 0.249882 0.025 -1.02418e+06
0.375082 0.252996 0.025 -1.44593e+06
0.379698 0.25611 0.025 -2.60063e+06
0.384313 0.259223 0.025 -1.39782e+06
0.388926 0.262333 0.025 -1.705e+06
0.393534 0.265442 0.025 -1.40521e+06
0.398136 0.268546 0.025 -879440
0.40273 0.271645 0.025 -1.62212e+06
0.407317 0.274739 0.025 -1.6773e+06
0.411894 0.277826 0.025 -2.12136e+06
0.41646 0.280906 0.025 -835844
0.421014 0.283977 0.025 -1.58679e+06
0.425554 0.28704 0.025 -1.85604e+06
0.430079 0.290092 0.025 -1.47902e+06
0.434588 0.293133 0.025 -1.81081e+06
0.439079 0.296162 0.025 -1.27561e+06
0.443551 0.299179 0.025 -1.6554e+06
0.448004 0.302183 0.025 -1.686e+06
0.452437 0.305172 0.025 -1.64593e+06
0.456846 0.308146 0.025 -1.52957e+06
0.461232 0.311105 0.025 -1.55556e+06
0.465593 0.314047 0.025 -1.44145e+06
0.469929 0.316971 0.025 -1.91432e+06
0.474238 0.319878 0.025 -990566
0.47852 0.322766 0.025 -1.10922e+06
0.482773 0.325635 0.025 -880367
0.486996 0.328483 0.025 -1.32198e+06
0.491189 0.331311 0.025 -2.01149e+06
0.49535 0.334118 0.025 -1.28248e+06
