# p  FACE_DATA 276
# x  y  z  p
-1.89807 0 0.0105 22146.5
-1.81671 0 0.0105 22007.2
-1.74016 0 0.0105 22079.3
-1.66815 0 0.0105 22140.8
-1.6004 0 0.0105 22143.8
-1.53666 0 0.0105 22141.2
-1.47668 0 0.0105 22136.4
-1.42024 0 0.0105 22131
-1.36711 0 0.0105 22126.8
-1.31712 0 0.0105 22122.9
-1.27005 0 0.0105 22120.5
-1.22575 0 0.0105 22117.5
-1.18403 0 0.0105 22114.1
-1.14475 0 0.0105 22111.1
-1.10775 0 0.0105 22109.5
-1.07289 0 0.0105 22108.1
-1.04005 0 0.0105 22106.9
-1.0091 0 0.0105 22105.4
-0.979914 0 0.0105 22104.1
-0.952392 0 0.0105 22102.6
-0.926429 0 0.0105 22101.9
-0.901924 0 0.0105 22102.2
-0.878785 0 0.0105 22104.1
-0.856927 0 0.0105 22106.8
-0.836265 0 0.0105 22111.1
-0.816722 0 0.0105 22116.7
-0.798224 0 0.0105 22123.6
-0.780701 0 0.0105 22132.1
-0.764088 0 0.0105 22142.2
-0.74832 0 0.0105 22153.8
-0.733339 0 0.0105 22166.9
-0.719089 0 0.0105 22181.4
-0.705515 0 0.0105 22197.2
-0.692565 0 0.0105 22214
-0.680192 0 0.0105 22231.7
-0.668349 0 0.0105 22250.1
-0.65699 0 0.0105 22269.2
-0.646073 0 0.0105 22288.8
-0.635557 0 0.0105 22308.6
-0.6254 0 0.0105 22328.5
-0.615568 0 0.0105 22348.3
-0.60602 0 0.0105 22368.1
-0.596721 0 0.0105 22387.8
-0.587638 0 0.0105 22407.2
-0.578734 0 0.0105 22426.1
-0.569975 0 0.0105 22444.5
-0.56133 0 0.0105 22462.5
-0.552766 0 0.0105 22480.3
-0.54425 0 0.0105 22497.7
-0.535841 0 0.0105 22514.6
-0.527746 0 0.0105 22530.5
-0.52008 0 0.0105 22545.1
-0.512816 0 0.0105 22558.5
-0.50593 0 0.0105 22570.7
-0.499397 0 0.0105 22581.9
-0.493195 0 0.0105 22592.2
-0.487302 0 0.0105 22601.8
-0.481698 0 0.0105 22610.6
-0.476362 0 0.0105 22618.8
-0.471278 0 0.0105 22626.4
-0.466428 0 0.0105 22633.4
-0.461793 0 0.0105 22639.9
-0.457359 0 0.0105 22646
-0.45311 0 0.0105 22651.7
-0.449029 0 0.0105 22657
-0.445105 0 0.0105 22661.9
-0.441325 0 0.0105 22666.6
-0.437672 0 0.0105 22671
-0.434136 0 0.0105 22675.2
-0.430704 0 0.0105 22679.2
-0.427365 0 0.0105 22682.9
-0.424106 0 0.0105 22686.5
-0.420917 0 0.0105 22690
-0.417786 0 0.0105 22693.3
-0.414702 0 0.0105 22696.5
-0.411656 0 0.0105 22699.6
-0.408635 0 0.0105 22702.1
-0.405629 0 0.0105 22705.4
-0.402629 0 0.0105 22708.6
-0.399629 0 0.0105 22711.5
-0.396628 0 0.0105 22714.4
-0.393628 0 0.0105 22717.1
-0.390626 0 0.0105 22719.6
-0.387625 0 0.0105 22721.9
-0.384621 0 0.0105 22724
-0.381618 0 0.0105 22726
-0.378613 0 0.0105 22728
-0.375606 0 0.0105 22730
-0.372597 0 0.0105 22732.1
-0.369588 0 0.0105 22734.2
-0.366577 0 0.0105 22736.2
-0.363563 0 0.0105 22738.2
-0.360546 0 0.0105 22740.3
-0.357529 0 0.0105 22742.3
-0.354508 0 0.0105 22744.3
-0.351485 0 0.0105 22746.1
-0.348458 0 0.0105 22747.8
-0.345429 0 0.0105 22749.4
-0.342397 0 0.0105 22750.7
-0.339361 0 0.0105 22752
-0.336321 0 0.0105 22753.2
-0.333279 0 0.0105 22754.3
-0.330233 0 0.0105 22755.3
-0.327182 0 0.0105 22756.4
-0.324126 0 0.0105 22757.4
-0.321068 0 0.0105 22758.4
-0.318004 0 0.0105 22759.3
-0.314936 0 0.0105 22760.2
-0.311863 0 0.0105 22761.1
-0.308785 0 0.0105 22761.9
-0.305702 0 0.0105 22762.8
-0.302614 0 0.0105 22763.6
-0.299519 0 0.0105 22764.4
-0.29642 0 0.0105 22765.1
-0.293315 0 0.0105 22765.8
-0.290203 0 0.0105 22766.3
-0.287086 0 0.0105 22766.8
-0.283963 0 0.0105 22767.3
-0.280832 0 0.0105 22767.8
-0.277695 0 0.0105 22768.3
-0.274551 0 0.0105 22768.8
-0.271401 0 0.0105 22769.2
-0.268244 0 0.0105 22769.5
-0.265079 0 0.0105 22769.7
-0.261906 0 0.0105 22769.9
-0.258725 0 0.0105 22770
-0.255537 0 0.0105 22770
-0.252341 0 0.0105 22770
-0.249137 0 0.0105 22769.9
-0.245924 0 0.0105 22769.7
-0.242703 0 0.0105 22769.6
-0.239474 0 0.0105 22769.5
-0.236236 0 0.0105 22769.3
-0.232987 0 0.0105 22769.1
-0.22973 0 0.0105 22768.9
-0.226464 0 0.0105 22768.7
-0.223189 0 0.0105 22768.5
-0.219903 0 0.0105 22768.3
-0.216607 0 0.0105 22768.1
-0.213302 0 0.0105 22768
-0.209985 0 0.0105 22767.8
-0.20666 0 0.0105 22767.5
-0.203323 0 0.0105 22767.2
-0.199974 0 0.0105 22766.7
-0.196616 0 0.0105 22766.3
-0.193246 0 0.0105 22765.8
-0.189864 0 0.0105 22765.4
-0.186472 0 0.0105 22764.9
-0.183068 0 0.0105 22764.4
-0.179651 0 0.0105 22763.8
-0.176222 0 0.0105 22763.1
-0.172781 0 0.0105 22762.4
-0.169328 0 0.0105 22761.6
-0.165862 0 0.0105 22760.8
-0.162383 0 0.0105 22760.3
-0.158892 0 0.0105 22758.7
-0.155387 0 0.0105 22761.6
-0.151868 0 0.0105 22749.7
-0.148337 0 0.0105 22901.2
-0.14479 0 0.0105 28542.7
-0.141231 0 0.0105 41451.9
-0.137658 0 0.0105 46249.6
-0.134069 0 0.0105 48208.4
-0.130466 0 0.0105 49368.3
-0.126849 0 0.0105 50106.1
-0.123216 0 0.0105 50672.9
-0.119568 0 0.0105 51158.6
-0.115906 0 0.0105 51596.5
-0.112228 0 0.0105 51969.5
-0.108534 0 0.0105 52358
-0.104824 0 0.0105 52721.1
-0.101098 0 0.0105 53060.4
-0.097355 0 0.0105 53375.6
-0.0935961 0 0.0105 53687.5
-0.0898204 0 0.0105 53985.9
-0.0860278 0 0.0105 54265.4
-0.0822181 0 0.0105 54528.6
-0.0783911 0 0.0105 54776.6
-0.0745465 0 0.0105 55009.2
-0.0706841 0 0.0105 55220.4
-0.0668039 0 0.0105 55399.4
-0.0629054 0 0.0105 55529.5
-0.0589886 0 0.0105 55603.4
-0.0550531 0 0.0105 55612.1
-0.0510989 0 0.0105 55568
-0.0471257 0 0.0105 55472.7
-0.0431332 0 0.0105 55460
-0.0391214 0 0.0105 55716.6
-0.0350898 0 0.0105 56264.1
-0.0310384 0 0.0105 56864.7
-0.0269669 0 0.0105 57591.6
-0.0228751 0 0.0105 58442.4
-0.0187628 0 0.0105 59422
-0.0146297 0 0.0105 60513.3
-0.0104756 0 0.0105 61714.6
-0.00630039 0 0.0105 63006.9
-0.00210372 0 0.0105 64357.1
0.00158228 0 0.0105 65654.2
0.00474683 0 0.0105 66777.2
0.00791139 0 0.0105 67961.8
0.0110759 0 0.0105 69179.2
0.0142405 0 0.0105 70429.2
0.017405 0 0.0105 71706.3
0.0205696 0 0.0105 73007.5
0.0237342 0 0.0105 74327.3
0.0268988 0 0.0105 75662.4
0.0300633 0 0.0105 77006.8
0.0332279 0 0.0105 78356.5
0.0363924 0 0.0105 79703.3
0.039557 0 0.0105 81041.2
0.0427215 0 0.0105 82366
0.0458861 0 0.0105 83674.3
0.0490507 0 0.0105 84960.6
0.0522152 0 0.0105 86221.5
0.0553798 0 0.0105 87454.2
0.0585443 0 0.0105 88655.5
0.0617089 0 0.0105 89821.6
0.0648734 0 0.0105 90951.9
0.068038 0 0.0105 92044.1
0.0712026 0 0.0105 93097.6
0.0743671 0 0.0105 94115.8
0.0775317 0 0.0105 95102.4
0.0806962 0 0.0105 96059.9
0.0838607 0 0.0105 96990.2
0.0870253 0 0.0105 97893.8
0.0901899 0 0.0105 98769.2
0.0933545 0 0.0105 99613.8
0.096519 0 0.0105 100424
0.0996836 0 0.0105 101196
0.102848 0 0.0105 101931
0.106012 0 0.0105 102626
0.109177 0 0.0105 103285
0.112341 0 0.0105 103908
0.115506 0 0.0105 104499
0.118671 0 0.0105 105060
0.121835 0 0.0105 105594
0.125 0 0.0105 106105
0.128164 0 0.0105 106597
0.131329 0 0.0105 107073
0.134493 0 0.0105 107534
0.137658 0 0.0105 107980
0.140823 0 0.0105 108403
0.143987 0 0.0105 108792
0.147152 0 0.0105 109129
0.150316 0 0.0105 109378
0.153481 0 0.0105 109523
0.156645 0 0.0105 109520
0.15981 0 0.0105 109103
0.162975 0 0.0105 108850
0.166139 0 0.0105 108363
0.169304 0 0.0105 107783
0.172468 0 0.0105 107000
0.175633 0 0.0105 106026
0.178797 0 0.0105 104914
0.181962 0 0.0105 103691
0.185126 0 0.0105 102375
0.188291 0 0.0105 100981
0.191455 0 0.0105 99527.6
0.19462 0 0.0105 98029.9
0.197785 0 0.0105 96496.6
0.20095 0 0.0105 94933.6
0.204114 0 0.0105 93349.4
0.207278 0 0.0105 91747.9
0.210443 0 0.0105 90134.2
0.213607 0 0.0105 88514.2
0.216772 0 0.0105 86893.7
0.219936 0 0.0105 85277.7
0.223101 0 0.0105 83670.9
0.226266 0 0.0105 82077
0.22943 0 0.0105 80498.4
0.232595 0 0.0105 78938.3
0.235759 0 0.0105 77397.9
0.238924 0 0.0105 75884.1
0.242088 0 0.0105 74372
0.245253 0 0.0105 72967.5
0.248417 0 0.0105 70904.7
