# wallShearStress  FACE_DATA 276
# x  y  z  wallShearStress_x  wallShearStress_y  wallShearStress_z
-1.89807 0 0.0105 -143.034 -0.542532 6.90106e-17
-1.81671 0 0.0105 -94.7141 0.000772095 -1.55293e-17
-1.74016 0 0.0105 -166.622 0.00136989 1.20164e-20
-1.66815 0 0.0105 -179.748 0.000859359 4.00548e-21
-1.6004 0 0.0105 -179.765 -0.00128789 8.01096e-21
-1.53666 0 0.0105 -177.596 0.000746355 1.60219e-19
-1.47668 0 0.0105 -175.082 0.00108121 1.60219e-20
-1.42024 0 0.0105 -172.728 0.000846597 0
-1.36711 0 0.0105 -170.602 0.000782612 -2.40329e-20
-1.31712 0 0.0105 -168.716 0.000896939 -2.40329e-20
-1.27005 0 0.0105 -167.052 0.00084725 0
-1.22575 0 0.0105 -165.582 0.00100026 -8.01096e-21
-1.18403 0 0.0105 -164.271 0.000927206 -8.01096e-21
-1.14475 0 0.0105 -163.093 0.000944214 -2.40329e-20
-1.10775 0 0.0105 -162.038 0.000887722 8.01096e-21
-1.07289 0 0.0105 -161.086 0.00091739 -1.60219e-20
-1.04005 0 0.0105 -160.223 0.000884856 -2.40329e-20
-1.0091 0 0.0105 -159.431 0.000899067 -3.20439e-20
-0.979914 0 0.0105 -158.702 0.00088237 4.80658e-20
-0.952392 0 0.0105 -158.023 0.000795069 1.60219e-20
-0.926429 0 0.0105 -157.396 0.000765614 8.01096e-21
-0.901924 0 0.0105 -156.824 0.000805381 -8.01096e-21
-0.878785 0 0.0105 -156.298 0.00083788 3.20439e-20
-0.856927 0 0.0105 -155.819 0.000887058 1.60219e-20
-0.836265 0 0.0105 -155.382 0.00091959 4.80658e-20
-0.816722 0 0.0105 -154.982 0.000913993 0
-0.798224 0 0.0105 -154.615 0.000892523 4.80658e-20
-0.780701 0 0.0105 -154.28 0.000929728 3.20439e-20
-0.764088 0 0.0105 -153.976 0.000938053 4.80658e-20
-0.74832 0 0.0105 -153.699 0.000925869 -3.20439e-20
-0.733339 0 0.0105 -153.447 0.00098774 1.28175e-19
-0.719089 0 0.0105 -153.22 0.00105153 -6.40877e-20
-0.705515 0 0.0105 -153.015 0.00100672 -3.20439e-20
-0.692565 0 0.0105 -152.829 0.00108438 9.61316e-20
-0.680192 0 0.0105 -152.661 0.0011207 -3.20439e-20
-0.668349 0 0.0105 -152.508 0.00110167 6.40877e-20
-0.65699 0 0.0105 -152.37 0.00121491 0
-0.646073 0 0.0105 -152.246 0.00123191 2.24307e-19
-0.635557 0 0.0105 -152.132 0.0012823 6.40877e-20
-0.6254 0 0.0105 -152.026 0.00128052 -9.61316e-20
-0.615568 0 0.0105 -151.928 0.00135779 4.1657e-19
-0.60602 0 0.0105 -151.839 0.00144818 1.28175e-19
-0.596721 0 0.0105 -151.755 0.00147065 -1.92263e-19
-0.587638 0 0.0105 -151.676 0.00140636 0
-0.578734 0 0.0105 -151.599 0.00135647 -6.40877e-20
-0.569975 0 0.0105 -151.524 0.00136522 -6.40877e-20
-0.56133 0 0.0105 -151.453 0.00141609 1.92263e-19
-0.552766 0 0.0105 -151.384 0.00151623 5.12702e-19
-0.54425 0 0.0105 -151.317 0.00157777 -1.92263e-19
-0.535841 0 0.0105 -151.252 0.00154267 -1.92263e-19
-0.527746 0 0.0105 -151.188 0.0015358 -6.40877e-20
-0.52008 0 0.0105 -151.128 0.00150862 -1.92263e-19
-0.512816 0 0.0105 -151.07 0.00137971 -6.40877e-20
-0.50593 0 0.0105 -151.014 0.0014095 1.28175e-19
-0.499397 0 0.0105 -150.96 0.00145095 -2.56351e-19
-0.493195 0 0.0105 -150.909 0.00149937 -6.40877e-20
-0.487302 0 0.0105 -150.86 0.00146459 3.20439e-19
-0.481698 0 0.0105 -150.814 0.00154841 -8.3314e-19
-0.476362 0 0.0105 -150.769 0.00157762 2.56351e-19
-0.471278 0 0.0105 -150.726 0.00153204 2.56351e-19
-0.466428 0 0.0105 -150.684 0.0014708 1.28175e-19
-0.461793 0 0.0105 -150.644 0.00151229 -3.84526e-19
-0.457359 0 0.0105 -150.605 0.00151039 -3.84526e-19
-0.45311 0 0.0105 -150.567 0.00151939 0
-0.449029 0 0.0105 -150.531 0.00152288 3.84526e-19
-0.445105 0 0.0105 -150.496 0.00153254 5.12702e-19
-0.441325 0 0.0105 -150.462 0.00150952 3.84526e-19
-0.437672 0 0.0105 -150.428 0.0015348 -5.12702e-19
-0.434136 0 0.0105 -150.397 0.00154499 -5.12702e-19
-0.430704 0 0.0105 -150.365 0.0015572 1.28175e-19
-0.427365 0 0.0105 -150.334 0.0015633 0
-0.424106 0 0.0105 -150.304 0.00156975 1.28175e-19
-0.420917 0 0.0105 -150.275 0.00158809 0
-0.417786 0 0.0105 -150.245 0.00162928 -7.69052e-19
-0.414702 0 0.0105 -150.217 0.0016885 -1.66628e-18
-0.411656 0 0.0105 -150.19 0.00172746 6.40877e-19
-0.408635 0 0.0105 -150.161 0.00176634 -7.69052e-19
-0.405629 0 0.0105 -150.133 0.00175909 -2.56351e-19
-0.402629 0 0.0105 -150.088 0.00172917 -7.69052e-19
-0.399629 0 0.0105 -150.056 0.00172873 -2.56351e-19
-0.396628 0 0.0105 -150.028 0.00175748 -2.56351e-19
-0.393628 0 0.0105 -150.003 0.00176337 2.56351e-19
-0.390626 0 0.0105 -149.976 0.00175478 1.28175e-19
-0.387625 0 0.0105 -149.948 0.00172667 6.40877e-19
-0.384621 0 0.0105 -149.92 0.00165728 5.12702e-19
-0.381618 0 0.0105 -149.891 0.00167405 -2.56351e-19
-0.378613 0 0.0105 -149.861 0.00164617 1.28175e-19
-0.375606 0 0.0105 -149.829 0.00163725 -5.12702e-19
-0.372597 0 0.0105 -149.8 0.00163348 2.56351e-19
-0.369588 0 0.0105 -149.77 0.00165164 -1.28175e-19
-0.366577 0 0.0105 -149.739 0.00169249 0
-0.363563 0 0.0105 -149.711 0.00174896 1.5381e-18
-0.360546 0 0.0105 -149.684 0.00191151 7.69052e-19
-0.357529 0 0.0105 -149.654 0.00198148 -5.12702e-19
-0.354508 0 0.0105 -149.624 0.002005 -2.56351e-19
-0.351485 0 0.0105 -149.594 0.00197968 -5.12702e-19
-0.348458 0 0.0105 -149.566 0.0019421 2.30716e-18
-0.345429 0 0.0105 -149.537 0.00181044 0
-0.342397 0 0.0105 -149.504 0.00180822 2.56351e-19
-0.339361 0 0.0105 -149.473 0.00181081 2.56351e-19
-0.336321 0 0.0105 -149.442 0.00180443 -5.12702e-19
-0.333279 0 0.0105 -149.409 0.00182274 -2.56351e-19
-0.330233 0 0.0105 -149.375 0.00186242 5.12702e-19
-0.327182 0 0.0105 -149.343 0.0018661 0
-0.324126 0 0.0105 -149.311 0.00188118 -2.56351e-19
-0.321068 0 0.0105 -149.278 0.00188988 0
-0.318004 0 0.0105 -149.243 0.00189827 0
-0.314936 0 0.0105 -149.209 0.00192204 0
-0.311863 0 0.0105 -149.175 0.0019485 1.0254e-18
-0.308785 0 0.0105 -149.14 0.00204789 -1.0254e-18
-0.305702 0 0.0105 -149.106 0.00201846 -2.56351e-19
-0.302614 0 0.0105 -149.072 0.00205713 2.56351e-19
-0.299519 0 0.0105 -149.038 0.00206211 5.12702e-19
-0.29642 0 0.0105 -149.003 0.00204562 -2.56351e-19
-0.293315 0 0.0105 -148.965 0.00202404 -2.56351e-19
-0.290203 0 0.0105 -148.93 0.00199771 -2.56351e-19
-0.287086 0 0.0105 -148.895 0.00200457 5.12702e-19
-0.283963 0 0.0105 -148.857 0.00203926 -2.56351e-19
-0.280832 0 0.0105 -148.819 0.00206071 2.56351e-19
-0.277695 0 0.0105 -148.783 0.00207821 -5.12702e-19
-0.274551 0 0.0105 -148.749 0.00209906 0
-0.271401 0 0.0105 -148.711 0.00210325 -1.0254e-18
-0.268244 0 0.0105 -148.672 0.00208287 5.12702e-19
-0.265079 0 0.0105 -148.633 0.0020571 0
-0.261906 0 0.0105 -148.595 0.00205146 -2.56351e-19
-0.258725 0 0.0105 -148.555 0.00202728 -2.56351e-19
-0.255537 0 0.0105 -148.515 0.00202422 -2.56351e-19
-0.252341 0 0.0105 -148.474 0.00201735 -5.12702e-19
-0.249137 0 0.0105 -148.435 0.00203275 -5.12702e-19
-0.245924 0 0.0105 -148.395 0.00203291 2.56351e-19
-0.242703 0 0.0105 -148.355 0.00206654 -2.56351e-19
-0.239474 0 0.0105 -148.316 0.00207013 -5.12702e-19
-0.236236 0 0.0105 -148.275 0.0020659 -2.56351e-19
-0.232987 0 0.0105 -148.231 0.00207424 0
-0.22973 0 0.0105 -148.191 0.00207218 5.12702e-19
-0.226464 0 0.0105 -148.152 0.00206526 0
-0.223189 0 0.0105 -148.111 0.00208854 -2.56351e-19
-0.219903 0 0.0105 -148.067 0.00211046 -2.56351e-19
-0.216607 0 0.0105 -148.025 0.00216361 2.56351e-19
-0.213302 0 0.0105 -147.982 0.00219068 -2.56351e-19
-0.209985 0 0.0105 -147.938 0.00220023 7.69052e-19
-0.20666 0 0.0105 -147.897 0.00222964 -2.56351e-19
-0.203323 0 0.0105 -147.854 0.00212183 -7.69052e-19
-0.199974 0 0.0105 -147.811 0.00209469 0
-0.196616 0 0.0105 -147.767 0.00208957 5.12702e-19
-0.193246 0 0.0105 -147.72 0.00209136 -2.56351e-19
-0.189864 0 0.0105 -147.672 0.00209095 7.69052e-19
-0.186472 0 0.0105 -147.631 0.00209596 0
-0.183068 0 0.0105 -147.588 0.00208631 2.56351e-19
-0.179651 0 0.0105 -147.543 0.00206076 0
-0.176222 0 0.0105 -147.498 0.00202836 2.56351e-19
-0.172781 0 0.0105 -147.453 0.0020033 1.28175e-19
-0.169328 0 0.0105 -147.403 0.00199259 0
-0.165862 0 0.0105 -147.355 0.00197714 0
-0.162383 0 0.0105 -147.31 0.00221731 2.56351e-19
-0.158892 0 0.0105 -147.253 0.00164942 5.12702e-19
-0.155387 0 0.0105 -147.251 0.00281808 -2.56351e-19
-0.151868 0 0.0105 -147.143 0.00122443 -2.74424e-16
-0.148337 0 0.0105 -140.179 0.0906864 -3.53559e-15
-0.14479 0 0.0105 -55.2015 2.02329 3.01879e-15
-0.141231 0 0.0105 35.2302 1.67554 1.31252e-15
-0.137658 0 0.0105 34.5869 0.07059 -3.03519e-15
-0.134069 0 0.0105 31.6763 0.0667894 9.84387e-17
-0.130466 0 0.0105 30.3925 0.0190071 -6.97274e-17
-0.126849 0 0.0105 29.6432 0.0243058 9.63879e-17
-0.123216 0 0.0105 29.2072 -0.0496684 1.76369e-16
-0.119568 0 0.0105 29.1112 -0.100608 -9.84387e-17
-0.115906 0 0.0105 29.471 -0.118576 -8.20323e-18
-0.112228 0 0.0105 29.9476 -0.0830186 -1.64065e-17
-0.108534 0 0.0105 30.4753 -0.0940334 2.46097e-17
-0.104824 0 0.0105 30.9949 -0.0782463 4.10161e-17
-0.101098 0 0.0105 31.4512 -0.0324471 1.0254e-17
-0.097355 0 0.0105 31.7816 0.00233193 6.92147e-18
-0.0935961 0 0.0105 32.0017 0.0237661 6.97274e-17
-0.0898204 0 0.0105 32.1545 0.0308908 6.15242e-18
-0.0860278 0 0.0105 32.2637 0.0282815 -4.10161e-18
-0.0822181 0 0.0105 32.3265 0.0307882 -1.0254e-17
-0.0783911 0 0.0105 32.3505 0.0419352 -5.3321e-17
-0.0745465 0 0.0105 32.3541 0.0626642 -1.23048e-17
-0.0706841 0 0.0105 32.3789 0.0906507 -8.20323e-18
-0.0668039 0 0.0105 32.526 0.120297 4.10161e-17
-0.0629054 0 0.0105 33.0511 0.14577 7.3829e-17
-0.0589886 0 0.0105 34.2732 0.162744 -1.64065e-17
-0.0550531 0 0.0105 36.8408 0.174259 4.92194e-17
-0.0510989 0 0.0105 40.7982 0.195741 0
-0.0471257 0 0.0105 46.5186 0.212834 0
-0.0431332 0 0.0105 53.4209 0.275809 8.20323e-17
-0.0391214 0 0.0105 60.443 0.295878 -4.92194e-17
-0.0350898 0 0.0105 65.1551 0.294319 -3.28129e-17
-0.0310384 0 0.0105 68.1311 0.289372 4.92194e-17
-0.0269669 0 0.0105 70.695 0.287781 1.64065e-17
-0.0228751 0 0.0105 72.6393 0.281315 9.84387e-17
-0.0187628 0 0.0105 73.8211 0.267696 3.28129e-17
-0.0146297 0 0.0105 74.2682 0.255838 1.64065e-17
-0.0104756 0 0.0105 73.9695 0.24525 3.28129e-17
-0.00630039 0 0.0105 72.7817 0.225073 1.64065e-17
-0.00210372 0 0.0105 70.979 0.19004 -1.64065e-17
0.00158228 0 0.0105 68.876 0.152182 1.64065e-17
0.00474683 0 0.0105 66.3661 0.113009 -1.64065e-17
0.00791139 0 0.0105 63.4327 0.0702657 -2.46097e-17
0.0110759 0 0.0105 59.9655 0.0328148 3.28129e-17
0.0142405 0 0.0105 56.015 -0.00915351 0
0.017405 0 0.0105 51.5937 -0.0439227 -4.10161e-18
0.0205696 0 0.0105 46.735 -0.0693451 3.28129e-17
0.0237342 0 0.0105 41.4711 -0.0858164 1.64065e-17
0.0268988 0 0.0105 35.832 -0.0913744 2.46097e-17
0.0300633 0 0.0105 29.8298 -0.0861101 0
0.0332279 0 0.0105 23.4605 -0.07364 -2.46097e-17
0.0363924 0 0.0105 16.7265 -0.0482782 4.10161e-18
0.039557 0 0.0105 9.6444 -0.0134383 1.44582e-16
0.0427215 0 0.0105 2.23337 0.0411649 -4.10161e-18
0.0458861 0 0.0105 -5.48421 0.112557 3.28129e-17
0.0490507 0 0.0105 -13.4376 0.194064 -1.96877e-16
0.0522152 0 0.0105 -21.5592 0.271748 9.84387e-17
0.0553798 0 0.0105 -29.7923 0.33683 -1.31252e-16
0.0585443 0 0.0105 -38.0859 0.387 -6.56258e-17
0.0617089 0 0.0105 -46.3892 0.418197 0
0.0648734 0 0.0105 -54.6515 0.427886 -6.56258e-17
0.068038 0 0.0105 -62.8215 0.425515 -3.28129e-17
0.0712026 0 0.0105 -70.8498 0.404176 -3.28129e-17
0.0743671 0 0.0105 -78.6904 0.366555 9.84387e-17
0.0775317 0 0.0105 -86.3069 0.32071 2.2969e-16
0.0806962 0 0.0105 -93.6729 0.274106 1.31252e-16
0.0838607 0 0.0105 -100.77 0.232986 0
0.0870253 0 0.0105 -107.589 0.199475 4.92194e-17
0.0901899 0 0.0105 -114.13 0.173241 -6.56258e-17
0.0933545 0 0.0105 -120.397 0.148975 4.92194e-17
0.096519 0 0.0105 -126.401 0.118641 1.64065e-17
0.0996836 0 0.0105 -132.155 0.0754832 -3.36332e-16
0.102848 0 0.0105 -137.672 0.0182356 4.04009e-16
0.106012 0 0.0105 -142.971 -0.0547639 2.46097e-16
0.109177 0 0.0105 -148.078 -0.136147 2.2969e-16
0.112341 0 0.0105 -153.026 -0.214706 3.28129e-17
0.115506 0 0.0105 -157.859 -0.281301 9.84387e-17
0.118671 0 0.0105 -162.616 -0.32738 -9.84387e-17
0.121835 0 0.0105 -167.312 -0.346884 1.31252e-16
0.125 0 0.0105 -171.941 -0.335075 6.56258e-17
0.128164 0 0.0105 -176.473 -0.296342 -2.95316e-16
0.131329 0 0.0105 -180.869 -0.233524 -8.20323e-17
0.134493 0 0.0105 -185.094 -0.158912 4.92194e-17
0.137658 0 0.0105 -189.145 -0.0773549 -4.8399e-16
0.140823 0 0.0105 -193.05 0.00574408 5.12702e-19
0.143987 0 0.0105 -196.87 0.0738972 -8.20323e-18
0.147152 0 0.0105 -200.71 0.131474 0
0.150316 0 0.0105 -204.743 0.17756 -6.56258e-17
0.153481 0 0.0105 -209.289 0.269198 -3.28129e-16
0.156645 0 0.0105 -214.603 0.290531 -4.26568e-16
0.15981 0 0.0105 -220.448 0.154973 0
0.162975 0 0.0105 -225.246 0.135205 -1.14845e-16
0.166139 0 0.0105 -230.703 0.127365 -4.92194e-17
0.169304 0 0.0105 -236.105 0.113056 1.31252e-16
0.172468 0 0.0105 -242.093 0.0788643 2.13284e-16
0.175633 0 0.0105 -248.261 0.0311548 -8.20323e-18
0.178797 0 0.0105 -254.297 -0.0346596 7.50595e-16
0.181962 0 0.0105 -260.127 -0.0859077 -8.20323e-18
0.185126 0 0.0105 -265.672 -0.128799 4.92194e-17
0.188291 0 0.0105 -270.788 -0.164651 5.74226e-16
0.191455 0 0.0105 -275.448 -0.190019 -9.84387e-17
0.19462 0 0.0105 -279.67 -0.205776 1.31252e-16
0.197785 0 0.0105 -283.468 -0.213293 3.28129e-17
0.20095 0 0.0105 -286.844 -0.21326 1.64065e-17
0.204114 0 0.0105 -289.818 -0.208004 0
0.207278 0 0.0105 -292.407 -0.198196 -1.14845e-16
0.210443 0 0.0105 -294.594 -0.186753 -6.56258e-17
0.213607 0 0.0105 -296.418 -0.17367 -1.31252e-16
0.216772 0 0.0105 -297.903 -0.16053 -1.96877e-16
0.219936 0 0.0105 -299.067 -0.147102 3.28129e-17
0.223101 0 0.0105 -299.934 -0.134435 1.14845e-16
0.226266 0 0.0105 -300.526 -0.122064 -3.28129e-17
0.22943 0 0.0105 -300.859 -0.111094 1.64065e-17
0.232595 0 0.0105 -300.951 -0.101884 8.20323e-18
0.235759 0 0.0105 -300.811 -0.0934018 3.28129e-17
0.238924 0 0.0105 -300.478 -0.0861951 -5.74226e-17
0.242088 0 0.0105 -299.89 -0.0820318 0
0.245253 0 0.0105 -300.5 -0.0683696 1.64065e-17
0.248417 0 0.0105 -296.426 -0.0821921 7.39577e-17
