# wallHeatFlux  FACE_DATA 398
# x  y  z  wallHeatFlux
-0.7975 0 0.025 -653687
-0.79239 0 0.025 -120557
-0.787056 0 0.025 -69571.1
-0.781492 0 0.025 -55724.6
-0.775691 0 0.025 -51066.9
-0.769649 0 0.025 -53463.7
-0.763362 0 0.025 -55726.6
-0.756822 0 0.025 -56433.7
-0.750025 0 0.025 -56114.4
-0.742968 0 0.025 -55544.9
-0.735648 0 0.025 -54729.5
-0.72806 0 0.025 -53721.7
-0.720203 0 0.025 -52676.9
-0.712076 0 0.025 -51664.4
-0.703677 0 0.025 -50640.1
-0.695006 0 0.025 -49705.2
-0.686065 0 0.025 -48838.9
-0.676855 0 0.025 -48073.1
-0.667379 0 0.025 -47263.3
-0.65764 0 0.025 -46559.9
-0.647644 0 0.025 -45901.7
-0.637397 0 0.025 -45226.1
-0.626906 0 0.025 -44701
-0.616179 0 0.025 -44139.5
-0.605224 0 0.025 -43615.7
-0.594054 0 0.025 -43090
-0.582678 0 0.025 -42631
-0.57111 0 0.025 -42159.6
-0.559364 0 0.025 -41741
-0.547454 0 0.025 -41319.7
-0.535396 0 0.025 -40929.4
-0.523205 0 0.025 -40557
-0.510901 0 0.025 -40184.7
-0.4985 0 0.025 -39889.4
-0.486021 0 0.025 -39587.5
-0.473483 0 0.025 -39262.4
-0.460905 0 0.025 -38956.3
-0.448308 0 0.025 -38660.3
-0.435709 0 0.025 -38384.4
-0.42313 0 0.025 -38159.8
-0.41059 0 0.025 -37939.6
-0.39811 0 0.025 -37691.3
-0.385706 0 0.025 -37430.6
-0.373398 0 0.025 -37213
-0.361205 0 0.025 -37053.7
-0.349141 0 0.025 -36908.8
-0.337226 0 0.025 -36753
-0.325475 0 0.025 -36559.2
-0.313901 0 0.025 -36338.5
-0.30252 0 0.025 -36122.5
-0.291343 0 0.025 -35928.9
-0.280382 0 0.025 -35773
-0.269646 0 0.025 -35686
-0.259148 0 0.025 -35642.4
-0.248893 0 0.025 -35584
-0.23889 0 0.025 -35515.3
-0.229143 0 0.025 -35435.4
-0.219659 0 0.025 -35303.3
-0.210441 0 0.025 -35128.3
-0.201491 0 0.025 -34939.8
-0.192812 0 0.025 -34765.7
-0.184405 0 0.025 -34611.2
-0.176269 0 0.025 -34487.3
-0.168404 0 0.025 -34397
-0.160808 0 0.025 -34338.9
-0.15348 0 0.025 -34315.3
-0.146415 0 0.025 -34313.6
-0.13961 0 0.025 -34321.6
-0.133063 0 0.025 -34336.5
-0.126767 0 0.025 -34336
-0.120718 0 0.025 -34330.7
-0.11491 0 0.025 -34315.1
-0.109339 0 0.025 -34284.1
-0.103997 0 0.025 -34252.4
-0.0988805 0 0.025 -34202.6
-0.0939808 0 0.025 -34145.4
-0.0892928 0 0.025 -34083.9
-0.0848096 0 0.025 -34011.8
-0.0805248 0 0.025 -33940.1
-0.0764316 0 0.025 -33863.2
-0.0725237 0 0.025 -33791.7
-0.0687943 0 0.025 -33715.4
-0.065237 0 0.025 -33644
-0.0618454 0 0.025 -33573.4
-0.058613 0 0.025 -33512.8
-0.0555337 0 0.025 -33453
-0.0526013 0 0.025 -33398.1
-0.0498099 0 0.025 -33348.8
-0.0471536 0 0.025 -33304.8
-0.0446266 0 0.025 -33266.1
-0.0422235 0 0.025 -33232.9
-0.039939 0 0.025 -33108.5
-0.0377676 0 0.025 -31392.5
-0.0357044 0 0.025 -24344.9
-0.0337445 0 0.025 -20247.8
-0.0318832 0 0.025 -29571.6
-0.0301159 0 0.025 -39138.9
-0.0284383 0 0.025 -46301.4
-0.0268461 0 0.025 -52339.6
-0.0253353 0 0.025 -57762.7
-0.023902 0 0.025 -62463.1
-0.0225426 0 0.025 -66718.6
-0.0212532 0 0.025 -70387.8
-0.0200306 0 0.025 -73674.3
-0.0188715 0 0.025 -76651.5
-0.0177728 0 0.025 -79377.4
-0.0167313 0 0.025 -81862.7
-0.0157444 0 0.025 -84128.7
-0.0148092 0 0.025 -86147.1
-0.0139232 0 0.025 -87913.6
-0.0130838 0 0.025 -89432.4
-0.0122887 0 0.025 -90760.8
-0.0115356 0 0.025 -91944.8
-0.0108223 0 0.025 -93029.7
-0.0101469 0 0.025 -94045.6
-0.00950727 0 0.025 -95025.6
-0.00890168 0 0.025 -95985.3
-0.00832835 0 0.025 -96962.8
-0.00778557 0 0.025 -97985
-0.00727176 0 0.025 -99063.4
-0.0067854 0 0.025 -100224
-0.00632507 0 0.025 -101480
-0.00588937 0 0.025 -102847
-0.00547703 0 0.025 -104336
-0.0050868 0 0.025 -105964
-0.00471753 0 0.025 -107738
-0.0043681 0 0.025 -109680
-0.00403746 0 0.025 -111793
-0.00372461 0 0.025 -114062
-0.0034286 0 0.025 -116504
-0.00314855 0 0.025 -119134
-0.0028836 0 0.025 -121975
-0.00263294 0 0.025 -124962
-0.00239581 0 0.025 -127948
-0.0021715 0 0.025 -131140
-0.00195929 0 0.025 -134502
-0.00175856 0 0.025 -138020
-0.00156869 0 0.025 -141693
-0.00138908 0 0.025 -145536
-0.0012192 0 0.025 -149567
-0.00105853 0 0.025 -153671
-0.000906546 0 0.025 -157783
-0.000762803 0 0.025 -161715
-0.000626848 0 0.025 -165038
-0.000498265 0 0.025 -166601
-0.000376656 0 0.025 -164234
-0.000261642 0 0.025 -154221
-0.00015287 0 0.025 -130577
-5e-05 0 0.025 -79486.3
4.14519e-05 2.79596e-05 0.025 -50811.7
0.000125371 8.45641e-05 0.025 -62283.5
0.000211347 0.000142556 0.025 -76816.3
0.000299429 0.000201968 0.025 -87462.9
0.000389669 0.000262835 0.025 -96629.6
0.000482118 0.000325193 0.025 -106056
0.000576831 0.000389077 0.025 -115446
0.000673861 0.000454524 0.025 -124193
0.000773265 0.000521574 0.025 -132013
0.0008751 0.000590262 0.025 -138892
0.000979426 0.000660632 0.025 -144917
0.0010863 0.000732721 0.025 -150256
0.00119579 0.000806572 0.025 -155091
0.00130795 0.000882227 0.025 -159507
0.00142285 0.00095973 0.025 -163635
0.00154056 0.00103912 0.025 -167564
0.00166115 0.00112046 0.025 -171382
0.00178467 0.00120378 0.025 -175120
0.00191121 0.00128913 0.025 -178872
0.00204083 0.00137656 0.025 -182599
0.00217362 0.00146612 0.025 -186347
0.00230964 0.00155787 0.025 -190199
0.00244897 0.00165185 0.025 -194136
0.00259169 0.00174812 0.025 -198184
0.00273789 0.00184673 0.025 -202373
0.00288765 0.00194774 0.025 -206742
0.00304105 0.00205122 0.025 -211241
0.00319818 0.00215719 0.025 -215927
0.00335912 0.00226575 0.025 -220873
0.00352397 0.00237695 0.025 -226002
0.00369283 0.00249085 0.025 -231391
0.00386579 0.00260751 0.025 -237057
0.00404294 0.00272699 0.025 -243049
0.00422438 0.00284938 0.025 -249385
0.00441022 0.00297474 0.025 -256070
0.00460056 0.00310312 0.025 -263138
0.00479552 0.00323462 0.025 -270613
0.00499519 0.0033693 0.025 -278618
0.00519968 0.00350723 0.025 -287067
0.00540911 0.00364849 0.025 -296106
0.00562361 0.00379318 0.025 -305724
0.00584329 0.00394134 0.025 -316002
0.00606826 0.00409309 0.025 -327101
0.00629865 0.00424849 0.025 -338859
0.0065346 0.00440764 0.025 -351535
0.00677623 0.00457063 0.025 -365230
0.00702368 0.00473753 0.025 -379934
0.00727707 0.00490844 0.025 -395793
0.00753655 0.00508347 0.025 -412823
0.00780227 0.00526269 0.025 -431350
0.00807436 0.00544622 0.025 -451644
0.00835298 0.00563415 0.025 -473724
0.00863826 0.00582659 0.025 -497656
0.00893038 0.00602362 0.025 -524721
0.00922949 0.00622537 0.025 -553939
0.00953574 0.00643195 0.025 -585584
0.00984929 0.00664345 0.025 -626718
0.0101703 0.00686 0.025 -668512
0.0104991 0.00708171 0.025 -713613
0.0108356 0.00730871 0.025 -764593
0.0111801 0.0075411 0.025 -815541
0.0115329 0.00777902 0.025 -866371
0.011894 0.00802259 0.025 -918675
0.0122637 0.00827194 0.025 -973060
0.0126421 0.00852719 0.025 -1.02679e+06
0.0130295 0.0087885 0.025 -1.0804e+06
0.013426 0.00905597 0.025 -1.13771e+06
0.013832 0.00932978 0.025 -1.20022e+06
0.0142475 0.00961003 0.025 -1.26444e+06
0.0146727 0.0098969 0.025 -1.32874e+06
0.0151081 0.0101905 0.025 -1.39452e+06
0.0155536 0.010491 0.025 -1.46164e+06
0.0160097 0.0107986 0.025 -1.52266e+06
0.0164764 0.0111134 0.025 -1.58461e+06
0.016954 0.0114356 0.025 -1.6464e+06
0.0174427 0.0117653 0.025 -1.69367e+06
0.0179429 0.0121026 0.025 -1.73767e+06
0.0184548 0.0124479 0.025 -1.79693e+06
0.0189786 0.0128013 0.025 -1.81369e+06
0.0195146 0.0131628 0.025 -1.83452e+06
0.020063 0.0135327 0.025 -1.86931e+06
0.0206242 0.0139112 0.025 -1.87017e+06
0.0211983 0.0142984 0.025 -1.85985e+06
0.0217857 0.0146947 0.025 -1.86065e+06
0.0223867 0.0151 0.025 -1.85802e+06
0.0230015 0.0155147 0.025 -1.85186e+06
0.0236304 0.0159389 0.025 -1.85264e+06
0.0242738 0.0163729 0.025 -1.81464e+06
0.0249318 0.0168167 0.025 -1.78833e+06
0.025605 0.0172708 0.025 -1.75337e+06
0.0262935 0.0177352 0.025 -1.68748e+06
0.0269977 0.0182102 0.025 -1.62688e+06
0.0277178 0.0186959 0.025 -1.56762e+06
0.0284544 0.0191927 0.025 -1.56217e+06
0.0292075 0.0197008 0.025 -1.498e+06
0.0299777 0.0202203 0.025 -1.44602e+06
0.0307653 0.0207514 0.025 -1.40523e+06
0.0315704 0.0212945 0.025 -1.36724e+06
0.0323937 0.0218499 0.025 -1.33566e+06
0.0332354 0.0224176 0.025 -1.31127e+06
0.0340959 0.022998 0.025 -1.29405e+06
0.0349755 0.0235913 0.025 -1.27187e+06
0.0358747 0.0241978 0.025 -1.27015e+06
0.0367938 0.0248178 0.025 -1.24346e+06
0.0377331 0.0254513 0.025 -1.22718e+06
0.0386932 0.0260989 0.025 -1.22267e+06
0.0396743 0.0267606 0.025 -1.21521e+06
0.0406769 0.0274369 0.025 -1.20912e+06
0.0417013 0.0281279 0.025 -1.19654e+06
0.042748 0.0288339 0.025 -1.19795e+06
0.0438175 0.0295552 0.025 -1.18565e+06
0.04491 0.0302922 0.025 -1.17488e+06
0.0460262 0.031045 0.025 -1.17717e+06
0.0471662 0.031814 0.025 -1.18316e+06
0.0483306 0.0325995 0.025 -1.17091e+06
0.0495199 0.0334016 0.025 -1.16923e+06
0.0507344 0.0342208 0.025 -1.16699e+06
0.0519746 0.0350573 0.025 -1.16373e+06
0.0532409 0.0359114 0.025 -1.16809e+06
0.0545339 0.0367835 0.025 -1.15779e+06
0.0558538 0.0376739 0.025 -1.15143e+06
0.0572012 0.0385827 0.025 -1.14752e+06
0.0585766 0.0395104 0.025 -1.14348e+06
0.0599804 0.0404573 0.025 -1.15008e+06
0.061413 0.0414236 0.025 -1.13525e+06
0.0628748 0.0424096 0.025 -1.1531e+06
0.0643665 0.0434157 0.025 -1.15027e+06
0.0658883 0.0444422 0.025 -1.12698e+06
0.0674408 0.0454894 0.025 -1.11773e+06
0.0690245 0.0465576 0.025 -1.11545e+06
0.0706398 0.0476471 0.025 -1.10793e+06
0.0722871 0.0487582 0.025 -1.10058e+06
0.0739669 0.0498912 0.025 -1.09484e+06
0.0756797 0.0510466 0.025 -1.1005e+06
0.0774258 0.0522244 0.025 -1.1101e+06
0.0792059 0.053425 0.025 -1.10348e+06
0.0810203 0.0546489 0.025 -1.11948e+06
0.0828694 0.0558961 0.025 -1.09671e+06
0.0847537 0.0571671 0.025 -1.1254e+06
0.0866737 0.0584622 0.025 -1.09696e+06
0.0886298 0.0597816 0.025 -1.09811e+06
0.0906224 0.0611256 0.025 -1.10583e+06
0.0926518 0.0624944 0.025 -1.07571e+06
0.0947185 0.0638884 0.025 -1.10412e+06
0.096823 0.065308 0.025 -1.06804e+06
0.0989659 0.0667532 0.025 -1.12825e+06
0.101147 0.0682245 0.025 -1.38234e+06
0.103367 0.0697219 0.025 -1.32539e+06
0.105626 0.0712458 0.025 -1.03626e+06
0.107926 0.0727965 0.025 -1.04411e+06
0.110265 0.074374 0.025 -1.07433e+06
0.112644 0.0759789 0.025 -1.51546e+06
0.115063 0.0776111 0.025 -1.07126e+06
0.117524 0.0792709 0.025 -1.4058e+06
0.120026 0.0809585 0.025 -1.49331e+06
0.122569 0.0826741 0.025 -1.34536e+06
0.125155 0.0844179 0.025 -1.23039e+06
0.127782 0.0861901 0.025 -1.09762e+06
0.130451 0.0879908 0.025 -1.07762e+06
0.133163 0.08982 0.025 -1.05874e+06
0.135918 0.0916781 0.025 -1.03375e+06
0.138716 0.0935651 0.025 -1.02876e+06
0.141556 0.095481 0.025 -1.02812e+06
0.14444 0.097426 0.025 -1.2987e+06
0.147367 0.0994004 0.025 -1.78436e+06
0.150337 0.101404 0.025 -1.37371e+06
0.153351 0.103437 0.025 -1.35649e+06
0.156408 0.105498 0.025 -1.7602e+06
0.159508 0.107589 0.025 -887773
0.162651 0.10971 0.025 -1.25228e+06
0.165838 0.111859 0.025 -2.48347e+06
0.169069 0.114039 0.025 -1.81015e+06
0.172343 0.116247 0.025 -1.55987e+06
0.175659 0.118483 0.025 -1.51303e+06
0.179018 0.120749 0.025 -1.52285e+06
0.182421 0.123045 0.025 -1.56334e+06
0.185866 0.125368 0.025 -1.41117e+06
0.189353 0.12772 0.025 -1.43219e+06
0.192882 0.1301 0.025 -1.51128e+06
0.196453 0.132509 0.025 -1.4428e+06
0.200065 0.134946 0.025 -1.71453e+06
0.203718 0.13741 0.025 -1.59718e+06
0.207412 0.139901 0.025 -802066
0.211146 0.14242 0.025 -852283
0.214919 0.144965 0.025 -1.34098e+06
0.218732 0.147537 0.025 -857100
0.222583 0.150134 0.025 -1.55473e+06
0.226472 0.152757 0.025 -844030
0.230399 0.155406 0.025 -1.42033e+06
0.234362 0.15808 0.025 -1.36389e+06
0.238362 0.160777 0.025 -1.84168e+06
0.242396 0.163498 0.025 -1.61425e+06
0.246466 0.166244 0.025 -1.70348e+06
0.250569 0.169012 0.025 -806433
0.254706 0.171801 0.025 -1.26549e+06
0.258874 0.174613 0.025 -1.27391e+06
0.263074 0.177446 0.025 -1.55292e+06
0.267304 0.180299 0.025 -1.26109e+06
0.271564 0.183172 0.025 -810418
0.275852 0.186064 0.025 -1.28068e+06
0.280168 0.188975 0.025 -794923
0.28451 0.191904 0.025 -1.30314e+06
0.288876 0.19485 0.025 -1.76133e+06
0.293268 0.197812 0.025 -1.28056e+06
0.297683 0.20079 0.025 -1.52254e+06
0.302119 0.203782 0.025 -1.70217e+06
0.306577 0.206788 0.025 -1.2493e+06
0.311054 0.209808 0.025 -1.27872e+06
0.315549 0.212841 0.025 -1.01474e+06
0.320063 0.215885 0.025 -1.55813e+06
0.324591 0.218939 0.025 -1.13653e+06
0.329134 0.222003 0.025 -1.16193e+06
0.333691 0.225077 0.025 -1.72322e+06
0.33826 0.228159 0.025 -1.46974e+06
0.342839 0.231248 0.025 -1.48812e+06
0.347428 0.234343 0.025 -751187
0.352025 0.237444 0.025 -1.47966e+06
0.356628 0.240548 0.025 -1.12907e+06
0.361237 0.243658 0.025 -995564
0.36585 0.246769 0.025 -1.85024e+06
0.370465 0.249882 0.025 -924086
0.375082 0.252996 0.025 -1.22575e+06
0.379698 0.25611 0.025 -1.83286e+06
0.384313 0.259223 0.025 -1.1636e+06
0.388926 0.262333 0.025 -1.348e+06
0.393534 0.265442 0.025 -1.13582e+06
0.398136 0.268546 0.025 -757200
0.40273 0.271645 0.025 -1.31129e+06
0.407317 0.274739 0.025 -1.28447e+06
0.411894 0.277826 0.025 -1.62316e+06
0.41646 0.280906 0.025 -722831
0.421014 0.283977 0.025 -1.21102e+06
0.425554 0.28704 0.025 -1.44796e+06
0.430079 0.290092 0.025 -1.20995e+06
0.434588 0.293133 0.025 -1.42271e+06
0.439079 0.296162 0.025 -1.03515e+06
0.443551 0.299179 0.025 -1.26005e+06
0.448004 0.302183 0.025 -1.32438e+06
0.452437 0.305172 0.025 -1.30705e+06
0.456846 0.308146 0.025 -1.24241e+06
0.461232 0.311105 0.025 -1.25838e+06
0.465593 0.314047 0.025 -1.1745e+06
0.469929 0.316971 0.025 -1.45756e+06
0.474238 0.319878 0.025 -871981
0.47852 0.322766 0.025 -936254
0.482773 0.325635 0.025 -747593
0.486996 0.328483 0.025 -1.07278e+06
0.491189 0.331311 0.025 -1.5067e+06
0.49535 0.334118 0.025 -1.03728e+06
