# wallHeatFlux  FACE_DATA 398
# x  y  z  wallHeatFlux
-0.7975 0 0.025 -653682
-0.79239 0 0.025 -120172
-0.787056 0 0.025 -70550.8
-0.781492 0 0.025 -68076
-0.775691 0 0.025 -70557.8
-0.769649 0 0.025 -72475.6
-0.763362 0 0.025 -74103.8
-0.756822 0 0.025 -74706.6
-0.750025 0 0.025 -74565.9
-0.742968 0 0.025 -74129.1
-0.735648 0 0.025 -73424.9
-0.72806 0 0.025 -72549.8
-0.720203 0 0.025 -71606.5
-0.712076 0 0.025 -70680.2
-0.703677 0 0.025 -69811.4
-0.695006 0 0.025 -69021.7
-0.686065 0 0.025 -68188.6
-0.676855 0 0.025 -67333.3
-0.667379 0 0.025 -66514
-0.65764 0 0.025 -65881.4
-0.647644 0 0.025 -65175.6
-0.637397 0 0.025 -64473.3
-0.626906 0 0.025 -63868.6
-0.616179 0 0.025 -63236.4
-0.605224 0 0.025 -62717.3
-0.594054 0 0.025 -62136.8
-0.582678 0 0.025 -61584.1
-0.57111 0 0.025 -61055.9
-0.559364 0 0.025 -60596.4
-0.547454 0 0.025 -60122.4
-0.535396 0 0.025 -59652
-0.523205 0 0.025 -59214
-0.510901 0 0.025 -58787
-0.4985 0 0.025 -58413.8
-0.486021 0 0.025 -58044.2
-0.473483 0 0.025 -57672
-0.460905 0 0.025 -57366.3
-0.448308 0 0.025 -57043.4
-0.435709 0 0.025 -56659.1
-0.42313 0 0.025 -56303.4
-0.41059 0 0.025 -56021.7
-0.39811 0 0.025 -55765
-0.385706 0 0.025 -55538.2
-0.373398 0 0.025 -55305.9
-0.361205 0 0.025 -55061.8
-0.349141 0 0.025 -54804.3
-0.337226 0 0.025 -54535.9
-0.325475 0 0.025 -54293.7
-0.313901 0 0.025 -54062
-0.30252 0 0.025 -53872.4
-0.291343 0 0.025 -53694.9
-0.280382 0 0.025 -53533.4
-0.269646 0 0.025 -53381.6
-0.259148 0 0.025 -53262.5
-0.248893 0 0.025 -53140.2
-0.23889 0 0.025 -53007.7
-0.229143 0 0.025 -52863.9
-0.219659 0 0.025 -52695.3
-0.210441 0 0.025 -52521.2
-0.201491 0 0.025 -52302.7
-0.192812 0 0.025 -52108.4
-0.184405 0 0.025 -51940.8
-0.176269 0 0.025 -51808.6
-0.168404 0 0.025 -51721.3
-0.160808 0 0.025 -51650.1
-0.15348 0 0.025 -51603.9
-0.146415 0 0.025 -51574.7
-0.13961 0 0.025 -51554.6
-0.133063 0 0.025 -51526.1
-0.126767 0 0.025 -51488
-0.120718 0 0.025 -51439.8
-0.11491 0 0.025 -51376.5
-0.109339 0 0.025 -51308.5
-0.103997 0 0.025 -51229
-0.0988805 0 0.025 -51148.9
-0.0939808 0 0.025 -51065.7
-0.0892928 0 0.025 -50984.2
-0.0848096 0 0.025 -50902.7
-0.0805248 0 0.025 -50827.2
-0.0764316 0 0.025 -50757.3
-0.0725237 0 0.025 -50687.5
-0.0687943 0 0.025 -50634.7
-0.065237 0 0.025 -50581.1
-0.0618454 0 0.025 -50539.4
-0.058613 0 0.025 -50496.7
-0.0555337 0 0.025 -50460.6
-0.0526013 0 0.025 -50429.1
-0.0498099 0 0.025 -50398
-0.0471536 0 0.025 -50372.2
-0.0446266 0 0.025 -50351.8
-0.0422235 0 0.025 -50331.4
-0.039939 0 0.025 -50311
-0.0377676 0 0.025 -50295.6
-0.0357044 0 0.025 -50281.4
-0.0337445 0 0.025 -50228.4
-0.0318832 0 0.025 -48637.4
-0.0301159 0 0.025 -39503.5
-0.0284383 0 0.025 -36130.8
-0.0268461 0 0.025 -56323.7
-0.0253353 0 0.025 -70611.9
-0.023902 0 0.025 -79594
-0.0225426 0 0.025 -86356.6
-0.0212532 0 0.025 -91724.1
-0.0200306 0 0.025 -96279.4
-0.0188715 0 0.025 -100317
-0.0177728 0 0.025 -103958
-0.0167313 0 0.025 -107332
-0.0157444 0 0.025 -110466
-0.0148092 0 0.025 -113374
-0.0139232 0 0.025 -115994
-0.0130838 0 0.025 -118305
-0.0122887 0 0.025 -120327
-0.0115356 0 0.025 -122074
-0.0108223 0 0.025 -123556
-0.0101469 0 0.025 -124808
-0.00950727 0 0.025 -125880
-0.00890168 0 0.025 -126846
-0.00832835 0 0.025 -127771
-0.00778557 0 0.025 -128714
-0.00727176 0 0.025 -129741
-0.0067854 0 0.025 -130877
-0.00632507 0 0.025 -132147
-0.00588937 0 0.025 -133577
-0.00547703 0 0.025 -135168
-0.0050868 0 0.025 -136915
-0.00471753 0 0.025 -138827
-0.0043681 0 0.025 -140912
-0.00403746 0 0.025 -143160
-0.00372461 0 0.025 -145555
-0.0034286 0 0.025 -148110
-0.00314855 0 0.025 -150867
-0.0028836 0 0.025 -153845
-0.00263294 0 0.025 -156886
-0.00239581 0 0.025 -159825
-0.0021715 0 0.025 -162923
-0.00195929 0 0.025 -166124
-0.00175856 0 0.025 -169416
-0.00156869 0 0.025 -172767
-0.00138908 0 0.025 -176201
-0.0012192 0 0.025 -179646
-0.00105853 0 0.025 -183106
-0.000906546 0 0.025 -186555
-0.000762803 0 0.025 -189901
-0.000626848 0 0.025 -192842
-0.000498265 0 0.025 -194599
-0.000376656 0 0.025 -193381
-0.000261642 0 0.025 -185237
-0.00015287 0 0.025 -162040
-5e-05 0 0.025 -105087
4.14519e-05 2.79596e-05 0.025 -76530.7
0.000125371 8.45641e-05 0.025 -90958.2
0.000211347 0.000142556 0.025 -106552
0.000299429 0.000201968 0.025 -117973
0.000389669 0.000262835 0.025 -127819
0.000482118 0.000325193 0.025 -137155
0.000576831 0.000389077 0.025 -145832
0.000673861 0.000454524 0.025 -153612
0.000773265 0.000521574 0.025 -160435
0.0008751 0.000590262 0.025 -166427
0.000979426 0.000660632 0.025 -171716
0.0010863 0.000732721 0.025 -176443
0.00119579 0.000806572 0.025 -180749
0.00130795 0.000882227 0.025 -184787
0.00142285 0.00095973 0.025 -188544
0.00154056 0.00103912 0.025 -192159
0.00166115 0.00112046 0.025 -195633
0.00178467 0.00120378 0.025 -199046
0.00191121 0.00128913 0.025 -202469
0.00204083 0.00137656 0.025 -205825
0.00217362 0.00146612 0.025 -209218
0.00230964 0.00155787 0.025 -212655
0.00244897 0.00165185 0.025 -216152
0.00259169 0.00174812 0.025 -219701
0.00273789 0.00184673 0.025 -223326
0.00288765 0.00194774 0.025 -227086
0.00304105 0.00205122 0.025 -230936
0.00319818 0.00215719 0.025 -234914
0.00335912 0.00226575 0.025 -239092
0.00352397 0.00237695 0.025 -243382
0.00369283 0.00249085 0.025 -247861
0.00386579 0.00260751 0.025 -252517
0.00404294 0.00272699 0.025 -257398
0.00422438 0.00284938 0.025 -262524
0.00441022 0.00297474 0.025 -267890
0.00460056 0.00310312 0.025 -273528
0.00479552 0.00323462 0.025 -279443
0.00499519 0.0033693 0.025 -285760
0.00519968 0.00350723 0.025 -292333
0.00540911 0.00364849 0.025 -299342
0.00562361 0.00379318 0.025 -306750
0.00584329 0.00394134 0.025 -314573
0.00606826 0.00409309 0.025 -322995
0.00629865 0.00424849 0.025 -331858
0.0065346 0.00440764 0.025 -341363
0.00677623 0.00457063 0.025 -351425
0.00702368 0.00473753 0.025 -362066
0.00727707 0.00490844 0.025 -373515
0.00753655 0.00508347 0.025 -385740
0.00780227 0.00526269 0.025 -398833
0.00807436 0.00544622 0.025 -412900
0.00835298 0.00563415 0.025 -427989
0.00863826 0.00582659 0.025 -444206
0.00893038 0.00602362 0.025 -461621
0.00922949 0.00622537 0.025 -480443
0.00953574 0.00643195 0.025 -500552
0.00984929 0.00664345 0.025 -522570
0.0101703 0.00686 0.025 -546127
0.0104991 0.00708171 0.025 -571958
0.0108356 0.00730871 0.025 -600065
0.0111801 0.0075411 0.025 -631202
0.0115329 0.00777902 0.025 -665276
0.011894 0.00802259 0.025 -703275
0.0122637 0.00827194 0.025 -744272
0.0126421 0.00852719 0.025 -788038
0.0130295 0.0087885 0.025 -835771
0.013426 0.00905597 0.025 -886366
0.013832 0.00932978 0.025 -932562
0.0142475 0.00961003 0.025 -975169
0.0146727 0.0098969 0.025 -1.01809e+06
0.0151081 0.0101905 0.025 -1.06755e+06
0.0155536 0.010491 0.025 -1.12164e+06
0.0160097 0.0107986 0.025 -1.17995e+06
0.0164764 0.0111134 0.025 -1.24318e+06
0.016954 0.0114356 0.025 -1.30952e+06
0.0174427 0.0117653 0.025 -1.3731e+06
0.0179429 0.0121026 0.025 -1.43913e+06
0.0184548 0.0124479 0.025 -1.51456e+06
0.0189786 0.0128013 0.025 -1.56989e+06
0.0195146 0.0131628 0.025 -1.62827e+06
0.020063 0.0135327 0.025 -1.69628e+06
0.0206242 0.0139112 0.025 -1.74516e+06
0.0211983 0.0142984 0.025 -1.78483e+06
0.0217857 0.0146947 0.025 -1.83093e+06
0.0223867 0.0151 0.025 -1.87212e+06
0.0230015 0.0155147 0.025 -1.9083e+06
0.0236304 0.0159389 0.025 -1.94927e+06
0.0242738 0.0163729 0.025 -1.96081e+06
0.0249318 0.0168167 0.025 -1.98457e+06
0.025605 0.0172708 0.025 -2.00226e+06
0.0262935 0.0177352 0.025 -1.98399e+06
0.0269977 0.0182102 0.025 -1.96101e+06
0.0277178 0.0186959 0.025 -1.9243e+06
0.0284544 0.0191927 0.025 -1.93646e+06
0.0292075 0.0197008 0.025 -1.86215e+06
0.0299777 0.0202203 0.025 -1.81428e+06
0.0307653 0.0207514 0.025 -1.75682e+06
0.0315704 0.0212945 0.025 -1.71448e+06
0.0323937 0.0218499 0.025 -1.67811e+06
0.0332354 0.0224176 0.025 -1.64231e+06
0.0340959 0.022998 0.025 -1.61207e+06
0.0349755 0.0235913 0.025 -1.57353e+06
0.0358747 0.0241978 0.025 -1.56581e+06
0.0367938 0.0248178 0.025 -1.52495e+06
0.0377331 0.0254513 0.025 -1.4944e+06
0.0386932 0.0260989 0.025 -1.4704e+06
0.0396743 0.0267606 0.025 -1.44968e+06
0.0406769 0.0274369 0.025 -1.43205e+06
0.0417013 0.0281279 0.025 -1.41036e+06
0.042748 0.0288339 0.025 -1.41109e+06
0.0438175 0.0295552 0.025 -1.3965e+06
0.04491 0.0302922 0.025 -1.37722e+06
0.0460262 0.031045 0.025 -1.38068e+06
0.0471662 0.031814 0.025 -1.38599e+06
0.0483306 0.0325995 0.025 -1.36552e+06
0.0495199 0.0334016 0.025 -1.36519e+06
0.0507344 0.0342208 0.025 -1.35913e+06
0.0519746 0.0350573 0.025 -1.3533e+06
0.0532409 0.0359114 0.025 -1.36379e+06
0.0545339 0.0367835 0.025 -1.35041e+06
0.0558538 0.0376739 0.025 -1.33711e+06
0.0572012 0.0385827 0.025 -1.33657e+06
0.0585766 0.0395104 0.025 -1.33543e+06
0.0599804 0.0404573 0.025 -1.34626e+06
0.061413 0.0414236 0.025 -1.3309e+06
0.0628748 0.0424096 0.025 -1.3494e+06
0.0643665 0.0434157 0.025 -1.34285e+06
0.0658883 0.0444422 0.025 -1.32443e+06
0.0674408 0.0454894 0.025 -1.31515e+06
0.0690245 0.0465576 0.025 -1.3218e+06
0.0706398 0.0476471 0.025 -1.31412e+06
0.0722871 0.0487582 0.025 -1.30359e+06
0.0739669 0.0498912 0.025 -1.29366e+06
0.0756797 0.0510466 0.025 -1.30169e+06
0.0774258 0.0522244 0.025 -1.31473e+06
0.0792059 0.053425 0.025 -1.30888e+06
0.0810203 0.0546489 0.025 -1.33284e+06
0.0828694 0.0558961 0.025 -1.30227e+06
0.0847537 0.0571671 0.025 -1.33579e+06
0.0866737 0.0584622 0.025 -1.29937e+06
0.0886298 0.0597816 0.025 -1.29758e+06
0.0906224 0.0611256 0.025 -1.30271e+06
0.0926518 0.0624944 0.025 -1.26977e+06
0.0947185 0.0638884 0.025 -1.30867e+06
0.096823 0.065308 0.025 -1.26574e+06
0.0989659 0.0667532 0.025 -1.34175e+06
0.101147 0.0682245 0.025 -1.65739e+06
0.103367 0.0697219 0.025 -1.57395e+06
0.105626 0.0712458 0.025 -1.21399e+06
0.107926 0.0727965 0.025 -1.20665e+06
0.110265 0.074374 0.025 -1.24116e+06
0.112644 0.0759789 0.025 -1.77205e+06
0.115063 0.0776111 0.025 -1.24407e+06
0.117524 0.0792709 0.025 -1.65681e+06
0.120026 0.0809585 0.025 -1.8026e+06
0.122569 0.0826741 0.025 -1.62206e+06
0.125155 0.0844179 0.025 -1.46632e+06
0.127782 0.0861901 0.025 -1.2895e+06
0.130451 0.0879908 0.025 -1.24906e+06
0.133163 0.08982 0.025 -1.22795e+06
0.135918 0.0916781 0.025 -1.19902e+06
0.138716 0.0935651 0.025 -1.19405e+06
0.141556 0.095481 0.025 -1.19708e+06
0.14444 0.097426 0.025 -1.5308e+06
0.147367 0.0994004 0.025 -2.11746e+06
0.150337 0.101404 0.025 -1.61421e+06
0.153351 0.103437 0.025 -1.56677e+06
0.156408 0.105498 0.025 -2.04394e+06
0.159508 0.107589 0.025 -1.04021e+06
0.162651 0.10971 0.025 -1.4717e+06
0.165838 0.111859 0.025 -2.68829e+06
0.169069 0.114039 0.025 -1.63899e+06
0.172343 0.116247 0.025 -1.87467e+06
0.175659 0.118483 0.025 -1.77931e+06
0.179018 0.120749 0.025 -1.77502e+06
0.182421 0.123045 0.025 -1.80235e+06
0.185866 0.125368 0.025 -1.62901e+06
0.189353 0.12772 0.025 -1.62488e+06
0.192882 0.1301 0.025 -1.71171e+06
0.196453 0.132509 0.025 -1.61332e+06
0.200065 0.134946 0.025 -1.86173e+06
0.203718 0.13741 0.025 -1.75855e+06
0.207412 0.139901 0.025 -931752
0.211146 0.14242 0.025 -988251
0.214919 0.144965 0.025 -1.53865e+06
0.218732 0.147537 0.025 -987408
0.222583 0.150134 0.025 -1.73563e+06
0.226472 0.152757 0.025 -979945
0.230399 0.155406 0.025 -1.68808e+06
0.234362 0.15808 0.025 -1.59008e+06
0.238362 0.160777 0.025 -1.9704e+06
0.242396 0.163498 0.025 -1.77369e+06
0.246466 0.166244 0.025 -1.87652e+06
0.250569 0.169012 0.025 -938913
0.254706 0.171801 0.025 -1.45015e+06
0.258874 0.174613 0.025 -1.44493e+06
0.263074 0.177446 0.025 -1.75664e+06
0.267304 0.180299 0.025 -1.48448e+06
0.271564 0.183172 0.025 -943384
0.275852 0.186064 0.025 -1.50462e+06
0.280168 0.188975 0.025 -915523
0.28451 0.191904 0.025 -1.52413e+06
0.288876 0.19485 0.025 -1.92192e+06
0.293268 0.197812 0.025 -1.52033e+06
0.297683 0.20079 0.025 -1.6968e+06
0.302119 0.203782 0.025 -1.85201e+06
0.306577 0.206788 0.025 -1.3951e+06
0.311054 0.209808 0.025 -1.49152e+06
0.315549 0.212841 0.025 -1.14548e+06
0.320063 0.215885 0.025 -1.6928e+06
0.324591 0.218939 0.025 -1.28135e+06
0.329134 0.222003 0.025 -1.31657e+06
0.333691 0.225077 0.025 -1.85547e+06
0.33826 0.228159 0.025 -1.66188e+06
0.342839 0.231248 0.025 -1.67725e+06
0.347428 0.234343 0.025 -874553
0.352025 0.237444 0.025 -1.7007e+06
0.356628 0.240548 0.025 -1.33232e+06
0.361237 0.243658 0.025 -1.11953e+06
0.36585 0.246769 0.025 -1.99917e+06
0.370465 0.249882 0.025 -1.11101e+06
0.375082 0.252996 0.025 -1.41338e+06
0.379698 0.25611 0.025 -1.9738e+06
0.384313 0.259223 0.025 -1.33758e+06
0.388926 0.262333 0.025 -1.52724e+06
0.393534 0.265442 0.025 -1.31257e+06
0.398136 0.268546 0.025 -871755
0.40273 0.271645 0.025 -1.4838e+06
0.407317 0.274739 0.025 -1.53024e+06
0.411894 0.277826 0.025 -1.77505e+06
0.41646 0.280906 0.025 -851742
0.421014 0.283977 0.025 -1.46324e+06
0.425554 0.28704 0.025 -1.6237e+06
0.430079 0.290092 0.025 -1.36745e+06
0.434588 0.293133 0.025 -1.58191e+06
0.439079 0.296162 0.025 -1.21467e+06
0.443551 0.299179 0.025 -1.50883e+06
0.448004 0.302183 0.025 -1.51996e+06
0.452437 0.305172 0.025 -1.49954e+06
0.456846 0.308146 0.025 -1.40557e+06
0.461232 0.311105 0.025 -1.42501e+06
0.465593 0.314047 0.025 -1.34458e+06
0.469929 0.316971 0.025 -1.66632e+06
0.474238 0.319878 0.025 -980055
0.47852 0.322766 0.025 -1.07293e+06
0.482773 0.325635 0.025 -865640
0.486996 0.328483 0.025 -1.23229e+06
0.491189 0.331311 0.025 -1.69578e+06
0.49535 0.334118 0.025 -1.20522e+06
