# p  FACE_DATA 298
# x  y  z  p
-0.789454 0 0.005 3524.75
-0.76864 0 0.005 3000.97
-0.748373 0 0.005 2752.81
-0.72864 0 0.005 2755.78
-0.709426 0 0.005 2766.52
-0.690719 0 0.005 2779.72
-0.672503 0 0.005 2797.41
-0.654767 0 0.005 2798.09
-0.637498 0 0.005 2803.97
-0.620683 0 0.005 2804.24
-0.604311 0 0.005 2805.46
-0.588369 0 0.005 2806.46
-0.572847 0 0.005 2805.6
-0.557734 0 0.005 2804.74
-0.543018 0 0.005 2805.82
-0.52869 0 0.005 2804.01
-0.514738 0 0.005 2803.93
-0.501153 0 0.005 2804.96
-0.487926 0 0.005 2804.47
-0.475046 0 0.005 2804.64
-0.462505 0 0.005 2803.35
-0.450294 0 0.005 2801.89
-0.438403 0 0.005 2802.33
-0.426826 0 0.005 2802.81
-0.415552 0 0.005 2801.73
-0.404575 0 0.005 2800.46
-0.393887 0 0.005 2799.48
-0.383478 0 0.005 2798.9
-0.373344 0 0.005 2798.35
-0.363476 0 0.005 2798.5
-0.353866 0 0.005 2798.95
-0.34451 0 0.005 2799.5
-0.335398 0 0.005 2799.63
-0.326526 0 0.005 2799.44
-0.317887 0 0.005 2797.74
-0.309474 0 0.005 2795.46
-0.301281 0 0.005 2793.12
-0.293304 0 0.005 2791.44
-0.285535 0 0.005 2790.37
-0.277971 0 0.005 2790.18
-0.270605 0 0.005 2791.48
-0.263431 0 0.005 2793.7
-0.256444 0 0.005 2796.04
-0.249642 0 0.005 2798.2
-0.243016 0 0.005 2799.61
-0.236565 0 0.005 2800.34
-0.230282 0 0.005 2800.41
-0.224163 0 0.005 2799.67
-0.218204 0 0.005 2797.89
-0.2124 0 0.005 2795.59
-0.206748 0 0.005 2792.74
-0.201243 0 0.005 2789.7
-0.195882 0 0.005 2786.74
-0.190661 0 0.005 2784.25
-0.185575 0 0.005 2782.02
-0.180621 0 0.005 2780.39
-0.175796 0 0.005 2779.31
-0.171097 0 0.005 2778.83
-0.16652 0 0.005 2778.73
-0.162061 0 0.005 2779.06
-0.157718 0 0.005 2779.71
-0.153487 0 0.005 2780.83
-0.149367 0 0.005 2782.15
-0.145351 0 0.005 2783.78
-0.14144 0 0.005 2785.54
-0.13763 0 0.005 2787.42
-0.133918 0 0.005 2789.13
-0.130302 0 0.005 2790.71
-0.126778 0 0.005 2792.23
-0.123345 0 0.005 2793.41
-0.119999 0 0.005 2794.35
-0.116739 0 0.005 2795.24
-0.113562 0 0.005 2796.04
-0.110466 0 0.005 2796.79
-0.107449 0 0.005 2797.4
-0.104509 0 0.005 2797.88
-0.101644 0 0.005 2798.15
-0.0988499 0 0.005 2798.26
-0.0961267 0 0.005 2798.18
-0.0934723 0 0.005 2797.82
-0.0908845 0 0.005 2797.26
-0.0883616 0 0.005 2796.55
-0.0859017 0 0.005 2795.71
-0.0835029 0 0.005 2794.78
-0.0811636 0 0.005 2793.79
-0.0788823 0 0.005 2792.79
-0.0766572 0 0.005 2791.74
-0.0744867 0 0.005 2790.7
-0.0723694 0 0.005 2789.67
-0.0703036 0 0.005 2788.66
-0.068288 0 0.005 2787.66
-0.0663211 0 0.005 2786.7
-0.0644014 0 0.005 2785.75
-0.0625277 0 0.005 2784.84
-0.0606985 0 0.005 2783.93
-0.0589126 0 0.005 2783.05
-0.0571687 0 0.005 2782.18
-0.0554656 0 0.005 2781.34
-0.0538019 0 0.005 2780.5
-0.0521766 0 0.005 2779.71
-0.0505886 0 0.005 2778.96
-0.0490366 0 0.005 2778.25
-0.0475196 0 0.005 2777.58
-0.0460364 0 0.005 2776.97
-0.0445861 0 0.005 2776.4
-0.0431675 0 0.005 2775.9
-0.0417798 0 0.005 2775.42
-0.0404219 0 0.005 2774.99
-0.0390927 0 0.005 2774.57
-0.0377914 0 0.005 2774.21
-0.0365171 0 0.005 2773.98
-0.0352688 0 0.005 2776.99
-0.0340456 0 0.005 2787.09
-0.0328467 0 0.005 2807.57
-0.0316712 0 0.005 2836.23
-0.0305183 0 0.005 2868.61
-0.0293871 0 0.005 2902.05
-0.028277 0 0.005 2936.47
-0.0271869 0 0.005 2971.92
-0.0261162 0 0.005 3009.32
-0.0250641 0 0.005 3049.41
-0.02403 0 0.005 3093.92
-0.023013 0 0.005 3144.93
-0.0220124 0 0.005 3205.16
-0.0210274 0 0.005 3277.84
-0.0200575 0 0.005 3367.44
-0.0191018 0 0.005 3479.85
-0.0181598 0 0.005 3621.46
-0.0172307 0 0.005 3796.7
-0.0163139 0 0.005 4005.07
-0.0154087 0 0.005 4246.14
-0.0145146 0 0.005 4512.92
-0.0136307 0 0.005 4798.47
-0.0127566 0 0.005 5090.38
-0.0118916 0 0.005 5387.45
-0.011035 0 0.005 5678.56
-0.0101864 0 0.005 5966.97
-0.00934497 0 0.005 6242.71
-0.00851021 0 0.005 6514.26
-0.00768153 0 0.005 6772.6
-0.00685832 0 0.005 7026.91
-0.00604 0 0.005 7267.56
-0.00522598 0 0.005 7503.65
-0.0044157 0 0.005 7724.42
-0.00360857 0 0.005 7930.61
-0.002804 0 0.005 8121.33
-0.00200143 0 0.005 8282.85
-0.00120028 0 0.005 8497.41
-0.0004 0 0.005 9084.04
0.00034641 0.0002 0.005 8793.9
0.00103936 0.000600074 0.005 9353.7
0.00173269 0.00100037 0.005 9914.34
0.00242667 0.00140104 0.005 10611.2
0.00312154 0.00180222 0.005 11457.9
0.00381758 0.00220408 0.005 12405.4
0.00451503 0.00260675 0.005 13464.4
0.00521415 0.00301039 0.005 14644
0.0059152 0.00341514 0.005 15936.4
0.00661845 0.00382117 0.005 17364
0.00732415 0.0042286 0.005 18913.9
0.00803257 0.00463761 0.005 20592.9
0.00874396 0.00504833 0.005 22385.7
0.0094586 0.00546093 0.005 24311.4
0.0101767 0.00587555 0.005 26379.6
0.0108987 0.00629234 0.005 28618.4
0.0116246 0.00671146 0.005 31043.6
0.0123549 0.00713309 0.005 33697.6
0.0130897 0.00755735 0.005 36643.6
0.0138294 0.00798441 0.005 39954.5
0.0145742 0.00841443 0.005 43678.4
0.0153244 0.00884757 0.005 47817.9
0.0160804 0.009284 0.005 52362.3
0.0168422 0.00972386 0.005 57350.5
0.0176104 0.0101673 0.005 62748.1
0.018385 0.0106146 0.005 68450
0.0191664 0.0110657 0.005 74401.8
0.019955 0.011521 0.005 80506
0.0207509 0.0119805 0.005 86574.5
0.0215546 0.0124445 0.005 92299.6
0.0223662 0.0129131 0.005 97298.6
0.0231861 0.0133865 0.005 101594
0.0240146 0.0138648 0.005 105358
0.0248521 0.0143483 0.005 108769
0.0256987 0.0148371 0.005 111880
0.0265549 0.0153315 0.005 114245
0.0274209 0.0158315 0.005 115507
0.0282971 0.0163373 0.005 115661
0.0291837 0.0168492 0.005 115134
0.0300812 0.0173674 0.005 114504
0.0309898 0.017892 0.005 113448
0.03191 0.0184232 0.005 112312
0.0328419 0.0189613 0.005 111083
0.033786 0.0195063 0.005 109967
0.0347427 0.0200587 0.005 108914
0.0357122 0.0206184 0.005 107939
0.036695 0.0211858 0.005 106999
0.0376913 0.0217611 0.005 106116
0.0387017 0.0223444 0.005 105354
0.0397264 0.022936 0.005 104774
0.0407658 0.0235361 0.005 104208
0.0418202 0.0241449 0.005 103694
0.0428902 0.0247627 0.005 103158
0.0439762 0.0253897 0.005 102759
0.0450784 0.0260261 0.005 102498
0.0461974 0.0266721 0.005 102370
0.0473334 0.0273279 0.005 102262
0.0484871 0.027994 0.005 102115
0.0496586 0.0286704 0.005 101925
0.0508486 0.0293575 0.005 101754
0.0520574 0.0300554 0.005 101603
0.0532855 0.0307644 0.005 101612
0.0545335 0.0314849 0.005 101653
0.0558016 0.0322171 0.005 101669
0.0570903 0.0329612 0.005 101581
0.0584003 0.0337174 0.005 101652
0.0597319 0.0344863 0.005 101846
0.0610857 0.0352678 0.005 102213
0.062462 0.0360624 0.005 102665
0.0638616 0.0368705 0.005 102859
0.0652848 0.0376922 0.005 102910
0.0667321 0.0385279 0.005 102701
0.0682043 0.0393778 0.005 102502
0.0697018 0.0402423 0.005 102286
0.071225 0.0411218 0.005 102269
0.0727747 0.0420165 0.005 102322
0.0743514 0.0429267 0.005 102416
0.0759556 0.043853 0.005 102577
0.0775879 0.0447954 0.005 102637
0.0792491 0.0457545 0.005 102601
0.0809395 0.0467305 0.005 102413
0.08266 0.0477239 0.005 102064
0.0844112 0.0487348 0.005 101711
0.0861936 0.0497639 0.005 101467
0.0880081 0.0508114 0.005 101536
0.089855 0.0518778 0.005 101825
0.0917354 0.0529634 0.005 102383
0.0936497 0.0540687 0.005 102872
0.0955988 0.055194 0.005 103102
0.0975833 0.0563398 0.005 103037
0.0996037 0.0575064 0.005 102711
0.101662 0.0586943 0.005 102587
0.103757 0.0599039 0.005 102561
0.10589 0.0611359 0.005 102627
0.108064 0.0623905 0.005 102485
0.110277 0.0636682 0.005 102453
0.112531 0.0649695 0.005 102280
0.114826 0.0662949 0.005 102163
0.117164 0.0676448 0.005 101884
0.119546 0.0690198 0.005 102347
0.121972 0.0704204 0.005 102688
0.124443 0.0718472 0.005 102955
0.126961 0.0733005 0.005 103012
0.129525 0.0747811 0.005 103193
0.132137 0.0762893 0.005 103256
0.134798 0.0778258 0.005 102899
0.13751 0.0793912 0.005 103092
0.140272 0.080986 0.005 103635
0.143086 0.0826109 0.005 103031
0.145954 0.0842664 0.005 102972
0.148875 0.085953 0.005 102855
0.151852 0.0876716 0.005 102706
0.154884 0.0894226 0.005 102918
0.157975 0.0912068 0.005 102319
0.161123 0.0930248 0.005 102315
0.164332 0.0948773 0.005 102674
0.167602 0.096765 0.005 102659
0.170933 0.0986885 0.005 102726
0.174328 0.100649 0.005 102696
0.177788 0.102646 0.005 102574
0.181313 0.104681 0.005 102537
0.184907 0.106756 0.005 101722
0.188568 0.10887 0.005 102442
0.192299 0.111024 0.005 101319
0.196102 0.113219 0.005 101682
0.199977 0.115456 0.005 101086
0.203926 0.117737 0.005 100822
0.20795 0.120061 0.005 101050
0.212053 0.122428 0.005 99985.2
0.216234 0.124843 0.005 99417.9
0.220494 0.127302 0.005 99016.7
0.224837 0.129809 0.005 99235.3
0.229262 0.132365 0.005 98011.1
0.233773 0.134969 0.005 98008.3
0.23837 0.137624 0.005 98420.7
0.243057 0.140328 0.005 97643.9
0.247833 0.143086 0.005 97523.9
0.2527 0.145896 0.005 97184.6
0.257662 0.148761 0.005 97364.1
0.262718 0.151681 0.005 96472.2
0.267873 0.154657 0.005 96617.5
0.273127 0.15769 0.005 97085.6
0.278482 0.160781 0.005 97485.6
0.28394 0.163933 0.005 96779.6
0.289504 0.167145 0.005 96636.3
0.295175 0.170419 0.005 96257.5
0.300955 0.173756 0.005 96818.5
0.306846 0.177158 0.005 96775.8
0.312851 0.180625 0.005 96117.4
