# wallHeatFlux  FACE_DATA 298
# x  y  z  wallHeatFlux
-0.789454 0 0.005 -322002
-0.76864 0 0.005 -56484.3
-0.748373 0 0.005 -52175.4
-0.72864 0 0.005 -54896.2
-0.709426 0 0.005 -56831.3
-0.690719 0 0.005 -58196
-0.672503 0 0.005 -59191.4
-0.654767 0 0.005 -59469.7
-0.637498 0 0.005 -59736
-0.620683 0 0.005 -59814.5
-0.604311 0 0.005 -59825.3
-0.588369 0 0.005 -59796.7
-0.572847 0 0.005 -59667.4
-0.557734 0 0.005 -59463.9
-0.543018 0 0.005 -59374.4
-0.52869 0 0.005 -59182.8
-0.514738 0 0.005 -59040
-0.501153 0 0.005 -58919.8
-0.487926 0 0.005 -58785
-0.475046 0 0.005 -58668.5
-0.462505 0 0.005 -58506.1
-0.450294 0 0.005 -58301
-0.438403 0 0.005 -58163
-0.426826 0 0.005 -58025.2
-0.415552 0 0.005 -57863.2
-0.404575 0 0.005 -57732.5
-0.393887 0 0.005 -57622.5
-0.383478 0 0.005 -57511
-0.373344 0 0.005 -57376.8
-0.363476 0 0.005 -57237.9
-0.353866 0 0.005 -57121.2
-0.34451 0 0.005 -57014.2
-0.335398 0 0.005 -56911.7
-0.326526 0 0.005 -56814.8
-0.317887 0 0.005 -56702.1
-0.309474 0 0.005 -56588.8
-0.301281 0 0.005 -56479.3
-0.293304 0 0.005 -56369.2
-0.285535 0 0.005 -56283.7
-0.277971 0 0.005 -56203.1
-0.270605 0 0.005 -56152.7
-0.263431 0 0.005 -56120.3
-0.256444 0 0.005 -56084.5
-0.249642 0 0.005 -56048.3
-0.243016 0 0.005 -55996
-0.236565 0 0.005 -55938.1
-0.230282 0 0.005 -55873.7
-0.224163 0 0.005 -55793.2
-0.218204 0 0.005 -55697.2
-0.2124 0 0.005 -55595.8
-0.206748 0 0.005 -55484.3
-0.201243 0 0.005 -55369.5
-0.195882 0 0.005 -55265.4
-0.190661 0 0.005 -55173.1
-0.185575 0 0.005 -55087.3
-0.180621 0 0.005 -55019.3
-0.175796 0 0.005 -54962.1
-0.171097 0 0.005 -54916
-0.16652 0 0.005 -54880.9
-0.162061 0 0.005 -54856.6
-0.157718 0 0.005 -54837.7
-0.153487 0 0.005 -54824.8
-0.149367 0 0.005 -54826.5
-0.145351 0 0.005 -54829.8
-0.14144 0 0.005 -54836.8
-0.13763 0 0.005 -54849.4
-0.133918 0 0.005 -54848.3
-0.130302 0 0.005 -54864.1
-0.126778 0 0.005 -54844.8
-0.123345 0 0.005 -54828.9
-0.119999 0 0.005 -54819.1
-0.116739 0 0.005 -54804
-0.113562 0 0.005 -54791.9
-0.110466 0 0.005 -54779.5
-0.107449 0 0.005 -54764.9
-0.104509 0 0.005 -54752.6
-0.101644 0 0.005 -54736
-0.0988499 0 0.005 -54713.3
-0.0961267 0 0.005 -54687.3
-0.0934723 0 0.005 -54657.1
-0.0908845 0 0.005 -54622.6
-0.0883616 0 0.005 -54587.9
-0.0859017 0 0.005 -54548.1
-0.0835029 0 0.005 -54508.4
-0.0811636 0 0.005 -54469.3
-0.0788823 0 0.005 -54429.2
-0.0766572 0 0.005 -54391
-0.0744867 0 0.005 -54351.3
-0.0723694 0 0.005 -54308
-0.0703036 0 0.005 -54268.5
-0.068288 0 0.005 -54230.6
-0.0663211 0 0.005 -54197.6
-0.0644014 0 0.005 -54159.4
-0.0625277 0 0.005 -54126.8
-0.0606985 0 0.005 -54094.4
-0.0589126 0 0.005 -54062.1
-0.0571687 0 0.005 -54035.3
-0.0554656 0 0.005 -54003.3
-0.0538019 0 0.005 -53977.4
-0.0521766 0 0.005 -53950.1
-0.0505886 0 0.005 -53919.8
-0.0490366 0 0.005 -53898.1
-0.0475196 0 0.005 -53873
-0.0460364 0 0.005 -53847.5
-0.0445861 0 0.005 -53828.1
-0.0431675 0 0.005 -53807.8
-0.0417798 0 0.005 -53793.1
-0.0404219 0 0.005 -53774.6
-0.0390927 0 0.005 -53761
-0.0377914 0 0.005 -53747.8
-0.0365171 0 0.005 -53708.1
-0.0352688 0 0.005 -53475.7
-0.0340456 0 0.005 -52585.1
-0.0328467 0 0.005 -50631
-0.0316712 0 0.005 -47778.1
-0.0305183 0 0.005 -44656.4
-0.0293871 0 0.005 -41746.5
-0.028277 0 0.005 -39181.1
-0.0271869 0 0.005 -36834.2
-0.0261162 0 0.005 -34648.3
-0.0250641 0 0.005 -32552
-0.02403 0 0.005 -30530.5
-0.023013 0 0.005 -28563.3
-0.0220124 0 0.005 -26670.1
-0.0210274 0 0.005 -24894.6
-0.0200575 0 0.005 -23317.9
-0.0191018 0 0.005 -22079.8
-0.0181598 0 0.005 -21471
-0.0172307 0 0.005 -21810.7
-0.0163139 0 0.005 -23078.9
-0.0154087 0 0.005 -25175.8
-0.0145146 0 0.005 -28186
-0.0136307 0 0.005 -31947.9
-0.0127566 0 0.005 -36137.2
-0.0118916 0 0.005 -40573.2
-0.011035 0 0.005 -44976.8
-0.0101864 0 0.005 -49343.9
-0.00934497 0 0.005 -53571.5
-0.00851021 0 0.005 -57795.6
-0.00768153 0 0.005 -61862.2
-0.00685832 0 0.005 -65951.3
-0.00604 0 0.005 -70030.6
-0.00522598 0 0.005 -74144.5
-0.0044157 0 0.005 -78212.5
-0.00360857 0 0.005 -82164.3
-0.002804 0 0.005 -85699.9
-0.00200143 0 0.005 -89707.3
-0.00120028 0 0.005 -93315.4
-0.0004 0 0.005 -94415.8
0.00034641 0.0002 0.005 -97549.3
0.00103936 0.000600074 0.005 -119969
0.00173269 0.00100037 0.005 -144648
0.00242667 0.00140104 0.005 -166918
0.00312154 0.00180222 0.005 -189301
0.00381758 0.00220408 0.005 -212306
0.00451503 0.00260675 0.005 -237330
0.00521415 0.00301039 0.005 -266331
0.0059152 0.00341514 0.005 -301263
0.00661845 0.00382117 0.005 -343244
0.00732415 0.0042286 0.005 -385983
0.00803257 0.00463761 0.005 -431457
0.00874396 0.00504833 0.005 -481307
0.0094586 0.00546093 0.005 -537959
0.0101767 0.00587555 0.005 -603251
0.0108987 0.00629234 0.005 -677213
0.0116246 0.00671146 0.005 -758173
0.0123549 0.00713309 0.005 -847797
0.0130897 0.00755735 0.005 -944200
0.0138294 0.00798441 0.005 -1.04705e+06
0.0145742 0.00841443 0.005 -1.15215e+06
0.0153244 0.00884757 0.005 -1.25731e+06
0.0160804 0.009284 0.005 -1.3526e+06
0.0168422 0.00972386 0.005 -1.43683e+06
0.0176104 0.0101673 0.005 -1.51073e+06
0.018385 0.0106146 0.005 -1.56988e+06
0.0191664 0.0110657 0.005 -1.60263e+06
0.019955 0.011521 0.005 -1.61969e+06
0.0207509 0.0119805 0.005 -1.62644e+06
0.0215546 0.0124445 0.005 -1.62171e+06
0.0223662 0.0129131 0.005 -1.6071e+06
0.0231861 0.0133865 0.005 -1.58399e+06
0.0240146 0.0138648 0.005 -1.56003e+06
0.0248521 0.0143483 0.005 -1.53941e+06
0.0256987 0.0148371 0.005 -1.52292e+06
0.0265549 0.0153315 0.005 -1.50871e+06
0.0274209 0.0158315 0.005 -1.49434e+06
0.0282971 0.0163373 0.005 -1.49291e+06
0.0291837 0.0168492 0.005 -1.4623e+06
0.0300812 0.0173674 0.005 -1.44098e+06
0.0309898 0.017892 0.005 -1.42256e+06
0.03191 0.0184232 0.005 -1.41528e+06
0.0328419 0.0189613 0.005 -1.3911e+06
0.033786 0.0195063 0.005 -1.36959e+06
0.0347427 0.0200587 0.005 -1.35494e+06
0.0357122 0.0206184 0.005 -1.33908e+06
0.036695 0.0211858 0.005 -1.32298e+06
0.0376913 0.0217611 0.005 -1.3128e+06
0.0387017 0.0223444 0.005 -1.29425e+06
0.0397264 0.022936 0.005 -1.27765e+06
0.0407658 0.0235361 0.005 -1.26583e+06
0.0418202 0.0241449 0.005 -1.2572e+06
0.0428902 0.0247627 0.005 -1.2412e+06
0.0439762 0.0253897 0.005 -1.22944e+06
0.0450784 0.0260261 0.005 -1.22199e+06
0.0461974 0.0266721 0.005 -1.21306e+06
0.0473334 0.0273279 0.005 -1.20949e+06
0.0484871 0.027994 0.005 -1.20621e+06
0.0496586 0.0286704 0.005 -1.22718e+06
0.0508486 0.0293575 0.005 -1.20779e+06
0.0520574 0.0300554 0.005 -1.20309e+06
0.0532855 0.0307644 0.005 -1.19886e+06
0.0545335 0.0314849 0.005 -1.20626e+06
0.0558016 0.0322171 0.005 -1.20012e+06
0.0570903 0.0329612 0.005 -1.19931e+06
0.0584003 0.0337174 0.005 -1.19904e+06
0.0597319 0.0344863 0.005 -1.20078e+06
0.0610857 0.0352678 0.005 -1.21041e+06
0.062462 0.0360624 0.005 -1.20747e+06
0.0638616 0.0368705 0.005 -1.2081e+06
0.0652848 0.0376922 0.005 -1.21562e+06
0.0667321 0.0385279 0.005 -1.20438e+06
0.0682043 0.0393778 0.005 -1.2079e+06
0.0697018 0.0402423 0.005 -1.19254e+06
0.071225 0.0411218 0.005 -1.18798e+06
0.0727747 0.0420165 0.005 -1.18672e+06
0.0743514 0.0429267 0.005 -1.19465e+06
0.0759556 0.043853 0.005 -1.1854e+06
0.0775879 0.0447954 0.005 -1.19172e+06
0.0792491 0.0457545 0.005 -1.17835e+06
0.0809395 0.0467305 0.005 -1.19033e+06
0.08266 0.0477239 0.005 -1.17546e+06
0.0844112 0.0487348 0.005 -1.1619e+06
0.0861936 0.0497639 0.005 -1.17971e+06
0.0880081 0.0508114 0.005 -1.1653e+06
0.089855 0.0518778 0.005 -1.15086e+06
0.0917354 0.0529634 0.005 -1.15205e+06
0.0936497 0.0540687 0.005 -1.14669e+06
0.0955988 0.055194 0.005 -1.14482e+06
0.0975833 0.0563398 0.005 -1.15506e+06
0.0996037 0.0575064 0.005 -1.50646e+06
0.101662 0.0586943 0.005 -1.33475e+06
0.103757 0.0599039 0.005 -1.35399e+06
0.10589 0.0611359 0.005 -1.11674e+06
0.108064 0.0623905 0.005 -1.10391e+06
0.110277 0.0636682 0.005 -1.15623e+06
0.112531 0.0649695 0.005 -1.24957e+06
0.114826 0.0662949 0.005 -1.44744e+06
0.117164 0.0676448 0.005 -1.70352e+06
0.119546 0.0690198 0.005 -1.31895e+06
0.121972 0.0704204 0.005 -1.29376e+06
0.124443 0.0718472 0.005 -1.0742e+06
0.126961 0.0733005 0.005 -1.332e+06
0.129525 0.0747811 0.005 -1.07364e+06
0.132137 0.0762893 0.005 -1.34888e+06
0.134798 0.0778258 0.005 -1.82403e+06
0.13751 0.0793912 0.005 -1.70008e+06
0.140272 0.080986 0.005 -1.06049e+06
0.143086 0.0826109 0.005 -1.77042e+06
0.145954 0.0842664 0.005 -1.61277e+06
0.148875 0.085953 0.005 -1.56331e+06
0.151852 0.0876716 0.005 -1.53044e+06
0.154884 0.0894226 0.005 -1.24061e+06
0.157975 0.0912068 0.005 -1.81838e+06
0.161123 0.0930248 0.005 -1.70003e+06
0.164332 0.0948773 0.005 -1.31075e+06
0.167602 0.096765 0.005 -1.31201e+06
0.170933 0.0986885 0.005 -1.06933e+06
0.174328 0.100649 0.005 -1.0106e+06
0.177788 0.102646 0.005 -1.00176e+06
0.181313 0.104681 0.005 -1.00805e+06
0.184907 0.106756 0.005 -2.04759e+06
0.188568 0.10887 0.005 -1.02878e+06
0.192299 0.111024 0.005 -1.94716e+06
0.196102 0.113219 0.005 -1.31171e+06
0.199977 0.115456 0.005 -1.64079e+06
0.203926 0.117737 0.005 -1.75132e+06
0.20795 0.120061 0.005 -1.01286e+06
0.212053 0.122428 0.005 -1.67635e+06
0.216234 0.124843 0.005 -1.82441e+06
0.220494 0.127302 0.005 -1.78025e+06
0.224837 0.129809 0.005 -910296
0.229262 0.132365 0.005 -2.06669e+06
0.233773 0.134969 0.005 -1.70873e+06
0.23837 0.137624 0.005 -984028
0.243057 0.140328 0.005 -1.4857e+06
0.247833 0.143086 0.005 -1.35418e+06
0.2527 0.145896 0.005 -1.57407e+06
0.257662 0.148761 0.005 -1.38319e+06
0.262718 0.151681 0.005 -1.9501e+06
0.267873 0.154657 0.005 -1.85812e+06
0.273127 0.15769 0.005 -1.49054e+06
0.278482 0.160781 0.005 -862482
0.28394 0.163933 0.005 -1.81116e+06
0.289504 0.167145 0.005 -1.66843e+06
0.295175 0.170419 0.005 -1.94517e+06
0.300955 0.173756 0.005 -1.45747e+06
0.306846 0.177158 0.005 -892766
0.312851 0.180625 0.005 -2.17799e+06
