# p  FACE_DATA 240
# x  y  z  p
-0.771783 0 0.026 3539.05
-0.74637 0 0.026 2986.51
-0.719597 0 0.026 2840.74
-0.693782 0 0.026 2789.26
-0.66889 0 0.026 2773
-0.644887 0 0.026 2766.85
-0.621743 0 0.026 2765.36
-0.599426 0 0.026 2766.35
-0.577906 0 0.026 2766.73
-0.557155 0 0.026 2764.92
-0.537145 0 0.026 2762.87
-0.517849 0 0.026 2761.66
-0.499243 0 0.026 2761.29
-0.481301 0 0.026 2760.56
-0.463999 0 0.026 2759.08
-0.447315 0 0.026 2757.31
-0.431226 0 0.026 2756.01
-0.41571 0 0.026 2755.29
-0.400747 0 0.026 2755.03
-0.386317 0 0.026 2755
-0.372401 0 0.026 2754.37
-0.358982 0 0.026 2752.96
-0.346039 0 0.026 2751.33
-0.333557 0 0.026 2749.91
-0.321518 0 0.026 2748.84
-0.309908 0 0.026 2748.17
-0.298709 0 0.026 2747.89
-0.287908 0 0.026 2748.18
-0.27749 0 0.026 2748.66
-0.267441 0 0.026 2748.9
-0.257748 0 0.026 2748.58
-0.248397 0 0.026 2747.78
-0.239378 0 0.026 2746.73
-0.230676 0 0.026 2745.62
-0.222282 0 0.026 2744.65
-0.214183 0 0.026 2743.92
-0.20637 0 0.026 2743.41
-0.19883 0 0.026 2743.05
-0.191555 0 0.026 2742.82
-0.184536 0 0.026 2742.67
-0.177762 0 0.026 2742.54
-0.171224 0 0.026 2742.41
-0.165013 0 0.026 2742.25
-0.159119 0 0.026 2742.01
-0.153435 0 0.026 2741.68
-0.14795 0 0.026 2741.31
-0.14266 0 0.026 2740.93
-0.137557 0 0.026 2740.58
-0.132633 0 0.026 2740.26
-0.127882 0 0.026 2739.93
-0.123298 0 0.026 2739.59
-0.118874 0 0.026 2739.23
-0.114605 0 0.026 2738.88
-0.110484 0 0.026 2738.55
-0.106508 0 0.026 2738.26
-0.10267 0 0.026 2738
-0.0989664 0 0.026 2737.81
-0.0953906 0 0.026 2737.67
-0.0919392 0 0.026 2737.58
-0.0886074 0 0.026 2737.52
-0.085391 0 0.026 2737.49
-0.0822859 0 0.026 2737.5
-0.079288 0 0.026 2737.52
-0.0763938 0 0.026 2737.57
-0.0735993 0 0.026 2737.64
-0.0709011 0 0.026 2737.73
-0.0682959 0 0.026 2737.85
-0.0657802 0 0.026 2737.98
-0.063351 0 0.026 2738.15
-0.0610052 0 0.026 2738.33
-0.05874 0 0.026 2738.51
-0.0565524 0 0.026 2738.71
-0.0544398 0 0.026 2738.91
-0.0523995 0 0.026 2739.12
-0.0504291 0 0.026 2739.32
-0.048526 0 0.026 2739.5
-0.046688 0 0.026 2739.68
-0.0449127 0 0.026 2739.85
-0.043198 0 0.026 2740
-0.0415419 0 0.026 2740.14
-0.0399422 0 0.026 2740.26
-0.0383971 0 0.026 2740.37
-0.0369046 0 0.026 2740.47
-0.0354628 0 0.026 2740.55
-0.0340701 0 0.026 2740.62
-0.0327248 0 0.026 2740.67
-0.0314253 0 0.026 2740.72
-0.0301698 0 0.026 2740.75
-0.0289571 0 0.026 2740.77
-0.0277855 0 0.026 2740.78
-0.0266537 0 0.026 2740.79
-0.0255603 0 0.026 2740.79
-0.0245039 0 0.026 2740.79
-0.0234834 0 0.026 2740.72
-0.0224975 0 0.026 2740.7
-0.0215449 0 0.026 2740.69
-0.0206246 0 0.026 2740.67
-0.0197355 0 0.026 2740.64
-0.0188765 0 0.026 2740.61
-0.0180466 0 0.026 2740.56
-0.0172447 0 0.026 2740.52
-0.0164699 0 0.026 2740.52
-0.0157213 0 0.026 2744.23
-0.0149981 0 0.026 2925.44
-0.0142993 0 0.026 5293.52
-0.0136241 0 0.026 7810.24
-0.0129717 0 0.026 8963.58
-0.0123413 0 0.026 9554.38
-0.0117322 0 0.026 9931.47
-0.0111437 0 0.026 10181.3
-0.010575 0 0.026 10381.8
-0.0100256 0 0.026 10558.2
-0.00949468 0 0.026 10725.1
-0.00898166 0 0.026 10875.6
-0.00848594 0 0.026 11015.7
-0.00800694 0 0.026 11147.2
-0.00754409 0 0.026 11268.4
-0.00709684 0 0.026 11378.2
-0.00666467 0 0.026 11476.3
-0.00624706 0 0.026 11563
-0.00584352 0 0.026 11638.6
-0.00545358 0 0.026 11703.8
-0.00507677 0 0.026 11759.2
-0.00471265 0 0.026 11805.9
-0.0043608 0 0.026 11844.8
-0.0040208 0 0.026 11877.7
-0.00369224 0 0.026 11907
-0.00337474 0 0.026 11935.2
-0.00306793 0 0.026 11965.8
-0.00277146 0 0.026 12003.6
-0.00248495 0 0.026 12052.4
-0.00220809 0 0.026 12116
-0.00194054 0 0.026 12201.4
-0.001682 0 0.026 12322.6
-0.00143216 0 0.026 12457.5
-0.00119071 0 0.026 12623.3
-0.000957397 0 0.026 12823.1
-0.000731928 0 0.026 13046.2
-0.00051404 0 0.026 13285.7
-0.00030348 0 0.026 13646.2
-0.0001 0 0.026 14810.7
8.66025e-05 5e-05 0.026 12966.8
0.000259964 0.00015009 0.026 13216.7
0.000433795 0.000250451 0.026 13025.6
0.000608407 0.000351264 0.026 12852.5
0.000784117 0.000452711 0.026 12731.1
0.000961243 0.000554974 0.026 12652.5
0.0011401 0.000658238 0.026 12637.6
0.00132102 0.000762689 0.026 12661.7
0.00150431 0.000868516 0.026 12712.2
0.00169033 0.000975909 0.026 12791.3
0.00187939 0.00108506 0.026 12897.1
0.00207184 0.00119618 0.026 13024.6
0.00226802 0.00130945 0.026 13168.4
0.00246831 0.00142508 0.026 13331.5
0.00267303 0.00154328 0.026 13513.5
0.00288259 0.00166427 0.026 13715.4
0.00309735 0.00178825 0.026 13936.2
0.00331769 0.00191547 0.026 14176.6
0.00354401 0.00204614 0.026 14437.4
0.00377673 0.0021805 0.026 14719.4
0.00401626 0.00231879 0.026 15023.7
0.00426304 0.00246127 0.026 15352.2
0.0045175 0.00260818 0.026 15706.2
0.00478012 0.0027598 0.026 16087.2
0.00505136 0.0029164 0.026 16497.4
0.0053317 0.00307826 0.026 16938.8
0.00562167 0.00324567 0.026 17414
0.00592177 0.00341894 0.026 17926.1
0.00623257 0.00359837 0.026 18477.8
0.0065546 0.0037843 0.026 19070
0.00688845 0.00397706 0.026 19708.1
0.00723473 0.00417698 0.026 20397.3
0.00759407 0.00438444 0.026 21143.9
0.0079671 0.00459981 0.026 21954.3
0.0083545 0.00482347 0.026 22834.6
0.00875697 0.00505584 0.026 23790.8
0.00917525 0.00529733 0.026 24829.7
0.00961007 0.00554838 0.026 25960.2
0.0100622 0.00580943 0.026 27191.3
0.0105325 0.00608095 0.026 28532.2
0.0110218 0.00636345 0.026 29994.8
0.011531 0.00665743 0.026 31600
0.012061 0.00696343 0.026 33371.7
0.0126127 0.00728197 0.026 35337.3
0.0131872 0.00761366 0.026 37542.2
0.0137855 0.00795908 0.026 40025.4
0.0144087 0.00831886 0.026 42852.6
0.0150578 0.00869364 0.026 46053
0.0157341 0.0090841 0.026 49647.5
0.0164388 0.00949095 0.026 53663
0.0171732 0.00991493 0.026 58143.5
0.0179385 0.0103568 0.026 63089.3
0.0187362 0.0108173 0.026 68418.7
0.0195677 0.0112974 0.026 74017.7
0.0204344 0.0117978 0.026 79728.3
0.0213381 0.0123195 0.026 85338.9
0.0222801 0.0128635 0.026 90796.6
0.0232625 0.0134306 0.026 96170
0.0242867 0.014022 0.026 101201
0.0253548 0.0146386 0.026 105335
0.0264686 0.0152817 0.026 108386
0.0276302 0.0159524 0.026 110366
0.0288416 0.0166517 0.026 111373
0.0301051 0.0173812 0.026 111055
0.0314228 0.018142 0.026 110279
0.0327972 0.0189355 0.026 109051
0.0342308 0.0197632 0.026 107505
0.0357262 0.0206265 0.026 105689
0.0372859 0.021527 0.026 104033
0.038913 0.0224664 0.026 103047
0.0406102 0.0234463 0.026 102679
0.0423807 0.0244685 0.026 102468
0.0442276 0.0255348 0.026 102005
0.0461543 0.0266472 0.026 101778
0.0481643 0.0278077 0.026 101832
0.0502611 0.0290183 0.026 101947
0.0524487 0.0302813 0.026 101930
0.0547308 0.0315988 0.026 101743
0.0571116 0.0329735 0.026 101500
0.0595956 0.0344075 0.026 101536
0.0621869 0.0359036 0.026 101891
0.0648905 0.0374645 0.026 102399
0.0677111 0.039093 0.026 102781
0.0706539 0.040792 0.026 102879
0.073724 0.0425646 0.026 102742
0.0769272 0.044414 0.026 102494
0.0802692 0.0463434 0.026 102270
0.0837559 0.0483565 0.026 102228
0.0873938 0.0504568 0.026 102215
0.0911892 0.0526481 0.026 102244
0.0951492 0.0549344 0.026 102291
0.0992806 0.0573198 0.026 102384
0.103592 0.0598086 0.026 102565
0.10809 0.0624052 0.026 102583
0.112782 0.0651144 0.026 102513
0.117678 0.0679412 0.026 102574
0.122786 0.0708904 0.026 102434
0.128115 0.0739676 0.026 102178
0.133677 0.0771782 0.026 101759
