# wallHeatFlux  FACE_DATA 240
# x  y  z  wallHeatFlux
-0.771783 0 0.026 -320120
-0.74637 0 0.026 -80892.5
-0.719597 0 0.026 -77867
-0.693782 0 0.026 -76540
-0.66889 0 0.026 -75850
-0.644887 0 0.026 -75000.7
-0.621743 0 0.026 -74363.8
-0.599426 0 0.026 -74204.6
-0.577906 0 0.026 -74045.3
-0.557155 0 0.026 -73461.5
-0.537145 0 0.026 -72771.4
-0.517849 0 0.026 -72240.6
-0.499243 0 0.026 -71869.1
-0.481301 0 0.026 -71550.6
-0.463999 0 0.026 -71179.1
-0.447315 0 0.026 -70754.4
-0.431226 0 0.026 -70382.9
-0.41571 0 0.026 -70064.4
-0.400747 0 0.026 -69799
-0.386317 0 0.026 -69639.8
-0.372401 0 0.026 -69374.4
-0.358982 0 0.026 -69109
-0.346039 0 0.026 -68790.5
-0.333557 0 0.026 -68418.9
-0.321518 0 0.026 -68100.5
-0.309908 0 0.026 -67888.1
-0.298709 0 0.026 -67782
-0.287908 0 0.026 -67835.1
-0.27749 0 0.026 -67888.1
-0.267441 0 0.026 -67888.1
-0.257748 0 0.026 -67835.1
-0.248397 0 0.026 -67675.8
-0.239378 0 0.026 -67410.4
-0.230676 0 0.026 -67038.9
-0.222282 0 0.026 -66667.3
-0.214183 0 0.026 -66295.8
-0.20637 0 0.026 -65977.3
-0.19883 0 0.026 -65711.9
-0.191555 0 0.026 -65499.6
-0.184536 0 0.026 -65393.4
-0.177762 0 0.026 -65393.4
-0.171224 0 0.026 -65393.4
-0.165013 0 0.026 -65499.6
-0.159119 0 0.026 -65605.7
-0.153435 0 0.026 -65765
-0.14795 0 0.026 -65924.2
-0.14266 0 0.026 -66030.4
-0.137557 0 0.026 -66136.5
-0.132633 0 0.026 -66189.6
-0.127882 0 0.026 -66242.7
-0.123298 0 0.026 -66242.7
-0.118874 0 0.026 -66189.6
-0.114605 0 0.026 -66136.5
-0.110484 0 0.026 -66083.5
-0.106508 0 0.026 -65977.3
-0.10267 0 0.026 -65871.1
-0.0989664 0 0.026 -65765
-0.0953906 0 0.026 -65658.8
-0.0919392 0 0.026 -65499.6
-0.0886074 0 0.026 -65393.4
-0.085391 0 0.026 -65234.2
-0.0822859 0 0.026 -65128
-0.079288 0 0.026 -64968.8
-0.0763938 0 0.026 -64862.6
-0.0735993 0 0.026 -64756.5
-0.0709011 0 0.026 -64650.3
-0.0682959 0 0.026 -64544.2
-0.0657802 0 0.026 -64438
-0.063351 0 0.026 -64384.9
-0.0610052 0 0.026 -64278.8
-0.05874 0 0.026 -64225.7
-0.0565524 0 0.026 -64172.6
-0.0544398 0 0.026 -64119.5
-0.0523995 0 0.026 -64066.5
-0.0504291 0 0.026 -64013.4
-0.048526 0 0.026 -63960.3
-0.046688 0 0.026 -63960.3
-0.0449127 0 0.026 -63907.2
-0.043198 0 0.026 -63907.2
-0.0415419 0 0.026 -63854.1
-0.0399422 0 0.026 -63854.1
-0.0383971 0 0.026 -63854.1
-0.0369046 0 0.026 -63854.1
-0.0354628 0 0.026 -63854.1
-0.0340701 0 0.026 -63801.1
-0.0327248 0 0.026 -63801.1
-0.0314253 0 0.026 -63801.1
-0.0301698 0 0.026 -63801.1
-0.0289571 0 0.026 -63801.1
-0.0277855 0 0.026 -63801.1
-0.0266537 0 0.026 -63801.1
-0.0255603 0 0.026 -63801.1
-0.0245039 0 0.026 -63801.1
-0.0234834 0 0.026 -63801.1
-0.0224975 0 0.026 -63801.1
-0.0215449 0 0.026 -63801.1
-0.0206246 0 0.026 -63801.1
-0.0197355 0 0.026 -63854.1
-0.0188765 0 0.026 -63854.1
-0.0180466 0 0.026 -63854.1
-0.0172447 0 0.026 -63854.1
-0.0164699 0 0.026 -63854.1
-0.0157213 0 0.026 -64491.1
-0.0149981 0 0.026 -91349.1
-0.0142993 0 0.026 -314653
-0.0136241 0 0.026 -249153
-0.0129717 0 0.026 -178080
-0.0123413 0 0.026 -169482
-0.0117322 0 0.026 -174524
-0.0111437 0 0.026 -178558
-0.010575 0 0.026 -180628
-0.0100256 0 0.026 -183176
-0.00949468 0 0.026 -185564
-0.00898166 0 0.026 -187210
-0.00848594 0 0.026 -188908
-0.00800694 0 0.026 -190607
-0.00754409 0 0.026 -192093
-0.00709684 0 0.026 -193261
-0.00666467 0 0.026 -193951
-0.00624706 0 0.026 -194163
-0.00584352 0 0.026 -193898
-0.00545358 0 0.026 -193155
-0.00507677 0 0.026 -192040
-0.00471265 0 0.026 -190448
-0.0043608 0 0.026 -188537
-0.0040208 0 0.026 -186520
-0.00369224 0 0.026 -184768
-0.00337474 0 0.026 -183654
-0.00306793 0 0.026 -183654
-0.00277146 0 0.026 -185299
-0.00248495 0 0.026 -188431
-0.00220809 0 0.026 -193420
-0.00194054 0 0.026 -200427
-0.001682 0 0.026 -209875
-0.00143216 0 0.026 -218898
-0.00119071 0 0.026 -228559
-0.000957397 0 0.026 -238272
-0.000731928 0 0.026 -247295
-0.00051404 0 0.026 -254939
-0.00030348 0 0.026 -259769
-0.0001 0 0.026 -259875
8.66025e-05 5e-05 0.026 -152082
0.000259964 0.00015009 0.026 -207314
0.000433795 0.000250451 0.026 -224295
0.000608407 0.000351264 0.026 -236523
0.000784117 0.000452711 0.026 -245520
0.000961243 0.000554974 0.026 -251383
0.0011401 0.000658238 0.026 -256368
0.00132102 0.000762689 0.026 -261058
0.00150431 0.000868516 0.026 -265233
0.00169033 0.000975909 0.026 -269322
0.00187939 0.00108506 0.026 -273661
0.00207184 0.00119618 0.026 -278308
0.00226802 0.00130945 0.026 -282906
0.00246831 0.00142508 0.026 -287791
0.00267303 0.00154328 0.026 -292890
0.00288259 0.00166427 0.026 -298295
0.00309735 0.00178825 0.026 -303774
0.00331769 0.00191547 0.026 -309604
0.00354401 0.00204614 0.026 -315644
0.00377673 0.0021805 0.026 -321809
0.00401626 0.00231879 0.026 -328163
0.00426304 0.00246127 0.026 -334731
0.0045175 0.00260818 0.026 -341550
0.00478012 0.0027598 0.026 -348571
0.00505136 0.0029164 0.026 -355855
0.0053317 0.00307826 0.026 -363492
0.00562167 0.00324567 0.026 -371327
0.00592177 0.00341894 0.026 -379695
0.00623257 0.00359837 0.026 -388339
0.0065546 0.0037843 0.026 -397363
0.00688845 0.00397706 0.026 -406762
0.00723473 0.00417698 0.026 -416452
0.00759407 0.00438444 0.026 -426603
0.0079671 0.00459981 0.026 -437380
0.0083545 0.00482347 0.026 -449102
0.00875697 0.00505584 0.026 -461818
0.00917525 0.00529733 0.026 -476005
0.00961007 0.00554838 0.026 -491919
0.0100622 0.00580943 0.026 -510049
0.0105325 0.00608095 0.026 -530601
0.0110218 0.00636345 0.026 -553291
0.011531 0.00665743 0.026 -578738
0.012061 0.00696343 0.026 -607145
0.0126127 0.00728197 0.026 -639412
0.0131872 0.00761366 0.026 -674285
0.0137855 0.00795908 0.026 -713485
0.0144087 0.00831886 0.026 -758216
0.0150578 0.00869364 0.026 -808186
0.0157341 0.0090841 0.026 -863917
0.0164388 0.00949095 0.026 -924455
0.0171732 0.00991493 0.026 -991703
0.0179385 0.0103568 0.026 -1.06459e+06
0.0187362 0.0108173 0.026 -1.14836e+06
0.0195677 0.0112974 0.026 -1.23789e+06
0.0204344 0.0117978 0.026 -1.30757e+06
0.0213381 0.0123195 0.026 -1.37993e+06
0.0222801 0.0128635 0.026 -1.43288e+06
0.0232625 0.0134306 0.026 -1.48882e+06
0.0242867 0.014022 0.026 -1.54954e+06
0.0253548 0.0146386 0.026 -1.59531e+06
0.0264686 0.0152817 0.026 -1.61242e+06
0.0276302 0.0159524 0.026 -1.65461e+06
0.0288416 0.0166517 0.026 -1.67002e+06
0.0301051 0.0173812 0.026 -1.67346e+06
0.0314228 0.018142 0.026 -1.6714e+06
0.0327972 0.0189355 0.026 -1.63565e+06
0.0342308 0.0197632 0.026 -1.61346e+06
0.0357262 0.0206265 0.026 -1.55081e+06
0.0372859 0.021527 0.026 -1.49775e+06
0.038913 0.0224664 0.026 -1.46297e+06
0.0406102 0.0234463 0.026 -1.4326e+06
0.0423807 0.0244685 0.026 -1.423e+06
0.0442276 0.0255348 0.026 -1.34428e+06
0.0461543 0.0266472 0.026 -1.36147e+06
0.0481643 0.0278077 0.026 -1.33208e+06
0.0502611 0.0290183 0.026 -1.29734e+06
0.0524487 0.0302813 0.026 -1.34102e+06
0.0547308 0.0315988 0.026 -1.31077e+06
0.0571116 0.0329735 0.026 -1.23669e+06
0.0595956 0.0344075 0.026 -1.24964e+06
0.0621869 0.0359036 0.026 -1.24795e+06
0.0648905 0.0374645 0.026 -1.25428e+06
0.0677111 0.039093 0.026 -1.25802e+06
0.0706539 0.040792 0.026 -1.24675e+06
0.073724 0.0425646 0.026 -1.24e+06
0.0769272 0.044414 0.026 -1.20973e+06
0.0802692 0.0463434 0.026 -1.18284e+06
0.0837559 0.0483565 0.026 -1.19016e+06
0.0873938 0.0504568 0.026 -1.16049e+06
0.0911892 0.0526481 0.026 -1.14109e+06
0.0951492 0.0549344 0.026 -1.14726e+06
0.0992806 0.0573198 0.026 -1.20899e+06
0.103592 0.0598086 0.026 -1.34982e+06
0.10809 0.0624052 0.026 -1.31102e+06
0.112782 0.0651144 0.026 -1.21707e+06
0.117678 0.0679412 0.026 -1.26945e+06
0.122786 0.0708904 0.026 -1.25891e+06
0.128115 0.0739676 0.026 -1.22413e+06
0.133677 0.0771782 0.026 -1.14116e+06
