# wallHeatFlux  FACE_DATA 398
# x  y  z  wallHeatFlux
-0.7975 0 0.025 -653677
-0.79239 0 0.025 -120013
-0.787056 0 0.025 -71398
-0.781492 0 0.025 -64890.1
-0.775691 0 0.025 -66292.5
-0.769649 0 0.025 -66923.8
-0.763362 0 0.025 -67286
-0.756822 0 0.025 -66988.4
-0.750025 0 0.025 -66355.2
-0.742968 0 0.025 -65424.6
-0.735648 0 0.025 -64412.4
-0.72806 0 0.025 -63415.2
-0.720203 0 0.025 -62424
-0.712076 0 0.025 -61481.4
-0.703677 0 0.025 -60639
-0.695006 0 0.025 -59827.7
-0.686065 0 0.025 -59074.4
-0.676855 0 0.025 -58389.7
-0.667379 0 0.025 -57693.2
-0.65764 0 0.025 -57012.4
-0.647644 0 0.025 -56419.1
-0.637397 0 0.025 -55861.9
-0.626906 0 0.025 -55289.5
-0.616179 0 0.025 -54808.4
-0.605224 0 0.025 -54274.2
-0.594054 0 0.025 -53786
-0.582678 0 0.025 -53321
-0.57111 0 0.025 -52902.3
-0.559364 0 0.025 -52450.3
-0.547454 0 0.025 -52032.7
-0.535396 0 0.025 -51624.2
-0.523205 0 0.025 -51286.5
-0.510901 0 0.025 -50927.5
-0.4985 0 0.025 -50542.4
-0.486021 0 0.025 -50198.7
-0.473483 0 0.025 -49901.3
-0.460905 0 0.025 -49622.4
-0.448308 0 0.025 -49353.3
-0.435709 0 0.025 -49039.2
-0.42313 0 0.025 -48700.5
-0.41059 0 0.025 -48419.8
-0.39811 0 0.025 -48212.8
-0.385706 0 0.025 -48014.4
-0.373398 0 0.025 -47799.9
-0.361205 0 0.025 -47573.6
-0.349141 0 0.025 -47350.5
-0.337226 0 0.025 -47121.9
-0.325475 0 0.025 -46908.8
-0.313901 0 0.025 -46717
-0.30252 0 0.025 -46540.6
-0.291343 0 0.025 -46392.1
-0.280382 0 0.025 -46265.1
-0.269646 0 0.025 -46137.1
-0.259148 0 0.025 -45999
-0.248893 0 0.025 -45862.6
-0.23889 0 0.025 -45726.8
-0.229143 0 0.025 -45595.7
-0.219659 0 0.025 -45445.1
-0.210441 0 0.025 -45310.3
-0.201491 0 0.025 -45157.4
-0.192812 0 0.025 -45018.2
-0.184405 0 0.025 -44889.1
-0.176269 0 0.025 -44779.5
-0.168404 0 0.025 -44687.8
-0.160808 0 0.025 -44623
-0.15348 0 0.025 -44571.9
-0.146415 0 0.025 -44532.3
-0.13961 0 0.025 -44496.7
-0.133063 0 0.025 -44447.1
-0.126767 0 0.025 -44393
-0.120718 0 0.025 -44334.2
-0.11491 0 0.025 -44276
-0.109339 0 0.025 -44218.6
-0.103997 0 0.025 -44155
-0.0988805 0 0.025 -44095.5
-0.0939808 0 0.025 -44028
-0.0892928 0 0.025 -43962
-0.0848096 0 0.025 -43896.1
-0.0805248 0 0.025 -43841.3
-0.0764316 0 0.025 -43786.8
-0.0725237 0 0.025 -43737.6
-0.0687943 0 0.025 -43700
-0.065237 0 0.025 -43667.1
-0.0618454 0 0.025 -43640.6
-0.058613 0 0.025 -43613.2
-0.0555337 0 0.025 -43592.3
-0.0526013 0 0.025 -43576
-0.0498099 0 0.025 -43554.7
-0.0471536 0 0.025 -43538.8
-0.0446266 0 0.025 -43522.9
-0.0422235 0 0.025 -43507
-0.039939 0 0.025 -43491.1
-0.0377676 0 0.025 -43474.8
-0.0357044 0 0.025 -43459.6
-0.0337445 0 0.025 -43448.7
-0.0318832 0 0.025 -43400.6
-0.0301159 0 0.025 -42167.8
-0.0284383 0 0.025 -34795.8
-0.0268461 0 0.025 -31754.5
-0.0253353 0 0.025 -48651.3
-0.023902 0 0.025 -60950.6
-0.0225426 0 0.025 -68842.8
-0.0212532 0 0.025 -74518.8
-0.0200306 0 0.025 -79544.2
-0.0188715 0 0.025 -84083.8
-0.0177728 0 0.025 -87937.7
-0.0167313 0 0.025 -91390.3
-0.0157444 0 0.025 -94624
-0.0148092 0 0.025 -97647.7
-0.0139232 0 0.025 -100463
-0.0130838 0 0.025 -103026
-0.0122887 0 0.025 -105313
-0.0115356 0 0.025 -107321
-0.0108223 0 0.025 -109069
-0.0101469 0 0.025 -110599
-0.00950727 0 0.025 -111926
-0.00890168 0 0.025 -113104
-0.00832835 0 0.025 -114182
-0.00778557 0 0.025 -115224
-0.00727176 0 0.025 -116280
-0.0067854 0 0.025 -117391
-0.00632507 0 0.025 -118588
-0.00588937 0 0.025 -119894
-0.00547703 0 0.025 -121314
-0.0050868 0 0.025 -122857
-0.00471753 0 0.025 -124525
-0.0043681 0 0.025 -126324
-0.00403746 0 0.025 -128256
-0.00372461 0 0.025 -130335
-0.0034286 0 0.025 -132540
-0.00314855 0 0.025 -134922
-0.0028836 0 0.025 -137523
-0.00263294 0 0.025 -140255
-0.00239581 0 0.025 -142848
-0.0021715 0 0.025 -145589
-0.00195929 0 0.025 -148455
-0.00175856 0 0.025 -151414
-0.00156869 0 0.025 -154471
-0.00138908 0 0.025 -157626
-0.0012192 0 0.025 -160837
-0.00105853 0 0.025 -164123
-0.000906546 0 0.025 -167450
-0.000762803 0 0.025 -170685
-0.000626848 0 0.025 -173550
-0.000498265 0 0.025 -175210
-0.000376656 0 0.025 -173851
-0.000261642 0 0.025 -165898
-0.00015287 0 0.025 -144356
-5e-05 0 0.025 -93242.1
4.14519e-05 2.79596e-05 0.025 -66170.6
0.000125371 8.45641e-05 0.025 -79467.1
0.000211347 0.000142556 0.025 -95037.7
0.000299429 0.000201968 0.025 -106307
0.000389669 0.000262835 0.025 -115770
0.000482118 0.000325193 0.025 -124745
0.000576831 0.000389077 0.025 -133154
0.000673861 0.000454524 0.025 -140765
0.000773265 0.000521574 0.025 -147487
0.0008751 0.000590262 0.025 -153411
0.000979426 0.000660632 0.025 -158655
0.0010863 0.000732721 0.025 -163328
0.00119579 0.000806572 0.025 -167671
0.00130795 0.000882227 0.025 -171693
0.00142285 0.00095973 0.025 -175473
0.00154056 0.00103912 0.025 -179110
0.00166115 0.00112046 0.025 -182639
0.00178467 0.00120378 0.025 -186115
0.00191121 0.00128913 0.025 -189588
0.00204083 0.00137656 0.025 -193008
0.00217362 0.00146612 0.025 -196492
0.00230964 0.00155787 0.025 -200027
0.00244897 0.00165185 0.025 -203592
0.00259169 0.00174812 0.025 -207247
0.00273789 0.00184673 0.025 -211019
0.00288765 0.00194774 0.025 -214924
0.00304105 0.00205122 0.025 -218930
0.00319818 0.00215719 0.025 -223071
0.00335912 0.00226575 0.025 -227414
0.00352397 0.00237695 0.025 -231891
0.00369283 0.00249085 0.025 -236572
0.00386579 0.00260751 0.025 -241437
0.00404294 0.00272699 0.025 -246545
0.00422438 0.00284938 0.025 -251931
0.00441022 0.00297474 0.025 -257591
0.00460056 0.00310312 0.025 -263536
0.00479552 0.00323462 0.025 -269773
0.00499519 0.0033693 0.025 -276418
0.00519968 0.00350723 0.025 -283368
0.00540911 0.00364849 0.025 -290755
0.00562361 0.00379318 0.025 -298566
0.00584329 0.00394134 0.025 -306813
0.00606826 0.00409309 0.025 -315664
0.00629865 0.00424849 0.025 -324947
0.0065346 0.00440764 0.025 -334882
0.00677623 0.00457063 0.025 -345542
0.00702368 0.00473753 0.025 -356802
0.00727707 0.00490844 0.025 -368958
0.00753655 0.00508347 0.025 -381880
0.00780227 0.00526269 0.025 -395828
0.00807436 0.00544622 0.025 -410738
0.00835298 0.00563415 0.025 -426432
0.00863826 0.00582659 0.025 -443978
0.00893038 0.00602362 0.025 -463309
0.00922949 0.00622537 0.025 -483002
0.00953574 0.00643195 0.025 -504489
0.00984929 0.00664345 0.025 -529301
0.0101703 0.00686 0.025 -557150
0.0104991 0.00708171 0.025 -585953
0.0108356 0.00730871 0.025 -620804
0.0111801 0.0075411 0.025 -658323
0.0115329 0.00777902 0.025 -696996
0.011894 0.00802259 0.025 -741813
0.0122637 0.00827194 0.025 -784107
0.0126421 0.00852719 0.025 -828582
0.0130295 0.0087885 0.025 -870607
0.013426 0.00905597 0.025 -913322
0.013832 0.00932978 0.025 -955721
0.0142475 0.00961003 0.025 -998020
0.0146727 0.0098969 0.025 -1.04112e+06
0.0151081 0.0101905 0.025 -1.08539e+06
0.0155536 0.010491 0.025 -1.13216e+06
0.0160097 0.0107986 0.025 -1.1791e+06
0.0164764 0.0111134 0.025 -1.22983e+06
0.016954 0.0114356 0.025 -1.28347e+06
0.0174427 0.0117653 0.025 -1.33765e+06
0.0179429 0.0121026 0.025 -1.39408e+06
0.0184548 0.0124479 0.025 -1.45908e+06
0.0189786 0.0128013 0.025 -1.50313e+06
0.0195146 0.0131628 0.025 -1.55434e+06
0.020063 0.0135327 0.025 -1.61395e+06
0.0206242 0.0139112 0.025 -1.65184e+06
0.0211983 0.0142984 0.025 -1.67932e+06
0.0217857 0.0146947 0.025 -1.71215e+06
0.0223867 0.0151 0.025 -1.7389e+06
0.0230015 0.0155147 0.025 -1.75977e+06
0.0236304 0.0159389 0.025 -1.78613e+06
0.0242738 0.0163729 0.025 -1.78389e+06
0.0249318 0.0168167 0.025 -1.79427e+06
0.025605 0.0172708 0.025 -1.79782e+06
0.0262935 0.0177352 0.025 -1.77003e+06
0.0269977 0.0182102 0.025 -1.74101e+06
0.0277178 0.0186959 0.025 -1.70348e+06
0.0284544 0.0191927 0.025 -1.71911e+06
0.0292075 0.0197008 0.025 -1.66761e+06
0.0299777 0.0202203 0.025 -1.62064e+06
0.0307653 0.0207514 0.025 -1.59212e+06
0.0315704 0.0212945 0.025 -1.5631e+06
0.0323937 0.0218499 0.025 -1.53833e+06
0.0332354 0.0224176 0.025 -1.51221e+06
0.0340959 0.022998 0.025 -1.48895e+06
0.0349755 0.0235913 0.025 -1.45667e+06
0.0358747 0.0241978 0.025 -1.45509e+06
0.0367938 0.0248178 0.025 -1.42117e+06
0.0377331 0.0254513 0.025 -1.39861e+06
0.0386932 0.0260989 0.025 -1.38201e+06
0.0396743 0.0267606 0.025 -1.36848e+06
0.0406769 0.0274369 0.025 -1.35648e+06
0.0417013 0.0281279 0.025 -1.34379e+06
0.042748 0.0288339 0.025 -1.34193e+06
0.0438175 0.0295552 0.025 -1.32807e+06
0.04491 0.0302922 0.025 -1.31195e+06
0.0460262 0.031045 0.025 -1.316e+06
0.0471662 0.031814 0.025 -1.32275e+06
0.0483306 0.0325995 0.025 -1.31027e+06
0.0495199 0.0334016 0.025 -1.31654e+06
0.0507344 0.0342208 0.025 -1.31251e+06
0.0519746 0.0350573 0.025 -1.30307e+06
0.0532409 0.0359114 0.025 -1.30797e+06
0.0545339 0.0367835 0.025 -1.29269e+06
0.0558538 0.0376739 0.025 -1.29199e+06
0.0572012 0.0385827 0.025 -1.29586e+06
0.0585766 0.0395104 0.025 -1.29466e+06
0.0599804 0.0404573 0.025 -1.30278e+06
0.061413 0.0414236 0.025 -1.28463e+06
0.0628748 0.0424096 0.025 -1.30952e+06
0.0643665 0.0434157 0.025 -1.30974e+06
0.0658883 0.0444422 0.025 -1.28658e+06
0.0674408 0.0454894 0.025 -1.27911e+06
0.0690245 0.0465576 0.025 -1.2804e+06
0.0706398 0.0476471 0.025 -1.27668e+06
0.0722871 0.0487582 0.025 -1.2715e+06
0.0739669 0.0498912 0.025 -1.27355e+06
0.0756797 0.0510466 0.025 -1.28271e+06
0.0774258 0.0522244 0.025 -1.29301e+06
0.0792059 0.053425 0.025 -1.28233e+06
0.0810203 0.0546489 0.025 -1.30563e+06
0.0828694 0.0558961 0.025 -1.27381e+06
0.0847537 0.0571671 0.025 -1.31876e+06
0.0866737 0.0584622 0.025 -1.28251e+06
0.0886298 0.0597816 0.025 -1.28364e+06
0.0906224 0.0611256 0.025 -1.29194e+06
0.0926518 0.0624944 0.025 -1.26011e+06
0.0947185 0.0638884 0.025 -1.30177e+06
0.096823 0.065308 0.025 -1.2584e+06
0.0989659 0.0667532 0.025 -1.34493e+06
0.101147 0.0682245 0.025 -1.70163e+06
0.103367 0.0697219 0.025 -1.60845e+06
0.105626 0.0712458 0.025 -1.21125e+06
0.107926 0.0727965 0.025 -1.2051e+06
0.110265 0.074374 0.025 -1.2433e+06
0.112644 0.0759789 0.025 -1.85363e+06
0.115063 0.0776111 0.025 -1.24514e+06
0.117524 0.0792709 0.025 -1.72275e+06
0.120026 0.0809585 0.025 -1.89604e+06
0.122569 0.0826741 0.025 -1.68223e+06
0.125155 0.0844179 0.025 -1.50093e+06
0.127782 0.0861901 0.025 -1.30182e+06
0.130451 0.0879908 0.025 -1.2558e+06
0.133163 0.08982 0.025 -1.23308e+06
0.135918 0.0916781 0.025 -1.2053e+06
0.138716 0.0935651 0.025 -1.20447e+06
0.141556 0.095481 0.025 -1.21294e+06
0.14444 0.097426 0.025 -1.60215e+06
0.147367 0.0994004 0.025 -2.38072e+06
0.150337 0.101404 0.025 -1.68253e+06
0.153351 0.103437 0.025 -1.62977e+06
0.156408 0.105498 0.025 -2.28941e+06
0.159508 0.107589 0.025 -1.03329e+06
0.162651 0.10971 0.025 -1.53172e+06
0.165838 0.111859 0.025 -3.76583e+06
0.169069 0.114039 0.025 -1.60845e+06
0.172343 0.116247 0.025 -2.00514e+06
0.175659 0.118483 0.025 -1.90199e+06
0.179018 0.120749 0.025 -1.89629e+06
0.182421 0.123045 0.025 -1.96602e+06
0.185866 0.125368 0.025 -1.72425e+06
0.189353 0.12772 0.025 -1.75863e+06
0.192882 0.1301 0.025 -1.87089e+06
0.196453 0.132509 0.025 -1.76747e+06
0.200065 0.134946 0.025 -2.1574e+06
0.203718 0.13741 0.025 -1.97237e+06
0.207412 0.139901 0.025 -933867
0.211146 0.14242 0.025 -997461
0.214919 0.144965 0.025 -1.63759e+06
0.218732 0.147537 0.025 -997686
0.222583 0.150134 0.025 -1.97316e+06
0.226472 0.152757 0.025 -985849
0.230399 0.155406 0.025 -1.85777e+06
0.234362 0.15808 0.025 -1.74798e+06
0.238362 0.160777 0.025 -2.3825e+06
0.242396 0.163498 0.025 -1.96936e+06
0.246466 0.166244 0.025 -2.13563e+06
0.250569 0.169012 0.025 -939211
0.254706 0.171801 0.025 -1.55121e+06
0.258874 0.174613 0.025 -1.5588e+06
0.263074 0.177446 0.025 -1.99282e+06
0.267304 0.180299 0.025 -1.60544e+06
0.271564 0.183172 0.025 -957733
0.275852 0.186064 0.025 -1.64877e+06
0.280168 0.188975 0.025 -931658
0.28451 0.191904 0.025 -1.67422e+06
0.288876 0.19485 0.025 -2.31225e+06
0.293268 0.197812 0.025 -1.63146e+06
0.297683 0.20079 0.025 -1.95584e+06
0.302119 0.203782 0.025 -1.80941e+06
0.306577 0.206788 0.025 -1.39416e+06
0.311054 0.209808 0.025 -1.59938e+06
0.315549 0.212841 0.025 -1.17757e+06
0.320063 0.215885 0.025 -2.05597e+06
0.324591 0.218939 0.025 -1.44135e+06
0.329134 0.222003 0.025 -1.43049e+06
0.333691 0.225077 0.025 -2.25416e+06
0.33826 0.228159 0.025 -1.8046e+06
0.342839 0.231248 0.025 -1.85355e+06
0.347428 0.234343 0.025 -883054
0.352025 0.237444 0.025 -1.97315e+06
0.356628 0.240548 0.025 -1.43272e+06
0.361237 0.243658 0.025 -1.16557e+06
0.36585 0.246769 0.025 -2.64709e+06
0.370465 0.249882 0.025 -1.02976e+06
0.375082 0.252996 0.025 -1.47043e+06
0.379698 0.25611 0.025 -2.26495e+06
0.384313 0.259223 0.025 -1.41423e+06
0.388926 0.262333 0.025 -1.73606e+06
0.393534 0.265442 0.025 -1.4271e+06
0.398136 0.268546 0.025 -888130
0.40273 0.271645 0.025 -1.65391e+06
0.407317 0.274739 0.025 -1.71024e+06
0.411894 0.277826 0.025 -2.15674e+06
0.41646 0.280906 0.025 -842324
0.421014 0.283977 0.025 -1.61776e+06
0.425554 0.28704 0.025 -1.90967e+06
0.430079 0.290092 0.025 -1.49934e+06
0.434588 0.293133 0.025 -1.85965e+06
0.439079 0.296162 0.025 -1.29262e+06
0.443551 0.299179 0.025 -1.69101e+06
0.448004 0.302183 0.025 -1.72007e+06
0.452437 0.305172 0.025 -1.67607e+06
0.456846 0.308146 0.025 -1.55627e+06
0.461232 0.311105 0.025 -1.58252e+06
0.465593 0.314047 0.025 -1.46488e+06
0.469929 0.316971 0.025 -1.95101e+06
0.474238 0.319878 0.025 -1.00132e+06
0.47852 0.322766 0.025 -1.12405e+06
0.482773 0.325635 0.025 -891102
0.486996 0.328483 0.025 -1.34452e+06
0.491189 0.331311 0.025 -2.05276e+06
0.49535 0.334118 0.025 -1.3033e+06
