# Wall heat-flux
# Time        	patch         	min           	max           	integral      
0             	base	-1.280324e+04	3.526740e+04	4.033853e+02
