# y+ ()       
# Time        	patch         	min           	max           	average       
3400          	base	8.481414e-03	2.522776e+01	5.478743e+00
