# Wall heat-flux
# Time        	patch         	min           	max           	integral      
7500          	base	-2.162042e+05	-7.524991e+03	-1.249422e+02
