4.96314e-06 	28.1842 	-0.0159423 	0
1.48429e-05 	82.7824 	-0.0421133 	0
2.46948e-05 	135.663 	-0.0638686 	0
3.46404e-05 	187.638 	-0.0856983 	0
4.47862e-05 	239.142 	-0.107869 	0
5.52311e-05 	290.081 	-0.130892 	0
6.60699e-05 	339.875 	-0.154842 	0
7.73965e-05 	387.714 	-0.179461 	0
8.93058e-05 	432.915 	-0.204501 	0
0.000101896 	475.144 	-0.22969 	0
0.000115268 	514.42 	-0.254346 	0
0.00012953 	551.086 	-0.277818 	0
0.000144795 	585.486 	-0.299417 	0
0.000161185 	617.802 	-0.318425 	0
0.000178829 	648.195 	-0.33414 	0
0.000197868 	676.837 	-0.345733 	0
0.00021845 	703.894 	-0.352921 	0
0.000240738 	729.52 	-0.354734 	0
0.000264909 	753.856 	-0.350395 	0
0.000291153 	777.038 	-0.339995 	0
0.000319676 	799.209 	-0.322944 	0
0.000350703 	820.536 	-0.298942 	0
0.000384479 	841.151 	-0.267843 	0
0.000421271 	861.136 	-0.229633 	0
0.000461366 	880.557 	-0.184409 	0
0.000505082 	899.47 	-0.13242 	0
0.000552762 	917.93 	-0.0741383 	0
0.000604783 	935.982 	-0.0102217 	0
0.000661554 	953.668 	0.0586107 	0
0.000723523 	971.027 	0.130581 	0
0.000791177 	988.094 	0.206202 	0
0.00086505 	1004.9 	0.282549 	0
0.000945722 	1021.48 	0.358541 	0
0.00103383 	1037.86 	0.432643 	0
0.00113007 	1054.07 	0.503118 	0
0.0012352 	1070.14 	0.568499 	0
0.00135004 	1086.09 	0.627351 	0
0.0014755 	1101.96 	0.678623 	0
0.00161258 	1117.76 	0.722743 	0
0.00176234 	1133.55 	0.759075 	0
0.00192597 	1149.33 	0.788518 	0
0.00210476 	1165.15 	0.812685 	0
0.00230012 	1181.05 	0.834514 	0
0.00251358 	1197.06 	0.858551 	0
0.00274683 	1213.23 	0.890854 	0
0.00300171 	1229.62 	0.938042 	0
0.00328023 	1246.32 	1.00812 	0
0.00358457 	1263.51 	1.11106 	0
0.00391714 	1281.33 	1.25879 	0
0.00428056 	1299.92 	1.46583 	0
0.00467769 	1319.4 	1.74503 	0
0.00511167 	1339.8 	2.11076 	0
0.00558591 	1361.01 	2.57752 	0
0.00610416 	1382.55 	3.15893 	0
0.0066705 	1403.79 	3.85243 	0
0.0072894 	1424.55 	4.68107 	0
0.00796574 	1444.95 	5.74698 	0
0.00855799 	1460.19 	6.89693 	0
0.00894392 	1468.48 	7.74959 	0
0.00951253 	1476.23 	9.05244 	0
0.0103952 	1481.53 	10.8478 	0
0.0113598 	1482.44 	11.9376 	0
0.0124139 	1482.46 	12.0195 	0
0.013566 	1482.44 	12.0523 	0
0.0148251 	1482.44 	12.1674 	0
0.0162011 	1482.49 	12.3861 	0
0.017705 	1482.5 	12.7256 	0
0.0193486 	1482.53 	12.9073 	0
0.0202967 	1482.54 	13.0065 	0
0.0212348 	1482.55 	13.0712 	0
0.0231084 	1482.58 	13.0875 	0
0.0252543 	1482.54 	12.9311 	0
0.0276001 	1482.57 	13.0458 	0
0.0301448 	1482.58 	13.2476 	0
0.031484 	1482.57 	13.3877 	0
0.0329673 	1482.55 	13.5265 	0
0.0360314 	1482.54 	13.6996 	0
0.0393815 	1482.48 	13.5844 	0
0.041589 	1482.42 	13.4719 	0
0.0435022 	1482.39 	13.3711 	0
0.0470499 	1482.38 	13.2041 	0
0.0506434 	1482.32 	13.4768 	0
0.0529317 	1482.33 	13.6923 	0
0.0562215 	1482.38 	14.0449 	0
0.0602482 	1482.35 	14.6643 	0
0.0629866 	1482.35 	15.0157 	0
0.0671978 	1482.39 	15.4208 	0
0.07057 	1482.26 	15.2732 	0
0.0738498 	1482.2 	14.7432 	0
0.078218 	1482.5 	12.4343 	0
0.0818093 	1482.82 	10.0775 	0
0.0859665 	1483.22 	6.60506 	0
0.0899001 	1483.52 	3.95353 	0
0.0938543 	1483.77 	1.88407 	0
0.098165 	1483.93 	0.552847 	0
0.101925 	1483.97 	0.274344 	0
0.106651 	1484 	0.0216851 	0
0.110224 	1484 	0.0129827 	0
0.113967 	1484 	0.00326146 	0
0.118805 	1484 	0.000178888 	0
0.122029 	1484 	0.000103988 	0
0.126872 	1484 	4.07572e-07 	0
0.130784 	1484 	3.50369e-07 	0
0.133691 	1484 	2.40072e-07 	0
0.138506 	1484 	-4.82574e-08 	0
0.142708 	1484 	-3.81766e-08 	0
0.145325 	1484 	-3.01471e-08 	0
0.148982 	1484 	-1.69899e-08 	0
0.15382 	1484 	-7.94893e-09 	0
0.15705 	1484 	-6.55583e-09 	0
0.159283 	1484 	-5.22284e-09 	0
0.16276 	1484 	-2.45981e-09 	0
0.166887 	1484 	2.3752e-10 	0
0.1708 	1484 	1.19449e-10 	0
0.172904 	1484 	7.18935e-11 	0
0.174709 	1484 	4.16153e-11 	0
0.178025 	1484 	2.48352e-11 	0
0.181359 	1484 	6.55373e-11 	0
0.184518 	1484 	5.58724e-11 	0
0.187512 	1484 	4.43457e-11 	0
0.189414 	1484 	3.73465e-11 	0
0.190794 	1484 	3.2334e-11 	0
0.193039 	1484 	2.46203e-11 	0
0.195586 	1484 	1.65203e-11 	0
0.197999 	1484 	9.97956e-12 	0
0.200286 	1484 	6.89718e-12 	0
0.202452 	1484 	5.9523e-12 	0
0.204504 	1484 	4.95485e-12 	0
0.206447 	1484 	3.92444e-12 	0
0.207887 	1484 	3.12031e-12 	0
0.208782 	1484 	2.63337e-12 	0
0.21003 	1484 	2.025e-12 	0
0.21168 	1484 	1.33821e-12 	0
0.213242 	1484 	8.50775e-13 	0
0.214721 	1484 	5.46996e-13 	0
0.216122 	1484 	3.7449e-13 	0
0.217447 	1484 	2.11209e-13 	0
0.218702 	1484 	1.19743e-13 	0
0.219889 	1484 	-7.12573e-14 	0
0.221014 	1484 	-8.54929e-14 	0
0.222078 	1484 	-2.06831e-13 	0
0.223085 	1484 	-1.47672e-13 	0
0.224038 	1484 	-2.33932e-13 	0
0.22494 	1484 	-3.78094e-13 	0
0.225793 	1484 	-4.11908e-13 	0
0.2266 	1484 	-4.21821e-13 	0
0.227363 	1484 	-4.99484e-13 	0
0.228086 	1484 	-5.93427e-13 	0
0.228681 	1484 	-7.05541e-13 	0
0.229013 	1484 	-8.04939e-13 	0
0.229416 	1484 	-8.90337e-13 	0
0.230028 	1484 	-8.76291e-13 	0
0.230607 	1484 	-8.33406e-13 	0
0.231154 	1484 	-8.12884e-13 	0
0.231672 	1484 	-7.47663e-13 	0
0.232161 	1484 	-8.97817e-13 	0
0.232625 	1484 	-1.00571e-12 	0
0.233063 	1484 	-1.05685e-12 	0
0.233478 	1484 	-1.09276e-12 	0
0.23387 	1484 	-1.03601e-12 	0
0.234241 	1484 	-1.08622e-12 	0
0.234591 	1484 	-1.08233e-12 	0
0.234924 	1484 	-1.00974e-12 	0
0.235237 	1484 	-9.56049e-13 	0
0.235535 	1484 	-8.53628e-13 	0
0.235816 	1484 	-8.99064e-13 	0
0.236082 	1484 	-9.45321e-13 	0
0.236335 	1484 	-8.81936e-13 	0
0.236575 	1484 	-8.26402e-13 	0
0.236811 	1484 	-7.18646e-13 	0
0.237052 	1484 	-7.84864e-13 	0
0.237298 	1484 	-8.21072e-13 	0
0.237548 	1484 	-8.33587e-13 	0
0.237805 	1484 	-8.04605e-13 	0
0.238067 	1484 	-7.95381e-13 	0
0.238335 	1484 	-7.68057e-13 	0
0.23861 	1484 	-7.56247e-13 	0
0.238891 	1484 	-6.07757e-13 	0
0.239179 	1484 	-6.1401e-13 	0
0.239474 	1484 	-6.32539e-13 	0
0.239775 	1484 	-6.66114e-13 	0
0.240085 	1484 	-7.79133e-13 	0
0.240402 	1484 	-1.07648e-12 	0
0.240727 	1484 	-9.91504e-13 	0
0.241058 	1484 	-9.66988e-13 	0
0.241398 	1484 	-1.22031e-12 	0
0.241747 	1484 	-1.99609e-12 	0
0.242104 	1484 	-2.20648e-12 	0
0.242469 	1484 	-6.25175e-13 	0
0.242844 	1484 	-1.26576e-12 	0
0.243227 	1484 	-4.361e-12 	0
0.24362 	1484 	-8.60081e-12 	0
0.244022 	1484 	-1.28369e-11 	0
0.244434 	1484 	-1.75878e-11 	0
0.244855 	1484 	-2.05538e-11 	0
0.245287 	1484 	-2.15542e-11 	0
0.245728 	1484 	-1.44283e-11 	0
0.246182 	1484 	2.3528e-11 	0
0.246646 	1484 	1.12209e-10 	0
0.24712 	1484 	3.02539e-10 	0
0.247605 	1484 	6.62373e-10 	0
0.248102 	1484 	1.29115e-09 	0
0.248612 	1484 	2.34044e-09 	0
0.249133 	1484 	4.01329e-09 	0
0.249667 	1484 	6.58084e-09 	0
0.250213 	1484 	1.03976e-08 	0
0.250772 	1484 	1.59119e-08 	0
0.251345 	1484 	2.36703e-08 	0
0.251931 	1484 	3.43377e-08 	0
0.252531 	1484 	4.86706e-08 	0
0.253145 	1484 	6.75422e-08 	0
0.253587 	1484 	8.38937e-08 	0
0.253906 	1484 	9.75405e-08 	0
0.254418 	1484 	1.22626e-07 	0
0.255076 	1484 	1.60882e-07 	0
0.25575 	1484 	2.0775e-07 	0
0.25644 	1484 	2.64244e-07 	0
0.257146 	1484 	3.31344e-07 	0
0.257868 	1484 	4.09884e-07 	0
0.258608 	1484 	5.00341e-07 	0
0.259364 	1484 	6.03068e-07 	0
0.260139 	1484 	7.18039e-07 	0
0.260931 	1484 	8.44805e-07 	0
0.261741 	1484 	9.82486e-07 	0
0.262571 	1484 	1.12945e-06 	0
0.263419 	1484 	1.2837e-06 	0
0.264287 	1484 	1.44279e-06 	0
0.265176 	1484 	1.60328e-06 	0
0.266085 	1484 	1.76113e-06 	0
0.267014 	1484 	1.91123e-06 	0
0.267965 	1484 	2.05412e-06 	0
0.268938 	1484 	2.18987e-06 	0
0.269932 	1484 	2.30259e-06 	0
0.27095 	1484 	2.38499e-06 	0
0.271991 	1484 	2.42876e-06 	0
0.273056 	1484 	2.43241e-06 	0
0.274145 	1484 	2.39631e-06 	0
0.275258 	1484 	2.32311e-06 	0
0.276397 	1484 	2.18353e-06 	0
0.277562 	1484 	1.97135e-06 	0
0.278752 	1484 	1.68431e-06 	0
0.279969 	1484 	1.31794e-06 	0
0.281073 	1484 	9.22019e-07 	0
0.281704 	1484 	6.76295e-07 	0
0.282492 	1484 	3.30934e-07 	0
0.283802 	1484 	-2.96698e-07 	0
0.285142 	1484 	-1.01992e-06 	0
0.286512 	1484 	-1.8394e-06 	0
0.287913 	1484 	-2.75142e-06 	0
0.289346 	1484 	-3.74934e-06 	0
0.290812 	1484 	-4.82458e-06 	0
0.29231 	1484 	-5.96741e-06 	0
0.293842 	1484 	-7.16524e-06 	0
0.295409 	1484 	-8.40585e-06 	0
0.29701 	1484 	-9.62503e-06 	0
0.298648 	1484 	-1.07068e-05 	0
0.300322 	1484 	-1.17558e-05 	0
0.302032 	1484 	-1.27524e-05 	0
0.303782 	1484 	-1.36751e-05 	0
0.305569 	1484 	-1.45047e-05 	0
0.307397 	1484 	-1.52202e-05 	0
0.309265 	1484 	-1.58013e-05 	0
0.310844 	1484 	-1.61744e-05 	0
0.311808 	1484 	-1.63438e-05 	0
0.313121 	1484 	-1.65005e-05 	0
0.315112 	1484 	-1.65857e-05 	0
0.317146 	1484 	-1.64711e-05 	0
0.319224 	1484 	-1.61436e-05 	0
0.321348 	1484 	-1.55981e-05 	0
0.323518 	1484 	-1.48237e-05 	0
0.325733 	1484 	-1.38147e-05 	0
0.327996 	1484 	-1.2782e-05 	0
0.330308 	1484 	-1.26016e-05 	0
0.332669 	1484 	-1.23091e-05 	0
0.33508 	1484 	-1.19027e-05 	0
0.337542 	1484 	-1.13881e-05 	0
0.340057 	1484 	-1.07633e-05 	0
0.342457 	1484 	-1.00844e-05 	0
0.343757 	1484 	-9.68767e-06 	0
0.345282 	1484 	-9.19424e-06 	0
0.348019 	1484 	-8.24945e-06 	0
0.350819 	1484 	-7.20493e-06 	0
0.35368 	1484 	-6.06627e-06 	0
0.356603 	1484 	-4.83296e-06 	0
0.359592 	1484 	-3.50988e-06 	0
0.362645 	1484 	-2.65733e-06 	0
0.365765 	1484 	-2.13638e-06 	0
0.368952 	1484 	-1.58995e-06 	0
0.372208 	1484 	-1.01825e-06 	0
0.375533 	1484 	-4.22592e-07 	0
0.377533 	1484 	-5.89131e-08 	0
