# p  FACE_DATA 203
# x  y  z  p
-0.873265 0 0.0205 3481.2
-0.846493 0 0.0205 2974.41
-0.820677 0 0.0205 2841.9
-0.795786 0 0.0205 2790.87
-0.771783 0 0.0205 2770.3
-0.74637 0 0.0205 2767.39
-0.719597 0 0.0205 2764.09
-0.693782 0 0.0205 2757.36
-0.66889 0 0.0205 2753.94
-0.644887 0 0.0205 2754.1
-0.621743 0 0.0205 2752.25
-0.599426 0 0.0205 2747.48
-0.577905 0 0.0205 2743
-0.557154 0 0.0205 2741.4
-0.537145 0 0.0205 2741.92
-0.517849 0 0.0205 2741.34
-0.499243 0 0.0205 2738.83
-0.481301 0 0.0205 2735.6
-0.463999 0 0.0205 2733.06
-0.447314 0 0.0205 2732.31
-0.431225 0 0.0205 2732.83
-0.41571 0 0.0205 2732.56
-0.400747 0 0.0205 2730.78
-0.386317 0 0.0205 2728.06
-0.372401 0 0.0205 2725.24
-0.358981 0 0.0205 2723.06
-0.346039 0 0.0205 2722.01
-0.333556 0 0.0205 2722.28
-0.321518 0 0.0205 2723.82
-0.309908 0 0.0205 2725.4
-0.298709 0 0.0205 2726.32
-0.287908 0 0.0205 2726.06
-0.27749 0 0.0205 2724.44
-0.267441 0 0.0205 2721.98
-0.257748 0 0.0205 2719.06
-0.248397 0 0.0205 2716.08
-0.239378 0 0.0205 2713.24
-0.230677 0 0.0205 2711.1
-0.222282 0 0.0205 2709.8
-0.214183 0 0.0205 2709.26
-0.20637 0 0.0205 2709.4
-0.19883 0 0.0205 2710.35
-0.191555 0 0.0205 2711.72
-0.184536 0 0.0205 2713.32
-0.177762 0 0.0205 2714.94
-0.171224 0 0.0205 2716.37
-0.164914 0 0.0205 2717.53
-0.158824 0 0.0205 2718.42
-0.152944 0 0.0205 2719.02
-0.147268 0 0.0205 2719.38
-0.141788 0 0.0205 2719.49
-0.136496 0 0.0205 2719.32
-0.131387 0 0.0205 2718.85
-0.126452 0 0.0205 2718.11
-0.121685 0 0.0205 2717.09
-0.117081 0 0.0205 2715.86
-0.112632 0 0.0205 2714.48
-0.108332 0 0.0205 2712.99
-0.104177 0 0.0205 2711.44
-0.100161 0 0.0205 2709.9
-0.0962773 0 0.0205 2708.4
-0.0925221 0 0.0205 2706.97
-0.08889 0 0.0205 2705.61
-0.0853762 0 0.0205 2704.35
-0.0819759 0 0.0205 2703.25
-0.0786847 0 0.0205 2701.6
-0.0754981 0 0.0205 2723.82
-0.0724121 0 0.0205 3805.42
-0.0694223 0 0.0205 6486.12
-0.066525 0 0.0205 7793.79
-0.0637161 0 0.0205 8335.77
-0.060992 0 0.0205 8640.43
-0.0583491 0 0.0205 8831.05
-0.0557837 0 0.0205 8995.34
-0.0532926 0 0.0205 9130.01
-0.0508723 0 0.0205 9260.91
-0.0485197 0 0.0205 9393.9
-0.0462317 0 0.0205 9532.65
-0.0440053 0 0.0205 9676.29
-0.0418373 0 0.0205 9825.3
-0.039725 0 0.0205 9980.94
-0.0376655 0 0.0205 10139.6
-0.0356562 0 0.0205 10299.7
-0.0336943 0 0.0205 10458.9
-0.0317773 0 0.0205 10615
-0.0299025 0 0.0205 10766.1
-0.0280674 0 0.0205 10911.5
-0.0262697 0 0.0205 11050.6
-0.024507 0 0.0205 11183.2
-0.0227768 0 0.0205 11309
-0.021077 0 0.0205 11427.8
-0.0194052 0 0.0205 11539.7
-0.0177593 0 0.0205 11644.4
-0.016137 0 0.0205 11741.3
-0.014536 0 0.0205 11829
-0.0129545 0 0.0205 11906.3
-0.0113902 0 0.0205 11972.7
-0.00984104 0 0.0205 12029
-0.00830498 0 0.0205 12076.3
-0.00677997 0 0.0205 12120.3
-0.00526398 0 0.0205 12175.4
-0.00375499 0 0.0205 12313.1
-0.002251 0 0.0205 12829.5
-0.00075 0 0.0205 14982.4
0.000689475 0.000398068 0.0205 12887.8
0.00206843 0.0011942 0.0205 13063.2
0.00344737 0.00199034 0.0205 13304.3
0.00482631 0.00278648 0.0205 13732.8
0.00620527 0.00358261 0.0205 14269.7
0.00758422 0.00437875 0.0205 14895.5
0.00896317 0.00517489 0.0205 15589.7
0.0103421 0.00597102 0.0205 16352.7
0.0117211 0.00676715 0.0205 17196.9
0.0131 0.00756329 0.0205 18138.1
0.0144789 0.00835943 0.0205 19192.3
0.0158579 0.00915557 0.0205 20378.6
0.0172368 0.00995171 0.0205 21715.4
0.0186158 0.0107478 0.0205 23221.5
0.0199947 0.0115439 0.0205 24919.9
0.0213737 0.0123401 0.0205 26842.4
0.0227526 0.0131362 0.0205 29005.8
0.0241316 0.0139323 0.0205 31435.5
0.0255106 0.0147285 0.0205 34165.1
0.0268895 0.0155246 0.0205 37196.3
0.0282685 0.0163208 0.0205 40559.9
0.0296474 0.0171169 0.0205 44278.9
0.0310264 0.017913 0.0205 48355
0.0324053 0.0187092 0.0205 52798.2
0.0337843 0.0195054 0.0205 57619.4
0.0351632 0.0203015 0.0205 62815.8
0.0365421 0.0210976 0.0205 68440.5
0.037921 0.0218938 0.0205 74586.3
0.0393 0.0226898 0.0205 81328.2
0.0406789 0.023486 0.0205 88689.7
0.0420579 0.0242821 0.0205 96538.6
0.0434368 0.0250783 0.0205 104870
0.0448158 0.0258745 0.0205 113540
0.0461948 0.0266706 0.0205 122499
0.0475737 0.0274667 0.0205 131391
0.0489527 0.0282628 0.0205 140078
0.0503316 0.029059 0.0205 148564
0.0517106 0.0298551 0.0205 156499
0.0530895 0.0306512 0.0205 162937
0.0544684 0.0314473 0.0205 167244
0.0558474 0.0322435 0.0205 168763
0.0572264 0.0330397 0.0205 168753
0.0586053 0.0338357 0.0205 165421
0.0599842 0.0346319 0.0205 160244
0.0613632 0.0354281 0.0205 154297
0.0627422 0.0362242 0.0205 147832
0.0641211 0.0370204 0.0205 140975
0.0655001 0.0378164 0.0205 134063
0.066879 0.0386126 0.0205 127658
0.0682579 0.0394088 0.0205 122209
0.0696369 0.0402049 0.0205 117657
0.0710158 0.041001 0.0205 113846
0.0723947 0.0417971 0.0205 110662
0.0737737 0.0425932 0.0205 107890
0.0751527 0.0433894 0.0205 105470
0.0765316 0.0441856 0.0205 103126
0.0779106 0.0449817 0.0205 101019
0.0792895 0.0457778 0.0205 99131.8
0.0806685 0.0465739 0.0205 97652.4
0.0820474 0.0473701 0.0205 96615.9
0.0834263 0.0481662 0.0205 96007.4
0.0848053 0.0489624 0.0205 95586.5
0.0861843 0.0497585 0.0205 95337.4
0.0875632 0.0505546 0.0205 95101.9
0.0889421 0.0513508 0.0205 94942.9
0.0903211 0.0521469 0.0205 94867.1
0.0917 0.0529431 0.0205 94883.7
0.093079 0.0537392 0.0205 94909.7
0.094458 0.0545353 0.0205 95027.8
0.0958369 0.0553315 0.0205 95116.1
0.0972159 0.0561276 0.0205 95245.9
0.0985948 0.0569238 0.0205 95375.5
0.0999737 0.0577198 0.0205 95597.1
0.101352 0.058516 0.0205 95849.2
0.102732 0.0593121 0.0205 96169.3
0.10411 0.0601083 0.0205 96518.2
0.105489 0.0609044 0.0205 96848.1
0.106868 0.0617005 0.0205 97115
0.108248 0.0624967 0.0205 97326.5
0.109627 0.0632928 0.0205 97529.7
0.111006 0.064089 0.0205 97668.6
0.112385 0.0648851 0.0205 97762.1
0.113764 0.0656812 0.0205 97833.9
0.115143 0.0664774 0.0205 97942.8
0.116522 0.0672735 0.0205 98131.4
0.117901 0.0680697 0.0205 98374.7
0.119279 0.0688658 0.0205 98758.3
0.120658 0.0696619 0.0205 98916.5
0.122037 0.0704581 0.0205 99122.7
0.123415 0.0712542 0.0205 99299.6
0.124794 0.0720503 0.0205 99464.8
0.126173 0.0728465 0.0205 99572.2
0.127552 0.0736426 0.0205 99649.5
0.128931 0.0744387 0.0205 99758.5
0.13031 0.0752348 0.0205 99833
0.131689 0.076031 0.0205 99909.1
0.133069 0.0768271 0.0205 99944.5
0.134447 0.0776233 0.0205 99974.5
0.135827 0.0784194 0.0205 99711.2
