# wallHeatFlux  FACE_DATA 203
# x  y  z  wallHeatFlux
-0.873265 0 0.0205 -297668
-0.846493 0 0.0205 -82219.5
-0.820677 0 0.0205 -76593.1
-0.795786 0 0.0205 -74363.8
-0.771783 0 0.0205 -72346.8
-0.74637 0 0.0205 -71126
-0.719597 0 0.0205 -69692.8
-0.693782 0 0.0205 -67994.3
-0.66889 0 0.0205 -66614.3
-0.644887 0 0.0205 -65658.8
-0.621743 0 0.0205 -64650.3
-0.599426 0 0.0205 -63535.7
-0.577905 0 0.0205 -62474.1
-0.557154 0 0.0205 -61731
-0.537145 0 0.0205 -61147.1
-0.517849 0 0.0205 -60510.2
-0.499243 0 0.0205 -59767
-0.481301 0 0.0205 -58970.9
-0.463999 0 0.0205 -58333.9
-0.447314 0 0.0205 -57856.2
-0.431225 0 0.0205 -57537.7
-0.41571 0 0.0205 -57113.1
-0.400747 0 0.0205 -56635.4
-0.386317 0 0.0205 -56104.6
-0.372401 0 0.0205 -55573.8
-0.358981 0 0.0205 -55096.1
-0.346039 0 0.0205 -54777.6
-0.333556 0 0.0205 -54512.2
-0.321518 0 0.0205 -54406.1
-0.309908 0 0.0205 -54299.9
-0.298709 0 0.0205 -54140.7
-0.287908 0 0.0205 -53875.3
-0.27749 0 0.0205 -53556.8
-0.267441 0 0.0205 -53185.2
-0.257748 0 0.0205 -52760.6
-0.248397 0 0.0205 -52336
-0.239378 0 0.0205 -51911.3
-0.230677 0 0.0205 -51645.9
-0.222282 0 0.0205 -51380.6
-0.214183 0 0.0205 -51168.2
-0.20637 0 0.0205 -51062.1
-0.19883 0 0.0205 -51009
-0.191555 0 0.0205 -51009
-0.184536 0 0.0205 -51009
-0.177762 0 0.0205 -51062.1
-0.171224 0 0.0205 -51062.1
-0.164914 0 0.0205 -51009
-0.158824 0 0.0205 -50955.9
-0.152944 0 0.0205 -50902.8
-0.147268 0 0.0205 -50849.8
-0.141788 0 0.0205 -50743.6
-0.136496 0 0.0205 -50637.4
-0.131387 0 0.0205 -50478.2
-0.126452 0 0.0205 -50319
-0.121685 0 0.0205 -50159.7
-0.117081 0 0.0205 -49947.4
-0.112632 0 0.0205 -49735.1
-0.108332 0 0.0205 -49522.8
-0.104177 0 0.0205 -49310.5
-0.100161 0 0.0205 -49151.2
-0.0962773 0 0.0205 -48938.9
-0.0925221 0 0.0205 -48779.7
-0.08889 0 0.0205 -48567.4
-0.0853762 0 0.0205 -48408.1
-0.0819759 0 0.0205 -48302
-0.0786847 0 0.0205 -48089.6
-0.0754981 0 0.0205 -49416.6
-0.0724121 0 0.0205 -108228
-0.0694223 0 0.0205 -97612.4
-0.066525 0 0.0205 -62898.7
-0.0637161 0 0.0205 -49575.9
-0.060992 0 0.0205 -42197.9
-0.0583491 0 0.0205 -38482.3
-0.0557837 0 0.0205 -36465.3
-0.0532926 0 0.0205 -35191.4
-0.0508723 0 0.0205 -34607.6
-0.0485197 0 0.0205 -34713.7
-0.0462317 0 0.0205 -35403.7
-0.0440053 0 0.0205 -36624.6
-0.0418373 0 0.0205 -38216.9
-0.039725 0 0.0205 -40287
-0.0376655 0 0.0205 -42675.6
-0.0356562 0 0.0205 -45276.5
-0.0336943 0 0.0205 -47930.4
-0.0317773 0 0.0205 -50478.2
-0.0299025 0 0.0205 -52760.6
-0.0280674 0 0.0205 -54989.9
-0.0262697 0 0.0205 -57325.4
-0.024507 0 0.0205 -59660.9
-0.0227768 0 0.0205 -61943.3
-0.021077 0 0.0205 -64119.5
-0.0194052 0 0.0205 -66136.5
-0.0177593 0 0.0205 -68100.5
-0.016137 0 0.0205 -70011.3
-0.014536 0 0.0205 -72081.4
-0.0129545 0 0.0205 -74257.6
-0.0113902 0 0.0205 -76646.2
-0.00984104 0 0.0205 -79459.4
-0.00830498 0 0.0205 -82750.3
-0.00677997 0 0.0205 -86518.9
-0.00526398 0 0.0205 -91296
-0.00375499 0 0.0205 -96975.5
-0.002251 0 0.0205 -108759
-0.00075 0 0.0205 -127390
0.000689475 0.000398068 0.0205 -61719.5
0.00206843 0.0011942 0.0205 -99658.2
0.00344737 0.00199034 0.0205 -113817
0.00482631 0.00278648 0.0205 -124542
0.00620527 0.00358261 0.0205 -133797
0.00758422 0.00437875 0.0205 -143481
0.00896317 0.00517489 0.0205 -153532
0.0103421 0.00597102 0.0205 -164565
0.0117211 0.00676715 0.0205 -176150
0.0131 0.00756329 0.0205 -188957
0.0144789 0.00835943 0.0205 -203425
0.0158579 0.00915557 0.0205 -219662
0.0172368 0.00995171 0.0205 -238241
0.0186158 0.0107478 0.0205 -258640
0.0199947 0.0115439 0.0205 -280710
0.0213737 0.0123401 0.0205 -306149
0.0227526 0.0131362 0.0205 -333480
0.0241316 0.0139323 0.0205 -361667
0.0255106 0.0147285 0.0205 -395335
0.0268895 0.0155246 0.0205 -431537
0.0282685 0.0163208 0.0205 -473176
0.0296474 0.0171169 0.0205 -520713
0.0310264 0.017913 0.0205 -573677
0.0324053 0.0187092 0.0205 -620450
0.0337843 0.0195054 0.0205 -659790
0.0351632 0.0203015 0.0205 -690496
0.0365421 0.0210976 0.0205 -718025
0.037921 0.0218938 0.0205 -745596
0.0393 0.0226898 0.0205 -775308
0.0406789 0.023486 0.0205 -812183
0.0420579 0.0242821 0.0205 -844810
0.0434368 0.0250783 0.0205 -887082
0.0448158 0.0258745 0.0205 -938766
0.0461948 0.0266706 0.0205 -986774
0.0475737 0.0274667 0.0205 -1.04176e+06
0.0489527 0.0282628 0.0205 -1.10825e+06
0.0503316 0.029059 0.0205 -1.16419e+06
0.0517106 0.0298551 0.0205 -1.23112e+06
0.0530895 0.0306512 0.0205 -1.2967e+06
0.0544684 0.0314473 0.0205 -1.32001e+06
0.0558474 0.0322435 0.0205 -1.35974e+06
0.0572264 0.0330397 0.0205 -1.37401e+06
0.0586053 0.0338357 0.0205 -1.32605e+06
0.0599842 0.0346319 0.0205 -1.3279e+06
0.0613632 0.0354281 0.0205 -1.31177e+06
0.0627422 0.0362242 0.0205 -1.29615e+06
0.0641211 0.0370204 0.0205 -1.28419e+06
0.0655001 0.0378164 0.0205 -1.24174e+06
0.066879 0.0386126 0.0205 -1.20419e+06
0.0682579 0.0394088 0.0205 -1.17984e+06
0.0696369 0.0402049 0.0205 -1.14503e+06
0.0710158 0.041001 0.0205 -1.1101e+06
0.0723947 0.0417971 0.0205 -1.07969e+06
0.0737737 0.0425932 0.0205 -1.04982e+06
0.0751527 0.0433894 0.0205 -1.053e+06
0.0765316 0.0441856 0.0205 -1.0277e+06
0.0779106 0.0449817 0.0205 -1.00194e+06
0.0792895 0.0457778 0.0205 -982772
0.0806685 0.0465739 0.0205 -949019
0.0820474 0.0473701 0.0205 -932238
0.0834263 0.0481662 0.0205 -935903
0.0848053 0.0489624 0.0205 -928286
0.0861843 0.0497585 0.0205 -929251
0.0875632 0.0505546 0.0205 -927857
0.0889421 0.0513508 0.0205 -909425
0.0903211 0.0521469 0.0205 -910295
0.0917 0.0529431 0.0205 -896983
0.093079 0.0537392 0.0205 -880971
0.094458 0.0545353 0.0205 -895541
0.0958369 0.0553315 0.0205 -890899
0.0972159 0.0561276 0.0205 -892660
0.0985948 0.0569238 0.0205 -902054
0.0999737 0.0577198 0.0205 -894380
0.101352 0.058516 0.0205 -893073
0.102732 0.0593121 0.0205 -903709
0.10411 0.0601083 0.0205 -905609
0.105489 0.0609044 0.0205 -907537
0.106868 0.0617005 0.0205 -906957
0.108248 0.0624967 0.0205 -899603
0.109627 0.0632928 0.0205 -916486
0.111006 0.064089 0.0205 -910757
0.112385 0.0648851 0.0205 -906863
0.113764 0.0656812 0.0205 -913147
0.115143 0.0664774 0.0205 -902973
0.116522 0.0672735 0.0205 -903921
0.117901 0.0680697 0.0205 -917499
0.119279 0.0688658 0.0205 -918708
0.120658 0.0696619 0.0205 -924699
0.122037 0.0704581 0.0205 -936253
0.123415 0.0712542 0.0205 -933189
0.124794 0.0720503 0.0205 -953812
0.126173 0.0728465 0.0205 -953231
0.127552 0.0736426 0.0205 -944405
0.128931 0.0744387 0.0205 -961535
0.13031 0.0752348 0.0205 -954395
0.131689 0.076031 0.0205 -954854
0.133069 0.0768271 0.0205 -966040
0.134447 0.0776233 0.0205 -958440
0.135827 0.0784194 0.0205 -964906
