# p  FACE_DATA 398
# x  y  z  p
-0.7975 -7.61524e-06 0 225.796
-0.79239 -7.61524e-06 0 155.26
-0.787056 -7.61524e-06 0 118.092
-0.781492 -7.61524e-06 0 108.187
-0.775691 -7.61524e-06 0 101.297
-0.769649 -7.61524e-06 0 95.8629
-0.763361 -7.61524e-06 0 91.3992
-0.756822 -7.61524e-06 0 87.6433
-0.750025 -7.61524e-06 0 84.3369
-0.742968 -7.61524e-06 0 81.4651
-0.735648 -7.61524e-06 0 79.2198
-0.72806 -7.61524e-06 0 77.3735
-0.720203 -7.61524e-06 0 75.7268
-0.712075 -7.61524e-06 0 74.2887
-0.703676 -7.61524e-06 0 73.0451
-0.695006 -7.61524e-06 0 71.929
-0.686065 -7.61524e-06 0 70.8939
-0.676855 -7.61524e-06 0 69.9385
-0.667379 -7.61524e-06 0 69.0836
-0.657641 -7.61524e-06 0 68.3174
-0.647644 -7.61524e-06 0 67.6115
-0.637398 -7.61524e-06 0 66.9565
-0.626906 -7.61524e-06 0 66.3564
-0.616179 -7.61524e-06 0 65.8129
-0.605225 -7.61524e-06 0 65.3071
-0.594054 -7.61524e-06 0 64.8216
-0.582677 -7.61524e-06 0 64.362
-0.57111 -7.61524e-06 0 63.9409
-0.559364 -7.61524e-06 0 63.5539
-0.547454 -7.61524e-06 0 63.1952
-0.535396 -7.61524e-06 0 62.8654
-0.523205 -7.61524e-06 0 62.5613
-0.510901 -7.61524e-06 0 62.2688
-0.498499 -7.61524e-06 0 61.9802
-0.486021 -7.61524e-06 0 61.7025
-0.473482 -7.61524e-06 0 61.451
-0.460905 -7.61524e-06 0 61.233
-0.448307 -7.61524e-06 0 61.038
-0.435709 -7.61524e-06 0 60.8478
-0.42313 -7.61524e-06 0 60.6543
-0.41059 -7.61524e-06 0 60.4614
-0.39811 -7.61524e-06 0 60.2806
-0.385706 -7.61524e-06 0 60.1231
-0.373398 -7.61524e-06 0 59.9921
-0.361205 -7.61524e-06 0 59.879
-0.349142 -7.61524e-06 0 59.7678
-0.337226 -7.61524e-06 0 59.644
-0.325475 -7.61524e-06 0 59.5064
-0.313901 -7.61524e-06 0 59.366
-0.30252 -7.61524e-06 0 59.2364
-0.291343 -7.61524e-06 0 59.1282
-0.280381 -7.61524e-06 0 59.0524
-0.269647 -7.61524e-06 0 59.009
-0.259148 -7.61524e-06 0 58.9899
-0.248893 -7.61524e-06 0 58.9817
-0.23889 -7.61524e-06 0 58.9542
-0.229143 -7.61524e-06 0 58.9011
-0.219659 -7.61524e-06 0 58.8275
-0.210441 -7.61524e-06 0 58.7577
-0.201491 -7.61524e-06 0 58.7646
-0.192812 -7.61524e-06 0 59.256
-0.184405 -7.61524e-06 0 60.8595
-0.176269 -7.61524e-06 0 64.5842
-0.168404 -7.61524e-06 0 70.5209
-0.160809 -7.61524e-06 0 77.2966
-0.15348 -7.61524e-06 0 83.3628
-0.146415 -7.61524e-06 0 88.5084
-0.13961 -7.61524e-06 0 92.4589
-0.133063 -7.61524e-06 0 95.5982
-0.126767 -7.61524e-06 0 98.2622
-0.120717 -7.61524e-06 0 100.49
-0.11491 -7.61524e-06 0 102.471
-0.109339 -7.61524e-06 0 104.252
-0.103997 -7.61524e-06 0 105.936
-0.0988804 -7.61524e-06 0 107.611
-0.0939809 -7.61524e-06 0 109.206
-0.0892928 -7.61524e-06 0 110.771
-0.0848096 -7.61524e-06 0 112.368
-0.0805248 -7.61524e-06 0 114.02
-0.0764317 -7.61524e-06 0 115.761
-0.0725237 -7.61524e-06 0 117.528
-0.0687943 -7.61524e-06 0 119.29
-0.065237 -7.61524e-06 0 121.034
-0.0618454 -7.61524e-06 0 122.742
-0.058613 -7.61524e-06 0 124.422
-0.0555337 -7.61524e-06 0 126.082
-0.0526013 -7.61524e-06 0 127.708
-0.0498099 -7.61524e-06 0 129.296
-0.0471536 -7.61524e-06 0 130.831
-0.0446266 -7.61524e-06 0 132.301
-0.0422235 -7.61524e-06 0 133.703
-0.0399389 -7.61524e-06 0 135.031
-0.0377676 -7.61524e-06 0 136.284
-0.0357044 -7.61524e-06 0 137.459
-0.0337445 -7.61524e-06 0 138.553
-0.0318832 -7.61524e-06 0 139.558
-0.0301159 -7.61524e-06 0 140.469
-0.0284383 -7.61524e-06 0 141.287
-0.0268462 -7.61524e-06 0 142.016
-0.0253353 -7.61524e-06 0 142.665
-0.023902 -7.61524e-06 0 143.243
-0.0225425 -7.61524e-06 0 143.763
-0.0212532 -7.61524e-06 0 144.241
-0.0200306 -7.61524e-06 0 144.69
-0.0188715 -7.61524e-06 0 145.126
-0.0177727 -7.61524e-06 0 145.561
-0.0167313 -7.61524e-06 0 146.008
-0.0157444 -7.61524e-06 0 146.478
-0.0148093 -7.61524e-06 0 146.981
-0.0139232 -7.61524e-06 0 147.526
-0.0130838 -7.61524e-06 0 148.118
-0.0122887 -7.61524e-06 0 148.763
-0.0115355 -7.61524e-06 0 149.465
-0.0108223 -7.61524e-06 0 150.225
-0.0101469 -7.61524e-06 0 151.039
-0.00950727 -7.61524e-06 0 151.906
-0.00890169 -7.61524e-06 0 152.824
-0.00832834 -7.61524e-06 0 153.789
-0.00778557 -7.61524e-06 0 154.792
-0.00727176 -7.61524e-06 0 155.824
-0.00678541 -7.61524e-06 0 156.885
-0.00632507 -7.61524e-06 0 157.954
-0.00588937 -7.61524e-06 0 159.01
-0.00547703 -7.61524e-06 0 160.059
-0.00508681 -7.61524e-06 0 161.094
-0.00471753 -7.61524e-06 0 162.105
-0.0043681 -7.61524e-06 0 163.079
-0.00403746 -7.61524e-06 0 164.011
-0.00372461 -7.61524e-06 0 164.892
-0.0034286 -7.61524e-06 0 165.716
-0.00314855 -7.61524e-06 0 166.476
-0.00288361 -7.61524e-06 0 167.17
-0.00263295 -7.61524e-06 0 167.793
-0.00239582 -7.61524e-06 0 168.345
-0.00217149 -7.61524e-06 0 168.825
-0.00195929 -7.61524e-06 0 169.234
-0.00175856 -7.61524e-06 0 169.574
-0.00156869 -7.61524e-06 0 169.848
-0.00138908 -7.61524e-06 0 170.06
-0.00121921 -7.61524e-06 0 170.214
-0.00105853 -7.61524e-06 0 170.314
-0.000906546 -7.61524e-06 0 170.366
-0.000762803 -7.61524e-06 0 170.377
-0.000626849 -7.61524e-06 0 170.348
-0.000498266 -7.61524e-06 0 170.28
-0.000376656 -7.61524e-06 0 170.18
-0.000261642 -7.61524e-06 0 170.044
-0.00015287 -7.61524e-06 0 169.868
-5e-05 -7.61524e-06 0 169.704
4.14596e-05 2.03453e-05 0 169.07
0.000125379 7.69412e-05 0 168.93
0.000211356 0.000134924 0 168.71
0.000299438 0.000194328 0 168.491
0.000389678 0.000255186 0 168.274
0.000482128 0.000317535 0 168.055
0.000576841 0.000381409 0 167.834
0.000673871 0.000446848 0 167.609
0.000773276 0.000513887 0 167.382
0.000875112 0.000582565 0 167.154
0.000979439 0.000652924 0 166.925
0.00108632 0.000725003 0 166.697
0.00119581 0.000798843 0 166.471
0.00130797 0.000874487 0 166.249
0.00142287 0.000951979 0 166.031
0.00154058 0.00103136 0 165.82
0.00166117 0.00111268 0 165.618
0.00178469 0.00119599 0 165.425
0.00191123 0.00128133 0 165.244
0.00204085 0.00136875 0 165.076
0.00217364 0.0014583 0 164.922
0.00230966 0.00155003 0 164.783
0.00244899 0.001644 0 164.66
0.00259171 0.00174025 0 164.555
0.00273791 0.00183885 0 164.467
0.00288767 0.00193985 0 164.399
0.00304108 0.0020433 0 164.348
0.0031982 0.00214927 0 164.317
0.00335915 0.00225781 0 164.305
0.003524 0.002369 0 164.312
0.00369286 0.00248287 0 164.339
0.00386582 0.00259951 0 164.385
0.00404297 0.00271899 0 164.451
0.00422442 0.00284136 0 164.537
0.00441026 0.00296669 0 164.644
0.0046006 0.00309506 0 164.774
0.00479556 0.00322653 0 164.928
0.00499523 0.00336119 0 165.108
0.00519972 0.00349911 0 165.318
0.00540916 0.00364036 0 165.559
0.00562366 0.00378501 0 165.837
0.00584334 0.00393316 0 166.153
0.00606831 0.00408489 0 166.511
0.00629871 0.00424027 0 166.915
0.00653466 0.0043994 0 167.368
0.00677629 0.00456236 0 167.87
0.00702374 0.00472923 0 168.425
0.00727714 0.00490013 0 169.032
0.00753663 0.00507513 0 169.696
0.00780234 0.00525433 0 170.414
0.00807444 0.00543783 0 171.189
0.00835306 0.00562573 0 172.021
0.00863835 0.00581814 0 172.911
0.00893047 0.00601514 0 173.862
0.00922958 0.00621687 0 174.874
0.00953584 0.00642341 0 175.95
0.00984939 0.00663489 0 177.091
0.0101705 0.00685141 0 178.304
0.0104992 0.00707309 0 179.583
0.0108357 0.00730005 0 180.936
0.0111802 0.00753241 0 182.37
0.011533 0.0077703 0 183.879
0.0118941 0.00801384 0 185.473
0.0122638 0.00826316 0 187.154
0.0126422 0.00851837 0 188.921
0.0130296 0.00877964 0 190.787
0.0134262 0.00904708 0 192.748
0.0138321 0.00932084 0 194.82
0.0142476 0.00960107 0 196.995
0.0146729 0.00988792 0 199.299
0.0151082 0.0101815 0 201.719
0.0155538 0.0104819 0 204.279
0.0160098 0.0107895 0 206.981
0.0164766 0.0111042 0 209.842
0.0169542 0.0114263 0 212.864
0.0174429 0.011756 0 216.07
0.0179431 0.0120934 0 219.474
0.018455 0.0124386 0 223.089
0.0189789 0.0127918 0 226.933
0.0195149 0.0131533 0 231.032
0.0200633 0.0135232 0 235.409
0.0206245 0.0139016 0 240.093
0.0211986 0.0142888 0 245.102
0.0217861 0.014685 0 250.484
0.022387 0.0150903 0 256.264
0.0230018 0.0155049 0 262.495
0.0236307 0.0159291 0 269.22
0.0242741 0.0163629 0 276.499
0.0249322 0.0168068 0 284.378
0.0256053 0.0172608 0 292.939
0.0262939 0.0177251 0 302.257
0.0269981 0.0182 0 312.399
0.0277183 0.0186857 0 323.497
0.0284548 0.0191825 0 335.607
0.029208 0.0196904 0 348.9
0.0299782 0.0202098 0 363.506
0.0307658 0.0207409 0 379.558
0.031571 0.021284 0 397.26
0.0323942 0.0218393 0 416.83
0.033236 0.0224069 0 438.493
0.0340965 0.0229872 0 462.553
0.0349762 0.0235805 0 489.291
0.0358753 0.0241869 0 519.08
0.0367944 0.0248067 0 552.27
0.0377338 0.0254403 0 589.334
0.0386938 0.0260877 0 630.786
0.039675 0.0267494 0 677.091
0.0406776 0.0274256 0 728.696
0.0417021 0.0281165 0 786.04
0.0427488 0.0288225 0 849.952
0.0438183 0.0295437 0 920.713
0.0449109 0.0302805 0 999.54
0.046027 0.0310332 0 1087.24
0.0471671 0.0318021 0 1185.55
0.0483315 0.0325874 0 1296.06
0.0495209 0.0333895 0 1421.38
0.0507354 0.0342086 0 1563.99
0.0519756 0.035045 0 1725.67
0.053242 0.0358991 0 1908.5
0.054535 0.036771 0 2109.97
0.0558549 0.0376613 0 2323.83
0.0572024 0.03857 0 2543.77
0.0585778 0.0394976 0 2759.45
0.0599816 0.0404443 0 2958.68
0.0614142 0.0414105 0 3138.75
0.0628761 0.0423964 0 3284.54
0.0643678 0.0434024 0 3369.85
0.0658897 0.0444287 0 3395.81
0.0674422 0.0454758 0 3406.99
0.069026 0.0465439 0 3358.72
0.0706413 0.0476333 0 3273.06
0.0722886 0.0487443 0 3171.33
0.0739685 0.0498771 0 3038.27
0.0756813 0.0510323 0 2873.83
0.0774275 0.05221 0 2680.04
0.0792077 0.0534105 0 2490.31
0.0810221 0.0546342 0 2326.98
0.0828712 0.0558812 0 2193.95
0.0847556 0.0571521 0 2088.71
0.0866757 0.058447 0 2008.14
0.0886318 0.0597661 0 1948.06
0.0906244 0.06111 0 1908.63
0.0926539 0.0624787 0 1885.48
0.0947207 0.0638726 0 1898.35
0.0968252 0.0652919 0 1908.27
0.0989682 0.066737 0 1908.95
0.101149 0.068208 0 1900.49
0.103369 0.0697052 0 1893.9
0.105629 0.0712289 0 1900.33
0.107928 0.0727794 0 1913.59
0.110267 0.0743568 0 1923.18
0.112646 0.0759614 0 1933.85
0.115066 0.0775934 0 1936.83
0.117527 0.079253 0 1934.27
0.120029 0.0809404 0 1923.31
0.122572 0.0826558 0 1911.28
0.125158 0.0843994 0 1903.29
0.127785 0.0861713 0 1910.75
0.130454 0.0879717 0 1920.84
0.133167 0.0898008 0 1926.51
0.135921 0.0916586 0 1928.98
0.138719 0.0935453 0 1931.64
0.141559 0.095461 0 1934.11
0.144443 0.0974057 0 1940.75
0.14737 0.0993798 0 1942.77
0.15034 0.101383 0 1944.76
0.153354 0.103415 0 1954.79
0.156411 0.105477 0 1962.89
0.159511 0.107568 0 1965.03
0.162655 0.109688 0 1966.41
0.165842 0.111837 0 1966.42
0.169073 0.114016 0 1974.5
0.172346 0.116223 0 1987.01
0.175663 0.118461 0 1990.03
0.179022 0.120727 0 1986.1
0.182425 0.123021 0 1985.02
0.18587 0.125344 0 1992.84
0.189357 0.127696 0 1999.27
0.192886 0.130076 0 2001.32
0.196457 0.132484 0 1993.94
0.200069 0.13492 0 1987.99
0.203722 0.137384 0 1988.81
0.207416 0.139875 0 1991.66
0.21115 0.142393 0 1991.66
0.214924 0.144938 0 1979.87
0.218736 0.147509 0 1963.64
0.222587 0.150107 0 1953.81
0.226476 0.152729 0 1946.96
0.230403 0.155377 0 1940.81
0.234366 0.15805 0 1928.45
0.238366 0.160748 0 1913.15
0.242401 0.163469 0 1899.27
0.24647 0.166214 0 1893.05
0.250573 0.168981 0 1891.17
0.25471 0.17177 0 1884.95
0.258878 0.174582 0 1873.69
0.263078 0.177414 0 1865.15
0.267309 0.180266 0 1854.81
0.271568 0.183139 0 1854.3
0.275856 0.186031 0 1849.09
0.280172 0.188942 0 1844.35
0.284514 0.19187 0 1840.06
0.288881 0.194815 0 1845.71
0.293272 0.197777 0 1847.84
0.297687 0.200754 0 1845.56
0.302124 0.203746 0 1845.11
0.306581 0.206752 0 1839.8
0.311058 0.209772 0 1834.79
0.315554 0.212804 0 1832.06
0.320067 0.215847 0 1829.17
0.324595 0.218901 0 1834.22
0.329138 0.221965 0 1834.05
0.333695 0.225038 0 1830.53
0.338264 0.228119 0 1828.64
0.342843 0.231208 0 1828.09
0.347432 0.234302 0 1829.04
0.352029 0.237402 0 1829.55
0.356632 0.240507 0 1828.58
0.361241 0.243616 0 1824.5
0.365854 0.246727 0 1822.57
0.370469 0.249839 0 1823
0.375085 0.252953 0 1826.18
0.379702 0.256066 0 1831.64
0.384317 0.259178 0 1833.08
0.388929 0.262289 0 1831.57
0.393537 0.265396 0 1828.62
0.398139 0.2685 0 1824.03
0.402734 0.271598 0 1826.06
0.407321 0.274692 0 1831.62
0.411898 0.277779 0 1839.03
0.416464 0.280858 0 1841.31
0.421017 0.283929 0 1843.47
0.425557 0.286991 0 1839.56
0.430082 0.290042 0 1831.71
0.434591 0.293083 0 1823.52
0.439082 0.296112 0 1820.18
0.443555 0.299128 0 1822.46
0.448008 0.302131 0 1836.25
0.45244 0.30512 0 1848.54
0.456849 0.308094 0 1854.73
0.461235 0.311052 0 1859.15
0.465596 0.313993 0 1853.38
0.469932 0.316917 0 1846.21
0.474241 0.319823 0 1826.78
0.478523 0.322711 0 1815.95
0.482776 0.325579 0 1806.82
0.486999 0.328427 0 1808.99
0.491191 0.331254 0 1818.58
0.495353 0.334061 0 1848.86
