# wallHeatFlux  FACE_DATA 398
# x  y  z  wallHeatFlux
-0.7975 -7.61524e-06 0 -98551.4
-0.79239 -7.61524e-06 0 -22460.2
-0.787056 -7.61524e-06 0 -13918
-0.781492 -7.61524e-06 0 -10969.2
-0.775691 -7.61524e-06 0 -9216.04
-0.769649 -7.61524e-06 0 -8010.15
-0.763361 -7.61524e-06 0 -7121.32
-0.756822 -7.61524e-06 0 -6428.17
-0.750025 -7.61524e-06 0 -5867.76
-0.742968 -7.61524e-06 0 -5408.38
-0.735648 -7.61524e-06 0 -5033.57
-0.72806 -7.61524e-06 0 -4722.24
-0.720203 -7.61524e-06 0 -4453.3
-0.712075 -7.61524e-06 0 -4221.49
-0.703676 -7.61524e-06 0 -4016.06
-0.695006 -7.61524e-06 0 -3837.07
-0.686065 -7.61524e-06 0 -3679.24
-0.676855 -7.61524e-06 0 -3526.57
-0.667379 -7.61524e-06 0 -3395.07
-0.657641 -7.61524e-06 0 -3274.14
-0.647644 -7.61524e-06 0 -3168.97
-0.637398 -7.61524e-06 0 -3063.64
-0.626906 -7.61524e-06 0 -2968.99
-0.616179 -7.61524e-06 0 -2884.72
-0.605225 -7.61524e-06 0 -2805.77
-0.594054 -7.61524e-06 0 -2732.03
-0.582677 -7.61524e-06 0 -2663.42
-0.57111 -7.61524e-06 0 -2594.66
-0.559364 -7.61524e-06 0 -2536.57
-0.547454 -7.61524e-06 0 -2478.3
-0.535396 -7.61524e-06 0 -2425.3
-0.523205 -7.61524e-06 0 -2377.45
-0.510901 -7.61524e-06 0 -2329.59
-0.498499 -7.61524e-06 0 -2286.89
-0.486021 -7.61524e-06 0 -2244.12
-0.473482 -7.61524e-06 0 -2201.24
-0.460905 -7.61524e-06 0 -2168.99
-0.448307 -7.61524e-06 0 -2131.31
-0.435709 -7.61524e-06 0 -2098.94
-0.42313 -7.61524e-06 0 -2061.05
-0.41059 -7.61524e-06 0 -2033.88
-0.39811 -7.61524e-06 0 -2006.64
-0.385706 -7.61524e-06 0 -1984.7
-0.373398 -7.61524e-06 0 -1962.77
-0.361205 -7.61524e-06 0 -1935.43
-0.349142 -7.61524e-06 0 -1913.38
-0.337226 -7.61524e-06 0 -1885.96
-0.325475 -7.61524e-06 0 -1869.27
-0.313901 -7.61524e-06 0 -1847.21
-0.30252 -7.61524e-06 0 -1830.5
-0.291343 -7.61524e-06 0 -1819.2
-0.280381 -7.61524e-06 0 -1802.54
-0.269647 -7.61524e-06 0 -1785.86
-0.259148 -7.61524e-06 0 -1769.2
-0.248893 -7.61524e-06 0 -1752.61
-0.23889 -7.61524e-06 0 -1741.41
-0.229143 -7.61524e-06 0 -1724.84
-0.219659 -7.61524e-06 0 -1713.7
-0.210441 -7.61524e-06 0 -1702.55
-0.201491 -7.61524e-06 0 -1691.53
-0.192812 -7.61524e-06 0 -1675.07
-0.184405 -7.61524e-06 0 -1632.04
-0.176269 -7.61524e-06 0 -1551.5
-0.168404 -7.61524e-06 0 -1428.25
-0.160809 -7.61524e-06 0 -1272.95
-0.15348 -7.61524e-06 0 -1112.42
-0.146415 -7.61524e-06 0 -994.716
-0.13961 -7.61524e-06 0 -893.036
-0.133063 -7.61524e-06 0 -812.795
-0.126767 -7.61524e-06 0 -759.311
-0.120717 -7.61524e-06 0 -716.533
-0.11491 -7.61524e-06 0 -695.154
-0.109339 -7.61524e-06 0 -684.48
-0.103997 -7.61524e-06 0 -705.879
-0.0988804 -7.61524e-06 0 -738.044
-0.0939809 -7.61524e-06 0 -791.561
-0.0892928 -7.61524e-06 0 -866.507
-0.0848096 -7.61524e-06 0 -957.515
-0.0805248 -7.61524e-06 0 -1059.25
-0.0764317 -7.61524e-06 0 -1166.36
-0.0725237 -7.61524e-06 0 -1278.84
-0.0687943 -7.61524e-06 0 -1391.38
-0.065237 -7.61524e-06 0 -1503.91
-0.0618454 -7.61524e-06 0 -1611.16
-0.058613 -7.61524e-06 0 -1723.75
-0.0555337 -7.61524e-06 0 -1825.71
-0.0526013 -7.61524e-06 0 -1927.66
-0.0498099 -7.61524e-06 0 -2018.94
-0.0471536 -7.61524e-06 0 -2104.89
-0.0446266 -7.61524e-06 0 -2185.51
-0.0422235 -7.61524e-06 0 -2260.79
-0.0399389 -7.61524e-06 0 -2330.73
-0.0377676 -7.61524e-06 0 -2395.32
-0.0357044 -7.61524e-06 0 -2459.97
-0.0337445 -7.61524e-06 0 -2513.86
-0.0318832 -7.61524e-06 0 -2562.43
-0.0301159 -7.61524e-06 0 -2611
-0.0284383 -7.61524e-06 0 -2659.59
-0.0268462 -7.61524e-06 0 -2708.19
-0.0253353 -7.61524e-06 0 -2756.81
-0.023902 -7.61524e-06 0 -2810.8
-0.0225425 -7.61524e-06 0 -2864.77
-0.0212532 -7.61524e-06 0 -2929.6
-0.0200306 -7.61524e-06 0 -2994.33
-0.0188715 -7.61524e-06 0 -3064.5
-0.0177727 -7.61524e-06 0 -3134.68
-0.0167313 -7.61524e-06 0 -3210.26
-0.0157444 -7.61524e-06 0 -3285.87
-0.0148093 -7.61524e-06 0 -3361.46
-0.0139232 -7.61524e-06 0 -3442.63
-0.0130838 -7.61524e-06 0 -3518.21
-0.0122887 -7.61524e-06 0 -3594.12
-0.0115355 -7.61524e-06 0 -3664.48
-0.0108223 -7.61524e-06 0 -3734.96
-0.0101469 -7.61524e-06 0 -3805.49
-0.00950727 -7.61524e-06 0 -3865.35
-0.00890169 -7.61524e-06 0 -3930.64
-0.00832834 -7.61524e-06 0 -3985.24
-0.00778557 -7.61524e-06 0 -4034.56
-0.00727176 -7.61524e-06 0 -4083.97
-0.00678541 -7.61524e-06 0 -4122.68
-0.00632507 -7.61524e-06 0 -4156.18
-0.00588937 -7.61524e-06 0 -4184.36
-0.00547703 -7.61524e-06 0 -4207.32
-0.00508681 -7.61524e-06 0 -4219.66
-0.00471753 -7.61524e-06 0 -4221.42
-0.0043681 -7.61524e-06 0 -4217.95
-0.00403746 -7.61524e-06 0 -4203.93
-0.00372461 -7.61524e-06 0 -4179.42
-0.0034286 -7.61524e-06 0 -4149.79
-0.00314855 -7.61524e-06 0 -4104.29
-0.00288361 -7.61524e-06 0 -4053.87
-0.00263295 -7.61524e-06 0 -3993.06
-0.00239582 -7.61524e-06 0 -3927.49
-0.00217149 -7.61524e-06 0 -3846.34
-0.00195929 -7.61524e-06 0 -3766.09
-0.00175856 -7.61524e-06 0 -3676.04
-0.00156869 -7.61524e-06 0 -3576.38
-0.00138908 -7.61524e-06 0 -3472.87
-0.00121921 -7.61524e-06 0 -3360.23
-0.00105853 -7.61524e-06 0 -3244.53
-0.000906546 -7.61524e-06 0 -3120.49
-0.000762803 -7.61524e-06 0 -2982.92
-0.000626849 -7.61524e-06 0 -2843.19
-0.000498266 -7.61524e-06 0 -2684.02
-0.000376656 -7.61524e-06 0 -2503.56
-0.000261642 -7.61524e-06 0 -2290.74
-0.00015287 -7.61524e-06 0 -1995.25
-5e-05 -7.61524e-06 0 -1503.71
4.14596e-05 2.03453e-05 0 -1510.74
0.000125379 7.69412e-05 0 -1973.84
0.000211356 0.000134924 0 -2215.42
0.000299438 0.000194328 0 -2382.06
0.000389678 0.000255186 0 -2514.11
0.000482128 0.000317535 0 -2619.5
0.000576841 0.000381409 0 -2704.96
0.000673871 0.000446848 0 -2786.73
0.000773276 0.000513887 0 -2853.83
0.000875112 0.000582565 0 -2917
0.000979439 0.000652924 0 -2976.03
0.00108632 0.000725003 0 -3035.35
0.00119581 0.000798843 0 -3085.08
0.00130797 0.000874487 0 -3136.26
0.00142287 0.000951979 0 -3187.82
0.00154058 0.00103136 0 -3238.16
0.00166117 0.00111268 0 -3283.19
0.00178469 0.00119599 0 -3335.02
0.00191123 0.00128133 0 -3382.5
0.00204085 0.00136875 0 -3430.42
0.00217364 0.0014583 0 -3482.16
0.00230966 0.00155003 0 -3529.59
0.00244899 0.001644 0 -3581.75
0.00259171 0.00174025 0 -3633.48
0.00273791 0.00183885 0 -3692.55
0.00288767 0.00193985 0 -3746.77
0.00304108 0.0020433 0 -3803.14
0.0031982 0.00214927 0 -3864.28
0.00335915 0.00225781 0 -3924.39
0.003524 0.002369 0 -3984.52
0.00369286 0.00248287 0 -4046.66
0.00386582 0.00259951 0 -4112.97
0.00404297 0.00271899 0 -4177.3
0.00422442 0.00284136 0 -4242.81
0.00441026 0.00296669 0 -4306.62
0.0046006 0.00309506 0 -4373.9
0.00479556 0.00322653 0 -4441.8
0.00499523 0.00336119 0 -4506.13
0.00519972 0.00349911 0 -4569.9
0.00540916 0.00364036 0 -4633.66
0.00562366 0.00378501 0 -4697.43
0.00584334 0.00393316 0 -4761.2
0.00606831 0.00408489 0 -4824.96
0.00629871 0.00424027 0 -4888.73
0.00653466 0.0043994 0 -4952.49
0.00677629 0.00456236 0 -5014.16
0.00702374 0.00472923 0 -5081.12
0.00727714 0.00490013 0 -5150.15
0.00753663 0.00507513 0 -5219.91
0.00780234 0.00525433 0 -5288.87
0.00807444 0.00543783 0 -5357.98
0.00835306 0.00562573 0 -5434.51
0.00863835 0.00581814 0 -5508.93
0.00893047 0.00601514 0 -5584.7
0.00922958 0.00621687 0 -5659.06
0.00953584 0.00642341 0 -5742.63
0.00984939 0.00663489 0 -5824.77
0.0101705 0.00685141 0 -5905.37
0.0104992 0.00707309 0 -5995.09
0.0108357 0.00730005 0 -6084.83
0.0111802 0.00753241 0 -6176.47
0.011533 0.0077703 0 -6274.76
0.0118941 0.00801384 0 -6373.13
0.0122638 0.00826316 0 -6477.48
0.0126422 0.00851837 0 -6585.8
0.0130296 0.00877964 0 -6700.19
0.0134262 0.00904708 0 -6822.45
0.0138321 0.00932084 0 -6947.2
0.0142476 0.00960107 0 -7077.74
0.0146729 0.00988792 0 -7221.09
0.0151082 0.0101815 0 -7368.52
0.0155538 0.0104819 0 -7518.86
0.0160098 0.0107895 0 -7682.37
0.0164766 0.0111042 0 -7856.37
0.0169542 0.0114263 0 -8041.96
0.0174429 0.011756 0 -8239.62
0.0179431 0.0120934 0 -8446.36
0.018455 0.0124386 0 -8669.07
0.0189789 0.0127918 0 -8907.67
0.0195149 0.0131533 0 -9163.13
0.0200633 0.0135232 0 -9436.51
0.0206245 0.0139016 0 -9726.54
0.0211986 0.0142888 0 -10043.9
0.0217861 0.014685 0 -10382.3
0.022387 0.0150903 0 -10745.8
0.0230018 0.0155049 0 -11139.9
0.0236307 0.0159291 0 -11568.7
0.0242741 0.0163629 0 -12034.3
0.0249322 0.0168068 0 -12535.2
0.0256053 0.0172608 0 -13082.8
0.0262939 0.0177251 0 -13672.3
0.0269981 0.0182 0 -14322.4
0.0277183 0.0186857 0 -15030.5
0.0284548 0.0191825 0 -15803.9
0.029208 0.0196904 0 -16654.2
0.0299782 0.0202098 0 -17586.2
0.0307658 0.0207409 0 -18607.5
0.031571 0.021284 0 -19737.8
0.0323942 0.0218393 0 -20991.4
0.033236 0.0224069 0 -22375.3
0.0340965 0.0229872 0 -23918.2
0.0349762 0.0235805 0 -25636.5
0.0358753 0.0241869 0 -27552.4
0.0367944 0.0248067 0 -29692.3
0.0377338 0.0254403 0 -32083.6
0.0386938 0.0260877 0 -34761.3
0.039675 0.0267494 0 -37738.7
0.0406776 0.0274256 0 -41013.9
0.0417021 0.0281165 0 -44628.2
0.0427488 0.0288225 0 -48590.6
0.0438183 0.0295437 0 -52863.5
0.0449109 0.0302805 0 -57522.3
0.046027 0.0310332 0 -62555.3
0.0471671 0.0318021 0 -68022.1
0.0483315 0.0325874 0 -73966.3
0.0495209 0.0333895 0 -80588.9
0.0507354 0.0342086 0 -88060.7
0.0519756 0.035045 0 -96516.7
0.053242 0.0358991 0 -106141
0.054535 0.036771 0 -116709
0.0558549 0.0376613 0 -127740
0.0572024 0.03857 0 -138588
0.0585778 0.0394976 0 -148439
0.0599816 0.0404443 0 -156819
0.0614142 0.0414105 0 -163085
0.0628761 0.0423964 0 -166351
0.0643678 0.0434024 0 -164667
0.0658897 0.0444287 0 -159929
0.0674422 0.0454758 0 -154283
0.069026 0.0465439 0 -146694
0.0706413 0.0476333 0 -138086
0.0722886 0.0487443 0 -129423
0.0739685 0.0498771 0 -120182
0.0756813 0.0510323 0 -110471
0.0774275 0.05221 0 -100355
0.0792077 0.0534105 0 -90982.8
0.0810221 0.0546342 0 -83101.9
0.0828712 0.0558812 0 -76631
0.0847556 0.0571521 0 -71422.8
0.0866757 0.058447 0 -67319.5
0.0886318 0.0597661 0 -64106.5
0.0906244 0.06111 0 -61724.7
0.0926539 0.0624787 0 -59843.4
0.0947207 0.0638726 0 -59451.5
0.0968252 0.0652919 0 -58908
0.0989682 0.066737 0 -57945.3
0.101149 0.068208 0 -56864.1
0.103369 0.0697052 0 -56228.8
0.105629 0.0712289 0 -56722
0.107928 0.0727794 0 -55617.4
0.110267 0.0743568 0 -56257
0.112646 0.0759614 0 -55193
0.115066 0.0775934 0 -55303.4
0.117527 0.079253 0 -53975.8
0.120029 0.0809404 0 -53379.8
0.122572 0.0826558 0 -52700.2
0.125158 0.0843994 0 -52253.3
0.127785 0.0861713 0 -51652.8
0.130454 0.0879717 0 -51398.4
0.133167 0.0898008 0 -51185.7
0.135921 0.0916586 0 -51127.4
0.138719 0.0935453 0 -50510
0.141559 0.095461 0 -50941.9
0.144443 0.0974057 0 -49383.4
0.14737 0.0993798 0 -49153.1
0.15034 0.101383 0 -49042.9
0.153354 0.103415 0 -48243.7
0.156411 0.105477 0 -47991.9
0.159511 0.107568 0 -48458.3
0.162655 0.109688 0 -47802.2
0.165842 0.111837 0 -47616.1
0.169073 0.114016 0 -48601.3
0.172346 0.116223 0 -47249
0.175663 0.118461 0 -46047.7
0.179022 0.120727 0 -47193.9
0.182425 0.123021 0 -45454.6
0.18587 0.125344 0 -45156.1
0.189357 0.127696 0 -45392.8
0.192886 0.130076 0 -45923.5
0.196457 0.132484 0 -45576.4
0.200069 0.13492 0 -44687.7
0.203722 0.137384 0 -43313.9
0.207416 0.139875 0 -43687.6
0.21115 0.142393 0 -43518.4
0.214924 0.144938 0 -43116.4
0.218736 0.147509 0 -43217.3
0.222587 0.150107 0 -41499.9
0.226476 0.152729 0 -41035.9
0.230403 0.155377 0 -40624.9
0.234366 0.15805 0 -40233
0.238366 0.160748 0 -39757.2
0.242401 0.163469 0 -40048.8
0.24647 0.166214 0 -39368.1
0.250573 0.168981 0 -38203.2
0.25471 0.17177 0 -38400.5
0.258878 0.174582 0 -38760.8
0.263078 0.177414 0 -37522.9
0.267309 0.180266 0 -38781.6
0.271568 0.183139 0 -36372.2
0.275856 0.186031 0 -36400.7
0.280172 0.188942 0 -36627.2
0.284514 0.19187 0 -37260.4
0.288881 0.194815 0 -36250.2
0.293272 0.197777 0 -35835.8
0.297687 0.200754 0 -37372
0.302124 0.203746 0 -35957.1
0.306581 0.206752 0 -35676.2
0.311058 0.209772 0 -35377.7
0.315554 0.212804 0 -35577.8
0.320067 0.215847 0 -37738.7
0.324595 0.218901 0 -36059.4
0.329138 0.221965 0 -34792.7
0.333695 0.225038 0 -35135.2
0.338264 0.228119 0 -34982.1
0.342843 0.231208 0 -34574.1
0.347432 0.234302 0 -34693.9
0.352029 0.237402 0 -34524.8
0.356632 0.240507 0 -34453.8
0.361241 0.243616 0 -35004.1
0.365854 0.246727 0 -34639.6
0.370469 0.249839 0 -34279.5
0.375085 0.252953 0 -35501.2
0.379702 0.256066 0 -34718.6
0.384317 0.259178 0 -33880.4
0.388929 0.262289 0 -34052.8
0.393537 0.265396 0 -33775.1
0.398139 0.2685 0 -33571.4
0.402734 0.271598 0 -33513.7
0.407321 0.274692 0 -33353
0.411898 0.277779 0 -33536.3
0.416464 0.280858 0 -34683.7
0.421017 0.283929 0 -34529.9
0.425557 0.286991 0 -34054.5
0.430082 0.290042 0 -33483.1
0.434591 0.293083 0 -33629.1
0.439082 0.296112 0 -32821.6
0.443555 0.299128 0 -33811.6
0.448008 0.302131 0 -32881.1
0.45244 0.30512 0 -33101.9
0.456849 0.308094 0 -35219.7
0.461235 0.311052 0 -33667.8
0.465596 0.313993 0 -34305.6
0.469932 0.316917 0 -32190.5
0.474241 0.319823 0 -33234.3
0.478523 0.322711 0 -32484.8
0.482776 0.325579 0 -32342.5
0.486999 0.328427 0 -32206.9
0.491191 0.331254 0 -33811.6
0.495353 0.334061 0 -31006.1
