# Wall heat-flux
# Time        	patch         	min           	max           	integral      
8300          	base	-1.251226e+04	3.418181e+04	3.953099e+02
