# p  FACE_DATA 398
# x  y  z  p
-0.7975 -7.61524e-06 0 225.825
-0.79239 -7.61524e-06 0 146.475
-0.787056 -7.61524e-06 0 110.238
-0.781492 -7.61524e-06 0 98.8102
-0.775691 -7.61524e-06 0 91.9459
-0.769649 -7.61524e-06 0 86.6795
-0.763361 -7.61524e-06 0 82.639
-0.756822 -7.61524e-06 0 79.5374
-0.750025 -7.61524e-06 0 77.0694
-0.742968 -7.61524e-06 0 75.0877
-0.735648 -7.61524e-06 0 73.5175
-0.72806 -7.61524e-06 0 72.309
-0.720203 -7.61524e-06 0 71.4369
-0.712075 -7.61524e-06 0 70.8143
-0.703676 -7.61524e-06 0 70.3126
-0.695006 -7.61524e-06 0 69.8495
-0.686065 -7.61524e-06 0 69.4466
-0.676855 -7.61524e-06 0 69.0749
-0.667379 -7.61524e-06 0 68.6918
-0.657641 -7.61524e-06 0 68.2814
-0.647644 -7.61524e-06 0 67.8439
-0.637398 -7.61524e-06 0 67.3774
-0.626906 -7.61524e-06 0 66.8781
-0.616179 -7.61524e-06 0 66.3515
-0.605225 -7.61524e-06 0 65.802
-0.594054 -7.61524e-06 0 65.2461
-0.582677 -7.61524e-06 0 64.6932
-0.57111 -7.61524e-06 0 64.152
-0.559364 -7.61524e-06 0 63.6268
-0.547454 -7.61524e-06 0 63.1231
-0.535396 -7.61524e-06 0 62.642
-0.523205 -7.61524e-06 0 62.1931
-0.510901 -7.61524e-06 0 61.7796
-0.498499 -7.61524e-06 0 61.4082
-0.486021 -7.61524e-06 0 61.083
-0.473482 -7.61524e-06 0 60.802
-0.460905 -7.61524e-06 0 60.5598
-0.448307 -7.61524e-06 0 60.3538
-0.435709 -7.61524e-06 0 60.1804
-0.42313 -7.61524e-06 0 60.0359
-0.41059 -7.61524e-06 0 59.9191
-0.39811 -7.61524e-06 0 59.8221
-0.385706 -7.61524e-06 0 59.7361
-0.373398 -7.61524e-06 0 59.6624
-0.361205 -7.61524e-06 0 59.596
-0.349142 -7.61524e-06 0 59.5345
-0.337226 -7.61524e-06 0 59.4773
-0.325475 -7.61524e-06 0 59.4227
-0.313901 -7.61524e-06 0 59.3724
-0.30252 -7.61524e-06 0 59.3211
-0.291343 -7.61524e-06 0 59.2703
-0.280381 -7.61524e-06 0 59.2215
-0.269647 -7.61524e-06 0 59.1755
-0.259148 -7.61524e-06 0 59.1278
-0.248893 -7.61524e-06 0 59.081
-0.23889 -7.61524e-06 0 59.0338
-0.229143 -7.61524e-06 0 58.9928
-0.219659 -7.61524e-06 0 58.9541
-0.210441 -7.61524e-06 0 58.9141
-0.201491 -7.61524e-06 0 58.8725
-0.192812 -7.61524e-06 0 58.8359
-0.184405 -7.61524e-06 0 58.7981
-0.176269 -7.61524e-06 0 58.7631
-0.168404 -7.61524e-06 0 58.7307
-0.160809 -7.61524e-06 0 58.7028
-0.15348 -7.61524e-06 0 58.6763
-0.146415 -7.61524e-06 0 58.6509
-0.13961 -7.61524e-06 0 58.6254
-0.133063 -7.61524e-06 0 58.601
-0.126767 -7.61524e-06 0 58.5796
-0.120717 -7.61524e-06 0 58.5585
-0.11491 -7.61524e-06 0 58.5349
-0.109339 -7.61524e-06 0 58.5114
-0.103997 -7.61524e-06 0 58.4923
-0.0988804 -7.61524e-06 0 58.4748
-0.0939809 -7.61524e-06 0 58.457
-0.0892928 -7.61524e-06 0 58.4413
-0.0848096 -7.61524e-06 0 58.4272
-0.0805248 -7.61524e-06 0 58.4144
-0.0764317 -7.61524e-06 0 58.4029
-0.0725237 -7.61524e-06 0 58.3917
-0.0687943 -7.61524e-06 0 58.3822
-0.065237 -7.61524e-06 0 58.3714
-0.0618454 -7.61524e-06 0 58.3617
-0.058613 -7.61524e-06 0 58.354
-0.0555337 -7.61524e-06 0 58.345
-0.0526013 -7.61524e-06 0 58.3367
-0.0498099 -7.61524e-06 0 58.3287
-0.0471536 -7.61524e-06 0 58.3227
-0.0446266 -7.61524e-06 0 58.3164
-0.0422235 -7.61524e-06 0 58.3125
-0.0399389 -7.61524e-06 0 58.3092
-0.0377676 -7.61524e-06 0 58.3068
-0.0357044 -7.61524e-06 0 58.3024
-0.0337445 -7.61524e-06 0 58.2974
-0.0318832 -7.61524e-06 0 58.2933
-0.0301159 -7.61524e-06 0 58.2892
-0.0284383 -7.61524e-06 0 58.287
-0.0268462 -7.61524e-06 0 58.2866
-0.0253353 -7.61524e-06 0 58.2859
-0.023902 -7.61524e-06 0 58.285
-0.0225425 -7.61524e-06 0 58.2845
-0.0212532 -7.61524e-06 0 58.2841
-0.0200306 -7.61524e-06 0 58.2834
-0.0188715 -7.61524e-06 0 58.283
-0.0177727 -7.61524e-06 0 58.2835
-0.0167313 -7.61524e-06 0 58.2842
-0.0157444 -7.61524e-06 0 58.2848
-0.0148093 -7.61524e-06 0 58.2862
-0.0139232 -7.61524e-06 0 58.2883
-0.0130838 -7.61524e-06 0 58.2898
-0.0122887 -7.61524e-06 0 58.2929
-0.0115355 -7.61524e-06 0 58.2951
-0.0108223 -7.61524e-06 0 58.2987
-0.0101469 -7.61524e-06 0 58.3027
-0.00950727 -7.61524e-06 0 58.3071
-0.00890169 -7.61524e-06 0 58.3121
-0.00832834 -7.61524e-06 0 58.3181
-0.00778557 -7.61524e-06 0 58.3248
-0.00727176 -7.61524e-06 0 58.3323
-0.00678541 -7.61524e-06 0 58.3405
-0.00632507 -7.61524e-06 0 58.3501
-0.00588937 -7.61524e-06 0 58.361
-0.00547703 -7.61524e-06 0 58.3747
-0.00508681 -7.61524e-06 0 58.3949
-0.00471753 -7.61524e-06 0 58.4335
-0.0043681 -7.61524e-06 0 58.5217
-0.00403746 -7.61524e-06 0 58.7373
-0.00372461 -7.61524e-06 0 59.2634
-0.0034286 -7.61524e-06 0 60.4909
-0.00314855 -7.61524e-06 0 63.1325
-0.00288361 -7.61524e-06 0 68.1965
-0.00263295 -7.61524e-06 0 76.4669
-0.00239582 -7.61524e-06 0 87.4847
-0.00217149 -7.61524e-06 0 98.989
-0.00195929 -7.61524e-06 0 108.154
-0.00175856 -7.61524e-06 0 114.243
-0.00156869 -7.61524e-06 0 118.19
-0.00138908 -7.61524e-06 0 121.004
-0.00121921 -7.61524e-06 0 123.28
-0.00105853 -7.61524e-06 0 125.301
-0.000906546 -7.61524e-06 0 127.176
-0.000762803 -7.61524e-06 0 128.945
-0.000626849 -7.61524e-06 0 130.627
-0.000498266 -7.61524e-06 0 132.225
-0.000376656 -7.61524e-06 0 133.731
-0.000261642 -7.61524e-06 0 135.083
-0.00015287 -7.61524e-06 0 136.145
-5e-05 -7.61524e-06 0 136.938
4.14596e-05 2.03453e-05 0 134.224
0.000125379 7.69412e-05 0 134.454
0.000211356 0.000134924 0 134.782
0.000299438 0.000194328 0 135.309
0.000389678 0.000255186 0 135.998
0.000482128 0.000317535 0 136.835
0.000576841 0.000381409 0 137.823
0.000673871 0.000446848 0 138.966
0.000773276 0.000513887 0 140.274
0.000875112 0.000582565 0 141.754
0.000979439 0.000652924 0 143.41
0.00108632 0.000725003 0 145.247
0.00119581 0.000798843 0 147.266
0.00130797 0.000874487 0 149.494
0.00142287 0.000951979 0 151.865
0.00154058 0.00103136 0 154.451
0.00166117 0.00111268 0 157.244
0.00178469 0.00119599 0 160.245
0.00191123 0.00128133 0 163.465
0.00204085 0.00136875 0 166.913
0.00217364 0.0014583 0 170.593
0.00230966 0.00155003 0 174.52
0.00244899 0.001644 0 178.699
0.00259171 0.00174025 0 183.147
0.00273791 0.00183885 0 187.88
0.00288767 0.00193985 0 192.919
0.00304108 0.0020433 0 198.285
0.0031982 0.00214927 0 203.984
0.00335915 0.00225781 0 210.068
0.003524 0.002369 0 216.562
0.00369286 0.00248287 0 223.508
0.00386582 0.00259951 0 230.961
0.00404297 0.00271899 0 238.987
0.00422442 0.00284136 0 247.659
0.00441026 0.00296669 0 257.06
0.0046006 0.00309506 0 267.289
0.00479556 0.00322653 0 278.461
0.00499523 0.00336119 0 290.735
0.00519972 0.00349911 0 304.294
0.00540916 0.00364036 0 319.519
0.00562366 0.00378501 0 336.575
0.00584334 0.00393316 0 355.524
0.00606831 0.00408489 0 376.3
0.00629871 0.00424027 0 399.238
0.00653466 0.0043994 0 425.738
0.00677629 0.00456236 0 458.17
0.00702374 0.00472923 0 498.354
0.00727714 0.00490013 0 545.149
0.00753663 0.00507513 0 594.169
0.00780234 0.00525433 0 642.123
0.00807444 0.00543783 0 692.58
0.00835306 0.00562573 0 755.902
0.00863835 0.00581814 0 842.391
0.00893047 0.00601514 0 955.477
0.00922958 0.00621687 0 1090.86
0.00953584 0.00642341 0 1236.01
0.00984939 0.00663489 0 1369.91
0.0101705 0.00685141 0 1471
0.0104992 0.00707309 0 1531.79
0.0108357 0.00730005 0 1555.47
0.0111802 0.00753241 0 1557.5
0.011533 0.0077703 0 1556.39
0.0118941 0.00801384 0 1566.38
0.0122638 0.00826316 0 1594.99
0.0126422 0.00851837 0 1635.29
0.0130296 0.00877964 0 1676.4
0.0134262 0.00904708 0 1718.12
0.0138321 0.00932084 0 1765
0.0142476 0.00960107 0 1820.66
0.0146729 0.00988792 0 1877.59
0.0151082 0.0101815 0 1924.07
0.0155538 0.0104819 0 1961.38
0.0160098 0.0107895 0 1995.13
0.0164766 0.0111042 0 2024.79
0.0169542 0.0114263 0 2047.69
0.0174429 0.011756 0 2061.72
0.0179431 0.0120934 0 2068.96
0.018455 0.0124386 0 2079.55
0.0189789 0.0127918 0 2093.79
0.0195149 0.0131533 0 2108.75
0.0200633 0.0135232 0 2123.66
0.0206245 0.0139016 0 2137.7
0.0211986 0.0142888 0 2152.86
0.0217861 0.014685 0 2160.01
0.022387 0.0150903 0 2166.38
0.0230018 0.0155049 0 2177.21
0.0236307 0.0159291 0 2200.71
0.0242741 0.0163629 0 2224.9
0.0249322 0.0168068 0 2229.83
0.0256053 0.0172608 0 2227.09
0.0262939 0.0177251 0 2227.63
0.0269981 0.0182 0 2230.2
0.0277183 0.0186857 0 2233.81
0.0284548 0.0191825 0 2246.65
0.029208 0.0196904 0 2266.96
0.0299782 0.0202098 0 2289.4
0.0307658 0.0207409 0 2312.52
0.031571 0.021284 0 2336.32
0.0323942 0.0218393 0 2358.92
0.033236 0.0224069 0 2377.09
0.0340965 0.0229872 0 2384.12
0.0349762 0.0235805 0 2380.78
0.0358753 0.0241869 0 2380.7
0.0367944 0.0248067 0 2393.71
0.0377338 0.0254403 0 2415.64
0.0386938 0.0260877 0 2433.32
0.039675 0.0267494 0 2450.63
0.0406776 0.0274256 0 2476.84
0.0417021 0.0281165 0 2483.52
0.0427488 0.0288225 0 2455.69
0.0438183 0.0295437 0 2441.22
0.0449109 0.0302805 0 2443.95
0.046027 0.0310332 0 2463.39
0.0471671 0.0318021 0 2481.11
0.0483315 0.0325874 0 2494.9
0.0495209 0.0333895 0 2487.04
0.0507354 0.0342086 0 2463.68
0.0519756 0.035045 0 2457.48
0.053242 0.0358991 0 2461.77
0.054535 0.036771 0 2475.78
0.0558549 0.0376613 0 2495.92
0.0572024 0.03857 0 2513.96
0.0585778 0.0394976 0 2539.29
0.0599816 0.0404443 0 2555.99
0.0614142 0.0414105 0 2573.59
0.0628761 0.0423964 0 2598.59
0.0643678 0.0434024 0 2646.74
0.0658897 0.0444287 0 2694.72
0.0674422 0.0454758 0 2741.79
0.069026 0.0465439 0 2782.28
0.0706413 0.0476333 0 2758.75
0.0722886 0.0487443 0 2737.81
0.0739685 0.0498771 0 2772.17
0.0756813 0.0510323 0 2794.6
0.0774275 0.05221 0 2781.36
0.0792077 0.0534105 0 2658.41
0.0810221 0.0546342 0 2569.5
0.0828712 0.0558812 0 2515.51
0.0847556 0.0571521 0 2450.93
0.0866757 0.058447 0 2406.88
0.0886318 0.0597661 0 2365.39
0.0906244 0.06111 0 2297.96
0.0926539 0.0624787 0 2222.97
0.0947207 0.0638726 0 2196.78
0.0968252 0.0652919 0 2187.85
0.0989682 0.066737 0 2123.63
0.101149 0.068208 0 2116.05
0.103369 0.0697052 0 2138.12
0.105629 0.0712289 0 2140.37
0.107928 0.0727794 0 2116.34
0.110267 0.0743568 0 2119.87
0.112646 0.0759614 0 2124.35
0.115066 0.0775934 0 2131.12
0.117527 0.079253 0 2124.57
0.120029 0.0809404 0 2122.76
0.122572 0.0826558 0 2111.04
0.125158 0.0843994 0 2103.4
0.127785 0.0861713 0 2094.22
0.130454 0.0879717 0 2110.91
0.133167 0.0898008 0 2126.28
0.135921 0.0916586 0 2112.03
0.138719 0.0935453 0 2115.65
0.141559 0.095461 0 2126.59
0.144443 0.0974057 0 2146.15
0.14737 0.0993798 0 2145.34
0.15034 0.101383 0 2068.09
0.153354 0.103415 0 2092.96
0.156411 0.105477 0 2122.08
0.159511 0.107568 0 2139.91
0.162655 0.109688 0 2111.98
0.165842 0.111837 0 2101.67
0.169073 0.114016 0 2127.56
0.172346 0.116223 0 2114.92
0.175663 0.118461 0 2124.52
0.179022 0.120727 0 2121.52
0.182425 0.123021 0 2097.69
0.18587 0.125344 0 2132.37
0.189357 0.127696 0 2106.07
0.192886 0.130076 0 2136.82
0.196457 0.132484 0 2126.02
0.200069 0.13492 0 2132.38
0.203722 0.137384 0 2098.77
0.207416 0.139875 0 2096.14
0.21115 0.142393 0 2139.2
0.214924 0.144938 0 2149.63
0.218736 0.147509 0 2140.14
0.222587 0.150107 0 2135.34
0.226476 0.152729 0 2126.96
0.230403 0.155377 0 2114.83
0.234366 0.15805 0 2133.9
0.238366 0.160748 0 2060.15
0.242401 0.163469 0 2110.68
0.24647 0.166214 0 2109.24
0.250573 0.168981 0 2122.28
0.25471 0.17177 0 2139.72
0.258878 0.174582 0 2139.3
0.263078 0.177414 0 2113.42
0.267309 0.180266 0 2170.43
0.271568 0.183139 0 2128.95
0.275856 0.186031 0 2129.41
0.280172 0.188942 0 2113.35
0.284514 0.19187 0 2126.5
0.288881 0.194815 0 2114.59
0.293272 0.197777 0 2133.71
0.297687 0.200754 0 2140.75
0.302124 0.203746 0 2156.57
0.306581 0.206752 0 2128.77
0.311058 0.209772 0 2099.81
0.315554 0.212804 0 2110.03
0.320067 0.215847 0 2186.71
0.324595 0.218901 0 2163.25
0.329138 0.221965 0 2139.16
0.333695 0.225038 0 2136.33
0.338264 0.228119 0 2148.5
0.342843 0.231208 0 2118.41
0.347432 0.234302 0 2103.34
0.352029 0.237402 0 2143.6
0.356632 0.240507 0 2121.76
0.361241 0.243616 0 2139.23
0.365854 0.246727 0 2140.04
0.370469 0.249839 0 2145.34
0.375085 0.252953 0 2087.58
0.379702 0.256066 0 2137.86
0.384317 0.259178 0 2145.25
0.388929 0.262289 0 2152.5
0.393537 0.265396 0 2093.55
0.398139 0.2685 0 2120.15
0.402734 0.271598 0 2168.65
0.407321 0.274692 0 2175.98
0.411898 0.277779 0 2142.56
0.416464 0.280858 0 2110.1
0.421017 0.283929 0 2097.48
0.425557 0.286991 0 2137.77
0.430082 0.290042 0 2167.43
0.434591 0.293083 0 2098.94
0.439082 0.296112 0 2098.12
0.443555 0.299128 0 2110.94
0.448008 0.302131 0 2118.68
0.45244 0.30512 0 2138.08
0.456849 0.308094 0 2122.8
0.461235 0.311052 0 2081.18
0.465596 0.313993 0 2136.38
0.469932 0.316917 0 2123.53
0.474241 0.319823 0 2157.49
0.478523 0.322711 0 2110.25
0.482776 0.325579 0 2138.77
0.486999 0.328427 0 2118.37
0.491191 0.331254 0 2094.7
0.495353 0.334061 0 2110.57
