# wallHeatFlux  FACE_DATA 398
# x  y  z  wallHeatFlux
-0.7975 -7.61524e-06 0 -98715.5
-0.79239 -7.61524e-06 0 -24378.6
-0.787056 -7.61524e-06 0 -16444.3
-0.781492 -7.61524e-06 0 -13890.4
-0.775691 -7.61524e-06 0 -12240.3
-0.769649 -7.61524e-06 0 -10929.7
-0.763361 -7.61524e-06 0 -9888.06
-0.756822 -7.61524e-06 0 -9036.62
-0.750025 -7.61524e-06 0 -8333.92
-0.742968 -7.61524e-06 0 -7790.83
-0.735648 -7.61524e-06 0 -7348.16
-0.72806 -7.61524e-06 0 -6968.89
-0.720203 -7.61524e-06 0 -6653.31
-0.712075 -7.61524e-06 0 -6428.17
-0.703676 -7.61524e-06 0 -6277.43
-0.695006 -7.61524e-06 0 -6169.2
-0.686065 -7.61524e-06 0 -6066.21
-0.676855 -7.61524e-06 0 -5968.44
-0.667379 -7.61524e-06 0 -5886.56
-0.657641 -7.61524e-06 0 -5820.69
-0.647644 -7.61524e-06 0 -5754.46
-0.637398 -7.61524e-06 0 -5677.37
-0.626906 -7.61524e-06 0 -5595
-0.616179 -7.61524e-06 0 -5501.34
-0.605225 -7.61524e-06 0 -5402.32
-0.594054 -7.61524e-06 0 -5286.93
-0.582677 -7.61524e-06 0 -5165.74
-0.57111 -7.61524e-06 0 -5033.54
-0.559364 -7.61524e-06 0 -4895.8
-0.547454 -7.61524e-06 0 -4741.56
-0.535396 -7.61524e-06 0 -4576.34
-0.523205 -7.61524e-06 0 -4405.27
-0.510901 -7.61524e-06 0 -4223.4
-0.498499 -7.61524e-06 0 -4041.08
-0.486021 -7.61524e-06 0 -3853.21
-0.473482 -7.61524e-06 0 -3665.14
-0.460905 -7.61524e-06 0 -3487.6
-0.448307 -7.61524e-06 0 -3315.37
-0.435709 -7.61524e-06 0 -3164.55
-0.42313 -7.61524e-06 0 -3024.3
-0.41059 -7.61524e-06 0 -2910.92
-0.39811 -7.61524e-06 0 -2813.6
-0.385706 -7.61524e-06 0 -2732.33
-0.373398 -7.61524e-06 0 -2667.22
-0.361205 -7.61524e-06 0 -2618.21
-0.349142 -7.61524e-06 0 -2585.21
-0.337226 -7.61524e-06 0 -2552.23
-0.325475 -7.61524e-06 0 -2529.96
-0.313901 -7.61524e-06 0 -2518.44
-0.30252 -7.61524e-06 0 -2501.5
-0.291343 -7.61524e-06 0 -2495.36
-0.280381 -7.61524e-06 0 -2483.86
-0.269647 -7.61524e-06 0 -2477.67
-0.259148 -7.61524e-06 0 -2471.51
-0.248893 -7.61524e-06 0 -2470.81
-0.23889 -7.61524e-06 0 -2464.77
-0.229143 -7.61524e-06 0 -2458.7
-0.219659 -7.61524e-06 0 -2452.73
-0.210441 -7.61524e-06 0 -2452.1
-0.201491 -7.61524e-06 0 -2446.29
-0.192812 -7.61524e-06 0 -2440.36
-0.184405 -7.61524e-06 0 -2434.68
-0.176269 -7.61524e-06 0 -2428.9
-0.168404 -7.61524e-06 0 -2423.22
-0.160809 -7.61524e-06 0 -2422.89
-0.15348 -7.61524e-06 0 -2417.38
-0.146415 -7.61524e-06 0 -2411.92
-0.13961 -7.61524e-06 0 -2406.38
-0.133063 -7.61524e-06 0 -2406.3
-0.126767 -7.61524e-06 0 -2400.92
-0.120717 -7.61524e-06 0 -2395.57
-0.11491 -7.61524e-06 0 -2390.26
-0.109339 -7.61524e-06 0 -2384.98
-0.103997 -7.61524e-06 0 -2385.02
-0.0988804 -7.61524e-06 0 -2379.92
-0.0939809 -7.61524e-06 0 -2374.68
-0.0892928 -7.61524e-06 0 -2369.52
-0.0848096 -7.61524e-06 0 -2364.37
-0.0805248 -7.61524e-06 0 -2359.24
-0.0764317 -7.61524e-06 0 -2354.12
-0.0725237 -7.61524e-06 0 -2354.36
-0.0687943 -7.61524e-06 0 -2349.28
-0.065237 -7.61524e-06 0 -2344.18
-0.0618454 -7.61524e-06 0 -2339.12
-0.058613 -7.61524e-06 0 -2334.03
-0.0555337 -7.61524e-06 0 -2334.34
-0.0526013 -7.61524e-06 0 -2329.26
-0.0498099 -7.61524e-06 0 -2324.19
-0.0471536 -7.61524e-06 0 -2324.49
-0.0446266 -7.61524e-06 0 -2319.43
-0.0422235 -7.61524e-06 0 -2319.72
-0.0399389 -7.61524e-06 0 -2314.66
-0.0377676 -7.61524e-06 0 -2309.58
-0.0357044 -7.61524e-06 0 -2309.91
-0.0337445 -7.61524e-06 0 -2304.82
-0.0318832 -7.61524e-06 0 -2299.75
-0.0301159 -7.61524e-06 0 -2300.04
-0.0284383 -7.61524e-06 0 -2294.97
-0.0268462 -7.61524e-06 0 -2295.26
-0.0253353 -7.61524e-06 0 -2290.19
-0.023902 -7.61524e-06 0 -2290.48
-0.0225425 -7.61524e-06 0 -2290.74
-0.0212532 -7.61524e-06 0 -2285.73
-0.0200306 -7.61524e-06 0 -2286
-0.0188715 -7.61524e-06 0 -2280.93
-0.0177727 -7.61524e-06 0 -2281.23
-0.0167313 -7.61524e-06 0 -2281.54
-0.0157444 -7.61524e-06 0 -2276.49
-0.0148093 -7.61524e-06 0 -2276.77
-0.0139232 -7.61524e-06 0 -2277.19
-0.0130838 -7.61524e-06 0 -2272.07
-0.0122887 -7.61524e-06 0 -2272.52
-0.0115355 -7.61524e-06 0 -2267.46
-0.0108223 -7.61524e-06 0 -2267.85
-0.0101469 -7.61524e-06 0 -2268.24
-0.00950727 -7.61524e-06 0 -2263.3
-0.00890169 -7.61524e-06 0 -2263.75
-0.00832834 -7.61524e-06 0 -2258.84
-0.00778557 -7.61524e-06 0 -2259.35
-0.00727176 -7.61524e-06 0 -2259.9
-0.00678541 -7.61524e-06 0 -2255.1
-0.00632507 -7.61524e-06 0 -2255.75
-0.00588937 -7.61524e-06 0 -2251.05
-0.00547703 -7.61524e-06 0 -2251.81
-0.00508681 -7.61524e-06 0 -2263.42
-0.00471753 -7.61524e-06 0 -2296.71
-0.0043681 -7.61524e-06 0 -2378.66
-0.00403746 -7.61524e-06 0 -2601.15
-0.00372461 -7.61524e-06 0 -3104.87
-0.0034286 -7.61524e-06 0 -4117.37
-0.00314855 -7.61524e-06 0 -5791.43
-0.00288361 -7.61524e-06 0 -7864.19
-0.00263295 -7.61524e-06 0 -9557.34
-0.00239582 -7.61524e-06 0 -10252.7
-0.00217149 -7.61524e-06 0 -9724.5
-0.00195929 -7.61524e-06 0 -8555.35
-0.00175856 -7.61524e-06 0 -7292.09
-0.00156869 -7.61524e-06 0 -6212.19
-0.00138908 -7.61524e-06 0 -5343.71
-0.00121921 -7.61524e-06 0 -4649.24
-0.00105853 -7.61524e-06 0 -4063.97
-0.000906546 -7.61524e-06 0 -3566.28
-0.000762803 -7.61524e-06 0 -3128.97
-0.000626849 -7.61524e-06 0 -2735.36
-0.000498266 -7.61524e-06 0 -2373.66
-0.000376656 -7.61524e-06 0 -2030.86
-0.000261642 -7.61524e-06 0 -1691.35
-0.00015287 -7.61524e-06 0 -1334.17
-5e-05 -7.61524e-06 0 -902.225
4.14596e-05 2.03453e-05 0 -939.405
0.000125379 7.69412e-05 0 -1354.92
0.000211356 0.000134924 0 -1615.76
0.000299438 0.000194328 0 -1803.09
0.000389678 0.000255186 0 -1949.94
0.000482128 0.000317535 0 -2058.57
0.000576841 0.000381409 0 -2141.2
0.000673871 0.000446848 0 -2203.46
0.000773276 0.000513887 0 -2250.76
0.000875112 0.000582565 0 -2283.1
0.000979439 0.000652924 0 -2305.75
0.00108632 0.000725003 0 -2323.36
0.00119581 0.000798843 0 -2336.53
0.00130797 0.000874487 0 -2329.49
0.00142287 0.000951979 0 -2354.82
0.00154058 0.00103136 0 -2368.61
0.00166117 0.00111268 0 -2382.44
0.00178469 0.00119599 0 -2402.7
0.00191123 0.00128133 0 -2418.35
0.00204085 0.00136875 0 -2444.98
0.00217364 0.0014583 0 -2470.53
0.00230966 0.00155003 0 -2502.12
0.00244899 0.001644 0 -2538.63
0.00259171 0.00174025 0 -2574.82
0.00273791 0.00183885 0 -2617.77
0.00288767 0.00193985 0 -2661.06
0.00304108 0.0020433 0 -2707.41
0.0031982 0.00214927 0 -2748.05
0.00335915 0.00225781 0 -2786.42
0.003524 0.002369 0 -2819.49
0.00369286 0.00248287 0 -2839.57
0.00386582 0.00259951 0 -2848.26
0.00404297 0.00271899 0 -2838.01
0.00422442 0.00284136 0 -2807.27
0.00441026 0.00296669 0 -2754.11
0.0046006 0.00309506 0 -2678.55
0.00479556 0.00322653 0 -2566.26
0.00499523 0.00336119 0 -2417.8
0.00519972 0.00349911 0 -2231.81
0.00540916 0.00364036 0 -2029.89
0.00562366 0.00378501 0 -1865.15
0.00584334 0.00393316 0 -1774.82
0.00606831 0.00408489 0 -1769.51
0.00629871 0.00424027 0 -1827.96
0.00653466 0.0043994 0 -1987.37
0.00677629 0.00456236 0 -2491.15
0.00702374 0.00472923 0 -3775
0.00727714 0.00490013 0 -6158.94
0.00753663 0.00507513 0 -9292.83
0.00780234 0.00525433 0 -12213.3
0.00807444 0.00543783 0 -14353.4
0.00835306 0.00562573 0 -16473.5
0.00863835 0.00581814 0 -20325.1
0.00893047 0.00601514 0 -27328.9
0.00922958 0.00621687 0 -37877.4
0.00953584 0.00642341 0 -51620
0.00984939 0.00663489 0 -66878.5
0.0101705 0.00685141 0 -80522.4
0.0104992 0.00707309 0 -89751.4
0.0108357 0.00730005 0 -93705.3
0.0111802 0.00753241 0 -93481.5
0.011533 0.0077703 0 -91510.5
0.0118941 0.00801384 0 -90303.7
0.0122638 0.00826316 0 -91660.8
0.0126422 0.00851837 0 -95144.2
0.0130296 0.00877964 0 -99109.6
0.0134262 0.00904708 0 -102879
0.0138321 0.00932084 0 -106738
0.0142476 0.00960107 0 -111633
0.0146729 0.00988792 0 -117644
0.0151082 0.0101815 0 -122880
0.0155538 0.0104819 0 -126842
0.0160098 0.0107895 0 -130326
0.0164766 0.0111042 0 -133421
0.0169542 0.0114263 0 -135941
0.0174429 0.011756 0 -137115
0.0179431 0.0120934 0 -137464
0.018455 0.0124386 0 -137417
0.0189789 0.0127918 0 -138005
0.0195149 0.0131533 0 -139145
0.0200633 0.0135232 0 -140553
0.0206245 0.0139016 0 -141895
0.0211986 0.0142888 0 -143299
0.0217861 0.014685 0 -144389
0.022387 0.0150903 0 -145274
0.0230018 0.0155049 0 -146560
0.0236307 0.0159291 0 -148981
0.0242741 0.0163629 0 -151836
0.0249322 0.0168068 0 -152286
0.0256053 0.0172608 0 -151541
0.0262939 0.0177251 0 -151370
0.0269981 0.0182 0 -151460
0.0277183 0.0186857 0 -151845
0.0284548 0.0191825 0 -153180
0.029208 0.0196904 0 -155397
0.0299782 0.0202098 0 -157773
0.0307658 0.0207409 0 -160128
0.031571 0.021284 0 -162777
0.0323942 0.0218393 0 -165779
0.033236 0.0224069 0 -168334
0.0340965 0.0229872 0 -169119
0.0349762 0.0235805 0 -168344
0.0358753 0.0241869 0 -167854
0.0367944 0.0248067 0 -168769
0.0377338 0.0254403 0 -170980
0.0386938 0.0260877 0 -173271
0.039675 0.0267494 0 -175074
0.0406776 0.0274256 0 -178396
0.0417021 0.0281165 0 -180181
0.0427488 0.0288225 0 -177275
0.0438183 0.0295437 0 -175771
0.0449109 0.0302805 0 -175808
0.046027 0.0310332 0 -177784
0.0471671 0.0318021 0 -179533
0.0483315 0.0325874 0 -180260
0.0495209 0.0333895 0 -181272
0.0507354 0.0342086 0 -179843
0.0519756 0.035045 0 -179495
0.053242 0.0358991 0 -177307
0.054535 0.036771 0 -177007
0.0558549 0.0376613 0 -178451
0.0572024 0.03857 0 -179080
0.0585778 0.0394976 0 -180242
0.0599816 0.0404443 0 -184103
0.0614142 0.0414105 0 -186757
0.0628761 0.0423964 0 -187896
0.0643678 0.0434024 0 -192728
0.0658897 0.0444287 0 -199204
0.0674422 0.0454758 0 -206525
0.069026 0.0465439 0 -214616
0.0706413 0.0476333 0 -216909
0.0722886 0.0487443 0 -216575
0.0739685 0.0498771 0 -222237
0.0756813 0.0510323 0 -227117
0.0774275 0.05221 0 -230387
0.0792077 0.0534105 0 -221505
0.0810221 0.0546342 0 -212140
0.0828712 0.0558812 0 -208687
0.0847556 0.0571521 0 -202991
0.0866757 0.058447 0 -197776
0.0886318 0.0597661 0 -192399
0.0906244 0.06111 0 -182993
0.0926539 0.0624787 0 -172284
0.0947207 0.0638726 0 -166561
0.0968252 0.0652919 0 -163497
0.0989682 0.066737 0 -154664
0.101149 0.068208 0 -152004
0.103369 0.0697052 0 -155062
0.105629 0.0712289 0 -158394
0.107928 0.0727794 0 -153496
0.110267 0.0743568 0 -154271
0.112646 0.0759614 0 -151276
0.115066 0.0775934 0 -153538
0.117527 0.079253 0 -151356
0.120029 0.0809404 0 -151327
0.122572 0.0826558 0 -150410
0.125158 0.0843994 0 -151190
0.127785 0.0861713 0 -151492
0.130454 0.0879717 0 -150753
0.133167 0.0898008 0 -153276
0.135921 0.0916586 0 -154040
0.138719 0.0935453 0 -154763
0.141559 0.095461 0 -155452
0.144443 0.0974057 0 -151893
0.14737 0.0993798 0 -151800
0.15034 0.101383 0 -147840
0.153354 0.103415 0 -149901
0.156411 0.105477 0 -148753
0.159511 0.107568 0 -152342
0.162655 0.109688 0 -150059
0.165842 0.111837 0 -147825
0.169073 0.114016 0 -153708
0.172346 0.116223 0 -146823
0.175663 0.118461 0 -145700
0.179022 0.120727 0 -154282
0.182425 0.123021 0 -147897
0.18587 0.125344 0 -149033
0.189357 0.127696 0 -147332
0.192886 0.130076 0 -153538
0.196457 0.132484 0 -155463
0.200069 0.13492 0 -152058
0.203722 0.137384 0 -145159
0.207416 0.139875 0 -145693
0.21115 0.142393 0 -151386
0.214924 0.144938 0 -153062
0.218736 0.147509 0 -154186
0.222587 0.150107 0 -148491
0.226476 0.152729 0 -148112
0.230403 0.155377 0 -145963
0.234366 0.15805 0 -149653
0.238366 0.160748 0 -142605
0.242401 0.163469 0 -150854
0.24647 0.166214 0 -144107
0.250573 0.168981 0 -144464
0.25471 0.17177 0 -151339
0.258878 0.174582 0 -154953
0.263078 0.177414 0 -148113
0.267309 0.180266 0 -160608
0.271568 0.183139 0 -146570
0.275856 0.186031 0 -147133
0.280172 0.188942 0 -149018
0.284514 0.19187 0 -153176
0.288881 0.194815 0 -145090
0.293272 0.197777 0 -144135
0.297687 0.200754 0 -154335
0.302124 0.203746 0 -148519
0.306581 0.206752 0 -148127
0.311058 0.209772 0 -140904
0.315554 0.212804 0 -144170
0.320067 0.215847 0 -158247
0.324595 0.218901 0 -151226
0.329138 0.221965 0 -146261
0.333695 0.225038 0 -147640
0.338264 0.228119 0 -148084
0.342843 0.231208 0 -145091
0.347432 0.234302 0 -142219
0.352029 0.237402 0 -149022
0.356632 0.240507 0 -146594
0.361241 0.243616 0 -147018
0.365854 0.246727 0 -146397
0.370469 0.249839 0 -149323
0.375085 0.252953 0 -148755
0.379702 0.256066 0 -148344
0.384317 0.259178 0 -150993
0.388929 0.262289 0 -146814
0.393537 0.265396 0 -142821
0.398139 0.2685 0 -144961
0.402734 0.271598 0 -147482
0.407321 0.274692 0 -150013
0.411898 0.277779 0 -148141
0.416464 0.280858 0 -145994
0.421017 0.283929 0 -144449
0.425557 0.286991 0 -150496
0.430082 0.290042 0 -147433
0.434591 0.293083 0 -148002
0.439082 0.296112 0 -141042
0.443555 0.299128 0 -148090
0.448008 0.302131 0 -141813
0.45244 0.30512 0 -145857
0.456849 0.308094 0 -155467
0.461235 0.311052 0 -143711
0.465596 0.313993 0 -151184
0.469932 0.316917 0 -137217
0.474241 0.319823 0 -145318
0.478523 0.322711 0 -141505
0.482776 0.325579 0 -143160
0.486999 0.328427 0 -144042
0.491191 0.331254 0 -151707
0.495353 0.334061 0 -133694
