# Wall shear stress
# Time        	patch         	min           	max           
13300         	base	(-2.447849e+02 -1.089239e+02 -1.050830e-19)	(4.110965e+01 1.830672e+01 1.022573e-19)
