# Wall shear stress
# Time        	patch         	min           	max           
0             	base	(-2.483575e+02 -1.105945e+02 -8.981595e-20)	(4.024080e+01 1.791405e+01 1.009462e-19)
