# y+ ()       
# Time        	patch         	min           	max           	average       
5600          	base	1.938750e-02	6.434255e-01	2.604096e-01
