# p  FACE_DATA 448
# x  y  z  p
-0.778 -3.80769e-06 0 1196.57
-0.773968 -3.80769e-06 0 934.751
-0.769872 -3.80769e-06 0 761.61
-0.76571 -3.80769e-06 0 735.171
-0.761486 -3.80769e-06 0 699.299
-0.757196 -3.80769e-06 0 676.481
-0.752841 -3.80769e-06 0 663.957
-0.748422 -3.80769e-06 0 654.477
-0.743939 -3.80769e-06 0 648.055
-0.739391 -3.80769e-06 0 642.855
-0.73478 -3.80769e-06 0 638.268
-0.730104 -3.80769e-06 0 634.071
-0.725364 -3.80769e-06 0 629.882
-0.720562 -3.80769e-06 0 625.4
-0.715696 -3.80769e-06 0 619.545
-0.710769 -3.80769e-06 0 613.779
-0.705778 -3.80769e-06 0 607.859
-0.700727 -3.80769e-06 0 604.691
-0.695615 -3.80769e-06 0 603.928
-0.690443 -3.80769e-06 0 605.879
-0.685211 -3.80769e-06 0 608.473
-0.67992 -3.80769e-06 0 611.341
-0.674571 -3.80769e-06 0 614.019
-0.669166 -3.80769e-06 0 616.31
-0.663704 -3.80769e-06 0 618.251
-0.658187 -3.80769e-06 0 619.945
-0.652616 -3.80769e-06 0 621.418
-0.646993 -3.80769e-06 0 622.559
-0.641317 -3.80769e-06 0 623.34
-0.635592 -3.80769e-06 0 623.91
-0.629817 -3.80769e-06 0 624.417
-0.623994 -3.80769e-06 0 624.772
-0.618125 -3.80769e-06 0 624.94
-0.61221 -3.80769e-06 0 624.958
-0.606252 -3.80769e-06 0 624.896
-0.600253 -3.80769e-06 0 624.731
-0.594213 -3.80769e-06 0 624.527
-0.588134 -3.80769e-06 0 624.314
-0.582018 -3.80769e-06 0 624.172
-0.575867 -3.80769e-06 0 623.913
-0.569683 -3.80769e-06 0 623.482
-0.563467 -3.80769e-06 0 622.946
-0.557221 -3.80769e-06 0 622.487
-0.550946 -3.80769e-06 0 622.225
-0.544647 -3.80769e-06 0 622.022
-0.538323 -3.80769e-06 0 621.611
-0.531979 -3.80769e-06 0 621.051
-0.525613 -3.80769e-06 0 620.485
-0.51923 -3.80769e-06 0 620.118
-0.512832 -3.80769e-06 0 619.941
-0.50642 -3.80769e-06 0 619.644
-0.499995 -3.80769e-06 0 619.098
-0.493562 -3.80769e-06 0 618.416
-0.487123 -3.80769e-06 0 617.792
-0.480677 -3.80769e-06 0 617.488
-0.47423 -3.80769e-06 0 617.557
-0.467782 -3.80769e-06 0 617.59
-0.461335 -3.80769e-06 0 617.259
-0.454892 -3.80769e-06 0 616.643
-0.448455 -3.80769e-06 0 615.909
-0.442026 -3.80769e-06 0 615.258
-0.435607 -3.80769e-06 0 614.923
-0.429202 -3.80769e-06 0 615.022
-0.42281 -3.80769e-06 0 615.258
-0.416434 -3.80769e-06 0 615.331
-0.410078 -3.80769e-06 0 614.927
-0.403743 -3.80769e-06 0 614.099
-0.39743 -3.80769e-06 0 613.201
-0.391141 -3.80769e-06 0 612.395
-0.38488 -3.80769e-06 0 611.911
-0.378648 -3.80769e-06 0 611.76
-0.372446 -3.80769e-06 0 612.38
-0.366277 -3.80769e-06 0 612.76
-0.360142 -3.80769e-06 0 612.919
-0.354042 -3.80769e-06 0 612.741
-0.347981 -3.80769e-06 0 612.113
-0.341959 -3.80769e-06 0 611.072
-0.335978 -3.80769e-06 0 610.017
-0.33004 -3.80769e-06 0 609.096
-0.324146 -3.80769e-06 0 608.496
-0.318298 -3.80769e-06 0 608.268
-0.312497 -3.80769e-06 0 608.733
-0.306744 -3.80769e-06 0 609.427
-0.301041 -3.80769e-06 0 610.093
-0.29539 -3.80769e-06 0 610.565
-0.28979 -3.80769e-06 0 610.772
-0.284243 -3.80769e-06 0 610.752
-0.278752 -3.80769e-06 0 610.311
-0.273316 -3.80769e-06 0 609.548
-0.267937 -3.80769e-06 0 608.473
-0.262614 -3.80769e-06 0 607.369
-0.25735 -3.80769e-06 0 606.379
-0.252146 -3.80769e-06 0 605.574
-0.247001 -3.80769e-06 0 605.064
-0.241916 -3.80769e-06 0 604.88
-0.236893 -3.80769e-06 0 605.109
-0.231931 -3.80769e-06 0 605.513
-0.227031 -3.80769e-06 0 606.137
-0.222195 -3.80769e-06 0 606.772
-0.217421 -3.80769e-06 0 607.343
-0.212711 -3.80769e-06 0 607.773
-0.208064 -3.80769e-06 0 608.012
-0.203482 -3.80769e-06 0 608.064
-0.198964 -3.80769e-06 0 607.969
-0.19451 -3.80769e-06 0 607.656
-0.19012 -3.80769e-06 0 607.187
-0.185796 -3.80769e-06 0 606.569
-0.181535 -3.80769e-06 0 605.856
-0.17734 -3.80769e-06 0 605.058
-0.173208 -3.80769e-06 0 604.256
-0.169141 -3.80769e-06 0 603.505
-0.165138 -3.80769e-06 0 602.839
-0.161199 -3.80769e-06 0 602.277
-0.157325 -3.80769e-06 0 601.863
-0.153513 -3.80769e-06 0 601.603
-0.149765 -3.80769e-06 0 601.493
-0.14608 -3.80769e-06 0 601.462
-0.142457 -3.80769e-06 0 601.705
-0.138897 -3.80769e-06 0 601.973
-0.135398 -3.80769e-06 0 602.394
-0.131961 -3.80769e-06 0 602.877
-0.128584 -3.80769e-06 0 603.42
-0.125268 -3.80769e-06 0 603.973
-0.122011 -3.80769e-06 0 604.493
-0.118815 -3.80769e-06 0 604.943
-0.115677 -3.80769e-06 0 605.327
-0.112597 -3.80769e-06 0 605.633
-0.109574 -3.80769e-06 0 605.861
-0.106609 -3.80769e-06 0 606.009
-0.1037 -3.80769e-06 0 606.1
-0.100846 -3.80769e-06 0 606.136
-0.098048 -3.80769e-06 0 606.13
-0.0953042 -3.80769e-06 0 606.041
-0.0926143 -3.80769e-06 0 605.927
-0.0899773 -3.80769e-06 0 605.768
-0.0873927 -3.80769e-06 0 605.567
-0.0848599 -3.80769e-06 0 605.321
-0.082378 -3.80769e-06 0 605.045
-0.0799465 -3.80769e-06 0 604.738
-0.0775645 -3.80769e-06 0 604.407
-0.0752312 -3.80769e-06 0 604.054
-0.0729462 -3.80769e-06 0 603.69
-0.0707085 -3.80769e-06 0 603.319
-0.0685175 -3.80769e-06 0 602.946
-0.0663725 -3.80769e-06 0 602.575
-0.0642727 -3.80769e-06 0 602.215
-0.0622173 -3.80769e-06 0 601.867
-0.0602058 -3.80769e-06 0 601.535
-0.0582373 -3.80769e-06 0 601.218
-0.0563111 -3.80769e-06 0 600.916
-0.0544265 -3.80769e-06 0 600.631
-0.0525827 -3.80769e-06 0 600.357
-0.0507792 -3.80769e-06 0 600.102
-0.0490152 -3.80769e-06 0 599.862
-0.0472898 -3.80769e-06 0 599.639
-0.0456025 -3.80769e-06 0 599.427
-0.0439526 -3.80769e-06 0 599.231
-0.0423394 -3.80769e-06 0 599.048
-0.0407622 -3.80769e-06 0 598.88
-0.0392203 -3.80769e-06 0 598.718
-0.0377131 -3.80769e-06 0 598.572
-0.0362398 -3.80769e-06 0 598.434
-0.0347999 -3.80769e-06 0 598.31
-0.0333926 -3.80769e-06 0 598.19
-0.0320175 -3.80769e-06 0 598.086
-0.0306737 -3.80769e-06 0 597.99
-0.0293607 -3.80769e-06 0 597.91
-0.0280779 -3.80769e-06 0 597.83
-0.0268246 -3.80769e-06 0 597.777
-0.0256004 -3.80769e-06 0 597.72
-0.0244045 -3.80769e-06 0 597.693
-0.0232363 -3.80769e-06 0 597.65
-0.0220954 -3.80769e-06 0 597.638
-0.0209812 -3.80769e-06 0 597.616
-0.019893 -3.80769e-06 0 597.644
-0.0188303 -3.80769e-06 0 597.824
-0.0177927 -3.80769e-06 0 599.667
-0.0167794 -3.80769e-06 0 610.322
-0.0157901 -3.80769e-06 0 652.671
-0.0148243 -3.80769e-06 0 746.108
-0.0138814 -3.80769e-06 0 859.369
-0.0129608 -3.80769e-06 0 952.45
-0.0120623 -3.80769e-06 0 1021.65
-0.0111851 -3.80769e-06 0 1074.94
-0.0103289 -3.80769e-06 0 1122.67
-0.00949328 -3.80769e-06 0 1164.8
-0.00867767 -3.80769e-06 0 1203.83
-0.00788168 -3.80769e-06 0 1240.17
-0.00710485 -3.80769e-06 0 1273.55
-0.00634675 -3.80769e-06 0 1304.63
-0.00560698 -3.80769e-06 0 1333.56
-0.0048851 -3.80769e-06 0 1359.98
-0.00418071 -3.80769e-06 0 1383.87
-0.00349342 -3.80769e-06 0 1403.79
-0.00282284 -3.80769e-06 0 1419.96
-0.00216857 -3.80769e-06 0 1434.6
-0.00153026 -3.80769e-06 0 1452.91
-0.00090752 -3.80769e-06 0 1487.25
-0.0003 -3.80769e-06 0 1573.84
0.000259937 0.000146262 2.25537e-21 1486.35
0.000779437 0.000446185 0 1541.35
0.00129893 0.000746101 0 1572.21
0.00181858 0.00104611 2.2554e-21 1629.51
0.00233835 0.00134618 -2.25541e-21 1699.22
0.00285828 0.00164636 2.25542e-21 1782.43
0.00337841 0.00194664 0 1876.29
0.00389877 0.00224706 0 1979.68
0.00441941 0.00254764 -2.25544e-21 2091.21
0.00494034 0.00284839 2.25545e-21 2210.71
0.00546162 0.00314934 -2.25546e-21 2337.53
0.00598328 0.0034505 2.25547e-21 2473.47
0.00650535 0.00375191 2.25547e-21 2618.85
0.00702786 0.00405357 2.25548e-21 2775.05
0.00755087 0.00435552 0 2941.1
0.00807439 0.00465776 -2.25549e-21 3117.01
0.00859847 0.00496033 2.2555e-21 3301.79
0.00912315 0.00526324 0 3495.27
0.00964845 0.00556651 2.25551e-21 3697.45
0.0101744 0.00587017 0 3908.36
0.0107011 0.00617424 0 4127.39
0.0112285 0.00647873 -2.25552e-21 4354.66
0.0117567 0.00678367 0 4590.11
0.0122857 0.00708907 0 4834.74
0.0128156 0.00739497 0 5089.91
0.0133463 0.00770137 -2.25554e-21 5356.83
0.0138779 0.00800831 0 5637.71
0.0144106 0.0083158 0 5935.29
0.0149442 0.00862387 0 6251.07
0.0154788 0.00893253 0 6587.84
0.0160145 0.00924181 0 6944.37
0.0165513 0.00955172 2.25556e-21 7319.18
0.0170893 0.00986231 -2.25556e-21 7709.8
0.0176284 0.0101736 0 8119.24
0.0181687 0.0104855 0 8548.87
0.0187103 0.0107982 2.25556e-21 8986.1
0.0192532 0.0111117 2.25557e-21 9417.04
0.0197975 0.0114259 2.25557e-21 9823.55
0.0203431 0.0117408 0 10203.5
0.0208901 0.0120566 4.51114e-21 10557.1
0.0214385 0.0123732 -4.51114e-21 10888.5
0.0219884 0.0126907 0 11197.4
0.0225398 0.0130091 4.51114e-21 11490.9
0.0230928 0.0133283 0 11766.9
0.0236474 0.0136485 0 12027.8
0.0242037 0.0139697 0 12266.3
0.0247616 0.0142918 -4.51113e-21 12484.6
0.0253212 0.0146148 -4.51113e-21 12686.8
0.0258825 0.0149389 -4.51114e-21 12867.5
0.0264456 0.015264 0 13024.5
0.0270106 0.0155902 0 13163.9
0.0275774 0.0159174 -4.51112e-21 13286.2
0.0281462 0.0162457 0 13395.4
0.0287168 0.0165752 4.51111e-21 13480
0.0292895 0.0169059 -4.51111e-21 13531.6
0.0298642 0.0172376 0 13561
0.0304409 0.0175706 0 13590.4
0.0310198 0.0179048 4.5111e-21 13614.2
0.0316007 0.0182402 4.5111e-21 13649.1
0.0321839 0.0185768 -4.51107e-21 13688.6
0.0327693 0.0189148 0 13712.4
0.0333569 0.0192541 0 13723.7
0.0339469 0.0195947 4.51106e-21 13679.1
0.0345392 0.0199366 0 13658.4
0.0351339 0.02028 0 13631.3
0.035731 0.0206247 4.51105e-21 13611.2
0.0363305 0.0209708 -4.51103e-21 13588.8
0.0369326 0.0213184 4.51102e-21 13537.1
0.0375373 0.0216675 0 13491.9
0.0381445 0.0220181 0 13451.2
0.0387543 0.0223702 0 13424.9
0.0393668 0.0227238 4.51099e-21 13416.2
0.0399821 0.023079 -4.51097e-21 13418.8
0.0406001 0.0234358 4.51097e-21 13423.6
0.041221 0.0237942 0 13410.5
0.0418446 0.0241542 0 13375.3
0.0424712 0.024516 4.51092e-21 13336.2
0.0431006 0.0248794 -4.51094e-21 13273.9
0.0437331 0.0252445 0 13231.6
0.0443686 0.0256114 4.51089e-21 13200.7
0.0450071 0.02598 4.51089e-21 13178.2
0.0456487 0.0263505 0 13170.3
0.0462935 0.0267227 0 13150.4
0.0469415 0.0270968 -4.51085e-21 13142.7
0.0475927 0.0274728 0 13118.9
0.0482473 0.0278507 -4.51081e-21 13099.1
0.0489051 0.0282305 4.51081e-21 13085.5
0.0495663 0.0286122 -4.51079e-21 13067.6
0.050231 0.0289959 0 13059
0.0508991 0.0293816 -4.51077e-21 13044.5
0.0515707 0.0297694 4.51073e-21 13036
0.0522459 0.0301592 -4.51073e-21 13002.7
0.0529247 0.0305511 0 12971.3
0.0536071 0.0309451 0 12930
0.0542933 0.0313412 -4.51067e-21 12905.5
0.0549832 0.0317395 0 12887
0.0556769 0.03214 0 12877.7
0.0563744 0.0325427 0 12875.4
0.0570758 0.0329477 -4.5106e-21 12881.8
0.0577812 0.0333549 0 12887.9
0.0584905 0.0337645 0 12880.8
0.0592039 0.0341763 -4.51056e-21 12868.9
0.0599214 0.0345905 4.51053e-21 12854.1
0.060643 0.0350071 0 12833
0.0613688 0.0354262 4.51049e-21 12815.8
0.0620989 0.0358477 -4.51048e-21 12794.1
0.0628332 0.0362716 4.51046e-21 12779.2
0.0635719 0.0366981 0 12766.2
0.0643149 0.037127 4.51041e-21 12750.8
0.0650624 0.0375586 0 12746
0.0658144 0.0379927 0 12731.5
0.0665709 0.0384295 4.51035e-21 12724.4
0.0673321 0.0388689 -4.51035e-21 12711
0.0680979 0.039311 0 12704
0.0688683 0.0397558 -4.51029e-21 12695.5
0.0696435 0.0402034 4.51029e-21 12688
0.0704236 0.0406537 0 12685.2
0.0712085 0.0411069 0 12678.7
0.0719983 0.0415628 0 12675.7
0.0727931 0.0420217 0 12672.3
0.0735929 0.0424834 0 12665.1
0.0743978 0.0429481 0 12657.6
0.0752078 0.0434158 0 12643.8
0.076023 0.0438864 4.5101e-21 12634
0.0768435 0.0443601 -4.51009e-21 12619.5
0.0776693 0.0448369 -4.51004e-21 12605
0.0785004 0.0453167 4.51003e-21 12588.8
0.079337 0.0457997 0 12573
0.080179 0.0462858 0 12559.8
0.0810266 0.0467751 0 12547.6
0.0818797 0.0472677 0 12535.4
0.0827385 0.0477635 0 12527.8
0.083603 0.0482626 0 12516
0.0844733 0.0487651 4.50985e-21 12507.9
0.0853495 0.0492709 -4.50983e-21 12497.4
0.0862316 0.0497801 0 12491.1
0.0871195 0.0502927 -4.50978e-21 12485.6
0.0880135 0.0508089 0 12476.9
0.0889136 0.0513285 0 12470.6
0.0898198 0.0518517 0 12461.2
0.0907322 0.0523785 0 12450.6
0.0916509 0.0529089 0 12438.2
0.0925758 0.0534429 4.50963e-21 12422.6
0.0935072 0.0539806 4.50959e-21 12406.8
0.094445 0.054522 0 12390.9
0.0953894 0.0550672 4.50953e-21 12374.7
0.0963404 0.0556162 0 12364.3
0.0972979 0.0561691 0 12354.6
0.0982622 0.0567258 0 12347.1
0.0992333 0.0572865 0 12341.8
0.100211 0.057851 0 12342.6
0.101196 0.0584196 0 12344.8
0.102188 0.0589922 4.50935e-21 12340.7
0.103187 0.0595689 4.50932e-21 12339.2
0.104193 0.0601497 -4.50928e-21 12340.2
0.105206 0.0607347 0 12331.3
0.106226 0.0613239 0 12327.6
0.107254 0.0619172 0 12317.4
0.10829 0.0625149 4.50918e-21 12311.6
0.109332 0.0631169 4.50915e-21 12301.9
0.110382 0.0637232 -4.50911e-21 12284.2
0.11144 0.064334 -4.50908e-21 12261.6
0.112506 0.0649492 4.50905e-21 12243
0.11358 0.0655688 4.50902e-21 12238.2
0.114661 0.066193 0 12221.9
0.11575 0.0668218 0 12219.2
0.116847 0.0674552 0 12216
0.117952 0.0680932 0 12210.3
0.119065 0.068736 0 12204.6
0.120187 0.0693834 4.50884e-21 12210.1
0.121316 0.0700357 0 12201.3
0.122455 0.0706928 0 12197.3
0.123601 0.0713548 -4.50875e-21 12199.9
0.124756 0.0720217 0 12188.5
0.12592 0.0726935 -4.5087e-21 12183.7
0.127093 0.0733704 0 12176.9
0.128274 0.0740524 0 12167.3
0.129464 0.0747395 4.50859e-21 12156.9
0.130663 0.0754317 0 12148.8
0.131871 0.0761292 4.50853e-21 12156.1
0.133088 0.0768319 4.50851e-21 12146.1
0.134315 0.0775399 0 12148.3
0.13555 0.0782532 4.50845e-21 12136.7
0.136795 0.078972 0 12128.1
0.13805 0.0796962 0 12115.6
0.139314 0.080426 -4.50834e-21 12106.3
0.140587 0.0811613 -4.50831e-21 12101.6
0.14187 0.0819021 4.50827e-21 12096.9
0.143163 0.0826487 0 12087.2
0.144466 0.0834009 0 12077.8
0.145779 0.0841589 0 12071.4
0.147102 0.0849227 4.50815e-21 12063.9
0.148435 0.0856924 4.50811e-21 12050.3
0.149779 0.0864679 0 12047.1
0.151133 0.0872495 4.50805e-21 12043.2
0.152497 0.0880371 4.50801e-21 12048.4
0.153871 0.0888307 4.50798e-21 12048.7
0.155257 0.0896305 0 12038.8
0.156653 0.0904364 4.50791e-21 12033
0.15806 0.0912487 4.50787e-21 12015.1
0.159478 0.0920672 0 12010.3
0.160907 0.092892 0 11996.2
0.162347 0.0937233 0 11988.4
0.163798 0.0945611 4.50774e-21 11997.1
0.16526 0.0954054 0 11990.6
0.166734 0.0962563 0 11991.5
0.168219 0.0971138 0 11981.9
0.169716 0.097978 4.50761e-21 11970.3
0.171225 0.098849 4.50758e-21 11961
0.172745 0.0997268 4.50754e-21 11946.1
0.174278 0.100611 0 11939.5
0.175822 0.101503 0 11940.6
0.177379 0.102402 0 11951.7
0.178947 0.103308 4.50741e-21 11948.7
0.180529 0.10422 4.50737e-21 11941.1
0.182122 0.10514 4.50734e-21 11939.2
0.183728 0.106068 0 11927.7
0.185347 0.107002 -4.50727e-21 11919
0.186979 0.107944 0 11909.9
0.188623 0.108894 0 11918.8
0.190281 0.109851 4.50716e-21 11917.4
0.191952 0.110815 0 11929.1
0.193636 0.111787 -4.5071e-21 11930
0.195333 0.112767 -4.50707e-21 11931.5
0.197044 0.113755 -4.50702e-21 11915.6
0.198768 0.114751 -4.507e-21 11908
0.200506 0.115754 -4.50696e-21 11881.5
0.202258 0.116766 0 11882.2
0.204024 0.117785 4.50688e-21 11874.1
0.205805 0.118813 4.50686e-21 11884.4
0.207599 0.119849 0 11889.2
0.209408 0.120893 -4.50679e-21 11891
0.211231 0.121946 -4.50676e-21 11893
0.213068 0.123007 0 11868.1
0.214921 0.124076 0 11859.2
0.216788 0.125154 0 11849.6
0.21867 0.126241 0 11843.1
0.220567 0.127336 0 11840.7
0.22248 0.12844 0 11849.3
0.224408 0.129553 0 11852.4
0.226351 0.130675 0 11851.3
0.22831 0.131806 0 11842.6
0.230284 0.132946 9.01282e-21 11819.3
0.232275 0.134095 0 11797.7
0.234282 0.135254 9.01268e-21 11798.7
0.236304 0.136421 0 11785.9
0.238344 0.137598 9.01253e-21 11798.1
0.2404 0.138785 0 11805.1
0.242472 0.139982 0 11814.9
