# wallHeatFlux  FACE_DATA 448
# x  y  z  wallHeatFlux
-0.778 -3.80769e-06 0 -198882
-0.773968 -3.80769e-06 0 -40154.3
-0.769872 -3.80769e-06 0 -24476.2
-0.76571 -3.80769e-06 0 -19627.1
-0.761486 -3.80769e-06 0 -16565.7
-0.757196 -3.80769e-06 0 -14607.2
-0.752841 -3.80769e-06 0 -13265.6
-0.748422 -3.80769e-06 0 -12247.7
-0.743939 -3.80769e-06 0 -11459.6
-0.739391 -3.80769e-06 0 -10813
-0.73478 -3.80769e-06 0 -10276.4
-0.730104 -3.80769e-06 0 -9813.64
-0.725364 -3.80769e-06 0 -9419.42
-0.720562 -3.80769e-06 0 -9141.9
-0.715696 -3.80769e-06 0 -8991.98
-0.710769 -3.80769e-06 0 -9135.85
-0.705778 -3.80769e-06 0 -9520.54
-0.700727 -3.80769e-06 0 -10162.3
-0.695615 -3.80769e-06 0 -10906.3
-0.690443 -3.80769e-06 0 -11602.9
-0.685211 -3.80769e-06 0 -12160.9
-0.67992 -3.80769e-06 0 -12596.1
-0.674571 -3.80769e-06 0 -12929.8
-0.669166 -3.80769e-06 0 -13177.9
-0.663704 -3.80769e-06 0 -13361.8
-0.658187 -3.80769e-06 0 -13497.4
-0.652616 -3.80769e-06 0 -13595.4
-0.646993 -3.80769e-06 0 -13650.3
-0.641317 -3.80769e-06 0 -13673.3
-0.635592 -3.80769e-06 0 -13678.8
-0.629817 -3.80769e-06 0 -13669.5
-0.623994 -3.80769e-06 0 -13647.7
-0.618125 -3.80769e-06 0 -13610.7
-0.61221 -3.80769e-06 0 -13556.9
-0.606252 -3.80769e-06 0 -13502.8
-0.600253 -3.80769e-06 0 -13443.2
-0.594213 -3.80769e-06 0 -13383.2
-0.588134 -3.80769e-06 0 -13323.1
-0.582018 -3.80769e-06 0 -13262.6
-0.575867 -3.80769e-06 0 -13196.5
-0.569683 -3.80769e-06 0 -13130
-0.563467 -3.80769e-06 0 -13063.3
-0.557221 -3.80769e-06 0 -12996.7
-0.550946 -3.80769e-06 0 -12939.6
-0.544647 -3.80769e-06 0 -12883.2
-0.538323 -3.80769e-06 0 -12820.9
-0.531979 -3.80769e-06 0 -12763.8
-0.525613 -3.80769e-06 0 -12700.9
-0.51923 -3.80769e-06 0 -12648.6
-0.512832 -3.80769e-06 0 -12601.4
-0.50642 -3.80769e-06 0 -12554.1
-0.499995 -3.80769e-06 0 -12496
-0.493562 -3.80769e-06 0 -12442.4
-0.487123 -3.80769e-06 0 -12389
-0.480677 -3.80769e-06 0 -12346.2
-0.47423 -3.80769e-06 0 -12308.2
-0.467782 -3.80769e-06 0 -12270.6
-0.461335 -3.80769e-06 0 -12232.8
-0.454892 -3.80769e-06 0 -12183
-0.448455 -3.80769e-06 0 -12139.8
-0.442026 -3.80769e-06 0 -12089.6
-0.435607 -3.80769e-06 0 -12051.1
-0.429202 -3.80769e-06 0 -12023
-0.42281 -3.80769e-06 0 -11994.7
-0.416434 -3.80769e-06 0 -11971.9
-0.410078 -3.80769e-06 0 -11937.2
-0.403743 -3.80769e-06 0 -11892.5
-0.39743 -3.80769e-06 0 -11847.7
-0.391141 -3.80769e-06 0 -11801.8
-0.38488 -3.80769e-06 0 -11767.6
-0.378648 -3.80769e-06 0 -11733
-0.372446 -3.80769e-06 0 -11725.2
-0.366277 -3.80769e-06 0 -11712.3
-0.360142 -3.80769e-06 0 -11692.9
-0.354042 -3.80769e-06 0 -11669
-0.347981 -3.80769e-06 0 -11633.9
-0.341959 -3.80769e-06 0 -11593.6
-0.335978 -3.80769e-06 0 -11552.7
-0.33004 -3.80769e-06 0 -11511.7
-0.324146 -3.80769e-06 0 -11477.1
-0.318298 -3.80769e-06 0 -11452.3
-0.312497 -3.80769e-06 0 -11443.9
-0.306744 -3.80769e-06 0 -11435.5
-0.301041 -3.80769e-06 0 -11432.4
-0.29539 -3.80769e-06 0 -11429.1
-0.28979 -3.80769e-06 0 -11415.9
-0.284243 -3.80769e-06 0 -11401.7
-0.278752 -3.80769e-06 0 -11377.1
-0.273316 -3.80769e-06 0 -11347.2
-0.267937 -3.80769e-06 0 -11311.9
-0.262614 -3.80769e-06 0 -11270.9
-0.25735 -3.80769e-06 0 -11236.3
-0.252146 -3.80769e-06 0 -11206.2
-0.247001 -3.80769e-06 0 -11181.8
-0.241916 -3.80769e-06 0 -11162.7
-0.236893 -3.80769e-06 0 -11149.2
-0.231931 -3.80769e-06 0 -11146.1
-0.227031 -3.80769e-06 0 -11144.2
-0.222195 -3.80769e-06 0 -11146.5
-0.217421 -3.80769e-06 0 -11143.9
-0.212711 -3.80769e-06 0 -11141
-0.208064 -3.80769e-06 0 -11139.3
-0.203482 -3.80769e-06 0 -11130.6
-0.198964 -3.80769e-06 0 -11117.9
-0.19451 -3.80769e-06 0 -11099.7
-0.19012 -3.80769e-06 0 -11081.5
-0.185796 -3.80769e-06 0 -11063.8
-0.181535 -3.80769e-06 0 -11039.9
-0.17734 -3.80769e-06 0 -11010.7
-0.173208 -3.80769e-06 0 -10988.3
-0.169141 -3.80769e-06 0 -10964.1
-0.165138 -3.80769e-06 0 -10936.5
-0.161199 -3.80769e-06 0 -10918.5
-0.157325 -3.80769e-06 0 -10900.9
-0.153513 -3.80769e-06 0 -10883.3
-0.149765 -3.80769e-06 0 -10876.1
-0.14608 -3.80769e-06 0 -10864.6
-0.142457 -3.80769e-06 0 -10858.5
-0.138897 -3.80769e-06 0 -10856.2
-0.135398 -3.80769e-06 0 -10856.2
-0.131961 -3.80769e-06 0 -10860.2
-0.128584 -3.80769e-06 0 -10864.2
-0.125268 -3.80769e-06 0 -10863.9
-0.122011 -3.80769e-06 0 -10869.1
-0.118815 -3.80769e-06 0 -10872.7
-0.115677 -3.80769e-06 0 -10878
-0.112597 -3.80769e-06 0 -10877.4
-0.109574 -3.80769e-06 0 -10877.6
-0.106609 -3.80769e-06 0 -10876.7
-0.1037 -3.80769e-06 0 -10871.1
-0.100846 -3.80769e-06 0 -10865.2
-0.098048 -3.80769e-06 0 -10865.3
-0.0953042 -3.80769e-06 0 -10854.6
-0.0926143 -3.80769e-06 0 -10849.2
-0.0899773 -3.80769e-06 0 -10843.9
-0.0873927 -3.80769e-06 0 -10833.2
-0.0848599 -3.80769e-06 0 -10822.9
-0.082378 -3.80769e-06 0 -10812.4
-0.0799465 -3.80769e-06 0 -10802.1
-0.0775645 -3.80769e-06 0 -10791.8
-0.0752312 -3.80769e-06 0 -10781.4
-0.0729462 -3.80769e-06 0 -10771.3
-0.0707085 -3.80769e-06 0 -10761.2
-0.0685175 -3.80769e-06 0 -10751.2
-0.0663725 -3.80769e-06 0 -10735.7
-0.0642727 -3.80769e-06 0 -10725.8
-0.0622173 -3.80769e-06 0 -10716
-0.0602058 -3.80769e-06 0 -10706
-0.0582373 -3.80769e-06 0 -10696.3
-0.0563111 -3.80769e-06 0 -10686.5
-0.0544265 -3.80769e-06 0 -10676.8
-0.0525827 -3.80769e-06 0 -10667.2
-0.0507792 -3.80769e-06 0 -10657.7
-0.0490152 -3.80769e-06 0 -10648.2
-0.0472898 -3.80769e-06 0 -10644.2
-0.0456025 -3.80769e-06 0 -10634.7
-0.0439526 -3.80769e-06 0 -10630.7
-0.0423394 -3.80769e-06 0 -10621.4
-0.0407622 -3.80769e-06 0 -10617.6
-0.0392203 -3.80769e-06 0 -10608.5
-0.0377131 -3.80769e-06 0 -10604.9
-0.0362398 -3.80769e-06 0 -10595.9
-0.0347999 -3.80769e-06 0 -10592.3
-0.0333926 -3.80769e-06 0 -10588.9
-0.0320175 -3.80769e-06 0 -10580.2
-0.0306737 -3.80769e-06 0 -10577
-0.0293607 -3.80769e-06 0 -10574
-0.0280779 -3.80769e-06 0 -10570.8
-0.0268246 -3.80769e-06 0 -10568.2
-0.0256004 -3.80769e-06 0 -10565.2
-0.0244045 -3.80769e-06 0 -10557.4
-0.0232363 -3.80769e-06 0 -10555.3
-0.0220954 -3.80769e-06 0 -10552.9
-0.0209812 -3.80769e-06 0 -10551.2
-0.019893 -3.80769e-06 0 -10549.6
-0.0188303 -3.80769e-06 0 -10543.1
-0.0177927 -3.80769e-06 0 -10558.6
-0.0167794 -3.80769e-06 0 -10633.9
-0.0157901 -3.80769e-06 0 -10795.6
-0.0148243 -3.80769e-06 0 -10716.1
-0.0138814 -3.80769e-06 0 -9860.69
-0.0129608 -3.80769e-06 0 -8675.75
-0.0120623 -3.80769e-06 0 -7981.07
-0.0111851 -3.80769e-06 0 -7941.99
-0.0103289 -3.80769e-06 0 -8532.62
-0.00949328 -3.80769e-06 0 -9241.22
-0.00867767 -3.80769e-06 0 -9884.51
-0.00788168 -3.80769e-06 0 -10405.7
-0.00710485 -3.80769e-06 0 -10821.6
-0.00634675 -3.80769e-06 0 -11165.4
-0.00560698 -3.80769e-06 0 -11449.8
-0.0048851 -3.80769e-06 0 -11692.9
-0.00418071 -3.80769e-06 0 -11909.6
-0.00349342 -3.80769e-06 0 -12202.7
-0.00282284 -3.80769e-06 0 -12733
-0.00216857 -3.80769e-06 0 -13680.1
-0.00153026 -3.80769e-06 0 -15061.3
-0.00090752 -3.80769e-06 0 -15737.8
-0.0003 -3.80769e-06 0 -14604.6
0.000259937 0.000146262 2.25537e-21 -14045.5
0.000779437 0.000446185 0 -17602.3
0.00129893 0.000746101 0 -20994.3
0.00181858 0.00104611 2.2554e-21 -23873.2
0.00233835 0.00134618 -2.25541e-21 -26293.2
0.00285828 0.00164636 2.25542e-21 -28759.2
0.00337841 0.00194664 0 -31299.4
0.00389877 0.00224706 0 -33921.3
0.00441941 0.00254764 -2.25544e-21 -36592.8
0.00494034 0.00284839 2.25545e-21 -39359.8
0.00546162 0.00314934 -2.25546e-21 -42281.5
0.00598328 0.0034505 2.25547e-21 -45409.8
0.00650535 0.00375191 2.25547e-21 -48762.3
0.00702786 0.00405357 2.25548e-21 -52324.4
0.00755087 0.00435552 0 -55985.1
0.00807439 0.00465776 -2.25549e-21 -59684.8
0.00859847 0.00496033 2.2555e-21 -63364.9
0.00912315 0.00526324 0 -67042.1
0.00964845 0.00556651 2.25551e-21 -70746.9
0.0101744 0.00587017 0 -74531
0.0107011 0.00617424 0 -78390.4
0.0112285 0.00647873 -2.25552e-21 -82322.8
0.0117567 0.00678367 0 -86288.8
0.0122857 0.00708907 0 -90318.5
0.0128156 0.00739497 0 -94361.7
0.0133463 0.00770137 -2.25554e-21 -98502.6
0.0138779 0.00800831 0 -102768
0.0144106 0.0083158 0 -107197
0.0149442 0.00862387 0 -111952
0.0154788 0.00893253 0 -117066
0.0160145 0.00924181 0 -122487
0.0165513 0.00955172 2.25556e-21 -128169
0.0170893 0.00986231 -2.25556e-21 -134105
0.0176284 0.0101736 0 -140561
0.0181687 0.0104855 0 -147667
0.0187103 0.0107982 2.25556e-21 -155034
0.0192532 0.0111117 2.25557e-21 -162299
0.0197975 0.0114259 2.25557e-21 -168752
0.0203431 0.0117408 0 -174250
0.0208901 0.0120566 4.51114e-21 -178981
0.0214385 0.0123732 -4.51114e-21 -183197
0.0219884 0.0126907 0 -187118
0.0225398 0.0130091 4.51114e-21 -190727
0.0230928 0.0133283 0 -194182
0.0236474 0.0136485 0 -197195
0.0242037 0.0139697 0 -200045
0.0247616 0.0142918 -4.51113e-21 -202368
0.0253212 0.0146148 -4.51113e-21 -204500
0.0258825 0.0149389 -4.51114e-21 -205549
0.0264456 0.015264 0 -206710
0.0270106 0.0155902 0 -207509
0.0275774 0.0159174 -4.51112e-21 -207736
0.0281462 0.0162457 0 -207493
0.0287168 0.0165752 4.51111e-21 -206941
0.0292895 0.0169059 -4.51111e-21 -206152
0.0298642 0.0172376 0 -205104
0.0304409 0.0175706 0 -203404
0.0310198 0.0179048 4.5111e-21 -201995
0.0316007 0.0182402 4.5111e-21 -200855
0.0321839 0.0185768 -4.51107e-21 -199610
0.0327693 0.0189148 0 -198151
0.0333569 0.0192541 0 -196462
0.0339469 0.0195947 4.51106e-21 -194095
0.0345392 0.0199366 0 -191699
0.0351339 0.02028 0 -189294
0.035731 0.0206247 4.51105e-21 -186990
0.0363305 0.0209708 -4.51103e-21 -184883
0.0369326 0.0213184 4.51102e-21 -182437
0.0375373 0.0216675 0 -180014
0.0381445 0.0220181 0 -177701
0.0387543 0.0223702 0 -176105
0.0393668 0.0227238 4.51099e-21 -174025
0.0399821 0.023079 -4.51097e-21 -172969
0.0406001 0.0234358 4.51097e-21 -171476
0.041221 0.0237942 0 -169839
0.0418446 0.0241542 0 -168022
0.0424712 0.024516 4.51092e-21 -166216
0.0431006 0.0248794 -4.51094e-21 -164424
0.0437331 0.0252445 0 -162620
0.0443686 0.0256114 4.51089e-21 -160951
0.0450071 0.02598 4.51089e-21 -159970
0.0456487 0.0263505 0 -158841
0.0462935 0.0267227 0 -158127
0.0469415 0.0270968 -4.51085e-21 -157186
0.0475927 0.0274728 0 -156184
0.0482473 0.0278507 -4.51081e-21 -155321
0.0489051 0.0282305 4.51081e-21 -154060
0.0495663 0.0286122 -4.51079e-21 -153287
0.050231 0.0289959 0 -152630
0.0508991 0.0293816 -4.51077e-21 -151729
0.0515707 0.0297694 4.51073e-21 -151160
0.0522459 0.0301592 -4.51073e-21 -150433
0.0529247 0.0305511 0 -149225
0.0536071 0.0309451 0 -148482
0.0542933 0.0313412 -4.51067e-21 -147460
0.0549832 0.0317395 0 -146719
0.0556769 0.03214 0 -146057
0.0563744 0.0325427 0 -145734
0.0570758 0.0329477 -4.5106e-21 -145629
0.0577812 0.0333549 0 -145633
0.0584905 0.0337645 0 -145097
0.0592039 0.0341763 -4.51056e-21 -145070
0.0599214 0.0345905 4.51053e-21 -144256
0.060643 0.0350071 0 -143811
0.0613688 0.0354262 4.51049e-21 -142943
0.0620989 0.0358477 -4.51048e-21 -142519
0.0628332 0.0362716 4.51046e-21 -141851
0.0635719 0.0366981 0 -141369
0.0643149 0.037127 4.51041e-21 -141311
0.0650624 0.0375586 0 -140655
0.0658144 0.0379927 0 -140685
0.0665709 0.0384295 4.51035e-21 -140173
0.0673321 0.0388689 -4.51035e-21 -140029
0.0680979 0.039311 0 -139741
0.0688683 0.0397558 -4.51029e-21 -139230
0.0696435 0.0402034 4.51029e-21 -139145
0.0704236 0.0406537 0 -138470
0.0712085 0.0411069 0 -138556
0.0719983 0.0415628 0 -138096
0.0727931 0.0420217 0 -137788
0.0735929 0.0424834 0 -137556
0.0743978 0.0429481 0 -137042
0.0752078 0.0434158 0 -136888
0.076023 0.0438864 4.5101e-21 -136427
0.0768435 0.0443601 -4.51009e-21 -136180
0.0776693 0.0448369 -4.51004e-21 -135889
0.0785004 0.0453167 4.51003e-21 -135437
0.079337 0.0457997 0 -135278
0.080179 0.0462858 0 -134706
0.0810266 0.0467751 0 -134270
0.0818797 0.0472677 0 -134336
0.0827385 0.0477635 0 -133687
0.083603 0.0482626 0 -133679
0.0844733 0.0487651 4.50985e-21 -133494
0.0853495 0.0492709 -4.50983e-21 -133260
0.0862316 0.0497801 0 -133260
0.0871195 0.0502927 -4.50978e-21 -132737
0.0880135 0.0508089 0 -132781
0.0889136 0.0513285 0 -132566
0.0898198 0.0518517 0 -132118
0.0907322 0.0523785 0 -131991
0.0916509 0.0529089 0 -131478
0.0925758 0.0534429 4.50963e-21 -131089
0.0935072 0.0539806 4.50959e-21 -130655
0.094445 0.054522 0 -130377
0.0953894 0.0550672 4.50953e-21 -129971
0.0963404 0.0556162 0 -129648
0.0972979 0.0561691 0 -129392
0.0982622 0.0567258 0 -129247
0.0992333 0.0572865 0 -129388
0.100211 0.057851 0 -129240
0.101196 0.0584196 0 -128766
0.102188 0.0589922 4.50935e-21 -129184
0.103187 0.0595689 4.50932e-21 -129092
0.104193 0.0601497 -4.50928e-21 -128416
0.105206 0.0607347 0 -128926
0.106226 0.0613239 0 -128370
0.107254 0.0619172 0 -128183
0.10829 0.0625149 4.50918e-21 -127780
0.109332 0.0631169 4.50915e-21 -127449
0.110382 0.0637232 -4.50911e-21 -127320
0.11144 0.064334 -4.50908e-21 -126776
0.112506 0.0649492 4.50905e-21 -126794
0.11358 0.0655688 4.50902e-21 -125918
0.114661 0.066193 0 -125985
0.11575 0.0668218 0 -125999
0.116847 0.0674552 0 -125960
0.117952 0.0680932 0 -125838
0.119065 0.068736 0 -125925
0.120187 0.0693834 4.50884e-21 -125246
0.121316 0.0700357 0 -125509
0.122455 0.0706928 0 -125472
0.123601 0.0713548 -4.50875e-21 -124429
0.124756 0.0720217 0 -124992
0.12592 0.0726935 -4.5087e-21 -124497
0.127093 0.0733704 0 -124339
0.128274 0.0740524 0 -123797
0.129464 0.0747395 4.50859e-21 -123988
0.130663 0.0754317 0 -123773
0.131871 0.0761292 4.50853e-21 -123280
0.133088 0.0768319 4.50851e-21 -123825
0.134315 0.0775399 0 -123311
0.13555 0.0782532 4.50845e-21 -122771
0.136795 0.078972 0 -122944
0.13805 0.0796962 0 -122125
0.139314 0.080426 -4.50834e-21 -122376
0.140587 0.0811613 -4.50831e-21 -121685
0.14187 0.0819021 4.50827e-21 -121508
0.143163 0.0826487 0 -121329
0.144466 0.0834009 0 -121234
0.145779 0.0841589 0 -121306
0.147102 0.0849227 4.50815e-21 -120476
0.148435 0.0856924 4.50811e-21 -120656
0.149779 0.0864679 0 -120406
0.151133 0.0872495 4.50805e-21 -120065
0.152497 0.0880371 4.50801e-21 -119858
0.153871 0.0888307 4.50798e-21 -120345
0.155257 0.0896305 0 -119589
0.156653 0.0904364 4.50791e-21 -119237
0.15806 0.0912487 4.50787e-21 -119523
0.159478 0.0920672 0 -118683
0.160907 0.092892 0 -118417
0.162347 0.0937233 0 -118631
0.163798 0.0945611 4.50774e-21 -117679
0.16526 0.0954054 0 -118141
0.166734 0.0962563 0 -117965
0.168219 0.0971138 0 -117369
0.169716 0.097978 4.50761e-21 -117409
0.171225 0.098849 4.50758e-21 -116981
0.172745 0.0997268 4.50754e-21 -117142
0.174278 0.100611 0 -116256
0.175822 0.101503 0 -116534
0.177379 0.102402 0 -115713
0.178947 0.103308 4.50741e-21 -116411
0.180529 0.10422 4.50737e-21 -116023
0.182122 0.10514 4.50734e-21 -115359
0.183728 0.106068 0 -115866
0.185347 0.107002 -4.50727e-21 -115467
0.186979 0.107944 0 -114720
0.188623 0.108894 0 -115281
0.190281 0.109851 4.50716e-21 -114840
0.191952 0.110815 0 -115024
0.193636 0.111787 -4.5071e-21 -114190
0.195333 0.112767 -4.50707e-21 -114344
0.197044 0.113755 -4.50702e-21 -113825
0.198768 0.114751 -4.507e-21 -113464
0.200506 0.115754 -4.50696e-21 -113164
0.202258 0.116766 0 -113372
0.204024 0.117785 4.50688e-21 -112667
0.205805 0.118813 4.50686e-21 -113080
0.207599 0.119849 0 -112533
0.209408 0.120893 -4.50679e-21 -112243
0.211231 0.121946 -4.50676e-21 -111878
0.213068 0.123007 0 -112540
0.214921 0.124076 0 -111646
0.216788 0.125154 0 -110882
0.21867 0.126241 0 -111819
0.220567 0.127336 0 -111119
0.22248 0.12844 0 -110384
0.224408 0.129553 0 -111239
0.226351 0.130675 0 -110344
0.22831 0.131806 0 -110345
0.230284 0.132946 9.01282e-21 -109919
0.232275 0.134095 0 -109946
0.234282 0.135254 9.01268e-21 -109177
0.236304 0.136421 0 -109666
0.238344 0.137598 9.01253e-21 -109305
0.2404 0.138785 0 -108726
0.242472 0.139982 0 -108074
