# p  FACE_DATA 398
# x  y  z  p
-0.7975 0 0.025 4472.61
-0.79239 0 0.025 3680.17
-0.787056 0 0.025 2936.39
-0.781492 0 0.025 2837.83
-0.775691 0 0.025 2788.31
-0.769649 0 0.025 2786.66
-0.763362 0 0.025 2813.75
-0.756822 0 0.025 2837.62
-0.750025 0 0.025 2852.63
-0.742968 0 0.025 2860.34
-0.735648 0 0.025 2864.58
-0.72806 0 0.025 2865.33
-0.720203 0 0.025 2865.49
-0.712076 0 0.025 2865.1
-0.703677 0 0.025 2864.66
-0.695006 0 0.025 2863.06
-0.686065 0 0.025 2861.51
-0.676855 0 0.025 2861.54
-0.667379 0 0.025 2858.81
-0.65764 0 0.025 2854.44
-0.647644 0 0.025 2852.84
-0.637397 0 0.025 2852.4
-0.626906 0 0.025 2848.09
-0.616179 0 0.025 2847.22
-0.605224 0 0.025 2844.78
-0.594054 0 0.025 2842.85
-0.582678 0 0.025 2839.98
-0.57111 0 0.025 2838.16
-0.559364 0 0.025 2835.98
-0.547454 0 0.025 2835.2
-0.535396 0 0.025 2832.51
-0.523205 0 0.025 2831.13
-0.510901 0 0.025 2828.86
-0.4985 0 0.025 2826.26
-0.486021 0 0.025 2825.21
-0.473483 0 0.025 2823.96
-0.460905 0 0.025 2822.3
-0.448308 0 0.025 2820.95
-0.435709 0 0.025 2818.82
-0.42313 0 0.025 2816.31
-0.41059 0 0.025 2815.43
-0.39811 0 0.025 2815.26
-0.385706 0 0.025 2814.16
-0.373398 0 0.025 2812.34
-0.361205 0 0.025 2811.59
-0.349141 0 0.025 2810.76
-0.337226 0 0.025 2808.83
-0.325475 0 0.025 2806.63
-0.313901 0 0.025 2805.22
-0.30252 0 0.025 2804.59
-0.291343 0 0.025 2804.45
-0.280382 0 0.025 2804
-0.269646 0 0.025 2803.48
-0.259148 0 0.025 2802.64
-0.248893 0 0.025 2801.95
-0.23889 0 0.025 2800.86
-0.229143 0 0.025 2799.81
-0.219659 0 0.025 2798.7
-0.210441 0 0.025 2798.01
-0.201491 0 0.025 2797.24
-0.192812 0 0.025 2796.53
-0.184405 0 0.025 2795.71
-0.176269 0 0.025 2795.2
-0.168404 0 0.025 2794.73
-0.160808 0 0.025 2794.47
-0.15348 0 0.025 2794.02
-0.146415 0 0.025 2793.5
-0.13961 0 0.025 2792.79
-0.133063 0 0.025 2792.11
-0.126767 0 0.025 2791.34
-0.120718 0 0.025 2790.59
-0.11491 0 0.025 2789.72
-0.109339 0 0.025 2788.82
-0.103997 0 0.025 2787.84
-0.0988805 0 0.025 2786.96
-0.0939808 0 0.025 2786.21
-0.0892928 0 0.025 2785.75
-0.0848096 0 0.025 2785.57
-0.0805248 0 0.025 2785.66
-0.0764316 0 0.025 2785.92
-0.0725237 0 0.025 2786.25
-0.0687943 0 0.025 2786.66
-0.065237 0 0.025 2787.09
-0.0618454 0 0.025 2787.56
-0.058613 0 0.025 2788
-0.0555337 0 0.025 2788.44
-0.0526013 0 0.025 2788.81
-0.0498099 0 0.025 2789.15
-0.0471536 0 0.025 2789.44
-0.0446266 0 0.025 2789.7
-0.0422235 0 0.025 2789.94
-0.039939 0 0.025 2790.18
-0.0377676 0 0.025 2790.41
-0.0357044 0 0.025 2790.64
-0.0337445 0 0.025 2790.91
-0.0318832 0 0.025 2790.72
-0.0301159 0 0.025 2795.64
-0.0284383 0 0.025 2940.99
-0.0268461 0 0.025 3932.33
-0.0253353 0 0.025 5523.14
-0.023902 0 0.025 6651.37
-0.0225426 0 0.025 7451.45
-0.0212532 0 0.025 8010.45
-0.0200306 0 0.025 8473.84
-0.0188715 0 0.025 8864.07
-0.0177728 0 0.025 9204.18
-0.0167313 0 0.025 9500.61
-0.0157444 0 0.025 9761.89
-0.0148092 0 0.025 9994.34
-0.0139232 0 0.025 10205.7
-0.0130838 0 0.025 10400.8
-0.0122887 0 0.025 10582.3
-0.0115356 0 0.025 10751.3
-0.0108223 0 0.025 10908.3
-0.0101469 0 0.025 11053.9
-0.00950727 0 0.025 11188.2
-0.00890168 0 0.025 11310.9
-0.00832835 0 0.025 11422.2
-0.00778557 0 0.025 11522.4
-0.00727176 0 0.025 11612.6
-0.0067854 0 0.025 11693.7
-0.00632507 0 0.025 11767.3
-0.00588937 0 0.025 11834.9
-0.00547703 0 0.025 11898.3
-0.0050868 0 0.025 11959.3
-0.00471753 0 0.025 12019.4
-0.0043681 0 0.025 12079.7
-0.00403746 0 0.025 12142.3
-0.00372461 0 0.025 12208.6
-0.0034286 0 0.025 12278.7
-0.00314855 0 0.025 12353.1
-0.0028836 0 0.025 12433.6
-0.00263294 0 0.025 12524.6
-0.00239581 0 0.025 12616.2
-0.0021715 0 0.025 12713
-0.00195929 0 0.025 12815.2
-0.00175856 0 0.025 12922
-0.00156869 0 0.025 13032.3
-0.00138908 0 0.025 13145.6
-0.0012192 0 0.025 13260.8
-0.00105853 0 0.025 13376.5
-0.000906546 0 0.025 13490.9
-0.000762803 0 0.025 13601.4
-0.000626848 0 0.025 13703.7
-0.000498265 0 0.025 13791.3
-0.000376656 0 0.025 13855.6
-0.000261642 0 0.025 13889.2
-0.00015287 0 0.025 13897.5
-5e-05 0 0.025 13987.9
4.14519e-05 2.79596e-05 0.025 13561.1
0.000125371 8.45641e-05 0.025 13660.4
0.000211347 0.000142556 0.025 13625.3
0.000299429 0.000201968 0.025 13556.8
0.000389669 0.000262835 0.025 13476.4
0.000482118 0.000325193 0.025 13394.9
0.000576831 0.000389077 0.025 13318.3
0.000673861 0.000454524 0.025 13250.3
0.000773265 0.000521574 0.025 13193.5
0.0008751 0.000590262 0.025 13149.4
0.000979426 0.000660632 0.025 13119.3
0.0010863 0.000732721 0.025 13099.9
0.00119579 0.000806572 0.025 13095.3
0.00130795 0.000882227 0.025 13103.9
0.00142285 0.00095973 0.025 13124.4
0.00154056 0.00103912 0.025 13156.3
0.00166115 0.00112046 0.025 13199.5
0.00178467 0.00120378 0.025 13253.8
0.00191121 0.00128913 0.025 13317.6
0.00204083 0.00137656 0.025 13391.8
0.00217362 0.00146612 0.025 13475.2
0.00230964 0.00155787 0.025 13568
0.00244897 0.00165185 0.025 13669.1
0.00259169 0.00174812 0.025 13779.5
0.00273789 0.00184673 0.025 13898.4
0.00288765 0.00194774 0.025 14026.1
0.00304105 0.00205122 0.025 14162.4
0.00319818 0.00215719 0.025 14307.8
0.00335912 0.00226575 0.025 14461.8
0.00352397 0.00237695 0.025 14625.2
0.00369283 0.00249085 0.025 14798.1
0.00386579 0.00260751 0.025 14980.7
0.00404294 0.00272699 0.025 15173.6
0.00422438 0.00284938 0.025 15377.1
0.00441022 0.00297474 0.025 15592
0.00460056 0.00310312 0.025 15818.9
0.00479552 0.00323462 0.025 16058.6
0.00499519 0.0033693 0.025 16311.5
0.00519968 0.00350723 0.025 16579.3
0.00540911 0.00364849 0.025 16862.3
0.00562361 0.00379318 0.025 17161.9
0.00584329 0.00394134 0.025 17479.3
0.00606826 0.00409309 0.025 17815.7
0.00629865 0.00424849 0.025 18172.4
0.0065346 0.00440764 0.025 18551.3
0.00677623 0.00457063 0.025 18953.7
0.00702368 0.00473753 0.025 19382
0.00727707 0.00490844 0.025 19837.7
0.00753655 0.00508347 0.025 20323.4
0.00780227 0.00526269 0.025 20841.5
0.00807436 0.00544622 0.025 21394.3
0.00835298 0.00563415 0.025 21985
0.00863826 0.00582659 0.025 22616.4
0.00893038 0.00602362 0.025 23291.8
0.00922949 0.00622537 0.025 24014
0.00953574 0.00643195 0.025 24787.5
0.00984929 0.00664345 0.025 25614.8
0.0101703 0.00686 0.025 26502.4
0.0104991 0.00708171 0.025 27451.3
0.0108356 0.00730871 0.025 28468.5
0.0111801 0.0075411 0.025 29560
0.0115329 0.00777902 0.025 30731.5
0.011894 0.00802259 0.025 31989.6
0.0122637 0.00827194 0.025 33343.5
0.0126421 0.00852719 0.025 34803.7
0.0130295 0.0087885 0.025 36376.2
0.013426 0.00905597 0.025 38073.7
0.013832 0.00932978 0.025 39904.1
0.0142475 0.00961003 0.025 41879.1
0.0146727 0.0098969 0.025 44006.2
0.0151081 0.0101905 0.025 46297.6
0.0155536 0.010491 0.025 48769.4
0.0160097 0.0107986 0.025 51442
0.0164764 0.0111134 0.025 54323.3
0.016954 0.0114356 0.025 57435.9
0.0174427 0.0117653 0.025 60787.1
0.0179429 0.0121026 0.025 64406.5
0.0184548 0.0124479 0.025 68307.4
0.0189786 0.0128013 0.025 72507.6
0.0195146 0.0131628 0.025 77042.2
0.020063 0.0135327 0.025 81945.5
0.0206242 0.0139112 0.025 87275.8
0.0211983 0.0142984 0.025 93118.7
0.0217857 0.0146947 0.025 99561
0.0223867 0.0151 0.025 106625
0.0230015 0.0155147 0.025 114272
0.0236304 0.0159389 0.025 122622
0.0242738 0.0163729 0.025 131686
0.0249318 0.0168167 0.025 141274
0.025605 0.0172708 0.025 150780
0.0262935 0.0177352 0.025 158943
0.0269977 0.0182102 0.025 164673
0.0277178 0.0186959 0.025 167140
0.0284544 0.0191927 0.025 167399
0.0292075 0.0197008 0.025 165249
0.0299777 0.0202203 0.025 163722
0.0307653 0.0207514 0.025 161032
0.0315704 0.0212945 0.025 158388
0.0323937 0.0218499 0.025 155552
0.0332354 0.0224176 0.025 152304
0.0340959 0.022998 0.025 148708
0.0349755 0.0235913 0.025 144957
0.0358747 0.0241978 0.025 141415
0.0367938 0.0248178 0.025 138170
0.0377331 0.0254513 0.025 135447
0.0386932 0.0260989 0.025 133299
0.0396743 0.0267606 0.025 131620
0.0406769 0.0274369 0.025 130263
0.0417013 0.0281279 0.025 129127
0.042748 0.0288339 0.025 128340
0.0438175 0.0295552 0.025 127803
0.04491 0.0302922 0.025 127331
0.0460262 0.031045 0.025 126770
0.0471662 0.031814 0.025 126213
0.0483306 0.0325995 0.025 126106
0.0495199 0.0334016 0.025 126664
0.0507344 0.0342208 0.025 127036
0.0519746 0.0350573 0.025 127073
0.0532409 0.0359114 0.025 126964
0.0545339 0.0367835 0.025 126960
0.0558538 0.0376739 0.025 127162
0.0572012 0.0385827 0.025 127163
0.0585766 0.0395104 0.025 126884
0.0599804 0.0404573 0.025 126442
0.061413 0.0414236 0.025 126813
0.0628748 0.0424096 0.025 127784
0.0643665 0.0434157 0.025 128593
0.0658883 0.0444422 0.025 128643
0.0674408 0.0454894 0.025 128268
0.0690245 0.0465576 0.025 127949
0.0706398 0.0476471 0.025 127930
0.0722871 0.0487582 0.025 128481
0.0739669 0.0498912 0.025 128762
0.0756797 0.0510466 0.025 128729
0.0774258 0.0522244 0.025 128339
0.0792059 0.053425 0.025 127994
0.0810203 0.0546489 0.025 128326
0.0828694 0.0558961 0.025 129050
0.0847537 0.0571671 0.025 129877
0.0866737 0.0584622 0.025 130056
0.0886298 0.0597816 0.025 130105
0.0906224 0.0611256 0.025 130036
0.0926518 0.0624944 0.025 129986
0.0947185 0.0638884 0.025 130165
0.096823 0.065308 0.025 130226
0.0989659 0.0667532 0.025 129938
0.101147 0.0682245 0.025 129049
0.103367 0.0697219 0.025 128223
0.105626 0.0712458 0.025 127750
0.107926 0.0727965 0.025 127574
0.110265 0.074374 0.025 128197
0.112644 0.0759789 0.025 128787
0.115063 0.0776111 0.025 129908
0.117524 0.0792709 0.025 130153
0.120026 0.0809585 0.025 130191
0.122569 0.0826741 0.025 130231
0.125155 0.0844179 0.025 129988
0.127782 0.0861901 0.025 129618
0.130451 0.0879908 0.025 128897
0.133163 0.08982 0.025 128416
0.135918 0.0916781 0.025 128143
0.138716 0.0935651 0.025 128592
0.141556 0.095481 0.025 129291
0.14444 0.097426 0.025 129780
0.147367 0.0994004 0.025 129231
0.150337 0.101404 0.025 129629
0.153351 0.103437 0.025 128749
0.156408 0.105498 0.025 127195
0.159508 0.107589 0.025 127737
0.162651 0.10971 0.025 126681
0.165838 0.111859 0.025 124316
0.169069 0.114039 0.025 127339
0.172343 0.116247 0.025 125381
0.175659 0.118483 0.025 124885
0.179018 0.120749 0.025 124079
0.182421 0.123045 0.025 123019
0.185866 0.125368 0.025 122586
0.189353 0.12772 0.025 122246
0.192882 0.1301 0.025 122192
0.196453 0.132509 0.025 122434
0.200065 0.134946 0.025 121769
0.203718 0.13741 0.025 121724
0.207412 0.139901 0.025 121919
0.211146 0.14242 0.025 121082
0.214919 0.144965 0.025 120303
0.218732 0.147537 0.025 121127
0.222583 0.150134 0.025 121002
0.226472 0.152757 0.025 122514
0.230399 0.155406 0.025 122219
0.234362 0.15808 0.025 122308
0.238362 0.160777 0.025 121074
0.242396 0.163498 0.025 121081
0.246466 0.166244 0.025 120312
0.250569 0.169012 0.025 121240
0.254706 0.171801 0.025 120365
0.258874 0.174613 0.025 120320
0.263074 0.177446 0.025 119852
0.267304 0.180299 0.025 120589
0.271564 0.183172 0.025 121216
0.275852 0.186064 0.025 120807
0.280168 0.188975 0.025 121441
0.28451 0.191904 0.025 121039
0.288876 0.19485 0.025 120330
0.293268 0.197812 0.025 121005
0.297683 0.20079 0.025 119810
0.302119 0.203782 0.025 119247
0.306577 0.206788 0.025 120231
0.311054 0.209808 0.025 119255
0.315549 0.212841 0.025 119976
0.320063 0.215885 0.025 119338
0.324591 0.218939 0.025 120930
0.329134 0.222003 0.025 121525
0.333691 0.225077 0.025 121010
0.33826 0.228159 0.025 121959
0.342839 0.231248 0.025 121555
0.347428 0.234343 0.025 122477
0.352025 0.237444 0.025 121014
0.356628 0.240548 0.025 121276
0.361237 0.243658 0.025 121262
0.36585 0.246769 0.025 119627
0.370465 0.249882 0.025 121997
0.375082 0.252996 0.025 120878
0.379698 0.25611 0.025 119973
0.384313 0.259223 0.025 121434
0.388926 0.262333 0.025 120572
0.393534 0.265442 0.025 120973
0.398136 0.268546 0.025 121284
0.40273 0.271645 0.025 120557
0.407317 0.274739 0.025 120428
0.411894 0.277826 0.025 119945
0.41646 0.280906 0.025 121484
0.421014 0.283977 0.025 120618
0.425554 0.28704 0.025 120388
0.430079 0.290092 0.025 120901
0.434588 0.293133 0.025 120657
0.439079 0.296162 0.025 121433
0.443551 0.299179 0.025 121054
0.448004 0.302183 0.025 120967
0.452437 0.305172 0.025 121100
0.456846 0.308146 0.025 121425
0.461232 0.311105 0.025 121306
0.465593 0.314047 0.025 121459
0.469929 0.316971 0.025 121043
0.474238 0.319878 0.025 122181
0.47852 0.322766 0.025 121842
0.482773 0.325635 0.025 121941
0.486996 0.328483 0.025 121506
0.491189 0.331311 0.025 120746
0.49535 0.334118 0.025 122069
