# Wall heat-flux
# Time        	patch         	min           	max           	integral      
0             	base	1.131118e+06	1.385088e+06	1.723953e+04
