# Wall heat-flux
# Time        	patch         	min           	max           	integral      
5200          	base	-2.514141e+06	-5.010859e+04	-8.334216e+03
