# wallHeatFlux  FACE_DATA 398
# x  y  z  wallHeatFlux
-0.7975 0 0.025 -653671
-0.79239 0 0.025 -120024
-0.787056 0 0.025 -71371.5
-0.781492 0 0.025 -64826.5
-0.775691 0 0.025 -66197
-0.769649 0 0.025 -66764.6
-0.763362 0 0.025 -67079
-0.756822 0 0.025 -66775.9
-0.750025 0 0.025 -66142.6
-0.742968 0 0.025 -65227.8
-0.735648 0 0.025 -64199.6
-0.72806 0 0.025 -63181
-0.720203 0 0.025 -62184.3
-0.712076 0 0.025 -61252.2
-0.703677 0 0.025 -60409.7
-0.695006 0 0.025 -59624.9
-0.686065 0 0.025 -58860.8
-0.676855 0 0.025 -58176
-0.667379 0 0.025 -57474
-0.65764 0 0.025 -56809.1
-0.647644 0 0.025 -56221.1
-0.637397 0 0.025 -55647.7
-0.626906 0 0.025 -55075.2
-0.616179 0 0.025 -54610.1
-0.605224 0 0.025 -54065
-0.594054 0 0.025 -53576.7
-0.582678 0 0.025 -53106.3
-0.57111 0 0.025 -52698.1
-0.559364 0 0.025 -52235.3
-0.547454 0 0.025 -51823
-0.535396 0 0.025 -51414.5
-0.523205 0 0.025 -51066
-0.510901 0 0.025 -50712.4
-0.4985 0 0.025 -50327.2
-0.486021 0 0.025 -49988.9
-0.473483 0 0.025 -49691.4
-0.460905 0 0.025 -49401.7
-0.448308 0 0.025 -49127.3
-0.435709 0 0.025 -48818.6
-0.42313 0 0.025 -48485.3
-0.41059 0 0.025 -48204.6
-0.39811 0 0.025 -48019.1
-0.385706 0 0.025 -47842.3
-0.373398 0 0.025 -47611.7
-0.361205 0 0.025 -47331.7
-0.349141 0 0.025 -47071
-0.337226 0 0.025 -46837.1
-0.325475 0 0.025 -46651
-0.313901 0 0.025 -46550.6
-0.30252 0 0.025 -46465.4
-0.291343 0 0.025 -46359.9
-0.280382 0 0.025 -46200.7
-0.269646 0 0.025 -45960.2
-0.259148 0 0.025 -45672
-0.248893 0 0.025 -45417.8
-0.23889 0 0.025 -45212.4
-0.229143 0 0.025 -45070.9
-0.219659 0 0.025 -45016.7
-0.210441 0 0.025 -45042.6
-0.201491 0 0.025 -45087.8
-0.192812 0 0.025 -45103.9
-0.184405 0 0.025 -45087.1
-0.176269 0 0.025 -45030.9
-0.168404 0 0.025 -44917.8
-0.160808 0 0.025 -44767.4
-0.15348 0 0.025 -44582.6
-0.146415 0 0.025 -44382.6
-0.13961 0 0.025 -44186.6
-0.133063 0 0.025 -44014
-0.126767 0 0.025 -43863.7
-0.120718 0 0.025 -43746
-0.11491 0 0.025 -43650.5
-0.109339 0 0.025 -43582.3
-0.103997 0 0.025 -43540.1
-0.0988805 0 0.025 -43512.7
-0.0939808 0 0.025 -43509.3
-0.0892928 0 0.025 -43518.1
-0.0848096 0 0.025 -43532.3
-0.0805248 0 0.025 -43552.4
-0.0764316 0 0.025 -43578.1
-0.0725237 0 0.025 -43598.5
-0.0687943 0 0.025 -43614.4
-0.065237 0 0.025 -43624.3
-0.0618454 0 0.025 -43635.2
-0.058613 0 0.025 -43640
-0.0555337 0 0.025 -43645.8
-0.0526013 0 0.025 -43645.6
-0.0498099 0 0.025 -43640.4
-0.0471536 0 0.025 -43629.8
-0.0446266 0 0.025 -43619.3
-0.0422235 0 0.025 -43603.4
-0.039939 0 0.025 -43582.2
-0.0377676 0 0.025 -43560.6
-0.0357044 0 0.025 -43540
-0.0337445 0 0.025 -43518.4
-0.0318832 0 0.025 -43427.4
-0.0301159 0 0.025 -41379.7
-0.0284383 0 0.025 -33627
-0.0268461 0 0.025 -34896.7
-0.0253353 0 0.025 -52657.3
-0.023902 0 0.025 -63476.8
-0.0225426 0 0.025 -70285.8
-0.0212532 0 0.025 -75860
-0.0200306 0 0.025 -80799.8
-0.0188715 0 0.025 -84824.3
-0.0177728 0 0.025 -88517.3
-0.0167313 0 0.025 -91873.4
-0.0157444 0 0.025 -94935.4
-0.0148092 0 0.025 -97884
-0.0139232 0 0.025 -100710
-0.0130838 0 0.025 -103321
-0.0122887 0 0.025 -105614
-0.0115356 0 0.025 -107600
-0.0108223 0 0.025 -109316
-0.0101469 0 0.025 -110792
-0.00950727 0 0.025 -112076
-0.00890168 0 0.025 -113217
-0.00832835 0 0.025 -114279
-0.00778557 0 0.025 -115337
-0.00727176 0 0.025 -116452
-0.0067854 0 0.025 -117649
-0.00632507 0 0.025 -118959
-0.00588937 0 0.025 -120400
-0.00547703 0 0.025 -121971
-0.0050868 0 0.025 -123665
-0.00471753 0 0.025 -125479
-0.0043681 0 0.025 -127424
-0.00403746 0 0.025 -129513
-0.00372461 0 0.025 -131701
-0.0034286 0 0.025 -134015
-0.00314855 0 0.025 -136480
-0.0028836 0 0.025 -139136
-0.00263294 0 0.025 -141880
-0.00239581 0 0.025 -144486
-0.0021715 0 0.025 -147246
-0.00195929 0 0.025 -150114
-0.00175856 0 0.025 -153061
-0.00156869 0 0.025 -156090
-0.00138908 0 0.025 -159228
-0.0012192 0 0.025 -162423
-0.00105853 0 0.025 -165684
-0.000906546 0 0.025 -168982
-0.000762803 0 0.025 -172191
-0.000626848 0 0.025 -175019
-0.000498265 0 0.025 -176612
-0.000376656 0 0.025 -175134
-0.000261642 0 0.025 -167002
-0.00015287 0 0.025 -145215
-5e-05 0 0.025 -93961.4
4.14519e-05 2.79596e-05 0.025 -66588.1
0.000125371 8.45641e-05 0.025 -80108.3
0.000211347 0.000142556 0.025 -95531.8
0.000299429 0.000201968 0.025 -106826
0.000389669 0.000262835 0.025 -116318
0.000482118 0.000325193 0.025 -125333
0.000576831 0.000389077 0.025 -133810
0.000673861 0.000454524 0.025 -141478
0.000773265 0.000521574 0.025 -148251
0.0008751 0.000590262 0.025 -154206
0.000979426 0.000660632 0.025 -159470
0.0010863 0.000732721 0.025 -164163
0.00119579 0.000806572 0.025 -168511
0.00130795 0.000882227 0.025 -172548
0.00142285 0.00095973 0.025 -176322
0.00154056 0.00103912 0.025 -179958
0.00166115 0.00112046 0.025 -183470
0.00178467 0.00120378 0.025 -186931
0.00191121 0.00128913 0.025 -190382
0.00204083 0.00137656 0.025 -193775
0.00217362 0.00146612 0.025 -197232
0.00230964 0.00155787 0.025 -200746
0.00244897 0.00165185 0.025 -204279
0.00259169 0.00174812 0.025 -207897
0.00273789 0.00184673 0.025 -211631
0.00288765 0.00194774 0.025 -215499
0.00304105 0.00205122 0.025 -219461
0.00319818 0.00215719 0.025 -223555
0.00335912 0.00226575 0.025 -227845
0.00352397 0.00237695 0.025 -232274
0.00369283 0.00249085 0.025 -236908
0.00386579 0.00260751 0.025 -241719
0.00404294 0.00272699 0.025 -246768
0.00422438 0.00284938 0.025 -252085
0.00441022 0.00297474 0.025 -257665
0.00460056 0.00310312 0.025 -263526
0.00479552 0.00323462 0.025 -269677
0.00499519 0.0033693 0.025 -276216
0.00519968 0.00350723 0.025 -283049
0.00540911 0.00364849 0.025 -290324
0.00562361 0.00379318 0.025 -298014
0.00584329 0.00394134 0.025 -306133
0.00606826 0.00409309 0.025 -314846
0.00629865 0.00424849 0.025 -323996
0.0065346 0.00440764 0.025 -333746
0.00677623 0.00457063 0.025 -344213
0.00702368 0.00473753 0.025 -355240
0.00727707 0.00490844 0.025 -367125
0.00753655 0.00508347 0.025 -379771
0.00780227 0.00526269 0.025 -393424
0.00807436 0.00544622 0.025 -408004
0.00835298 0.00563415 0.025 -423399
0.00863826 0.00582659 0.025 -440397
0.00893038 0.00602362 0.025 -459328
0.00922949 0.00622537 0.025 -478729
0.00953574 0.00643195 0.025 -499463
0.00984929 0.00664345 0.025 -523356
0.0101703 0.00686 0.025 -550426
0.0104991 0.00708171 0.025 -578364
0.0108356 0.00730871 0.025 -612585
0.0111801 0.0075411 0.025 -649192
0.0115329 0.00777902 0.025 -687158
0.011894 0.00802259 0.025 -731177
0.0122637 0.00827194 0.025 -773039
0.0126421 0.00852719 0.025 -816736
0.0130295 0.0087885 0.025 -858148
0.013426 0.00905597 0.025 -900198
0.013832 0.00932978 0.025 -941725
0.0142475 0.00961003 0.025 -983380
0.0146727 0.0098969 0.025 -1.02467e+06
0.0151081 0.0101905 0.025 -1.06839e+06
0.0155536 0.010491 0.025 -1.11396e+06
0.0160097 0.0107986 0.025 -1.16e+06
0.0164764 0.0111134 0.025 -1.21012e+06
0.016954 0.0114356 0.025 -1.26339e+06
0.0174427 0.0117653 0.025 -1.31673e+06
0.0179429 0.0121026 0.025 -1.37437e+06
0.0184548 0.0124479 0.025 -1.44002e+06
0.0189786 0.0128013 0.025 -1.48527e+06
0.0195146 0.0131628 0.025 -1.53788e+06
0.020063 0.0135327 0.025 -1.59977e+06
0.0206242 0.0139112 0.025 -1.6407e+06
0.0211983 0.0142984 0.025 -1.67163e+06
0.0217857 0.0146947 0.025 -1.70822e+06
0.0223867 0.0151 0.025 -1.7384e+06
0.0230015 0.0155147 0.025 -1.76179e+06
0.0236304 0.0159389 0.025 -1.78975e+06
0.0242738 0.0163729 0.025 -1.78848e+06
0.0249318 0.0168167 0.025 -1.80004e+06
0.025605 0.0172708 0.025 -1.80496e+06
0.0262935 0.0177352 0.025 -1.77814e+06
0.0269977 0.0182102 0.025 -1.75002e+06
0.0277178 0.0186959 0.025 -1.71237e+06
0.0284544 0.0191927 0.025 -1.72773e+06
0.0292075 0.0197008 0.025 -1.67198e+06
0.0299777 0.0202203 0.025 -1.62397e+06
0.0307653 0.0207514 0.025 -1.59011e+06
0.0315704 0.0212945 0.025 -1.56125e+06
0.0323937 0.0218499 0.025 -1.5353e+06
0.0332354 0.0224176 0.025 -1.50787e+06
0.0340959 0.022998 0.025 -1.48374e+06
0.0349755 0.0235913 0.025 -1.45081e+06
0.0358747 0.0241978 0.025 -1.44835e+06
0.0367938 0.0248178 0.025 -1.41389e+06
0.0377331 0.0254513 0.025 -1.3909e+06
0.0386932 0.0260989 0.025 -1.37435e+06
0.0396743 0.0267606 0.025 -1.36092e+06
0.0406769 0.0274369 0.025 -1.34975e+06
0.0417013 0.0281279 0.025 -1.33758e+06
0.042748 0.0288339 0.025 -1.33687e+06
0.0438175 0.0295552 0.025 -1.32423e+06
0.04491 0.0302922 0.025 -1.31241e+06
0.0460262 0.031045 0.025 -1.31371e+06
0.0471662 0.031814 0.025 -1.32061e+06
0.0483306 0.0325995 0.025 -1.30898e+06
0.0495199 0.0334016 0.025 -1.31202e+06
0.0507344 0.0342208 0.025 -1.30835e+06
0.0519746 0.0350573 0.025 -1.30367e+06
0.0532409 0.0359114 0.025 -1.30556e+06
0.0545339 0.0367835 0.025 -1.29313e+06
0.0558538 0.0376739 0.025 -1.29223e+06
0.0572012 0.0385827 0.025 -1.29191e+06
0.0585766 0.0395104 0.025 -1.29084e+06
0.0599804 0.0404573 0.025 -1.29864e+06
0.061413 0.0414236 0.025 -1.28031e+06
0.0628748 0.0424096 0.025 -1.3049e+06
0.0643665 0.0434157 0.025 -1.30776e+06
0.0658883 0.0444422 0.025 -1.2825e+06
0.0674408 0.0454894 0.025 -1.27354e+06
0.0690245 0.0465576 0.025 -1.27474e+06
0.0706398 0.0476471 0.025 -1.27067e+06
0.0722871 0.0487582 0.025 -1.26965e+06
0.0739669 0.0498912 0.025 -1.26869e+06
0.0756797 0.0510466 0.025 -1.28136e+06
0.0774258 0.0522244 0.025 -1.29175e+06
0.0792059 0.053425 0.025 -1.28081e+06
0.0810203 0.0546489 0.025 -1.30353e+06
0.0828694 0.0558961 0.025 -1.27521e+06
0.0847537 0.0571671 0.025 -1.31661e+06
0.0866737 0.0584622 0.025 -1.27941e+06
0.0886298 0.0597816 0.025 -1.28156e+06
0.0906224 0.0611256 0.025 -1.29034e+06
0.0926518 0.0624944 0.025 -1.25596e+06
0.0947185 0.0638884 0.025 -1.29873e+06
0.096823 0.065308 0.025 -1.25425e+06
0.0989659 0.0667532 0.025 -1.34158e+06
0.101147 0.0682245 0.025 -1.69675e+06
0.103367 0.0697219 0.025 -1.60452e+06
0.105626 0.0712458 0.025 -1.20927e+06
0.107926 0.0727965 0.025 -1.20509e+06
0.110265 0.074374 0.025 -1.24175e+06
0.112644 0.0759789 0.025 -1.84967e+06
0.115063 0.0776111 0.025 -1.24341e+06
0.117524 0.0792709 0.025 -1.71866e+06
0.120026 0.0809585 0.025 -1.89064e+06
0.122569 0.0826741 0.025 -1.678e+06
0.125155 0.0844179 0.025 -1.49829e+06
0.127782 0.0861901 0.025 -1.29916e+06
0.130451 0.0879908 0.025 -1.25367e+06
0.133163 0.08982 0.025 -1.23047e+06
0.135918 0.0916781 0.025 -1.20252e+06
0.138716 0.0935651 0.025 -1.20399e+06
0.141556 0.095481 0.025 -1.21063e+06
0.14444 0.097426 0.025 -1.59774e+06
0.147367 0.0994004 0.025 -2.36805e+06
0.150337 0.101404 0.025 -1.6783e+06
0.153351 0.103437 0.025 -1.62905e+06
0.156408 0.105498 0.025 -2.27945e+06
0.159508 0.107589 0.025 -1.0316e+06
0.162651 0.10971 0.025 -1.52777e+06
0.165838 0.111859 0.025 -3.72882e+06
0.169069 0.114039 0.025 -1.61053e+06
0.172343 0.116247 0.025 -1.99947e+06
0.175659 0.118483 0.025 -1.89691e+06
0.179018 0.120749 0.025 -1.89362e+06
0.182421 0.123045 0.025 -1.96685e+06
0.185866 0.125368 0.025 -1.72252e+06
0.189353 0.12772 0.025 -1.75672e+06
0.192882 0.1301 0.025 -1.86579e+06
0.196453 0.132509 0.025 -1.75939e+06
0.200065 0.134946 0.025 -2.19651e+06
0.203718 0.13741 0.025 -1.95521e+06
0.207412 0.139901 0.025 -931258
0.211146 0.14242 0.025 -993093
0.214919 0.144965 0.025 -1.63171e+06
0.218732 0.147537 0.025 -995518
0.222583 0.150134 0.025 -1.96429e+06
0.226472 0.152757 0.025 -984064
0.230399 0.155406 0.025 -1.85092e+06
0.234362 0.15808 0.025 -1.7415e+06
0.238362 0.160777 0.025 -2.37233e+06
0.242396 0.163498 0.025 -1.9615e+06
0.246466 0.166244 0.025 -2.1272e+06
0.250569 0.169012 0.025 -936785
0.254706 0.171801 0.025 -1.54523e+06
0.258874 0.174613 0.025 -1.55023e+06
0.263074 0.177446 0.025 -1.98251e+06
0.267304 0.180299 0.025 -1.59862e+06
0.271564 0.183172 0.025 -955363
0.275852 0.186064 0.025 -1.64217e+06
0.280168 0.188975 0.025 -929548
0.28451 0.191904 0.025 -1.66751e+06
0.288876 0.19485 0.025 -2.3011e+06
0.293268 0.197812 0.025 -1.6254e+06
0.297683 0.20079 0.025 -1.93709e+06
0.302119 0.203782 0.025 -2.28455e+06
0.306577 0.206788 0.025 -1.41677e+06
0.311054 0.209808 0.025 -1.59797e+06
0.315549 0.212841 0.025 -1.17435e+06
0.320063 0.215885 0.025 -2.04355e+06
0.324591 0.218939 0.025 -1.43726e+06
0.329134 0.222003 0.025 -1.42455e+06
0.333691 0.225077 0.025 -2.24158e+06
0.33826 0.228159 0.025 -1.7996e+06
0.342839 0.231248 0.025 -1.84748e+06
0.347428 0.234343 0.025 -881230
0.352025 0.237444 0.025 -1.95875e+06
0.356628 0.240548 0.025 -1.42786e+06
0.361237 0.243658 0.025 -1.16264e+06
0.36585 0.246769 0.025 -2.62048e+06
0.370465 0.249882 0.025 -1.02919e+06
0.375082 0.252996 0.025 -1.45223e+06
0.379698 0.25611 0.025 -2.33866e+06
0.384313 0.259223 0.025 -1.37348e+06
0.388926 0.262333 0.025 -1.72667e+06
0.393534 0.265442 0.025 -1.42133e+06
0.398136 0.268546 0.025 -885961
0.40273 0.271645 0.025 -1.64759e+06
0.407317 0.274739 0.025 -1.70289e+06
0.411894 0.277826 0.025 -2.1435e+06
0.41646 0.280906 0.025 -840545
0.421014 0.283977 0.025 -1.61104e+06
0.425554 0.28704 0.025 -1.89337e+06
0.430079 0.290092 0.025 -1.49507e+06
0.434588 0.293133 0.025 -1.84741e+06
0.439079 0.296162 0.025 -1.28859e+06
0.443551 0.299179 0.025 -1.68288e+06
0.448004 0.302183 0.025 -1.71228e+06
0.452437 0.305172 0.025 -1.66956e+06
0.456846 0.308146 0.025 -1.55004e+06
0.461232 0.311105 0.025 -1.5766e+06
0.465593 0.314047 0.025 -1.45925e+06
0.469929 0.316971 0.025 -1.95137e+06
0.474238 0.319878 0.025 -998983
0.47852 0.322766 0.025 -1.12081e+06
0.482773 0.325635 0.025 -888790
0.486996 0.328483 0.025 -1.33974e+06
0.491189 0.331311 0.025 -2.04187e+06
0.49535 0.334118 0.025 -1.29894e+06
