# Wall heat-flux
# Time        	patch         	min           	max           	integral      
10700         	base	-3.656263e+06	-3.484938e+04	-9.610991e+03
