# p  FACE_DATA 298
# x  y  z  p
-0.789454 0 0.005 3515.83
-0.76864 0 0.005 3030.32
-0.748373 0 0.005 2768.19
-0.72864 0 0.005 2743.27
-0.709426 0 0.005 2728.97
-0.690719 0 0.005 2732.84
-0.672503 0 0.005 2742.6
-0.654767 0 0.005 2745.92
-0.637498 0 0.005 2754.79
-0.620683 0 0.005 2754.91
-0.604311 0 0.005 2755.06
-0.588369 0 0.005 2754.81
-0.572847 0 0.005 2757.79
-0.557734 0 0.005 2757.65
-0.543018 0 0.005 2755.47
-0.52869 0 0.005 2753.14
-0.514738 0 0.005 2752.49
-0.501153 0 0.005 2753.18
-0.487926 0 0.005 2753.56
-0.475046 0 0.005 2752.59
-0.462505 0 0.005 2750.97
-0.450294 0 0.005 2750.09
-0.438403 0 0.005 2749.64
-0.426826 0 0.005 2749.67
-0.415552 0 0.005 2749.33
-0.404575 0 0.005 2748.8
-0.393887 0 0.005 2747.48
-0.383478 0 0.005 2746.3
-0.373344 0 0.005 2745.51
-0.363476 0 0.005 2745.99
-0.353866 0 0.005 2746.74
-0.34451 0 0.005 2747.37
-0.335398 0 0.005 2747.33
-0.326526 0 0.005 2746.63
-0.317887 0 0.005 2744.92
-0.309474 0 0.005 2742.93
-0.301281 0 0.005 2740.7
-0.293304 0 0.005 2738.99
-0.285535 0 0.005 2737.78
-0.277971 0 0.005 2737.41
-0.270605 0 0.005 2737.81
-0.263431 0 0.005 2739.23
-0.256444 0 0.005 2740.9
-0.249642 0 0.005 2742.83
-0.243016 0 0.005 2744.49
-0.236565 0 0.005 2745.9
-0.230282 0 0.005 2746.48
-0.224163 0 0.005 2746.67
-0.218204 0 0.005 2745.64
-0.2124 0 0.005 2744.04
-0.206748 0 0.005 2741.72
-0.201243 0 0.005 2738.96
-0.195882 0 0.005 2735.87
-0.190661 0 0.005 2733.03
-0.185575 0 0.005 2730.3
-0.180621 0 0.005 2728.08
-0.175796 0 0.005 2726.37
-0.171097 0 0.005 2725.28
-0.16652 0 0.005 2724.71
-0.162061 0 0.005 2724.53
-0.157718 0 0.005 2724.95
-0.153487 0 0.005 2725.83
-0.149367 0 0.005 2727.04
-0.145351 0 0.005 2728.66
-0.14144 0 0.005 2730.46
-0.13763 0 0.005 2732.37
-0.133918 0 0.005 2734.18
-0.130302 0 0.005 2735.95
-0.126778 0 0.005 2737.6
-0.123345 0 0.005 2739.22
-0.119999 0 0.005 2740.68
-0.116739 0 0.005 2742.05
-0.113562 0 0.005 2743.26
-0.110466 0 0.005 2744.28
-0.107449 0 0.005 2745.05
-0.104509 0 0.005 2745.57
-0.101644 0 0.005 2745.87
-0.0988499 0 0.005 2746.01
-0.0961267 0 0.005 2745.95
-0.0934723 0 0.005 2745.78
-0.0908845 0 0.005 2745.48
-0.0883616 0 0.005 2745.1
-0.0859017 0 0.005 2744.59
-0.0835029 0 0.005 2743.96
-0.0811636 0 0.005 2743.21
-0.0788823 0 0.005 2742.37
-0.0766572 0 0.005 2741.4
-0.0744867 0 0.005 2740.36
-0.0723694 0 0.005 2739.25
-0.0703036 0 0.005 2738.13
-0.068288 0 0.005 2736.98
-0.0663211 0 0.005 2735.85
-0.0644014 0 0.005 2734.75
-0.0625277 0 0.005 2733.69
-0.0606985 0 0.005 2732.67
-0.0589126 0 0.005 2731.7
-0.0571687 0 0.005 2730.77
-0.0554656 0 0.005 2729.9
-0.0538019 0 0.005 2729.05
-0.0521766 0 0.005 2728.26
-0.0505886 0 0.005 2727.49
-0.0490366 0 0.005 2726.77
-0.0475196 0 0.005 2726.06
-0.0460364 0 0.005 2725.4
-0.0445861 0 0.005 2724.76
-0.0431675 0 0.005 2724.16
-0.0417798 0 0.005 2723.57
-0.0404219 0 0.005 2722.97
-0.0390927 0 0.005 2722.54
-0.0377914 0 0.005 2722.26
-0.0365171 0 0.005 2753.02
-0.0352688 0 0.005 3097.32
-0.0340456 0 0.005 4108.13
-0.0328467 0 0.005 5133.38
-0.0316712 0 0.005 5921.91
-0.0305183 0 0.005 6476.15
-0.0293871 0 0.005 6920.22
-0.028277 0 0.005 7281.92
-0.0271869 0 0.005 7594.71
-0.0261162 0 0.005 7873.29
-0.0250641 0 0.005 8123.77
-0.02403 0 0.005 8352.19
-0.023013 0 0.005 8562.83
-0.0220124 0 0.005 8755.38
-0.0210274 0 0.005 8936.55
-0.0200575 0 0.005 9106.95
-0.0191018 0 0.005 9268.45
-0.0181598 0 0.005 9421.92
-0.0172307 0 0.005 9569.04
-0.0163139 0 0.005 9711.25
-0.0154087 0 0.005 9848.12
-0.0145146 0 0.005 9980.18
-0.0136307 0 0.005 10107.5
-0.0127566 0 0.005 10230.7
-0.0118916 0 0.005 10349.5
-0.011035 0 0.005 10463.6
-0.0101864 0 0.005 10571.5
-0.00934497 0 0.005 10672.8
-0.00851021 0 0.005 10765.8
-0.00768153 0 0.005 10850.8
-0.00685832 0 0.005 10925.9
-0.00604 0 0.005 10997.2
-0.00522598 0 0.005 11062.4
-0.0044157 0 0.005 11128.1
-0.00360857 0 0.005 11209.5
-0.002804 0 0.005 11328.7
-0.00200143 0 0.005 11596.5
-0.00120028 0 0.005 12031.4
-0.0004 0 0.005 13111.6
0.00034641 0.0002 0.005 11563.1
0.00103936 0.000600074 0.005 11993.3
0.00173269 0.00100037 0.005 11982.7
0.00242667 0.00140104 0.005 12108.8
0.00312154 0.00180222 0.005 12429.1
0.00381758 0.00220408 0.005 12819.2
0.00451503 0.00260675 0.005 13287.8
0.00521415 0.00301039 0.005 13825.4
0.0059152 0.00341514 0.005 14427.6
0.00661845 0.00382117 0.005 15097.9
0.00732415 0.0042286 0.005 15839.7
0.00803257 0.00463761 0.005 16661.9
0.00874396 0.00504833 0.005 17569.9
0.0094586 0.00546093 0.005 18576.4
0.0101767 0.00587555 0.005 19687
0.0108987 0.00629234 0.005 20913.8
0.0116246 0.00671146 0.005 22265.6
0.0123549 0.00713309 0.005 23758.8
0.0130897 0.00755735 0.005 25403.9
0.0138294 0.00798441 0.005 27220.8
0.0145742 0.00841443 0.005 29224.9
0.0153244 0.00884757 0.005 31436.1
0.0160804 0.009284 0.005 33876.3
0.0168422 0.00972386 0.005 36570.4
0.0176104 0.0101673 0.005 39533.3
0.018385 0.0106146 0.005 42786.3
0.0191664 0.0110657 0.005 46346.1
0.019955 0.011521 0.005 50236
0.0207509 0.0119805 0.005 54495.4
0.0215546 0.0124445 0.005 59191.4
0.0223662 0.0129131 0.005 64394.9
0.0231861 0.0133865 0.005 70192.8
0.0240146 0.0138648 0.005 76562.7
0.0248521 0.0143483 0.005 83476.7
0.0256987 0.0148371 0.005 90945.8
0.0265549 0.0153315 0.005 98942.1
0.0274209 0.0158315 0.005 107400
0.0282971 0.0163373 0.005 116115
0.0291837 0.0168492 0.005 124943
0.0300812 0.0173674 0.005 133516
0.0309898 0.017892 0.005 140902
0.03191 0.0184232 0.005 146025
0.0328419 0.0189613 0.005 148135
0.033786 0.0195063 0.005 148208
0.0347427 0.0200587 0.005 146141
0.0357122 0.0206184 0.005 140138
0.036695 0.0211858 0.005 134577
0.0376913 0.0217611 0.005 129340
0.0387017 0.0223444 0.005 124300
0.0397264 0.022936 0.005 119598
0.0407658 0.0235361 0.005 115310
0.0418202 0.0241449 0.005 111653
0.0428902 0.0247627 0.005 108586
0.0439762 0.0253897 0.005 106136
0.0450784 0.0260261 0.005 104078
0.0461974 0.0266721 0.005 102268
0.0473334 0.0273279 0.005 100760
0.0484871 0.027994 0.005 99705.5
0.0496586 0.0286704 0.005 99086
0.0508486 0.0293575 0.005 98939
0.0520574 0.0300554 0.005 98915.3
0.0532855 0.0307644 0.005 98945.2
0.0545335 0.0314849 0.005 98759.1
0.0558016 0.0322171 0.005 98619.6
0.0570903 0.0329612 0.005 98582.5
0.0584003 0.0337174 0.005 98888.1
0.0597319 0.0344863 0.005 99483.8
0.0610857 0.0352678 0.005 99961.3
0.062462 0.0360624 0.005 100181
0.0638616 0.0368705 0.005 100309
0.0652848 0.0376922 0.005 100521
0.0667321 0.0385279 0.005 100753
0.0682043 0.0393778 0.005 100841
0.0697018 0.0402423 0.005 100781
0.071225 0.0411218 0.005 100704
0.0727747 0.0420165 0.005 100865
0.0743514 0.0429267 0.005 101352
0.0759556 0.043853 0.005 102033
0.0775879 0.0447954 0.005 102430
0.0792491 0.0457545 0.005 102469
0.0809395 0.0467305 0.005 102192
0.08266 0.0477239 0.005 101746
0.0844112 0.0487348 0.005 101253
0.0861936 0.0497639 0.005 100906
0.0880081 0.0508114 0.005 100714
0.089855 0.0518778 0.005 100481
0.0917354 0.0529634 0.005 100703
0.0936497 0.0540687 0.005 101123
0.0955988 0.055194 0.005 101798
0.0975833 0.0563398 0.005 102370
0.0996037 0.0575064 0.005 102524
0.101662 0.0586943 0.005 102326
0.103757 0.0599039 0.005 102078
0.10589 0.0611359 0.005 101847
0.108064 0.0623905 0.005 101645
0.110277 0.0636682 0.005 102044
0.112531 0.0649695 0.005 102447
0.114826 0.0662949 0.005 102715
0.117164 0.0676448 0.005 102729
0.119546 0.0690198 0.005 102668
0.121972 0.0704204 0.005 102618
0.124443 0.0718472 0.005 102415
0.126961 0.0733005 0.005 102351
0.129525 0.0747811 0.005 102199
0.132137 0.0762893 0.005 102115
0.134798 0.0778258 0.005 101731
0.13751 0.0793912 0.005 101562
0.140272 0.080986 0.005 101536
0.143086 0.0826109 0.005 101624
0.145954 0.0842664 0.005 101899
0.148875 0.085953 0.005 102410
0.151852 0.0876716 0.005 102834
0.154884 0.0894226 0.005 103019
0.157975 0.0912068 0.005 103011
0.161123 0.0930248 0.005 102802
0.164332 0.0948773 0.005 102638
0.167602 0.096765 0.005 102438
0.170933 0.0986885 0.005 102267
0.174328 0.100649 0.005 102142
0.177788 0.102646 0.005 102073
0.181313 0.104681 0.005 102100
0.184907 0.106756 0.005 102016
0.188568 0.10887 0.005 102171
0.192299 0.111024 0.005 101900
0.196102 0.113219 0.005 101709
0.199977 0.115456 0.005 101506
0.203926 0.117737 0.005 101231
0.20795 0.120061 0.005 100977
0.212053 0.122428 0.005 100493
0.216234 0.124843 0.005 100001
0.220494 0.127302 0.005 99630.5
0.224837 0.129809 0.005 99263.9
0.229262 0.132365 0.005 98931.1
0.233773 0.134969 0.005 98589.6
0.23837 0.137624 0.005 98435.2
0.243057 0.140328 0.005 97933.2
0.247833 0.143086 0.005 97515.9
0.2527 0.145896 0.005 97074.3
0.257662 0.148761 0.005 96910.1
0.262718 0.151681 0.005 97180.2
0.267873 0.154657 0.005 97711
0.273127 0.15769 0.005 98038.4
0.278482 0.160781 0.005 98051
0.28394 0.163933 0.005 97736
0.289504 0.167145 0.005 96974.3
0.295175 0.170419 0.005 96510.1
0.300955 0.173756 0.005 96411.4
0.306846 0.177158 0.005 96401.8
0.312851 0.180625 0.005 97706.7
