# wallHeatFlux  FACE_DATA 298
# x  y  z  wallHeatFlux
-0.789454 0 0.005 -321986
-0.76864 0 0.005 -54535.3
-0.748373 0 0.005 -57414.5
-0.72864 0 0.005 -62872.4
-0.709426 0 0.005 -66350.8
-0.690719 0 0.005 -68624.8
-0.672503 0 0.005 -70028.3
-0.654767 0 0.005 -70754.1
-0.637498 0 0.005 -71256.1
-0.620683 0 0.005 -71341.2
-0.604311 0 0.005 -71235.9
-0.588369 0 0.005 -71083.2
-0.572847 0 0.005 -70999.5
-0.557734 0 0.005 -70802.1
-0.543018 0 0.005 -70507.7
-0.52869 0 0.005 -70185.3
-0.514738 0 0.005 -69910.7
-0.501153 0 0.005 -69684.7
-0.487926 0 0.005 -69464.9
-0.475046 0 0.005 -69219.8
-0.462505 0 0.005 -68955.1
-0.450294 0 0.005 -68717.6
-0.438403 0 0.005 -68498.4
-0.426826 0 0.005 -68306.3
-0.415552 0 0.005 -68116.3
-0.404575 0 0.005 -67909.2
-0.393887 0 0.005 -67695.8
-0.383478 0 0.005 -67491.5
-0.373344 0 0.005 -67323.2
-0.363476 0 0.005 -67193.3
-0.353866 0 0.005 -67091
-0.34451 0 0.005 -66982.2
-0.335398 0 0.005 -66856.3
-0.326526 0 0.005 -66693.1
-0.317887 0 0.005 -66503.4
-0.309474 0 0.005 -66307.8
-0.301281 0 0.005 -66110.4
-0.293304 0 0.005 -65929.2
-0.285535 0 0.005 -65777.7
-0.277971 0 0.005 -65663.1
-0.270605 0 0.005 -65584.6
-0.263431 0 0.005 -65534.4
-0.256444 0 0.005 -65502.3
-0.249642 0 0.005 -65475.3
-0.243016 0 0.005 -65448.2
-0.236565 0 0.005 -65404.7
-0.230282 0 0.005 -65344.6
-0.224163 0 0.005 -65268.5
-0.218204 0 0.005 -65165.4
-0.2124 0 0.005 -65047.1
-0.206748 0 0.005 -64913.4
-0.201243 0 0.005 -64770.6
-0.195882 0 0.005 -64622.4
-0.190661 0 0.005 -64476.4
-0.185575 0 0.005 -64341.5
-0.180621 0 0.005 -64219.5
-0.175796 0 0.005 -64113.6
-0.171097 0 0.005 -64024.1
-0.16652 0 0.005 -63951.2
-0.162061 0 0.005 -63894.3
-0.157718 0 0.005 -63848.2
-0.153487 0 0.005 -63819
-0.149367 0 0.005 -63798.7
-0.145351 0 0.005 -63797.2
-0.14144 0 0.005 -63803.6
-0.13763 0 0.005 -63810.3
-0.133918 0 0.005 -63820.6
-0.130302 0 0.005 -63835.4
-0.126778 0 0.005 -63827.2
-0.123345 0 0.005 -63827.4
-0.119999 0 0.005 -63828.3
-0.116739 0 0.005 -63829.4
-0.113562 0 0.005 -63823.3
-0.110466 0 0.005 -63815.9
-0.107449 0 0.005 -63801.6
-0.104509 0 0.005 -63783.7
-0.101644 0 0.005 -63762.5
-0.0988499 0 0.005 -63735.1
-0.0961267 0 0.005 -63704
-0.0934723 0 0.005 -63674
-0.0908845 0 0.005 -63645.3
-0.0883616 0 0.005 -63611.1
-0.0859017 0 0.005 -63577.2
-0.0835029 0 0.005 -63543.3
-0.0811636 0 0.005 -63504.7
-0.0788823 0 0.005 -63459.8
-0.0766572 0 0.005 -63417
-0.0744867 0 0.005 -63372.4
-0.0723694 0 0.005 -63319.3
-0.0703036 0 0.005 -63269.7
-0.068288 0 0.005 -63221.8
-0.0663211 0 0.005 -63173.5
-0.0644014 0 0.005 -63125.4
-0.0625277 0 0.005 -63077.5
-0.0606985 0 0.005 -63029.9
-0.0589126 0 0.005 -62987.8
-0.0571687 0 0.005 -62945.7
-0.0554656 0 0.005 -62904
-0.0538019 0 0.005 -62863.1
-0.0521766 0 0.005 -62825.8
-0.0505886 0 0.005 -62786
-0.0490366 0 0.005 -62754.5
-0.0475196 0 0.005 -62719.8
-0.0460364 0 0.005 -62690
-0.0445861 0 0.005 -62655.8
-0.0431675 0 0.005 -62625.8
-0.0417798 0 0.005 -62601.5
-0.0404219 0 0.005 -62573.7
-0.0390927 0 0.005 -62550.6
-0.0377914 0 0.005 -62463.8
-0.0365171 0 0.005 -61027
-0.0352688 0 0.005 -52832.7
-0.0340456 0 0.005 -39560.7
-0.0328467 0 0.005 -42659.8
-0.0316712 0 0.005 -54946.7
-0.0305183 0 0.005 -62546.8
-0.0293871 0 0.005 -68409.9
-0.028277 0 0.005 -72911.2
-0.0271869 0 0.005 -76754.1
-0.0261162 0 0.005 -80134
-0.0250641 0 0.005 -83116.8
-0.02403 0 0.005 -85834.5
-0.023013 0 0.005 -88322.1
-0.0220124 0 0.005 -90607.4
-0.0210274 0 0.005 -92875
-0.0200575 0 0.005 -95056.9
-0.0191018 0 0.005 -97126.2
-0.0181598 0 0.005 -99087.5
-0.0172307 0 0.005 -100943
-0.0163139 0 0.005 -102678
-0.0154087 0 0.005 -104214
-0.0145146 0 0.005 -105567
-0.0136307 0 0.005 -106830
-0.0127566 0 0.005 -107963
-0.0118916 0 0.005 -108935
-0.011035 0 0.005 -109820
-0.0101864 0 0.005 -110652
-0.00934497 0 0.005 -111642
-0.00851021 0 0.005 -112734
-0.00768153 0 0.005 -114327
-0.00685832 0 0.005 -116393
-0.00604 0 0.005 -119459
-0.00522598 0 0.005 -123176
-0.0044157 0 0.005 -128158
-0.00360857 0 0.005 -134501
-0.002804 0 0.005 -141967
-0.00200143 0 0.005 -150604
-0.00120028 0 0.005 -154280
-0.0004 0 0.005 -158293
0.00034641 0.0002 0.005 -119380
0.00103936 0.000600074 0.005 -139301
0.00173269 0.00100037 0.005 -164861
0.00242667 0.00140104 0.005 -182117
0.00312154 0.00180222 0.005 -196078
0.00381758 0.00220408 0.005 -208186
0.00451503 0.00260675 0.005 -221062
0.00521415 0.00301039 0.005 -234759
0.0059152 0.00341514 0.005 -249736
0.00661845 0.00382117 0.005 -265999
0.00732415 0.0042286 0.005 -283931
0.00803257 0.00463761 0.005 -303738
0.00874396 0.00504833 0.005 -325673
0.0094586 0.00546093 0.005 -349911
0.0101767 0.00587555 0.005 -376747
0.0108987 0.00629234 0.005 -406109
0.0116246 0.00671146 0.005 -439007
0.0123549 0.00713309 0.005 -475227
0.0130897 0.00755735 0.005 -515470
0.0138294 0.00798441 0.005 -560371
0.0145742 0.00841443 0.005 -610250
0.0153244 0.00884757 0.005 -666070
0.0160804 0.009284 0.005 -728207
0.0168422 0.00972386 0.005 -797705
0.0176104 0.0101673 0.005 -874509
0.018385 0.0106146 0.005 -959094
0.0191664 0.0110657 0.005 -1.04871e+06
0.019955 0.011521 0.005 -1.14443e+06
0.0207509 0.0119805 0.005 -1.24402e+06
0.0215546 0.0124445 0.005 -1.34566e+06
0.0223662 0.0129131 0.005 -1.44995e+06
0.0231861 0.0133865 0.005 -1.55299e+06
0.0240146 0.0138648 0.005 -1.65408e+06
0.0248521 0.0143483 0.005 -1.74982e+06
0.0256987 0.0148371 0.005 -1.83533e+06
0.0265549 0.0153315 0.005 -1.91458e+06
0.0274209 0.0158315 0.005 -1.98876e+06
0.0282971 0.0163373 0.005 -2.07109e+06
0.0291837 0.0168492 0.005 -2.11893e+06
0.0300812 0.0173674 0.005 -2.16055e+06
0.0309898 0.017892 0.005 -2.19164e+06
0.03191 0.0184232 0.005 -2.20995e+06
0.0328419 0.0189613 0.005 -2.18755e+06
0.033786 0.0195063 0.005 -2.15348e+06
0.0347427 0.0200587 0.005 -2.10639e+06
0.0357122 0.0206184 0.005 -2.03933e+06
0.036695 0.0211858 0.005 -1.96865e+06
0.0376913 0.0217611 0.005 -1.90445e+06
0.0387017 0.0223444 0.005 -1.8303e+06
0.0397264 0.022936 0.005 -1.76209e+06
0.0407658 0.0235361 0.005 -1.70216e+06
0.0418202 0.0241449 0.005 -1.65024e+06
0.0428902 0.0247627 0.005 -1.59958e+06
0.0439762 0.0253897 0.005 -1.55446e+06
0.0450784 0.0260261 0.005 -1.51765e+06
0.0461974 0.0266721 0.005 -1.48289e+06
0.0473334 0.0273279 0.005 -1.45312e+06
0.0484871 0.027994 0.005 -1.42618e+06
0.0496586 0.0286704 0.005 -1.42351e+06
0.0508486 0.0293575 0.005 -1.39871e+06
0.0520574 0.0300554 0.005 -1.37056e+06
0.0532855 0.0307644 0.005 -1.36558e+06
0.0545335 0.0314849 0.005 -1.34748e+06
0.0558016 0.0322171 0.005 -1.33967e+06
0.0570903 0.0329612 0.005 -1.32021e+06
0.0584003 0.0337174 0.005 -1.32014e+06
0.0597319 0.0344863 0.005 -1.30685e+06
0.0610857 0.0352678 0.005 -1.31046e+06
0.062462 0.0360624 0.005 -1.30629e+06
0.0638616 0.0368705 0.005 -1.28827e+06
0.0652848 0.0376922 0.005 -1.28832e+06
0.0667321 0.0385279 0.005 -1.27498e+06
0.0682043 0.0393778 0.005 -1.27964e+06
0.0697018 0.0402423 0.005 -1.25705e+06
0.071225 0.0411218 0.005 -1.25277e+06
0.0727747 0.0420165 0.005 -1.23864e+06
0.0743514 0.0429267 0.005 -1.24022e+06
0.0759556 0.043853 0.005 -1.23428e+06
0.0775879 0.0447954 0.005 -1.23508e+06
0.0792491 0.0457545 0.005 -1.231e+06
0.0809395 0.0467305 0.005 -1.23184e+06
0.08266 0.0477239 0.005 -1.21663e+06
0.0844112 0.0487348 0.005 -1.20111e+06
0.0861936 0.0497639 0.005 -1.19805e+06
0.0880081 0.0508114 0.005 -1.19214e+06
0.089855 0.0518778 0.005 -1.18011e+06
0.0917354 0.0529634 0.005 -1.16912e+06
0.0936497 0.0540687 0.005 -1.17032e+06
0.0955988 0.055194 0.005 -1.16185e+06
0.0975833 0.0563398 0.005 -1.16588e+06
0.0996037 0.0575064 0.005 -1.3349e+06
0.101662 0.0586943 0.005 -1.25644e+06
0.103757 0.0599039 0.005 -1.26525e+06
0.10589 0.0611359 0.005 -1.13668e+06
0.108064 0.0623905 0.005 -1.11618e+06
0.110277 0.0636682 0.005 -1.14299e+06
0.112531 0.0649695 0.005 -1.19447e+06
0.114826 0.0662949 0.005 -1.28843e+06
0.117164 0.0676448 0.005 -1.36749e+06
0.119546 0.0690198 0.005 -1.22868e+06
0.121972 0.0704204 0.005 -1.21147e+06
0.124443 0.0718472 0.005 -1.09018e+06
0.126961 0.0733005 0.005 -1.20908e+06
0.129525 0.0747811 0.005 -1.08128e+06
0.132137 0.0762893 0.005 -1.19557e+06
0.134798 0.0778258 0.005 -1.36221e+06
0.13751 0.0793912 0.005 -1.30972e+06
0.140272 0.080986 0.005 -1.05936e+06
0.143086 0.0826109 0.005 -1.31323e+06
0.145954 0.0842664 0.005 -1.27184e+06
0.148875 0.085953 0.005 -1.25854e+06
0.151852 0.0876716 0.005 -1.24295e+06
0.154884 0.0894226 0.005 -1.14083e+06
0.157975 0.0912068 0.005 -1.31162e+06
0.161123 0.0930248 0.005 -1.27919e+06
0.164332 0.0948773 0.005 -1.16311e+06
0.167602 0.096765 0.005 -1.15823e+06
0.170933 0.0986885 0.005 -1.03449e+06
0.174328 0.100649 0.005 -996869
0.177788 0.102646 0.005 -991109
0.181313 0.104681 0.005 -986057
0.184907 0.106756 0.005 -1.33578e+06
0.188568 0.10887 0.005 -995014
0.192299 0.111024 0.005 -1.25482e+06
0.196102 0.113219 0.005 -1.12887e+06
0.199977 0.115456 0.005 -1.21402e+06
0.203926 0.117737 0.005 -1.20868e+06
0.20795 0.120061 0.005 -997388
0.212053 0.122428 0.005 -1.20717e+06
0.216234 0.124843 0.005 -1.24615e+06
0.220494 0.127302 0.005 -1.20907e+06
0.224837 0.129809 0.005 -902752
0.229262 0.132365 0.005 -1.26577e+06
0.233773 0.134969 0.005 -1.21589e+06
0.23837 0.137624 0.005 -953996
0.243057 0.140328 0.005 -1.10428e+06
0.247833 0.143086 0.005 -1.07451e+06
0.2527 0.145896 0.005 -1.14619e+06
0.257662 0.148761 0.005 -1.04869e+06
0.262718 0.151681 0.005 -1.15417e+06
0.267873 0.154657 0.005 -1.20294e+06
0.273127 0.15769 0.005 -1.12861e+06
0.278482 0.160781 0.005 -861796
0.28394 0.163933 0.005 -1.15921e+06
0.289504 0.167145 0.005 -1.09026e+06
0.295175 0.170419 0.005 -1.17576e+06
0.300955 0.173756 0.005 -1.09821e+06
0.306846 0.177158 0.005 -860310
0.312851 0.180625 0.005 -1.21588e+06
