# Wall heat-flux
# Time        	patch         	min           	max           	integral      
0             	base	1.223473e+07	1.412972e+07	1.307790e+04
