# Wall heat-flux
# Time        	patch         	min           	max           	integral      
4800          	base	-2.792300e+06	-2.409790e+04	-2.955754e+02
