# p  FACE_DATA 398
# x  y  z  p
-0.7975 0 0.025 4472.1
-0.79239 0 0.025 3660.48
-0.787056 0 0.025 2960.86
-0.781492 0 0.025 2851.27
-0.775691 0 0.025 2785.42
-0.769649 0 0.025 2780.18
-0.763362 0 0.025 2804.88
-0.756822 0 0.025 2827.83
-0.750025 0 0.025 2844.68
-0.742968 0 0.025 2853.54
-0.735648 0 0.025 2858.71
-0.72806 0 0.025 2860.79
-0.720203 0 0.025 2862.01
-0.712076 0 0.025 2861.53
-0.703677 0 0.025 2861.14
-0.695006 0 0.025 2859.9
-0.686065 0 0.025 2858.17
-0.676855 0 0.025 2855.35
-0.667379 0 0.025 2849.76
-0.65764 0 0.025 2846.47
-0.647644 0 0.025 2846.82
-0.637397 0 0.025 2841.07
-0.626906 0 0.025 2838.13
-0.616179 0 0.025 2834.59
-0.605224 0 0.025 2831.64
-0.594054 0 0.025 2828.56
-0.582678 0 0.025 2826.49
-0.57111 0 0.025 2823.11
-0.559364 0 0.025 2820.52
-0.547454 0 0.025 2816.94
-0.535396 0 0.025 2815.16
-0.523205 0 0.025 2813.11
-0.510901 0 0.025 2809.72
-0.4985 0 0.025 2807.8
-0.486021 0 0.025 2804.98
-0.473483 0 0.025 2801.71
-0.460905 0 0.025 2800.58
-0.448308 0 0.025 2799.93
-0.435709 0 0.025 2797.95
-0.42313 0 0.025 2795.65
-0.41059 0 0.025 2793.47
-0.39811 0 0.025 2790.99
-0.385706 0 0.025 2788.72
-0.373398 0 0.025 2787.36
-0.361205 0 0.025 2788.09
-0.349141 0 0.025 2788.45
-0.337226 0 0.025 2786.92
-0.325475 0 0.025 2784.15
-0.313901 0 0.025 2781.26
-0.30252 0 0.025 2778.62
-0.291343 0 0.025 2777.05
-0.280382 0 0.025 2776.4
-0.269646 0 0.025 2776.86
-0.259148 0 0.025 2777.44
-0.248893 0 0.025 2778.1
-0.23889 0 0.025 2777.74
-0.229143 0 0.025 2776.84
-0.219659 0 0.025 2775.36
-0.210441 0 0.025 2774.03
-0.201491 0 0.025 2772.71
-0.192812 0 0.025 2771.89
-0.184405 0 0.025 2771.17
-0.176269 0 0.025 2770.64
-0.168404 0 0.025 2769.96
-0.160808 0 0.025 2769.42
-0.15348 0 0.025 2768.72
-0.146415 0 0.025 2767.99
-0.13961 0 0.025 2766.95
-0.133063 0 0.025 2765.82
-0.126767 0 0.025 2764.5
-0.120718 0 0.025 2763.3
-0.11491 0 0.025 2762.22
-0.109339 0 0.025 2761.44
-0.103997 0 0.025 2760.87
-0.0988805 0 0.025 2760.56
-0.0939808 0 0.025 2760.48
-0.0892928 0 0.025 2760.65
-0.0848096 0 0.025 2760.97
-0.0805248 0 0.025 2761.47
-0.0764316 0 0.025 2762.12
-0.0725237 0 0.025 2762.83
-0.0687943 0 0.025 2763.54
-0.065237 0 0.025 2764.2
-0.0618454 0 0.025 2764.81
-0.058613 0 0.025 2765.35
-0.0555337 0 0.025 2765.84
-0.0526013 0 0.025 2766.25
-0.0498099 0 0.025 2766.58
-0.0471536 0 0.025 2766.81
-0.0446266 0 0.025 2766.97
-0.0422235 0 0.025 2767.04
-0.039939 0 0.025 2767.06
-0.0377676 0 0.025 2767.02
-0.0357044 0 0.025 2766.95
-0.0337445 0 0.025 2766.88
-0.0318832 0 0.025 2766.71
-0.0301159 0 0.025 2782.76
-0.0284383 0 0.025 3068.36
-0.0268461 0 0.025 4270.18
-0.0253353 0 0.025 5713.88
-0.023902 0 0.025 6704.47
-0.0225426 0 0.025 7415.81
-0.0212532 0 0.025 7918.05
-0.0200306 0 0.025 8328.85
-0.0188715 0 0.025 8682.51
-0.0177728 0 0.025 8980.43
-0.0167313 0 0.025 9239.82
-0.0157444 0 0.025 9472.63
-0.0148092 0 0.025 9681.73
-0.0139232 0 0.025 9874.52
-0.0130838 0 0.025 10053.3
-0.0122887 0 0.025 10219.1
-0.0115356 0 0.025 10372.5
-0.0108223 0 0.025 10514.4
-0.0101469 0 0.025 10645.4
-0.00950727 0 0.025 10764.7
-0.00890168 0 0.025 10872.6
-0.00832835 0 0.025 10969.2
-0.00778557 0 0.025 11055.6
-0.00727176 0 0.025 11132.5
-0.0067854 0 0.025 11201.4
-0.00632507 0 0.025 11263.7
-0.00588937 0 0.025 11321.1
-0.00547703 0 0.025 11375.2
-0.0050868 0 0.025 11427.7
-0.00471753 0 0.025 11480.2
-0.0043681 0 0.025 11533.8
-0.00403746 0 0.025 11590.2
-0.00372461 0 0.025 11651.3
-0.0034286 0 0.025 11717.1
-0.00314855 0 0.025 11788.4
-0.0028836 0 0.025 11866.4
-0.00263294 0 0.025 11953.9
-0.00239581 0 0.025 12048.2
-0.0021715 0 0.025 12146.1
-0.00195929 0 0.025 12251.1
-0.00175856 0 0.025 12362.2
-0.00156869 0 0.025 12478.5
-0.00138908 0 0.025 12599.1
-0.0012192 0 0.025 12722.4
-0.00105853 0 0.025 12847.3
-0.000906546 0 0.025 12971.7
-0.000762803 0 0.025 13092.3
-0.000626848 0 0.025 13204.4
-0.000498265 0 0.025 13300.9
-0.000376656 0 0.025 13371.7
-0.000261642 0 0.025 13408.8
-0.00015287 0 0.025 13413.8
-5e-05 0 0.025 13507.5
4.14519e-05 2.79596e-05 0.025 13059.9
0.000125371 8.45641e-05 0.025 13156.9
0.000211347 0.000142556 0.025 13117.8
0.000299429 0.000201968 0.025 13044
0.000389669 0.000262835 0.025 12957.6
0.000482118 0.000325193 0.025 12870
0.000576831 0.000389077 0.025 12786.9
0.000673861 0.000454524 0.025 12712.1
0.000773265 0.000521574 0.025 12648.1
0.0008751 0.000590262 0.025 12596.8
0.000979426 0.000660632 0.025 12559.6
0.0010863 0.000732721 0.025 12535.5
0.00119579 0.000806572 0.025 12525.5
0.00130795 0.000882227 0.025 12530.6
0.00142285 0.00095973 0.025 12548.8
0.00154056 0.00103912 0.025 12578.7
0.00166115 0.00112046 0.025 12620.2
0.00178467 0.00120378 0.025 12672.8
0.00191121 0.00128913 0.025 12735.2
0.00204083 0.00137656 0.025 12808.3
0.00217362 0.00146612 0.025 12891
0.00230964 0.00155787 0.025 12983.5
0.00244897 0.00165185 0.025 13084.9
0.00259169 0.00174812 0.025 13195.7
0.00273789 0.00184673 0.025 13315.6
0.00288765 0.00194774 0.025 13444.6
0.00304105 0.00205122 0.025 13582.7
0.00319818 0.00215719 0.025 13730.8
0.00335912 0.00226575 0.025 13887.9
0.00352397 0.00237695 0.025 14054.9
0.00369283 0.00249085 0.025 14232.5
0.00386579 0.00260751 0.025 14420.6
0.00404294 0.00272699 0.025 14619.8
0.00422438 0.00284938 0.025 14830.5
0.00441022 0.00297474 0.025 15053.9
0.00460056 0.00310312 0.025 15290.5
0.00479552 0.00323462 0.025 15541.2
0.00499519 0.0033693 0.025 15806.6
0.00519968 0.00350723 0.025 16088.6
0.00540911 0.00364849 0.025 16387.7
0.00562361 0.00379318 0.025 16705.4
0.00584329 0.00394134 0.025 17043.3
0.00606826 0.00409309 0.025 17402.8
0.00629865 0.00424849 0.025 17785.5
0.0065346 0.00440764 0.025 18193.6
0.00677623 0.00457063 0.025 18628.7
0.00702368 0.00473753 0.025 19093.7
0.00727707 0.00490844 0.025 19590.2
0.00753655 0.00508347 0.025 20121.5
0.00780227 0.00526269 0.025 20690.1
0.00807436 0.00544622 0.025 21298.7
0.00835298 0.00563415 0.025 21951.3
0.00863826 0.00582659 0.025 22650
0.00893038 0.00602362 0.025 23399.4
0.00922949 0.00622537 0.025 24202.7
0.00953574 0.00643195 0.025 25065.3
0.00984929 0.00664345 0.025 25989.8
0.0101703 0.00686 0.025 26985.3
0.0104991 0.00708171 0.025 28054.5
0.0108356 0.00730871 0.025 29206
0.0111801 0.0075411 0.025 30447.2
0.0115329 0.00777902 0.025 31787.5
0.011894 0.00802259 0.025 33235.2
0.0122637 0.00827194 0.025 34802.5
0.0126421 0.00852719 0.025 36494.4
0.0130295 0.0087885 0.025 38330.5
0.013426 0.00905597 0.025 40319.2
0.013832 0.00932978 0.025 42473.3
0.0142475 0.00961003 0.025 44809.9
0.0146727 0.0098969 0.025 47340.7
0.0151081 0.0101905 0.025 50087.9
0.0155536 0.010491 0.025 53068.5
0.0160097 0.0107986 0.025 56307.4
0.0164764 0.0111134 0.025 59832.6
0.016954 0.0114356 0.025 63701.4
0.0174427 0.0117653 0.025 67969.5
0.0179429 0.0121026 0.025 72749.3
0.0184548 0.0124479 0.025 78131.7
0.0189786 0.0128013 0.025 84218.4
0.0195146 0.0131628 0.025 91106.5
0.020063 0.0135327 0.025 98818.9
0.0206242 0.0139112 0.025 107264
0.0211983 0.0142984 0.025 116317
0.0217857 0.0146947 0.025 125879
0.0223867 0.0151 0.025 135987
0.0230015 0.0155147 0.025 146529
0.0236304 0.0159389 0.025 157310
0.0242738 0.0163729 0.025 167307
0.0249318 0.0168167 0.025 174758
0.025605 0.0172708 0.025 178593
0.0262935 0.0177352 0.025 179286
0.0269977 0.0182102 0.025 174211
0.0277178 0.0186959 0.025 170009
0.0284544 0.0191927 0.025 165554
0.0292075 0.0197008 0.025 160597
0.0299777 0.0202203 0.025 155242
0.0307653 0.0207514 0.025 149713
0.0315704 0.0212945 0.025 144370
0.0323937 0.0218499 0.025 139643
0.0332354 0.0224176 0.025 135764
0.0340959 0.022998 0.025 132783
0.0349755 0.0235913 0.025 130453
0.0358747 0.0241978 0.025 128628
0.0367938 0.0248178 0.025 127285
0.0377331 0.0254513 0.025 126455
0.0386932 0.0260989 0.025 125967
0.0396743 0.0267606 0.025 125566
0.0406769 0.0274369 0.025 125284
0.0417013 0.0281279 0.025 125251
0.042748 0.0288339 0.025 125397
0.0438175 0.0295552 0.025 125384
0.04491 0.0302922 0.025 125158
0.0460262 0.031045 0.025 125304
0.0471662 0.031814 0.025 125928
0.0483306 0.0325995 0.025 126682
0.0495199 0.0334016 0.025 126955
0.0507344 0.0342208 0.025 126875
0.0519746 0.0350573 0.025 126691
0.0532409 0.0359114 0.025 127256
0.0545339 0.0367835 0.025 128052
0.0558538 0.0376739 0.025 128324
0.0572012 0.0385827 0.025 128100
0.0585766 0.0395104 0.025 127558
0.0599804 0.0404573 0.025 127326
0.061413 0.0414236 0.025 127705
0.0628748 0.0424096 0.025 128194
0.0643665 0.0434157 0.025 128446
0.0658883 0.0444422 0.025 128450
0.0674408 0.0454894 0.025 128177
0.0690245 0.0465576 0.025 128163
0.0706398 0.0476471 0.025 128450
0.0722871 0.0487582 0.025 128685
0.0739669 0.0498912 0.025 128792
0.0756797 0.0510466 0.025 128641
0.0774258 0.0522244 0.025 128391
0.0792059 0.053425 0.025 128378
0.0810203 0.0546489 0.025 128565
0.0828694 0.0558961 0.025 128794
0.0847537 0.0571671 0.025 128869
0.0866737 0.0584622 0.025 128630
0.0886298 0.0597816 0.025 128194
0.0906224 0.0611256 0.025 127788
0.0926518 0.0624944 0.025 127657
0.0947185 0.0638884 0.025 127900
0.096823 0.065308 0.025 128272
0.0989659 0.0667532 0.025 128716
0.101147 0.0682245 0.025 128844
0.103367 0.0697219 0.025 129066
0.105626 0.0712458 0.025 129338
0.107926 0.0727965 0.025 129559
0.110265 0.074374 0.025 129646
0.112644 0.0759789 0.025 129251
0.115063 0.0776111 0.025 129285
0.117524 0.0792709 0.025 128631
0.120026 0.0809585 0.025 127885
0.122569 0.0826741 0.025 127538
0.125155 0.0844179 0.025 127568
0.127782 0.0861901 0.025 128167
0.130451 0.0879908 0.025 128852
0.133163 0.08982 0.025 129600
0.135918 0.0916781 0.025 129732
0.138716 0.0935651 0.025 129466
0.141556 0.095481 0.025 128891
0.14444 0.097426 0.025 128419
0.147367 0.0994004 0.025 127374
0.150337 0.101404 0.025 128053
0.153351 0.103437 0.025 128158
0.156408 0.105498 0.025 127621
0.159508 0.107589 0.025 128408
0.162651 0.10971 0.025 127343
0.165838 0.111859 0.025 124369
0.169069 0.114039 0.025 125995
0.172343 0.116247 0.025 124113
0.175659 0.118483 0.025 123959
0.179018 0.120749 0.025 123985
0.182421 0.123045 0.025 123775
0.185866 0.125368 0.025 123565
0.189353 0.12772 0.025 122909
0.192882 0.1301 0.025 122067
0.196453 0.132509 0.025 121602
0.200065 0.134946 0.025 121079
0.203718 0.13741 0.025 121775
0.207412 0.139901 0.025 122929
0.211146 0.14242 0.025 122887
0.214919 0.144965 0.025 122156
0.218732 0.147537 0.025 122096
0.222583 0.150134 0.025 120533
0.226472 0.152757 0.025 120877
0.230399 0.155406 0.025 120164
0.234362 0.15808 0.025 120195
0.238362 0.160777 0.025 119908
0.242396 0.163498 0.025 120500
0.246466 0.166244 0.025 120516
0.250569 0.169012 0.025 121828
0.254706 0.171801 0.025 120973
0.258874 0.174613 0.025 120852
0.263074 0.177446 0.025 120332
0.267304 0.180299 0.025 120877
0.271564 0.183172 0.025 121284
0.275852 0.186064 0.025 120603
0.280168 0.188975 0.025 120986
0.28451 0.191904 0.025 120548
0.288876 0.19485 0.025 120129
0.293268 0.197812 0.025 121108
0.297683 0.20079 0.025 120452
0.302119 0.203782 0.025 120485
0.306577 0.206788 0.025 121690
0.311054 0.209808 0.025 120857
0.315549 0.212841 0.025 121273
0.320063 0.215885 0.025 120243
0.324591 0.218939 0.025 120791
0.329134 0.222003 0.025 120604
0.333691 0.225077 0.025 119910
0.33826 0.228159 0.025 120535
0.342839 0.231248 0.025 120461
0.347428 0.234343 0.025 121592
0.352025 0.237444 0.025 120497
0.356628 0.240548 0.025 120993
0.361237 0.243658 0.025 121270
0.36585 0.246769 0.025 120007
0.370465 0.249882 0.025 121833
0.375082 0.252996 0.025 120766
0.379698 0.25611 0.025 120151
0.384313 0.259223 0.025 121171
0.388926 0.262333 0.025 120419
0.393534 0.265442 0.025 120810
0.398136 0.268546 0.025 121115
0.40273 0.271645 0.025 120399
0.407317 0.274739 0.025 120222
0.411894 0.277826 0.025 119796
0.41646 0.280906 0.025 121163
0.421014 0.283977 0.025 120382
0.425554 0.28704 0.025 120214
0.430079 0.290092 0.025 120706
0.434588 0.293133 0.025 120540
0.439079 0.296162 0.025 121288
0.443551 0.299179 0.025 120994
0.448004 0.302183 0.025 120900
0.452437 0.305172 0.025 120996
0.456846 0.308146 0.025 121280
0.461232 0.311105 0.025 121163
0.465593 0.314047 0.025 121320
0.469929 0.316971 0.025 120942
0.474238 0.319878 0.025 122034
0.47852 0.322766 0.025 121719
0.482773 0.325635 0.025 121822
0.486996 0.328483 0.025 121316
0.491189 0.331311 0.025 120599
0.49535 0.334118 0.025 121826
