# wallHeatFlux  FACE_DATA 398
# x  y  z  wallHeatFlux
-0.7975 0 0.025 -653687
-0.79239 0 0.025 -120409
-0.787056 0 0.025 -70545.5
-0.781492 0 0.025 -61714.7
-0.775691 0 0.025 -63740.7
-0.769649 0 0.025 -65188.2
-0.763362 0 0.025 -66197.5
-0.756822 0 0.025 -66420
-0.750025 0 0.025 -66084.2
-0.742968 0 0.025 -65392.7
-0.735648 0 0.025 -64412.4
-0.72806 0 0.025 -63351.3
-0.720203 0 0.025 -62354.7
-0.712076 0 0.025 -61406.8
-0.703677 0 0.025 -60527
-0.695006 0 0.025 -59667.6
-0.686065 0 0.025 -58834.1
-0.676855 0 0.025 -58095.9
-0.667379 0 0.025 -57286.9
-0.65764 0 0.025 -56514.9
-0.647644 0 0.025 -55932
-0.637397 0 0.025 -55229.9
-0.626906 0 0.025 -54603.6
-0.616179 0 0.025 -54004.2
-0.605224 0 0.025 -53415.9
-0.594054 0 0.025 -52900.5
-0.582678 0 0.025 -52419
-0.57111 0 0.025 -51903.2
-0.559364 0 0.025 -51402.5
-0.547454 0 0.025 -50925.3
-0.535396 0 0.025 -50559.6
-0.523205 0 0.025 -50178.6
-0.510901 0 0.025 -49754.8
-0.4985 0 0.025 -49353.4
-0.486021 0 0.025 -48961.1
-0.473483 0 0.025 -48604.4
-0.460905 0 0.025 -48347
-0.448308 0 0.025 -48077.9
-0.435709 0 0.025 -47763.9
-0.42313 0 0.025 -47436
-0.41059 0 0.025 -47112.5
-0.39811 0 0.025 -46825
-0.385706 0 0.025 -46583.9
-0.373398 0 0.025 -46391.2
-0.361205 0 0.025 -46267.4
-0.349141 0 0.025 -46103.7
-0.337226 0 0.025 -45864.7
-0.325475 0 0.025 -45587.6
-0.313901 0 0.025 -45299.6
-0.30252 0 0.025 -45037.7
-0.291343 0 0.025 -44857.5
-0.280382 0 0.025 -44747.1
-0.269646 0 0.025 -44700
-0.259148 0 0.025 -44680.3
-0.248893 0 0.025 -44646.1
-0.23889 0 0.025 -44542.7
-0.229143 0 0.025 -44385.3
-0.219659 0 0.025 -44186.7
-0.210441 0 0.025 -43972
-0.201491 0 0.025 -43760.4
-0.192812 0 0.025 -43584.2
-0.184405 0 0.025 -43449.9
-0.176269 0 0.025 -43361.9
-0.168404 0 0.025 -43302.5
-0.160808 0 0.025 -43269.9
-0.15348 0 0.025 -43245.7
-0.146415 0 0.025 -43216.9
-0.13961 0 0.025 -43170.7
-0.133063 0 0.025 -43110.4
-0.126767 0 0.025 -43035
-0.120718 0 0.025 -42949.4
-0.11491 0 0.025 -42864.5
-0.109339 0 0.025 -42774.9
-0.103997 0 0.025 -42695.3
-0.0988805 0 0.025 -42614.3
-0.0939808 0 0.025 -42541.4
-0.0892928 0 0.025 -42480.6
-0.0848096 0 0.025 -42425.2
-0.0805248 0 0.025 -42386.3
-0.0764316 0 0.025 -42363.8
-0.0725237 0 0.025 -42346.6
-0.0687943 0 0.025 -42335.6
-0.065237 0 0.025 -42329.3
-0.0618454 0 0.025 -42324
-0.058613 0 0.025 -42317.9
-0.0555337 0 0.025 -42318.2
-0.0526013 0 0.025 -42317.8
-0.0498099 0 0.025 -42323.1
-0.0471536 0 0.025 -42323.1
-0.0446266 0 0.025 -42317.8
-0.0422235 0 0.025 -42312.4
-0.039939 0 0.025 -42307.1
-0.0377676 0 0.025 -42301.4
-0.0357044 0 0.025 -42291.4
-0.0337445 0 0.025 -42291.1
-0.0318832 0 0.025 -42226.8
-0.0301159 0 0.025 -41540.6
-0.0284383 0 0.025 -36742
-0.0268461 0 0.025 -32532
-0.0253353 0 0.025 -48163.3
-0.023902 0 0.025 -63637.7
-0.0225426 0 0.025 -72710.3
-0.0212532 0 0.025 -78285
-0.0200306 0 0.025 -83080.1
-0.0188715 0 0.025 -87131.8
-0.0177728 0 0.025 -90449.4
-0.0167313 0 0.025 -93392.5
-0.0157444 0 0.025 -96132.5
-0.0148092 0 0.025 -98753.7
-0.0139232 0 0.025 -101323
-0.0130838 0 0.025 -103751
-0.0122887 0 0.025 -105963
-0.0115356 0 0.025 -107933
-0.0108223 0 0.025 -109666
-0.0101469 0 0.025 -111168
-0.00950727 0 0.025 -112420
-0.00890168 0 0.025 -113464
-0.00832835 0 0.025 -114348
-0.00778557 0 0.025 -115154
-0.00727176 0 0.025 -115957
-0.0067854 0 0.025 -116820
-0.00632507 0 0.025 -117796
-0.00588937 0 0.025 -118930
-0.00547703 0 0.025 -120242
-0.0050868 0 0.025 -121747
-0.00471753 0 0.025 -123447
-0.0043681 0 0.025 -125348
-0.00403746 0 0.025 -127463
-0.00372461 0 0.025 -129806
-0.0034286 0 0.025 -132340
-0.00314855 0 0.025 -135095
-0.0028836 0 0.025 -138118
-0.00263294 0 0.025 -141371
-0.00239581 0 0.025 -144643
-0.0021715 0 0.025 -147936
-0.00195929 0 0.025 -151431
-0.00175856 0 0.025 -155079
-0.00156869 0 0.025 -158856
-0.00138908 0 0.025 -162761
-0.0012192 0 0.025 -166824
-0.00105853 0 0.025 -170949
-0.000906546 0 0.025 -175117
-0.000762803 0 0.025 -179240
-0.000626848 0 0.025 -182980
-0.000498265 0 0.025 -185629
-0.000376656 0 0.025 -185176
-0.000261642 0 0.025 -177808
-0.00015287 0 0.025 -155911
-5e-05 0 0.025 -101674
4.14519e-05 2.79596e-05 0.025 -72581.1
0.000125371 8.45641e-05 0.025 -85354.8
0.000211347 0.000142556 0.025 -100490
0.000299429 0.000201968 0.025 -111374
0.000389669 0.000262835 0.025 -120573
0.000482118 0.000325193 0.025 -129330
0.000576831 0.000389077 0.025 -137528
0.000673861 0.000454524 0.025 -144885
0.000773265 0.000521574 0.025 -151342
0.0008751 0.000590262 0.025 -156973
0.000979426 0.000660632 0.025 -161915
0.0010863 0.000732721 0.025 -166315
0.00119579 0.000806572 0.025 -170350
0.00130795 0.000882227 0.025 -174134
0.00142285 0.00095973 0.025 -177678
0.00154056 0.00103912 0.025 -181121
0.00166115 0.00112046 0.025 -184467
0.00178467 0.00120378 0.025 -187778
0.00191121 0.00128913 0.025 -191107
0.00204083 0.00137656 0.025 -194398
0.00217362 0.00146612 0.025 -197774
0.00230964 0.00155787 0.025 -201214
0.00244897 0.00165185 0.025 -204705
0.00259169 0.00174812 0.025 -208296
0.00273789 0.00184673 0.025 -212014
0.00288765 0.00194774 0.025 -215892
0.00304105 0.00205122 0.025 -219881
0.00319818 0.00215719 0.025 -224033
0.00335912 0.00226575 0.025 -228408
0.00352397 0.00237695 0.025 -232934
0.00369283 0.00249085 0.025 -237695
0.00386579 0.00260751 0.025 -242681
0.00404294 0.00272699 0.025 -247931
0.00422438 0.00284938 0.025 -253462
0.00441022 0.00297474 0.025 -259298
0.00460056 0.00310312 0.025 -265466
0.00479552 0.00323462 0.025 -271962
0.00499519 0.0033693 0.025 -278889
0.00519968 0.00350723 0.025 -286131
0.00540911 0.00364849 0.025 -293879
0.00562361 0.00379318 0.025 -302137
0.00584329 0.00394134 0.025 -310876
0.00606826 0.00409309 0.025 -320217
0.00629865 0.00424849 0.025 -330089
0.0065346 0.00440764 0.025 -340715
0.00677623 0.00457063 0.025 -352089
0.00702368 0.00473753 0.025 -364211
0.00727707 0.00490844 0.025 -377207
0.00753655 0.00508347 0.025 -391104
0.00780227 0.00526269 0.025 -406036
0.00807436 0.00544622 0.025 -422124
0.00835298 0.00563415 0.025 -439453
0.00863826 0.00582659 0.025 -458125
0.00893038 0.00602362 0.025 -478084
0.00922949 0.00622537 0.025 -499969
0.00953574 0.00643195 0.025 -523885
0.00984929 0.00664345 0.025 -550234
0.0101703 0.00686 0.025 -578084
0.0104991 0.00708171 0.025 -611704
0.0108356 0.00730871 0.025 -648161
0.0111801 0.0075411 0.025 -687315
0.0115329 0.00777902 0.025 -728727
0.011894 0.00802259 0.025 -773990
0.0122637 0.00827194 0.025 -818796
0.0126421 0.00852719 0.025 -863750
0.0130295 0.0087885 0.025 -906470
0.013426 0.00905597 0.025 -948898
0.013832 0.00932978 0.025 -993062
0.0142475 0.00961003 0.025 -1.03736e+06
0.0146727 0.0098969 0.025 -1.08715e+06
0.0151081 0.0101905 0.025 -1.14083e+06
0.0155536 0.010491 0.025 -1.19954e+06
0.0160097 0.0107986 0.025 -1.25949e+06
0.0164764 0.0111134 0.025 -1.32598e+06
0.016954 0.0114356 0.025 -1.39597e+06
0.0174427 0.0117653 0.025 -1.46079e+06
0.0179429 0.0121026 0.025 -1.52576e+06
0.0184548 0.0124479 0.025 -1.60243e+06
0.0189786 0.0128013 0.025 -1.64731e+06
0.0195146 0.0131628 0.025 -1.6939e+06
0.020063 0.0135327 0.025 -1.74992e+06
0.0206242 0.0139112 0.025 -1.77657e+06
0.0211983 0.0142984 0.025 -1.78979e+06
0.0217857 0.0146947 0.025 -1.80836e+06
0.0223867 0.0151 0.025 -1.81765e+06
0.0230015 0.0155147 0.025 -1.81898e+06
0.0236304 0.0159389 0.025 -1.82488e+06
0.0242738 0.0163729 0.025 -1.79727e+06
0.0249318 0.0168167 0.025 -1.78039e+06
0.025605 0.0172708 0.025 -1.74868e+06
0.0262935 0.0177352 0.025 -1.70339e+06
0.0269977 0.0182102 0.025 -1.63839e+06
0.0277178 0.0186959 0.025 -1.59561e+06
0.0284544 0.0191927 0.025 -1.6026e+06
0.0292075 0.0197008 0.025 -1.55246e+06
0.0299777 0.0202203 0.025 -1.50709e+06
0.0307653 0.0207514 0.025 -1.47196e+06
0.0315704 0.0212945 0.025 -1.43791e+06
0.0323937 0.0218499 0.025 -1.40965e+06
0.0332354 0.0224176 0.025 -1.38589e+06
0.0340959 0.022998 0.025 -1.36981e+06
0.0349755 0.0235913 0.025 -1.34956e+06
0.0358747 0.0241978 0.025 -1.35783e+06
0.0367938 0.0248178 0.025 -1.33726e+06
0.0377331 0.0254513 0.025 -1.32593e+06
0.0386932 0.0260989 0.025 -1.31961e+06
0.0396743 0.0267606 0.025 -1.3148e+06
0.0406769 0.0274369 0.025 -1.31084e+06
0.0417013 0.0281279 0.025 -1.3061e+06
0.042748 0.0288339 0.025 -1.31148e+06
0.0438175 0.0295552 0.025 -1.30282e+06
0.04491 0.0302922 0.025 -1.29249e+06
0.0460262 0.031045 0.025 -1.29641e+06
0.0471662 0.031814 0.025 -1.30988e+06
0.0483306 0.0325995 0.025 -1.30272e+06
0.0495199 0.0334016 0.025 -1.30494e+06
0.0507344 0.0342208 0.025 -1.29871e+06
0.0519746 0.0350573 0.025 -1.29349e+06
0.0532409 0.0359114 0.025 -1.30256e+06
0.0545339 0.0367835 0.025 -1.29488e+06
0.0558538 0.0376739 0.025 -1.29283e+06
0.0572012 0.0385827 0.025 -1.28885e+06
0.0585766 0.0395104 0.025 -1.28498e+06
0.0599804 0.0404573 0.025 -1.29443e+06
0.061413 0.0414236 0.025 -1.28157e+06
0.0628748 0.0424096 0.025 -1.31013e+06
0.0643665 0.0434157 0.025 -1.30787e+06
0.0658883 0.0444422 0.025 -1.28202e+06
0.0674408 0.0454894 0.025 -1.27088e+06
0.0690245 0.0465576 0.025 -1.26825e+06
0.0706398 0.0476471 0.025 -1.26115e+06
0.0722871 0.0487582 0.025 -1.25632e+06
0.0739669 0.0498912 0.025 -1.25263e+06
0.0756797 0.0510466 0.025 -1.26065e+06
0.0774258 0.0522244 0.025 -1.26765e+06
0.0792059 0.053425 0.025 -1.26047e+06
0.0810203 0.0546489 0.025 -1.27974e+06
0.0828694 0.0558961 0.025 -1.25044e+06
0.0847537 0.0571671 0.025 -1.2901e+06
0.0866737 0.0584622 0.025 -1.24763e+06
0.0886298 0.0597816 0.025 -1.24264e+06
0.0906224 0.0611256 0.025 -1.24915e+06
0.0926518 0.0624944 0.025 -1.21299e+06
0.0947185 0.0638884 0.025 -1.25054e+06
0.096823 0.065308 0.025 -1.21099e+06
0.0989659 0.0667532 0.025 -1.29381e+06
0.101147 0.0682245 0.025 -1.62162e+06
0.103367 0.0697219 0.025 -1.5379e+06
0.105626 0.0712458 0.025 -1.16912e+06
0.107926 0.0727965 0.025 -1.16869e+06
0.110265 0.074374 0.025 -1.20584e+06
0.112644 0.0759789 0.025 -1.78049e+06
0.115063 0.0776111 0.025 -1.20976e+06
0.117524 0.0792709 0.025 -1.64947e+06
0.120026 0.0809585 0.025 -1.78195e+06
0.122569 0.0826741 0.025 -1.57223e+06
0.125155 0.0844179 0.025 -1.4044e+06
0.127782 0.0861901 0.025 -1.2286e+06
0.130451 0.0879908 0.025 -1.19849e+06
0.133163 0.08982 0.025 -1.1837e+06
0.135918 0.0916781 0.025 -1.15649e+06
0.138716 0.0935651 0.025 -1.15403e+06
0.141556 0.095481 0.025 -1.15718e+06
0.14444 0.097426 0.025 -1.49943e+06
0.147367 0.0994004 0.025 -2.17778e+06
0.150337 0.101404 0.025 -1.58205e+06
0.153351 0.103437 0.025 -1.544e+06
0.156408 0.105498 0.025 -2.09738e+06
0.159508 0.107589 0.025 -990364
0.162651 0.10971 0.025 -1.43991e+06
0.165838 0.111859 0.025 -3.22528e+06
0.169069 0.114039 0.025 -1.56405e+06
0.172343 0.116247 0.025 -1.8642e+06
0.175659 0.118483 0.025 -1.76746e+06
0.179018 0.120749 0.025 -1.78266e+06
0.182421 0.123045 0.025 -1.86003e+06
0.185866 0.125368 0.025 -1.63761e+06
0.189353 0.12772 0.025 -1.65774e+06
0.192882 0.1301 0.025 -1.73521e+06
0.196453 0.132509 0.025 -1.63341e+06
0.200065 0.134946 0.025 -1.97117e+06
0.203718 0.13741 0.025 -1.83131e+06
0.207412 0.139901 0.025 -889693
0.211146 0.14242 0.025 -953919
0.214919 0.144965 0.025 -1.55289e+06
0.218732 0.147537 0.025 -951168
0.222583 0.150134 0.025 -1.79337e+06
0.226472 0.152757 0.025 -930158
0.230399 0.155406 0.025 -1.69739e+06
0.234362 0.15808 0.025 -1.60074e+06
0.238362 0.160777 0.025 -2.15161e+06
0.242396 0.163498 0.025 -1.86751e+06
0.246466 0.166244 0.025 -2.01563e+06
0.250569 0.169012 0.025 -896487
0.254706 0.171801 0.025 -1.45568e+06
0.258874 0.174613 0.025 -1.45287e+06
0.263074 0.177446 0.025 -1.82221e+06
0.267304 0.180299 0.025 -1.49282e+06
0.271564 0.183172 0.025 -905746
0.275852 0.186064 0.025 -1.52805e+06
0.280168 0.188975 0.025 -879941
0.28451 0.191904 0.025 -1.54646e+06
0.288876 0.19485 0.025 -2.10641e+06
0.293268 0.197812 0.025 -1.51891e+06
0.297683 0.20079 0.025 -1.81154e+06
0.302119 0.203782 0.025 -2.0258e+06
0.306577 0.206788 0.025 -1.45884e+06
0.311054 0.209808 0.025 -1.51814e+06
0.315549 0.212841 0.025 -1.11998e+06
0.320063 0.215885 0.025 -1.88208e+06
0.324591 0.218939 0.025 -1.34726e+06
0.329134 0.222003 0.025 -1.3246e+06
0.333691 0.225077 0.025 -1.99732e+06
0.33826 0.228159 0.025 -1.68014e+06
0.342839 0.231248 0.025 -1.71641e+06
0.347428 0.234343 0.025 -836417
0.352025 0.237444 0.025 -1.79616e+06
0.356628 0.240548 0.025 -1.34045e+06
0.361237 0.243658 0.025 -1.10572e+06
0.36585 0.246769 0.025 -2.32769e+06
0.370465 0.249882 0.025 -1.06265e+06
0.375082 0.252996 0.025 -1.42951e+06
0.379698 0.25611 0.025 -2.26721e+06
0.384313 0.259223 0.025 -1.33253e+06
0.388926 0.262333 0.025 -1.60441e+06
0.393534 0.265442 0.025 -1.33618e+06
0.398136 0.268546 0.025 -843848
0.40273 0.271645 0.025 -1.52792e+06
0.407317 0.274739 0.025 -1.58394e+06
0.411894 0.277826 0.025 -1.97014e+06
0.41646 0.280906 0.025 -806034
0.421014 0.283977 0.025 -1.50163e+06
0.425554 0.28704 0.025 -1.7301e+06
0.430079 0.290092 0.025 -1.40608e+06
0.434588 0.293133 0.025 -1.70147e+06
0.439079 0.296162 0.025 -1.21647e+06
0.443551 0.299179 0.025 -1.56227e+06
0.448004 0.302183 0.025 -1.59154e+06
0.452437 0.305172 0.025 -1.55837e+06
0.456846 0.308146 0.025 -1.45287e+06
0.461232 0.311105 0.025 -1.47548e+06
0.465593 0.314047 0.025 -1.37122e+06
0.469929 0.316971 0.025 -1.80011e+06
0.474238 0.319878 0.025 -954397
0.47852 0.322766 0.025 -1.06062e+06
0.482773 0.325635 0.025 -844435
0.486996 0.328483 0.025 -1.25554e+06
0.491189 0.331311 0.025 -1.88504e+06
0.49535 0.334118 0.025 -1.22297e+06
