# p  FACE_DATA 448
# x  y  z  p
-0.778 -3.80769e-06 0 1196.57
-0.773968 -3.80769e-06 0 934.752
-0.769872 -3.80769e-06 0 761.609
-0.76571 -3.80769e-06 0 735.171
-0.761486 -3.80769e-06 0 699.295
-0.757196 -3.80769e-06 0 676.48
-0.752841 -3.80769e-06 0 663.969
-0.748422 -3.80769e-06 0 654.526
-0.743939 -3.80769e-06 0 648.1
-0.739391 -3.80769e-06 0 642.837
-0.73478 -3.80769e-06 0 638.171
-0.730104 -3.80769e-06 0 633.944
-0.725364 -3.80769e-06 0 629.836
-0.720562 -3.80769e-06 0 625.491
-0.715696 -3.80769e-06 0 619.697
-0.710769 -3.80769e-06 0 613.874
-0.705778 -3.80769e-06 0 607.837
-0.700727 -3.80769e-06 0 604.612
-0.695615 -3.80769e-06 0 603.884
-0.690443 -3.80769e-06 0 605.882
-0.685211 -3.80769e-06 0 608.493
-0.67992 -3.80769e-06 0 611.348
-0.674571 -3.80769e-06 0 614.009
-0.669166 -3.80769e-06 0 616.298
-0.663704 -3.80769e-06 0 618.243
-0.658187 -3.80769e-06 0 619.937
-0.652616 -3.80769e-06 0 621.406
-0.646993 -3.80769e-06 0 622.55
-0.641317 -3.80769e-06 0 623.338
-0.635592 -3.80769e-06 0 623.909
-0.629817 -3.80769e-06 0 624.402
-0.623994 -3.80769e-06 0 624.739
-0.618125 -3.80769e-06 0 624.899
-0.61221 -3.80769e-06 0 624.923
-0.606252 -3.80769e-06 0 624.871
-0.600253 -3.80769e-06 0 624.704
-0.594213 -3.80769e-06 0 624.489
-0.588134 -3.80769e-06 0 624.271
-0.582018 -3.80769e-06 0 624.131
-0.575867 -3.80769e-06 0 623.879
-0.569683 -3.80769e-06 0 623.451
-0.563467 -3.80769e-06 0 622.912
-0.557221 -3.80769e-06 0 622.449
-0.550946 -3.80769e-06 0 622.185
-0.544647 -3.80769e-06 0 621.986
-0.538323 -3.80769e-06 0 621.58
-0.531979 -3.80769e-06 0 621.024
-0.525613 -3.80769e-06 0 620.458
-0.51923 -3.80769e-06 0 620.09
-0.512832 -3.80769e-06 0 619.908
-0.50642 -3.80769e-06 0 619.61
-0.499995 -3.80769e-06 0 619.065
-0.493562 -3.80769e-06 0 618.385
-0.487123 -3.80769e-06 0 617.762
-0.480677 -3.80769e-06 0 617.459
-0.47423 -3.80769e-06 0 617.528
-0.467782 -3.80769e-06 0 617.561
-0.461335 -3.80769e-06 0 617.23
-0.454892 -3.80769e-06 0 616.615
-0.448455 -3.80769e-06 0 615.882
-0.442026 -3.80769e-06 0 615.232
-0.435607 -3.80769e-06 0 614.897
-0.429202 -3.80769e-06 0 614.999
-0.42281 -3.80769e-06 0 615.237
-0.416434 -3.80769e-06 0 615.311
-0.410078 -3.80769e-06 0 614.91
-0.403743 -3.80769e-06 0 614.081
-0.39743 -3.80769e-06 0 613.179
-0.391141 -3.80769e-06 0 612.37
-0.38488 -3.80769e-06 0 611.882
-0.378648 -3.80769e-06 0 611.729
-0.372446 -3.80769e-06 0 612.355
-0.366277 -3.80769e-06 0 612.74
-0.360142 -3.80769e-06 0 612.901
-0.354042 -3.80769e-06 0 612.721
-0.347981 -3.80769e-06 0 612.09
-0.341959 -3.80769e-06 0 611.048
-0.335978 -3.80769e-06 0 609.993
-0.33004 -3.80769e-06 0 609.071
-0.324146 -3.80769e-06 0 608.472
-0.318298 -3.80769e-06 0 608.244
-0.312497 -3.80769e-06 0 608.707
-0.306744 -3.80769e-06 0 609.399
-0.301041 -3.80769e-06 0 610.064
-0.29539 -3.80769e-06 0 610.536
-0.28979 -3.80769e-06 0 610.743
-0.284243 -3.80769e-06 0 610.722
-0.278752 -3.80769e-06 0 610.283
-0.273316 -3.80769e-06 0 609.521
-0.267937 -3.80769e-06 0 608.447
-0.262614 -3.80769e-06 0 607.343
-0.25735 -3.80769e-06 0 606.351
-0.252146 -3.80769e-06 0 605.545
-0.247001 -3.80769e-06 0 605.033
-0.241916 -3.80769e-06 0 604.848
-0.236893 -3.80769e-06 0 605.071
-0.231931 -3.80769e-06 0 605.475
-0.227031 -3.80769e-06 0 606.097
-0.222195 -3.80769e-06 0 606.733
-0.217421 -3.80769e-06 0 607.306
-0.212711 -3.80769e-06 0 607.737
-0.208064 -3.80769e-06 0 607.977
-0.203482 -3.80769e-06 0 608.029
-0.198964 -3.80769e-06 0 607.934
-0.19451 -3.80769e-06 0 607.621
-0.19012 -3.80769e-06 0 607.15
-0.185796 -3.80769e-06 0 606.534
-0.181535 -3.80769e-06 0 605.821
-0.17734 -3.80769e-06 0 605.022
-0.173208 -3.80769e-06 0 604.219
-0.169141 -3.80769e-06 0 603.468
-0.165138 -3.80769e-06 0 602.8
-0.161199 -3.80769e-06 0 602.237
-0.157325 -3.80769e-06 0 601.822
-0.153513 -3.80769e-06 0 601.561
-0.149765 -3.80769e-06 0 601.451
-0.14608 -3.80769e-06 0 601.419
-0.142457 -3.80769e-06 0 601.659
-0.138897 -3.80769e-06 0 601.922
-0.135398 -3.80769e-06 0 602.34
-0.131961 -3.80769e-06 0 602.822
-0.128584 -3.80769e-06 0 603.364
-0.125268 -3.80769e-06 0 603.917
-0.122011 -3.80769e-06 0 604.438
-0.118815 -3.80769e-06 0 604.889
-0.115677 -3.80769e-06 0 605.274
-0.112597 -3.80769e-06 0 605.581
-0.109574 -3.80769e-06 0 605.81
-0.106609 -3.80769e-06 0 605.959
-0.1037 -3.80769e-06 0 606.05
-0.100846 -3.80769e-06 0 606.087
-0.098048 -3.80769e-06 0 606.081
-0.0953042 -3.80769e-06 0 605.991
-0.0926143 -3.80769e-06 0 605.878
-0.0899773 -3.80769e-06 0 605.718
-0.0873927 -3.80769e-06 0 605.518
-0.0848599 -3.80769e-06 0 605.272
-0.082378 -3.80769e-06 0 604.997
-0.0799465 -3.80769e-06 0 604.689
-0.0775645 -3.80769e-06 0 604.358
-0.0752312 -3.80769e-06 0 604.004
-0.0729462 -3.80769e-06 0 603.639
-0.0707085 -3.80769e-06 0 603.268
-0.0685175 -3.80769e-06 0 602.894
-0.0663725 -3.80769e-06 0 602.522
-0.0642727 -3.80769e-06 0 602.161
-0.0622173 -3.80769e-06 0 601.813
-0.0602058 -3.80769e-06 0 601.48
-0.0582373 -3.80769e-06 0 601.162
-0.0563111 -3.80769e-06 0 600.86
-0.0544265 -3.80769e-06 0 600.574
-0.0525827 -3.80769e-06 0 600.301
-0.0507792 -3.80769e-06 0 600.046
-0.0490152 -3.80769e-06 0 599.805
-0.0472898 -3.80769e-06 0 599.582
-0.0456025 -3.80769e-06 0 599.37
-0.0439526 -3.80769e-06 0 599.175
-0.0423394 -3.80769e-06 0 598.991
-0.0407622 -3.80769e-06 0 598.823
-0.0392203 -3.80769e-06 0 598.661
-0.0377131 -3.80769e-06 0 598.514
-0.0362398 -3.80769e-06 0 598.374
-0.0347999 -3.80769e-06 0 598.249
-0.0333926 -3.80769e-06 0 598.128
-0.0320175 -3.80769e-06 0 598.023
-0.0306737 -3.80769e-06 0 597.925
-0.0293607 -3.80769e-06 0 597.843
-0.0280779 -3.80769e-06 0 597.763
-0.0268246 -3.80769e-06 0 597.707
-0.0256004 -3.80769e-06 0 597.642
-0.0244045 -3.80769e-06 0 597.599
-0.0232363 -3.80769e-06 0 597.529
-0.0220954 -3.80769e-06 0 597.559
-0.0209812 -3.80769e-06 0 599.151
-0.019893 -3.80769e-06 0 609.6
-0.0188303 -3.80769e-06 0 651.755
-0.0177927 -3.80769e-06 0 744.354
-0.0167794 -3.80769e-06 0 855.577
-0.0157901 -3.80769e-06 0 947.264
-0.0148243 -3.80769e-06 0 1015.49
-0.0138814 -3.80769e-06 0 1070.24
-0.0129608 -3.80769e-06 0 1118.14
-0.0120623 -3.80769e-06 0 1161.71
-0.0111851 -3.80769e-06 0 1202.16
-0.0103289 -3.80769e-06 0 1239.44
-0.00949328 -3.80769e-06 0 1274.06
-0.00867767 -3.80769e-06 0 1306.06
-0.00788168 -3.80769e-06 0 1335.77
-0.00710485 -3.80769e-06 0 1363.62
-0.00634675 -3.80769e-06 0 1389.61
-0.00560698 -3.80769e-06 0 1413.54
-0.0048851 -3.80769e-06 0 1435.35
-0.00418071 -3.80769e-06 0 1454.21
-0.00349342 -3.80769e-06 0 1469.47
-0.00282284 -3.80769e-06 0 1483.72
-0.00216857 -3.80769e-06 0 1497.79
-0.00153026 -3.80769e-06 0 1515.17
-0.00090752 -3.80769e-06 0 1559.61
-0.0003 -3.80769e-06 0 1645.43
0.000259937 0.000146262 2.25537e-21 1541.1
0.000779437 0.000446185 0 1592.07
0.00129893 0.000746101 0 1615.32
0.00181858 0.00104611 2.2554e-21 1658.1
0.00233835 0.00134618 -2.25541e-21 1716.41
0.00285828 0.00164636 2.25542e-21 1785.7
0.00337841 0.00194664 0 1865.16
0.00389877 0.00224706 0 1953.09
0.00441941 0.00254764 -2.25544e-21 2048.7
0.00494034 0.00284839 2.25545e-21 2151.78
0.00546162 0.00314934 -2.25546e-21 2261.31
0.00598328 0.0034505 2.25547e-21 2377.74
0.00650535 0.00375191 2.25547e-21 2501.49
0.00702786 0.00405357 2.25548e-21 2634.54
0.00755087 0.00435552 0 2777.58
0.00807439 0.00465776 -2.25549e-21 2931.21
0.00859847 0.00496033 2.2555e-21 3094.98
0.00912315 0.00526324 0 3268.69
0.00964845 0.00556651 2.25551e-21 3451.78
0.0101744 0.00587017 0 3644.6
0.0107011 0.00617424 0 3846.77
0.0112285 0.00647873 -2.25552e-21 4058.66
0.0117567 0.00678367 0 4279.92
0.0122857 0.00708907 0 4510.51
0.0128156 0.00739497 0 4750.28
0.0133463 0.00770137 -2.25554e-21 4998.95
0.0138779 0.00800831 0 5256.79
0.0144106 0.0083158 0 5524.56
0.0149442 0.00862387 0 5803.6
0.0154788 0.00893253 0 6098.61
0.0160145 0.00924181 0 6414.76
0.0165513 0.00955172 2.25556e-21 6759.84
0.0170893 0.00986231 -2.25556e-21 7140.83
0.0176284 0.0101736 0 7570.43
0.0181687 0.0104855 0 8051.19
0.0187103 0.0107982 2.25556e-21 8557.69
0.0192532 0.0111117 2.25557e-21 9065.34
0.0197975 0.0114259 2.25557e-21 9550.45
0.0203431 0.0117408 0 10006.5
0.0208901 0.0120566 4.51114e-21 10430.4
0.0214385 0.0123732 -4.51114e-21 10821.2
0.0219884 0.0126907 0 11173.9
0.0225398 0.0130091 4.51114e-21 11490.8
0.0230928 0.0133283 0 11773.9
0.0236474 0.0136485 0 12034
0.0242037 0.0139697 0 12275
0.0247616 0.0142918 -4.51113e-21 12503.9
0.0253212 0.0146148 -4.51113e-21 12723.6
0.0258825 0.0149389 -4.51114e-21 12921.8
0.0264456 0.015264 0 13089.3
0.0270106 0.0155902 0 13225.9
0.0275774 0.0159174 -4.51112e-21 13334.4
0.0281462 0.0162457 0 13426.5
0.0287168 0.0165752 4.51111e-21 13502.2
0.0292895 0.0169059 -4.51111e-21 13558.4
0.0298642 0.0172376 0 13601
0.0304409 0.0175706 0 13643.5
0.0310198 0.0179048 4.5111e-21 13666.9
0.0316007 0.0182402 4.5111e-21 13685.1
0.0321839 0.0185768 -4.51107e-21 13705.2
0.0327693 0.0189148 0 13721.3
0.0333569 0.0192541 0 13733.4
0.0339469 0.0195947 4.51106e-21 13727.6
0.0345392 0.0199366 0 13738.5
0.0351339 0.02028 0 13692.9
0.035731 0.0206247 4.51105e-21 13667.8
0.0363305 0.0209708 -4.51103e-21 13642.6
0.0369326 0.0213184 4.51102e-21 13608.3
0.0375373 0.0216675 0 13579.1
0.0381445 0.0220181 0 13547.1
0.0387543 0.0223702 0 13513.1
0.0393668 0.0227238 4.51099e-21 13481.3
0.0399821 0.023079 -4.51097e-21 13453.8
0.0406001 0.0234358 4.51097e-21 13431
0.041221 0.0237942 0 13410.7
0.0418446 0.0241542 0 13393.9
0.0424712 0.024516 4.51092e-21 13379.6
0.0431006 0.0248794 -4.51094e-21 13337.4
0.0437331 0.0252445 0 13307.1
0.0443686 0.0256114 4.51089e-21 13269.5
0.0450071 0.02598 4.51089e-21 13225.7
0.0456487 0.0263505 0 13197.4
0.0462935 0.0267227 0 13166.3
0.0469415 0.0270968 -4.51085e-21 13154.8
0.0475927 0.0274728 0 13134.3
0.0482473 0.0278507 -4.51081e-21 13120
0.0489051 0.0282305 4.51081e-21 13111
0.0495663 0.0286122 -4.51079e-21 13091.4
0.050231 0.0289959 0 13080.9
0.0508991 0.0293816 -4.51077e-21 13068.1
0.0515707 0.0297694 4.51073e-21 13060.2
0.0522459 0.0301592 -4.51073e-21 13035.5
0.0529247 0.0305511 0 13014.6
0.0536071 0.0309451 0 12981.8
0.0542933 0.0313412 -4.51067e-21 12955.6
0.0549832 0.0317395 0 12927.1
0.0556769 0.03214 0 12911.3
0.0563744 0.0325427 0 12898.8
0.0570758 0.0329477 -4.5106e-21 12891.9
0.0577812 0.0333549 0 12891
0.0584905 0.0337645 0 12877.5
0.0592039 0.0341763 -4.51056e-21 12868.1
0.0599214 0.0345905 4.51053e-21 12859.1
0.060643 0.0350071 0 12843.8
0.0613688 0.0354262 4.51049e-21 12832.7
0.0620989 0.0358477 -4.51048e-21 12814.6
0.0628332 0.0362716 4.51046e-21 12801.2
0.0635719 0.0366981 0 12789
0.0643149 0.037127 4.51041e-21 12775
0.0650624 0.0375586 0 12771.4
0.0658144 0.0379927 0 12758.7
0.0665709 0.0384295 4.51035e-21 12757.7
0.0673321 0.0388689 -4.51035e-21 12750.7
0.0680979 0.039311 0 12750.4
0.0688683 0.0397558 -4.51029e-21 12744.5
0.0696435 0.0402034 4.51029e-21 12734.1
0.0704236 0.0406537 0 12724.6
0.0712085 0.0411069 0 12706.1
0.0719983 0.0415628 0 12689.9
0.0727931 0.0420217 0 12672.4
0.0735929 0.0424834 0 12655.1
0.0743978 0.0429481 0 12645.7
0.0752078 0.0434158 0 12631.5
0.076023 0.0438864 4.5101e-21 12626.5
0.0768435 0.0443601 -4.51009e-21 12619.8
0.0776693 0.0448369 -4.51004e-21 12615.5
0.0785004 0.0453167 4.51003e-21 12609
0.079337 0.0457997 0 12601
0.080179 0.0462858 0 12591.9
0.0810266 0.0467751 0 12580.3
0.0818797 0.0472677 0 12564.3
0.0827385 0.0477635 0 12552
0.083603 0.0482626 0 12534.3
0.0844733 0.0487651 4.50985e-21 12522.2
0.0853495 0.0492709 -4.50983e-21 12508.9
0.0862316 0.0497801 0 12502.7
0.0871195 0.0502927 -4.50978e-21 12500.1
0.0880135 0.0508089 0 12495.7
0.0889136 0.0513285 0 12494.9
0.0898198 0.0518517 0 12490
0.0907322 0.0523785 0 12481.8
0.0916509 0.0529089 0 12468.4
0.0925758 0.0534429 4.50963e-21 12448.8
0.0935072 0.0539806 4.50959e-21 12427
0.094445 0.054522 0 12405.6
0.0953894 0.0550672 4.50953e-21 12383.5
0.0963404 0.0556162 0 12369.4
0.0972979 0.0561691 0 12356.9
0.0982622 0.0567258 0 12348.8
0.0992333 0.0572865 0 12344.7
0.100211 0.057851 0 12346.7
0.101196 0.0584196 0 12353.8
0.102188 0.0589922 4.50935e-21 12352.3
0.103187 0.0595689 4.50932e-21 12352.1
0.104193 0.0601497 -4.50928e-21 12354.4
0.105206 0.0607347 0 12344.8
0.106226 0.0613239 0 12340.9
0.107254 0.0619172 0 12331.1
0.10829 0.0625149 4.50918e-21 12327.6
0.109332 0.0631169 4.50915e-21 12321.8
0.110382 0.0637232 -4.50911e-21 12308.3
0.11144 0.064334 -4.50908e-21 12289.6
0.112506 0.0649492 4.50905e-21 12272.3
0.11358 0.0655688 4.50902e-21 12267.9
0.114661 0.066193 0 12249.4
0.11575 0.0668218 0 12243.8
0.116847 0.0674552 0 12237
0.117952 0.0680932 0 12226.9
0.119065 0.068736 0 12218
0.120187 0.0693834 4.50884e-21 12220.5
0.121316 0.0700357 0 12209.8
0.122455 0.0706928 0 12205.9
0.123601 0.0713548 -4.50875e-21 12209.6
0.124756 0.0720217 0 12201.7
0.12592 0.0726935 -4.5087e-21 12200.5
0.127093 0.0733704 0 12196
0.128274 0.0740524 0 12187.1
0.129464 0.0747395 4.50859e-21 12173.8
0.130663 0.0754317 0 12161.2
0.131871 0.0761292 4.50853e-21 12162.5
0.133088 0.0768319 4.50851e-21 12146.8
0.134315 0.0775399 0 12147.1
0.13555 0.0782532 4.50845e-21 12135.8
0.136795 0.078972 0 12128.6
0.13805 0.0796962 0 12118.9
0.139314 0.080426 -4.50834e-21 12114
0.140587 0.0811613 -4.50831e-21 12113.6
0.14187 0.0819021 4.50827e-21 12115
0.143163 0.0826487 0 12114.1
0.144466 0.0834009 0 12110
0.145779 0.0841589 0 12105.1
0.147102 0.0849227 4.50815e-21 12094.4
0.148435 0.0856924 4.50811e-21 12072.1
0.149779 0.0864679 0 12057.2
0.151133 0.0872495 4.50805e-21 12041.7
0.152497 0.0880371 4.50801e-21 12037.2
0.153871 0.0888307 4.50798e-21 12032.3
0.155257 0.0896305 0 12026.1
0.156653 0.0904364 4.50791e-21 12024.8
0.15806 0.0912487 4.50787e-21 12012.2
0.159478 0.0920672 0 12011.2
0.160907 0.092892 0 11999
0.162347 0.0937233 0 11991.4
0.163798 0.0945611 4.50774e-21 12000.7
0.16526 0.0954054 0 11994.8
0.166734 0.0962563 0 11999.9
0.168219 0.0971138 0 11996.6
0.169716 0.097978 4.50761e-21 11987.7
0.171225 0.098849 4.50758e-21 11982.2
0.172745 0.0997268 4.50754e-21 11969.2
0.174278 0.100611 0 11963.9
0.175822 0.101503 0 11963.5
0.177379 0.102402 0 11975.1
0.178947 0.103308 4.50741e-21 11971.3
0.180529 0.10422 4.50737e-21 11963.7
0.182122 0.10514 4.50734e-21 11960.9
0.183728 0.106068 0 11946
0.185347 0.107002 -4.50727e-21 11932.3
0.186979 0.107944 0 11917.7
0.188623 0.108894 0 11919.8
0.190281 0.109851 4.50716e-21 11911.4
0.191952 0.110815 0 11920.6
0.193636 0.111787 -4.5071e-21 11921.5
0.195333 0.112767 -4.50707e-21 11924.1
0.197044 0.113755 -4.50702e-21 11913.5
0.198768 0.114751 -4.507e-21 11910
0.200506 0.115754 -4.50696e-21 11887.9
0.202258 0.116766 0 11891.3
0.204024 0.117785 4.50688e-21 11884.3
0.205805 0.118813 4.50686e-21 11896.6
0.207599 0.119849 0 11900.1
0.209408 0.120893 -4.50679e-21 11901
0.211231 0.121946 -4.50676e-21 11901.1
0.213068 0.123007 0 11870
0.214921 0.124076 0 11858.5
0.216788 0.125154 0 11847.1
0.21867 0.126241 0 11840.2
0.220567 0.127336 0 11837.8
0.22248 0.12844 0 11849.8
0.224408 0.129553 0 11854.7
0.226351 0.130675 0 11857.1
0.22831 0.131806 0 11852.1
0.230284 0.132946 9.01282e-21 11828.5
0.232275 0.134095 0 11807.3
0.234282 0.135254 9.01268e-21 11806.5
0.236304 0.136421 0 11792.2
0.238344 0.137598 9.01253e-21 11803.8
0.2404 0.138785 0 11807.4
0.242472 0.139982 0 11819.5
