# wallHeatFlux  FACE_DATA 448
# x  y  z  wallHeatFlux
-0.778 -3.80769e-06 0 -198882
-0.773968 -3.80769e-06 0 -40154.3
-0.769872 -3.80769e-06 0 -24476.2
-0.76571 -3.80769e-06 0 -19627.1
-0.761486 -3.80769e-06 0 -16560.4
-0.757196 -3.80769e-06 0 -14601.9
-0.752841 -3.80769e-06 0 -13265.6
-0.748422 -3.80769e-06 0 -12253
-0.743939 -3.80769e-06 0 -11464.9
-0.739391 -3.80769e-06 0 -10818.3
-0.73478 -3.80769e-06 0 -10271.1
-0.730104 -3.80769e-06 0 -9802.98
-0.725364 -3.80769e-06 0 -9408.76
-0.720562 -3.80769e-06 0 -9136.56
-0.715696 -3.80769e-06 0 -9002.66
-0.710769 -3.80769e-06 0 -9151.88
-0.705778 -3.80769e-06 0 -9525.89
-0.700727 -3.80769e-06 0 -10156.9
-0.695615 -3.80769e-06 0 -10901
-0.690443 -3.80769e-06 0 -11597.6
-0.685211 -3.80769e-06 0 -12160.9
-0.67992 -3.80769e-06 0 -12596.1
-0.674571 -3.80769e-06 0 -12929.8
-0.669166 -3.80769e-06 0 -13183.2
-0.663704 -3.80769e-06 0 -13367.1
-0.658187 -3.80769e-06 0 -13497.4
-0.652616 -3.80769e-06 0 -13595.4
-0.646993 -3.80769e-06 0 -13650.3
-0.641317 -3.80769e-06 0 -13673.3
-0.635592 -3.80769e-06 0 -13684.1
-0.629817 -3.80769e-06 0 -13674.9
-0.623994 -3.80769e-06 0 -13647.7
-0.618125 -3.80769e-06 0 -13610.7
-0.61221 -3.80769e-06 0 -13562.3
-0.606252 -3.80769e-06 0 -13508.2
-0.600253 -3.80769e-06 0 -13448.6
-0.594213 -3.80769e-06 0 -13388.6
-0.588134 -3.80769e-06 0 -13328.5
-0.582018 -3.80769e-06 0 -13268
-0.575867 -3.80769e-06 0 -13207.3
-0.569683 -3.80769e-06 0 -13140.8
-0.563467 -3.80769e-06 0 -13074.1
-0.557221 -3.80769e-06 0 -13007.5
-0.550946 -3.80769e-06 0 -12950.4
-0.544647 -3.80769e-06 0 -12894
-0.538323 -3.80769e-06 0 -12831.7
-0.531979 -3.80769e-06 0 -12774.6
-0.525613 -3.80769e-06 0 -12711.7
-0.51923 -3.80769e-06 0 -12659.4
-0.512832 -3.80769e-06 0 -12612.2
-0.50642 -3.80769e-06 0 -12559.5
-0.499995 -3.80769e-06 0 -12506.8
-0.493562 -3.80769e-06 0 -12453.2
-0.487123 -3.80769e-06 0 -12399.8
-0.480677 -3.80769e-06 0 -12351.6
-0.47423 -3.80769e-06 0 -12319
-0.467782 -3.80769e-06 0 -12281.4
-0.461335 -3.80769e-06 0 -12243.6
-0.454892 -3.80769e-06 0 -12193.8
-0.448455 -3.80769e-06 0 -12145.2
-0.442026 -3.80769e-06 0 -12100.5
-0.435607 -3.80769e-06 0 -12062
-0.429202 -3.80769e-06 0 -12028.4
-0.42281 -3.80769e-06 0 -12005.5
-0.416434 -3.80769e-06 0 -11977.3
-0.410078 -3.80769e-06 0 -11942.6
-0.403743 -3.80769e-06 0 -11897.9
-0.39743 -3.80769e-06 0 -11853.1
-0.391141 -3.80769e-06 0 -11812.6
-0.38488 -3.80769e-06 0 -11773
-0.378648 -3.80769e-06 0 -11743.8
-0.372446 -3.80769e-06 0 -11736
-0.366277 -3.80769e-06 0 -11717.7
-0.360142 -3.80769e-06 0 -11698.3
-0.354042 -3.80769e-06 0 -11674.4
-0.347981 -3.80769e-06 0 -11639.3
-0.341959 -3.80769e-06 0 -11599
-0.335978 -3.80769e-06 0 -11558.1
-0.33004 -3.80769e-06 0 -11517.1
-0.324146 -3.80769e-06 0 -11482.5
-0.318298 -3.80769e-06 0 -11457.6
-0.312497 -3.80769e-06 0 -11449.3
-0.306744 -3.80769e-06 0 -11440.8
-0.301041 -3.80769e-06 0 -11437.8
-0.29539 -3.80769e-06 0 -11434.4
-0.28979 -3.80769e-06 0 -11421.3
-0.284243 -3.80769e-06 0 -11407
-0.278752 -3.80769e-06 0 -11382.5
-0.273316 -3.80769e-06 0 -11352.6
-0.267937 -3.80769e-06 0 -11317.3
-0.262614 -3.80769e-06 0 -11276.2
-0.25735 -3.80769e-06 0 -11241.7
-0.252146 -3.80769e-06 0 -11211.6
-0.247001 -3.80769e-06 0 -11187.1
-0.241916 -3.80769e-06 0 -11168.1
-0.236893 -3.80769e-06 0 -11154.5
-0.231931 -3.80769e-06 0 -11151.5
-0.227031 -3.80769e-06 0 -11149.6
-0.222195 -3.80769e-06 0 -11146.5
-0.217421 -3.80769e-06 0 -11149.3
-0.212711 -3.80769e-06 0 -11146.3
-0.208064 -3.80769e-06 0 -11144.6
-0.203482 -3.80769e-06 0 -11135.9
-0.198964 -3.80769e-06 0 -11123.3
-0.19451 -3.80769e-06 0 -11105.1
-0.19012 -3.80769e-06 0 -11086.9
-0.185796 -3.80769e-06 0 -11063.8
-0.181535 -3.80769e-06 0 -11039.9
-0.17734 -3.80769e-06 0 -11016.1
-0.173208 -3.80769e-06 0 -10993.6
-0.169141 -3.80769e-06 0 -10964.1
-0.165138 -3.80769e-06 0 -10941.9
-0.161199 -3.80769e-06 0 -10923.8
-0.157325 -3.80769e-06 0 -10906.3
-0.153513 -3.80769e-06 0 -10888.7
-0.149765 -3.80769e-06 0 -10876.1
-0.14608 -3.80769e-06 0 -10864.6
-0.142457 -3.80769e-06 0 -10863.8
-0.138897 -3.80769e-06 0 -10861.6
-0.135398 -3.80769e-06 0 -10861.6
-0.131961 -3.80769e-06 0 -10865.6
-0.128584 -3.80769e-06 0 -10864.2
-0.125268 -3.80769e-06 0 -10869.3
-0.122011 -3.80769e-06 0 -10874.4
-0.118815 -3.80769e-06 0 -10878
-0.115677 -3.80769e-06 0 -10883.3
-0.112597 -3.80769e-06 0 -10882.8
-0.109574 -3.80769e-06 0 -10882.9
-0.106609 -3.80769e-06 0 -10876.7
-0.1037 -3.80769e-06 0 -10876.4
-0.100846 -3.80769e-06 0 -10870.6
-0.098048 -3.80769e-06 0 -10865.3
-0.0953042 -3.80769e-06 0 -10859.9
-0.0926143 -3.80769e-06 0 -10854.5
-0.0899773 -3.80769e-06 0 -10849.3
-0.0873927 -3.80769e-06 0 -10838.6
-0.0848599 -3.80769e-06 0 -10828.3
-0.082378 -3.80769e-06 0 -10817.7
-0.0799465 -3.80769e-06 0 -10807.4
-0.0775645 -3.80769e-06 0 -10797.2
-0.0752312 -3.80769e-06 0 -10786.8
-0.0729462 -3.80769e-06 0 -10776.7
-0.0707085 -3.80769e-06 0 -10766.5
-0.0685175 -3.80769e-06 0 -10751.2
-0.0663725 -3.80769e-06 0 -10741
-0.0642727 -3.80769e-06 0 -10731.2
-0.0622173 -3.80769e-06 0 -10721.3
-0.0602058 -3.80769e-06 0 -10711.3
-0.0582373 -3.80769e-06 0 -10701.6
-0.0563111 -3.80769e-06 0 -10691.9
-0.0544265 -3.80769e-06 0 -10682.2
-0.0525827 -3.80769e-06 0 -10672.6
-0.0507792 -3.80769e-06 0 -10663
-0.0490152 -3.80769e-06 0 -10653.5
-0.0472898 -3.80769e-06 0 -10649.5
-0.0456025 -3.80769e-06 0 -10640
-0.0439526 -3.80769e-06 0 -10630.7
-0.0423394 -3.80769e-06 0 -10626.7
-0.0407622 -3.80769e-06 0 -10617.6
-0.0392203 -3.80769e-06 0 -10613.9
-0.0377131 -3.80769e-06 0 -10610.2
-0.0362398 -3.80769e-06 0 -10601.2
-0.0347999 -3.80769e-06 0 -10597.7
-0.0333926 -3.80769e-06 0 -10594.3
-0.0320175 -3.80769e-06 0 -10585.6
-0.0306737 -3.80769e-06 0 -10582.3
-0.0293607 -3.80769e-06 0 -10579.4
-0.0280779 -3.80769e-06 0 -10576.1
-0.0268246 -3.80769e-06 0 -10573.6
-0.0256004 -3.80769e-06 0 -10570.6
-0.0244045 -3.80769e-06 0 -10562.8
-0.0232363 -3.80769e-06 0 -10560.6
-0.0220954 -3.80769e-06 0 -10558.2
-0.0209812 -3.80769e-06 0 -10578.1
-0.019893 -3.80769e-06 0 -10635.6
-0.0188303 -3.80769e-06 0 -10688.4
-0.0177927 -3.80769e-06 0 -10397.2
-0.0167794 -3.80769e-06 0 -9368.62
-0.0157901 -3.80769e-06 0 -8129.04
-0.0148243 -3.80769e-06 0 -7524.99
-0.0138814 -3.80769e-06 0 -7670.62
-0.0129608 -3.80769e-06 0 -8341.03
-0.0120623 -3.80769e-06 0 -9040.17
-0.0111851 -3.80769e-06 0 -9667.8
-0.0103289 -3.80769e-06 0 -10157.9
-0.00949328 -3.80769e-06 0 -10576.1
-0.00867767 -3.80769e-06 0 -10928.4
-0.00788168 -3.80769e-06 0 -11228.8
-0.00710485 -3.80769e-06 0 -11483.2
-0.00634675 -3.80769e-06 0 -11686.9
-0.00560698 -3.80769e-06 0 -11863.4
-0.0048851 -3.80769e-06 0 -12025.8
-0.00418071 -3.80769e-06 0 -12250.8
-0.00349342 -3.80769e-06 0 -12626.4
-0.00282284 -3.80769e-06 0 -13287.6
-0.00216857 -3.80769e-06 0 -14328.2
-0.00153026 -3.80769e-06 0 -15547.7
-0.00090752 -3.80769e-06 0 -16049.2
-0.0003 -3.80769e-06 0 -14650.7
0.000259937 0.000146262 2.25537e-21 -13681.6
0.000779437 0.000446185 0 -16865.2
0.00129893 0.000746101 0 -20113.6
0.00181858 0.00104611 2.2554e-21 -22722.9
0.00233835 0.00134618 -2.25541e-21 -24924.6
0.00285828 0.00164636 2.25542e-21 -27005.8
0.00337841 0.00194664 0 -29142.5
0.00389877 0.00224706 0 -31340.1
0.00441941 0.00254764 -2.25544e-21 -33646.5
0.00494034 0.00284839 2.25545e-21 -35985
0.00546162 0.00314934 -2.25546e-21 -38404.1
0.00598328 0.0034505 2.25547e-21 -40922.9
0.00650535 0.00375191 2.25547e-21 -43619.1
0.00702786 0.00405357 2.25548e-21 -46561
0.00755087 0.00435552 0 -49749.1
0.00807439 0.00465776 -2.25549e-21 -53143.2
0.00859847 0.00496033 2.2555e-21 -56665.5
0.00912315 0.00526324 0 -60264.9
0.00964845 0.00556651 2.25551e-21 -63898.5
0.0101744 0.00587017 0 -67578.3
0.0107011 0.00617424 0 -71315.7
0.0112285 0.00647873 -2.25552e-21 -75133.2
0.0117567 0.00678367 0 -79034.3
0.0122857 0.00708907 0 -83027.1
0.0128156 0.00739497 0 -87086
0.0133463 0.00770137 -2.25554e-21 -91225
0.0138779 0.00800831 0 -95425.9
0.0144106 0.0083158 0 -99632.3
0.0149442 0.00862387 0 -103895
0.0154788 0.00893253 0 -108239
0.0160145 0.00924181 0 -112729
0.0165513 0.00955172 2.25556e-21 -117460
0.0170893 0.00986231 -2.25556e-21 -122567
0.0176284 0.0101736 0 -128551
0.0181687 0.0104855 0 -135887
0.0187103 0.0107982 2.25556e-21 -144410
0.0192532 0.0111117 2.25557e-21 -153649
0.0197975 0.0114259 2.25557e-21 -162668
0.0203431 0.0117408 0 -170933
0.0208901 0.0120566 4.51114e-21 -178287
0.0214385 0.0123732 -4.51114e-21 -184617
0.0219884 0.0126907 0 -189964
0.0225398 0.0130091 4.51114e-21 -194171
0.0230928 0.0133283 0 -197605
0.0236474 0.0136485 0 -200389
0.0242037 0.0139697 0 -203210
0.0247616 0.0142918 -4.51113e-21 -205959
0.0253212 0.0146148 -4.51113e-21 -208979
0.0258825 0.0149389 -4.51114e-21 -211169
0.0264456 0.015264 0 -213419
0.0270106 0.0155902 0 -215059
0.0275774 0.0159174 -4.51112e-21 -215848
0.0281462 0.0162457 0 -216074
0.0287168 0.0165752 4.51111e-21 -216159
0.0292895 0.0169059 -4.51111e-21 -216204
0.0298642 0.0172376 0 -215994
0.0304409 0.0175706 0 -215216
0.0310198 0.0179048 4.5111e-21 -214533
0.0316007 0.0182402 4.5111e-21 -213832
0.0321839 0.0185768 -4.51107e-21 -212827
0.0327693 0.0189148 0 -211964
0.0333569 0.0192541 0 -210798
0.0339469 0.0195947 4.51106e-21 -210067
0.0345392 0.0199366 0 -208606
0.0351339 0.02028 0 -207027
0.035731 0.0206247 4.51105e-21 -205141
0.0363305 0.0209708 -4.51103e-21 -203425
0.0369326 0.0213184 4.51102e-21 -201617
0.0375373 0.0216675 0 -199612
0.0381445 0.0220181 0 -197586
0.0387543 0.0223702 0 -196181
0.0393668 0.0227238 4.51099e-21 -193979
0.0399821 0.023079 -4.51097e-21 -192813
0.0406001 0.0234358 4.51097e-21 -190968
0.041221 0.0237942 0 -189797
0.0418446 0.0241542 0 -188250
0.0424712 0.024516 4.51092e-21 -186603
0.0431006 0.0248794 -4.51094e-21 -185202
0.0437331 0.0252445 0 -183441
0.0443686 0.0256114 4.51089e-21 -181587
0.0450071 0.02598 4.51089e-21 -180307
0.0456487 0.0263505 0 -178676
0.0462935 0.0267227 0 -177690
0.0469415 0.0270968 -4.51085e-21 -176307
0.0475927 0.0274728 0 -175364
0.0482473 0.0278507 -4.51081e-21 -174458
0.0489051 0.0282305 4.51081e-21 -172927
0.0495663 0.0286122 -4.51079e-21 -171931
0.050231 0.0289959 0 -170988
0.0508991 0.0293816 -4.51077e-21 -169761
0.0515707 0.0297694 4.51073e-21 -168764
0.0522459 0.0301592 -4.51073e-21 -167988
0.0529247 0.0305511 0 -166492
0.0536071 0.0309451 0 -165681
0.0542933 0.0313412 -4.51067e-21 -164458
0.0549832 0.0317395 0 -163298
0.0556769 0.03214 0 -162233
0.0563744 0.0325427 0 -161329
0.0570758 0.0329477 -4.5106e-21 -160443
0.0577812 0.0333549 0 -159583
0.0584905 0.0337645 0 -158595
0.0592039 0.0341763 -4.51056e-21 -158085
0.0599214 0.0345905 4.51053e-21 -157085
0.060643 0.0350071 0 -156470
0.0613688 0.0354262 4.51049e-21 -155623
0.0620989 0.0358477 -4.51048e-21 -155019
0.0628332 0.0362716 4.51046e-21 -154182
0.0635719 0.0366981 0 -153382
0.0643149 0.037127 4.51041e-21 -152937
0.0650624 0.0375586 0 -151984
0.0658144 0.0379927 0 -151628
0.0665709 0.0384295 4.51035e-21 -150867
0.0673321 0.0388689 -4.51035e-21 -150636
0.0680979 0.039311 0 -150172
0.0688683 0.0397558 -4.51029e-21 -149457
0.0696435 0.0402034 4.51029e-21 -149089
0.0704236 0.0406537 0 -148076
0.0712085 0.0411069 0 -147678
0.0719983 0.0415628 0 -146630
0.0727931 0.0420217 0 -145847
0.0735929 0.0424834 0 -145165
0.0743978 0.0429481 0 -144378
0.0752078 0.0434158 0 -144018
0.076023 0.0438864 4.5101e-21 -143394
0.0768435 0.0443601 -4.51009e-21 -143148
0.0776693 0.0448369 -4.51004e-21 -142882
0.0785004 0.0453167 4.51003e-21 -142482
0.079337 0.0457997 0 -142365
0.080179 0.0462858 0 -141719
0.0810266 0.0467751 0 -141149
0.0818797 0.0472677 0 -140996
0.0827385 0.0477635 0 -140027
0.083603 0.0482626 0 -139710
0.0844733 0.0487651 4.50985e-21 -139215
0.0853495 0.0492709 -4.50983e-21 -138634
0.0862316 0.0497801 0 -138520
0.0871195 0.0502927 -4.50978e-21 -137744
0.0880135 0.0508089 0 -137710
0.0889136 0.0513285 0 -137617
0.0898198 0.0518517 0 -137142
0.0907322 0.0523785 0 -137020
0.0916509 0.0529089 0 -136426
0.0925758 0.0534429 4.50963e-21 -135953
0.0935072 0.0539806 4.50959e-21 -135344
0.094445 0.054522 0 -134912
0.0953894 0.0550672 4.50953e-21 -134261
0.0963404 0.0556162 0 -133742
0.0972979 0.0561691 0 -133305
0.0982622 0.0567258 0 -133043
0.0992333 0.0572865 0 -133067
0.100211 0.057851 0 -132816
0.101196 0.0584196 0 -132300
0.102188 0.0589922 4.50935e-21 -132694
0.103187 0.0595689 4.50932e-21 -132565
0.104193 0.0601497 -4.50928e-21 -131846
0.105206 0.0607347 0 -132307
0.106226 0.0613239 0 -131734
0.107254 0.0619172 0 -131549
0.10829 0.0625149 4.50918e-21 -131120
0.109332 0.0631169 4.50915e-21 -130782
0.110382 0.0637232 -4.50911e-21 -130641
0.11144 0.064334 -4.50908e-21 -130006
0.112506 0.0649492 4.50905e-21 -129933
0.11358 0.0655688 4.50902e-21 -128933
0.114661 0.066193 0 -128866
0.11575 0.0668218 0 -128727
0.116847 0.0674552 0 -128461
0.117952 0.0680932 0 -128376
0.119065 0.068736 0 -128396
0.120187 0.0693834 4.50884e-21 -127647
0.121316 0.0700357 0 -127806
0.122455 0.0706928 0 -127821
0.123601 0.0713548 -4.50875e-21 -126783
0.124756 0.0720217 0 -127406
0.12592 0.0726935 -4.5087e-21 -126914
0.127093 0.0733704 0 -126767
0.128274 0.0740524 0 -126195
0.129464 0.0747395 4.50859e-21 -126321
0.130663 0.0754317 0 -126023
0.131871 0.0761292 4.50853e-21 -125430
0.133088 0.0768319 4.50851e-21 -125892
0.134315 0.0775399 0 -125352
0.13555 0.0782532 4.50845e-21 -124806
0.136795 0.078972 0 -125005
0.13805 0.0796962 0 -124210
0.139314 0.080426 -4.50834e-21 -124545
0.140587 0.0811613 -4.50831e-21 -123945
0.14187 0.0819021 4.50827e-21 -123888
0.143163 0.0826487 0 -123800
0.144466 0.0834009 0 -123842
0.145779 0.0841589 0 -123829
0.147102 0.0849227 4.50815e-21 -122930
0.148435 0.0856924 4.50811e-21 -122950
0.149779 0.0864679 0 -122539
0.151133 0.0872495 4.50805e-21 -122019
0.152497 0.0880371 4.50801e-21 -121694
0.153871 0.0888307 4.50798e-21 -122096
0.155257 0.0896305 0 -121375
0.156653 0.0904364 4.50791e-21 -121067
0.15806 0.0912487 4.50787e-21 -121429
0.159478 0.0920672 0 -120695
0.160907 0.092892 0 -120408
0.162347 0.0937233 0 -120668
0.163798 0.0945611 4.50774e-21 -119732
0.16526 0.0954054 0 -120218
0.166734 0.0962563 0 -120076
0.168219 0.0971138 0 -119560
0.169716 0.097978 4.50761e-21 -119694
0.171225 0.098849 4.50758e-21 -119245
0.172745 0.0997268 4.50754e-21 -119435
0.174278 0.100611 0 -118550
0.175822 0.101503 0 -118859
0.177379 0.102402 0 -118032
0.178947 0.103308 4.50741e-21 -118745
0.180529 0.10422 4.50737e-21 -118349
0.182122 0.10514 4.50734e-21 -117646
0.183728 0.106068 0 -118122
0.185347 0.107002 -4.50727e-21 -117658
0.186979 0.107944 0 -116813
0.188623 0.108894 0 -117313
0.190281 0.109851 4.50716e-21 -116747
0.191952 0.110815 0 -116910
0.193636 0.111787 -4.5071e-21 -116018
0.195333 0.112767 -4.50707e-21 -116219
0.197044 0.113755 -4.50702e-21 -115767
0.198768 0.114751 -4.507e-21 -115449
0.200506 0.115754 -4.50696e-21 -115226
0.202258 0.116766 0 -115503
0.204024 0.117785 4.50688e-21 -114849
0.205805 0.118813 4.50686e-21 -115310
0.207599 0.119849 0 -114785
0.209408 0.120893 -4.50679e-21 -114481
0.211231 0.121946 -4.50676e-21 -114083
0.213068 0.123007 0 -114685
0.214921 0.124076 0 -113744
0.216788 0.125154 0 -112948
0.21867 0.126241 0 -113908
0.220567 0.127336 0 -113179
0.22248 0.12844 0 -112487
0.224408 0.129553 0 -113389
0.226351 0.130675 0 -112512
0.22831 0.131806 0 -112598
0.230284 0.132946 9.01282e-21 -112209
0.232275 0.134095 0 -112276
0.234282 0.135254 9.01268e-21 -111501
0.236304 0.136421 0 -112007
0.238344 0.137598 9.01253e-21 -111651
0.2404 0.138785 0 -111037
0.242472 0.139982 0 -110379
