# Wall heat-flux
# Time        	patch         	min           	max           	integral      
2000          	base	-4.528283e+06	-6.017214e+04	-1.316659e+04
