# y+ ()       
# Time        	patch         	min           	max           	average       
1800          	base	2.502799e-02	6.312650e-01	2.544657e-01
