# p  FACE_DATA 203
# x  y  z  p
-0.873265 0 0.0205 3479.93
-0.846493 0 0.0205 2971
-0.820677 0 0.0205 2839.45
-0.795786 0 0.0205 2787.06
-0.771783 0 0.0205 2768.74
-0.74637 0 0.0205 2768.29
-0.719597 0 0.0205 2766.81
-0.693782 0 0.0205 2762.42
-0.66889 0 0.0205 2760.7
-0.644887 0 0.0205 2761.55
-0.621743 0 0.0205 2760.99
-0.599426 0 0.0205 2757.85
-0.577905 0 0.0205 2755.09
-0.557154 0 0.0205 2754.18
-0.537145 0 0.0205 2754.89
-0.517849 0 0.0205 2754.93
-0.499243 0 0.0205 2753.23
-0.481301 0 0.0205 2751.03
-0.463999 0 0.0205 2749.42
-0.447314 0 0.0205 2749.08
-0.431225 0 0.0205 2749.61
-0.41571 0 0.0205 2749.64
-0.400747 0 0.0205 2748.33
-0.386317 0 0.0205 2746.33
-0.372401 0 0.0205 2744.1
-0.358981 0 0.0205 2742.33
-0.346039 0 0.0205 2741.61
-0.333556 0 0.0205 2742.02
-0.321518 0 0.0205 2743.83
-0.309908 0 0.0205 2745.74
-0.298709 0 0.0205 2747
-0.287908 0 0.0205 2747.42
-0.27749 0 0.0205 2746.71
-0.267441 0 0.0205 2744.85
-0.257748 0 0.0205 2742.21
-0.248397 0 0.0205 2739.4
-0.239378 0 0.0205 2736.7
-0.230677 0 0.0205 2734.36
-0.222282 0 0.0205 2732.75
-0.214183 0 0.0205 2732.04
-0.20637 0 0.0205 2731.96
-0.19883 0 0.0205 2732.72
-0.191555 0 0.0205 2733.87
-0.184536 0 0.0205 2735.39
-0.177762 0 0.0205 2737.11
-0.171224 0 0.0205 2739.11
-0.164914 0 0.0205 2741.06
-0.158824 0 0.0205 2742.77
-0.152944 0 0.0205 2744.1
-0.147268 0 0.0205 2744.98
-0.141788 0 0.0205 2745.42
-0.136496 0 0.0205 2745.53
-0.131387 0 0.0205 2745.4
-0.126452 0 0.0205 2745.03
-0.121685 0 0.0205 2744.47
-0.117081 0 0.0205 2743.71
-0.112632 0 0.0205 2742.72
-0.108332 0 0.0205 2741.51
-0.104177 0 0.0205 2740.11
-0.100161 0 0.0205 2738.56
-0.0962773 0 0.0205 2736.91
-0.0925221 0 0.0205 2735.22
-0.08889 0 0.0205 2733.6
-0.0853762 0 0.0205 2732.11
-0.0819759 0 0.0205 2730.74
-0.0786847 0 0.0205 2729.52
-0.0754981 0 0.0205 2728.43
-0.0724121 0 0.0205 2727.48
-0.0694223 0 0.0205 2726.63
-0.066525 0 0.0205 2725.88
-0.0637161 0 0.0205 2725.21
-0.060992 0 0.0205 2724.61
-0.0583491 0 0.0205 2724.07
-0.0557837 0 0.0205 2723.58
-0.0532926 0 0.0205 2723.15
-0.0508723 0 0.0205 2722.78
-0.0485197 0 0.0205 2722.47
-0.0462317 0 0.0205 2722.2
-0.0440053 0 0.0205 2722.13
-0.0418373 0 0.0205 2721.66
-0.039725 0 0.0205 2736.77
-0.0376655 0 0.0205 3007.75
-0.0356562 0 0.0205 4079.68
-0.0336943 0 0.0205 5228.01
-0.0317773 0 0.0205 5982
-0.0299025 0 0.0205 6553.99
-0.0280674 0 0.0205 7009.28
-0.0262697 0 0.0205 7397.16
-0.024507 0 0.0205 7743.43
-0.0227768 0 0.0205 8055.77
-0.021077 0 0.0205 8347.29
-0.0194052 0 0.0205 8621.17
-0.0177593 0 0.0205 8879.88
-0.016137 0 0.0205 9123.25
-0.014536 0 0.0205 9354.84
-0.0129545 0 0.0205 9576.84
-0.0113902 0 0.0205 9790.29
-0.00984104 0 0.0205 9986.96
-0.00830498 0 0.0205 10166.3
-0.00677997 0 0.0205 10323.9
-0.00526398 0 0.0205 10469.3
-0.00375499 0 0.0205 10593.2
-0.002251 0 0.0205 10816.8
-0.00075 0 0.0205 11791.2
0.000689475 0.000398068 0.0205 11216
0.00206843 0.0011942 0.0205 11724.3
0.00344737 0.00199034 0.0205 12485.8
0.00482631 0.00278648 0.0205 13413
0.00620527 0.00358261 0.0205 14585
0.00758422 0.00437875 0.0205 16006.4
0.00896317 0.00517489 0.0205 17721.8
0.0103421 0.00597102 0.0205 19758.8
0.0117211 0.00676715 0.0205 22145.4
0.0131 0.00756329 0.0205 24920.7
0.0144789 0.00835943 0.0205 28096.3
0.0158579 0.00915557 0.0205 31698.7
0.0172368 0.00995171 0.0205 35752.7
0.0186158 0.0107478 0.0205 40322
0.0199947 0.0115439 0.0205 45628.1
0.0213737 0.0123401 0.0205 51761.5
0.0227526 0.0131362 0.0205 58941.8
0.0241316 0.0139323 0.0205 67159.7
0.0255106 0.0147285 0.0205 76509.6
0.0268895 0.0155246 0.0205 86868.6
0.0282685 0.0163208 0.0205 97607.6
0.0296474 0.0171169 0.0205 108034
0.0310264 0.017913 0.0205 117920
0.0324053 0.0187092 0.0205 126401
0.0337843 0.0195054 0.0205 132274
0.0351632 0.0203015 0.0205 134834
0.0365421 0.0210976 0.0205 135486
0.037921 0.0218938 0.0205 129182
0.0393 0.0226898 0.0205 123390
0.0406789 0.023486 0.0205 119991
0.0420579 0.0242821 0.0205 118077
0.0434368 0.0250783 0.0205 116840
0.0448158 0.0258745 0.0205 113850
0.0461948 0.0266706 0.0205 110340
0.0475737 0.0274667 0.0205 106388
0.0489527 0.0282628 0.0205 103273
0.0503316 0.029059 0.0205 102235
0.0517106 0.0298551 0.0205 101839
0.0530895 0.0306512 0.0205 101478
0.0544684 0.0314473 0.0205 100692
0.0558474 0.0322435 0.0205 99713.4
0.0572264 0.0330397 0.0205 99259.4
0.0586053 0.0338357 0.0205 99107.7
0.0599842 0.0346319 0.0205 99375.1
0.0613632 0.0354281 0.0205 99652.1
0.0627422 0.0362242 0.0205 99821.3
0.0641211 0.0370204 0.0205 99616.6
0.0655001 0.0378164 0.0205 99584.3
0.066879 0.0386126 0.0205 99645.8
0.0682579 0.0394088 0.0205 99785.6
0.0696369 0.0402049 0.0205 100066
0.0710158 0.041001 0.0205 100481
0.0723947 0.0417971 0.0205 100916
0.0737737 0.0425932 0.0205 101192
0.0751527 0.0433894 0.0205 101315
0.0765316 0.0441856 0.0205 101474
0.0779106 0.0449817 0.0205 101400
0.0792895 0.0457778 0.0205 101059
0.0806685 0.0465739 0.0205 100927
0.0820474 0.0473701 0.0205 100786
0.0834263 0.0481662 0.0205 100622
0.0848053 0.0489624 0.0205 100565
0.0861843 0.0497585 0.0205 100633
0.0875632 0.0505546 0.0205 100647
0.0889421 0.0513508 0.0205 100706
0.0903211 0.0521469 0.0205 100763
0.0917 0.0529431 0.0205 101019
0.093079 0.0537392 0.0205 101150
0.094458 0.0545353 0.0205 101380
0.0958369 0.0553315 0.0205 101634
0.0972159 0.0561276 0.0205 101908
0.0985948 0.0569238 0.0205 101944
0.0999737 0.0577198 0.0205 102041
0.101352 0.058516 0.0205 102065
0.102732 0.0593121 0.0205 101974
0.10411 0.0601083 0.0205 101888
0.105489 0.0609044 0.0205 101887
0.106868 0.0617005 0.0205 101939
0.108248 0.0624967 0.0205 101975
0.109627 0.0632928 0.0205 102021
0.111006 0.064089 0.0205 102239
0.112385 0.0648851 0.0205 102384
0.113764 0.0656812 0.0205 102399
0.115143 0.0664774 0.0205 102509
0.116522 0.0672735 0.0205 102620
0.117901 0.0680697 0.0205 102606
0.119279 0.0688658 0.0205 102736
0.120658 0.0696619 0.0205 102633
0.122037 0.0704581 0.0205 102553
0.123415 0.0712542 0.0205 102453
0.124794 0.0720503 0.0205 102317
0.126173 0.0728465 0.0205 102327
0.127552 0.0736426 0.0205 102260
0.128931 0.0744387 0.0205 102230
0.13031 0.0752348 0.0205 102264
0.131689 0.076031 0.0205 102296
0.133069 0.0768271 0.0205 102223
0.134447 0.0776233 0.0205 102241
0.135827 0.0784194 0.0205 101874
