# Wall heat-flux
# Time        	patch         	min           	max           	integral      
6400          	base	-3.632759e+06	-3.070886e+04	-9.647225e+03
