# Wall heat-flux
# Time        	patch         	min           	max           	integral      
13200         	base	-3.785421e+06	-3.185099e+04	-9.717468e+03
