# Wall heat-flux
# Time        	patch         	min           	max           	integral      
1600          	base	-1.117504e+05	-6.537381e+02	-2.167852e+02
