# wallShearStress  FACE_DATA 80
# x  y  z  wallShearStress_x  wallShearStress_y  wallShearStress_z
-0.275972 0 0.05 4.74537e-17 6.7441e-14 0
-0.22368 0 0.05 2.90917e-16 3.16004e-13 0
-0.181118 0 0.05 1.07548e-15 1.96437e-12 0
-0.146477 0 0.05 3.42969e-15 6.19132e-12 0
-0.118282 0 0.05 6.41724e-15 1.72046e-11 0
-0.095333 0 0.05 1.02036e-14 3.02523e-11 0
-0.0766546 0 0.05 2.02655e-14 4.81189e-11 0
-0.061452 0 0.05 1.94775e-14 7.96259e-11 0
-0.0490783 0 0.05 -6.55701e-16 9.00046e-11 0
-0.0390072 0 0.05 1.83237e-14 8.05702e-11 0
-0.0308101 0 0.05 3.27804e-14 1.10699e-10 0
-0.0241383 0 0.05 -2.87308e-14 1.18865e-10 0
-0.0187081 0 0.05 -1.0709e-13 8.88995e-11 0
-0.0142883 0 0.05 -1.45103e-13 4.25446e-11 0
-0.0106909 0 0.05 -2.90764e-13 2.25425e-12 0
-0.00776298 0 0.05 -4.50684e-13 -9.22e-11 0
-0.00537988 0 0.05 -4.68301e-11 -1.75854e-10 0
-0.00344023 0 0.05 -7.1921e-08 -2.55682e-06 0
-0.00186151 0 0.05 -0.000427839 -0.000136167 0
-0.000576564 0 0.05 -0.0367166 -0.521159 0
0.000597823 0 0.05 -261.68 -26.0389 0
0.00183445 0 0.05 -90.9533 -2.8471 0
0.00315586 0 0.05 -55.2389 -0.565369 0
0.00456785 0 0.05 -41.4402 -0.211017 0
0.00607663 0 0.05 -34.271 -0.14366 0
0.00768885 0 0.05 -29.2414 -0.0878859 0
0.00941159 0 0.05 -25.765 -0.0575302 0
0.0112524 0 0.05 -23.2192 -0.0406292 0
0.0132195 0 0.05 -21.3359 -0.0276289 0
0.0153213 0 0.05 -20.0501 -0.0169593 0
0.0175673 0 0.05 -19.3284 -0.00731444 0
0.0199673 0 0.05 -18.8952 -0.0101993 0
0.0225317 0 0.05 -18.8705 0.00262256 0
0.025272 0 0.05 -19.3638 0.00520114 0
0.0282001 0 0.05 -20.3468 0.00755193 0
0.031329 0 0.05 -21.2565 0.00861858 0
0.0346723 0 0.05 -22.0188 0.00399254 0
0.0382448 0 0.05 -22.3586 -0.00074879 0
0.0420623 0 0.05 -22.4326 -0.000623128 0
0.0461414 0 0.05 -22.3349 -0.00172787 0
0.0505002 0 0.05 -22.0649 -0.00280721 0
0.0551578 0 0.05 -21.7063 -0.00252592 0
0.0601347 0 0.05 -21.3313 -0.00295772 0
0.0654528 0 0.05 -20.9268 -0.00388849 0
0.0711354 0 0.05 -20.5411 -0.00380785 0
0.0772076 0 0.05 -20.1806 -0.00201769 0
0.0836961 0 0.05 -19.8287 -0.00110124 0
0.0906293 0 0.05 -19.4762 -0.0018368 0
0.0980379 0 0.05 -19.1386 -0.00285728 0
0.105954 0 0.05 -18.8245 -0.00293807 0
0.114413 0 0.05 -18.5245 -0.0026167 0
0.123453 0 0.05 -18.2348 -0.00217246 0
0.133111 0 0.05 -17.9598 -0.00204385 0
0.143432 0 0.05 -17.6975 -0.00252538 0
0.15446 0 0.05 -17.4433 -0.00301243 0
0.166245 0 0.05 -17.1968 -0.00290765 0
0.178837 0 0.05 -16.9584 -0.0025988 0
0.192293 0 0.05 -16.7276 -0.00264428 0
0.20667 0 0.05 -16.5035 -0.00303506 0
0.222034 0 0.05 -16.2864 -0.00345994 0
0.238451 0 0.05 -16.0755 -0.00376451 0
0.255993 0 0.05 -15.8708 -0.00400999 0
0.274738 0 0.05 -15.6722 -0.00429749 0
0.294767 0 0.05 -15.4784 -0.00464929 0
0.31617 0 0.05 -15.289 -0.00500247 0
0.33904 0 0.05 -15.1037 -0.00536523 0
0.363478 0 0.05 -14.9222 -0.00575098 0
0.389591 0 0.05 -14.7434 -0.00615703 0
0.417495 0 0.05 -14.568 -0.00656965 0
0.447311 0 0.05 -14.3962 -0.00699959 0
0.479171 0 0.05 -14.2274 -0.00745181 0
0.513216 0 0.05 -14.0614 -0.00791316 0
0.549594 0 0.05 -13.8981 -0.00837939 0
0.588466 0 0.05 -13.7367 -0.00886754 0
0.630002 0 0.05 -13.5776 -0.00935773 0
0.674387 0 0.05 -13.4208 -0.00986166 0
0.721814 0 0.05 -13.2675 -0.01037 0
0.772492 0 0.05 -13.1109 -0.0109298 0
0.826644 0 0.05 -12.9696 -0.0113708 0
0.884509 0 0.05 -12.7113 -0.0123513 0
