# p  FACE_DATA 317
# x  y  z  p
-2.24217 0 0.27 23913.7
-2.12942 0 0.27 23878.2
-2.02231 0 0.27 23851.6
-1.92055 0 0.27 23841.7
-1.82389 0 0.27 23838.9
-1.73207 0 0.27 23833.9
-1.64485 0 0.27 23826.7
-1.562 0 0.27 23822.3
-1.48331 0 0.27 23821.8
-1.40856 0 0.27 23819.5
-1.33756 0 0.27 23811.5
-1.27013 0 0.27 23797.8
-1.20608 0 0.27 23779.4
-1.14539 0 0.27 23758.3
-1.08787 0 0.27 23739
-1.03323 0 0.27 23722.1
-0.981322 0 0.27 23707.3
-0.932014 0 0.27 23695.4
-0.885173 0 0.27 23686.4
-0.84068 0 0.27 23679.6
-0.798416 0 0.27 23675.1
-0.758473 0 0.27 23672.1
-0.720912 0 0.27 23670.5
-0.685558 0 0.27 23669.9
-0.652245 0 0.27 23669.8
-0.620811 0 0.27 23669.9
-0.591171 0 0.27 23669.9
-0.563165 0 0.27 23670.1
-0.536572 0 0.27 23670.9
-0.51125 0 0.27 23672.6
-0.487059 0 0.27 23675
-0.463863 0 0.27 23678.5
-0.441526 0 0.27 23683.1
-0.419915 0 0.27 23688.3
-0.398896 0 0.27 23693.9
-0.378338 0 0.27 23699.7
-0.358104 0 0.27 23705.4
-0.33806 0 0.27 23708.6
-0.318069 0 0.27 23736.5
-0.296809 0 0.27 23752.4
-0.275112 0 0.27 23736.1
-0.255001 0 0.27 23732.1
-0.23636 0 0.27 23758.1
-0.219081 0 0.27 23748.8
-0.203066 0 0.27 23728.3
-0.188221 0 0.27 23725.8
-0.174462 0 0.27 23723.5
-0.161708 0 0.27 23723.8
-0.149886 0 0.27 23724.7
-0.138929 0 0.27 23724.3
-0.128773 0 0.27 23724.7
-0.119359 0 0.27 23724.1
-0.110632 0 0.27 23724.2
-0.102544 0 0.27 23724.3
-0.0950472 0 0.27 23725
-0.0880983 0 0.27 23725.3
-0.0816572 0 0.27 23725.5
-0.0756869 0 0.27 23725.9
-0.070153 0 0.27 23724.2
-0.0650234 0 0.27 23740.4
-0.0602687 0 0.27 24440.5
-0.0558616 0 0.27 30368.2
-0.0517765 0 0.27 39692.1
-0.0479899 0 0.27 44254.1
-0.04448 0 0.27 46794.9
-0.0412265 0 0.27 48381.3
-0.0382106 0 0.27 49694.3
-0.0354151 0 0.27 50647.2
-0.0328237 0 0.27 51451
-0.0304215 0 0.27 52157.3
-0.0281948 0 0.27 52770.9
-0.0261306 0 0.27 53311.9
-0.0242171 0 0.27 53794.7
-0.0224431 0 0.27 54230.9
-0.0207985 0 0.27 54625.9
-0.0192738 0 0.27 54984.1
-0.0178602 0 0.27 55310.1
-0.0165496 0 0.27 55606.1
-0.0153345 0 0.27 55875.6
-0.0142077 0 0.27 56120.5
-0.0131629 0 0.27 56343.5
-0.0121939 0 0.27 56547.4
-0.0112952 0 0.27 56734.5
-0.0104616 0 0.27 56906.9
-0.0096884 0 0.27 57066.3
-0.00897103 0 0.27 57214.4
-0.00830536 0 0.27 57352.5
-0.00768758 0 0.27 57481.9
-0.0071141 0 0.27 57603.4
-0.00658165 0 0.27 57717.7
-0.00608714 0 0.27 57825.7
-0.00562772 0 0.27 57927.8
-0.00520074 0 0.27 58024.4
-0.00480375 0 0.27 58115.9
-0.00443446 0 0.27 58202.5
-0.00409073 0 0.27 58284.5
-0.00377059 0 0.27 58362.1
-0.00347218 0 0.27 58434.6
-0.00319379 0 0.27 58507.9
-0.00293381 0 0.27 58574
-0.00269075 0 0.27 58636.2
-0.00246319 0 0.27 58695.2
-0.00224984 0 0.27 58751.2
-0.00204945 0 0.27 58804
-0.00186089 0 0.27 58854.1
-0.00168306 0 0.27 58901
-0.00151492 0 0.27 58945.7
-0.00135552 0 0.27 58987.3
-0.00120394 0 0.27 59026.8
-0.00105929 0 0.27 59063
-0.000920752 0 0.27 59097.6
-0.000787523 0 0.27 59128.2
-0.000658834 0 0.27 59156.3
-0.000533942 0 0.27 59180.3
-0.000412129 0 0.27 59197.7
-0.000292693 0 0.27 59213.9
-0.000174943 0 0.27 59193.6
-5.82025e-05 0 0.27 59391.1
6.0278e-05 2.68374e-05 0.27 58674.6
0.000182584 8.12915e-05 0.27 58895.7
0.000308438 0.000137325 0.27 58854.2
0.000437939 0.000194983 0.27 58842
0.00057119 0.00025431 0.27 58831.4
0.000708293 0.000315353 0.27 58834.6
0.000849358 0.000378158 0.27 58847.1
0.000994492 0.000442776 0.27 58864.4
0.00114381 0.000509256 0.27 58889.1
0.00129743 0.000577649 0.27 58917
0.00145545 0.000648007 0.27 58950.2
0.00161801 0.000720386 0.27 58986.6
0.00178523 0.000794839 0.27 59027.4
0.00195724 0.000871423 0.27 59071.1
0.00213417 0.000950195 0.27 59118.7
0.00231614 0.00103122 0.27 59169.2
0.0025033 0.00111455 0.27 59223.2
0.00269579 0.00120024 0.27 59280.2
0.00289374 0.00128838 0.27 59340.4
0.00309731 0.00137901 0.27 59403.8
0.00330663 0.00147221 0.27 59471.5
0.00352187 0.00156804 0.27 59541.5
0.00374317 0.00166657 0.27 59614.4
0.0039707 0.00176788 0.27 59690.6
0.00420463 0.00187202 0.27 59770.1
0.00444512 0.0019791 0.27 59853.1
0.00469233 0.00208916 0.27 59939.5
0.00494645 0.0022023 0.27 60029.4
0.00520763 0.00231859 0.27 60122.8
0.00547608 0.00243811 0.27 60219.8
0.00575197 0.00256094 0.27 60320.5
0.00603549 0.00268717 0.27 60425
0.00632683 0.00281688 0.27 60533.4
0.00662618 0.00295016 0.27 60645.7
0.00693375 0.0030871 0.27 60762
0.00724974 0.0032278 0.27 60882.5
0.00757435 0.00337232 0.27 61007.3
0.0079078 0.00352077 0.27 61136.5
0.00825029 0.00367327 0.27 61270.2
0.00860204 0.00382988 0.27 61408.6
0.00896328 0.00399071 0.27 61551.8
0.00933422 0.00415586 0.27 61700.1
0.0097151 0.00432544 0.27 61853.7
0.0101061 0.00449954 0.27 62012.6
0.0105076 0.00467828 0.27 62177.2
0.0109197 0.00486175 0.27 62347.5
0.0113426 0.00505007 0.27 62524.1
0.0117768 0.00524333 0.27 62706.6
0.0122222 0.00544166 0.27 62895.9
0.0126792 0.00564515 0.27 63091.9
0.0131482 0.00585394 0.27 63295.2
0.0136292 0.00606812 0.27 63505.5
0.0141227 0.00628781 0.27 63723.6
0.0146288 0.00651313 0.27 63949.6
0.0151477 0.00674419 0.27 64183.5
0.0156799 0.00698113 0.27 64426
0.0162254 0.00722403 0.27 64677.2
0.0167847 0.00747303 0.27 64937.4
0.017358 0.00772826 0.27 65206.8
0.0179454 0.00798982 0.27 65485.7
0.0185474 0.00825783 0.27 65774.1
0.0191641 0.00853242 0.27 66072.3
0.0197959 0.00881371 0.27 66380.4
0.0204431 0.00910183 0.27 66698.6
0.0211057 0.00939688 0.27 67027.1
0.0217843 0.00969898 0.27 67365.9
0.0224789 0.0100083 0.27 67715.4
0.02319 0.0103248 0.27 68075.5
0.0239176 0.0106488 0.27 68446.7
0.0246623 0.0109804 0.27 68828.6
0.025424 0.0113195 0.27 69221.5
0.0262032 0.0116664 0.27 69625.4
0.0270001 0.0120212 0.27 70039.8
0.0278149 0.012384 0.27 70464.6
0.0286479 0.0127549 0.27 70900.2
0.0294992 0.0131339 0.27 71345.7
0.0303692 0.0135212 0.27 71802
0.0312581 0.013917 0.27 72268.5
0.0321659 0.0143213 0.27 72745.2
0.0330931 0.014734 0.27 73232.2
0.0340398 0.0151555 0.27 73729.2
0.0350062 0.0155858 0.27 74236.4
0.0359924 0.0160249 0.27 74753.2
0.0369987 0.0164729 0.27 75280.3
0.0380251 0.0169299 0.27 75815.7
0.0390719 0.0173959 0.27 76359.7
0.0401391 0.0178711 0.27 76910.7
0.041227 0.0183554 0.27 77466.8
0.0423356 0.018849 0.27 78029.3
0.043465 0.0193519 0.27 78596.9
0.0446154 0.0198641 0.27 79166.8
0.0457867 0.0203856 0.27 79739.1
0.046979 0.0209164 0.27 80311.2
0.0481924 0.0214567 0.27 80882.8
0.0494267 0.0220063 0.27 81451.8
0.0506823 0.0225652 0.27 82016.7
0.0519588 0.0231335 0.27 82576.4
0.0532563 0.0237113 0.27 83128.5
0.0545749 0.0242983 0.27 83673.2
0.0559142 0.0248946 0.27 84208.6
0.0572744 0.0255002 0.27 84735.4
0.0586552 0.0261149 0.27 85252.2
0.0600565 0.0267388 0.27 85760.3
0.0614781 0.0273718 0.27 86260
0.0629198 0.0280137 0.27 86751.5
0.0643815 0.0286645 0.27 87238
0.0658629 0.029324 0.27 87718.5
0.0673636 0.0299922 0.27 88195.4
0.0688836 0.030669 0.27 88667.7
0.0704223 0.0313541 0.27 89135.6
0.0719795 0.0320474 0.27 89600.4
0.0735549 0.0327488 0.27 90059.7
0.075148 0.0334581 0.27 90512.9
0.0767585 0.0341751 0.27 90958.8
0.0783859 0.0348996 0.27 91394.8
0.0800297 0.0356315 0.27 91822.7
0.0816895 0.0363706 0.27 92243.5
0.0833647 0.0371164 0.27 92651.2
0.085055 0.0378689 0.27 93048.9
0.0867595 0.0386278 0.27 93430.7
0.0884779 0.0393929 0.27 93796.1
0.0902095 0.0401639 0.27 94144.8
0.0919538 0.0409405 0.27 94475.4
0.09371 0.0417224 0.27 94786.7
0.0954776 0.0425094 0.27 95080.7
0.0972558 0.0433011 0.27 95359.4
0.0990439 0.0440972 0.27 95623.2
0.100841 0.0448975 0.27 95865.1
0.102647 0.0457015 0.27 96083.4
0.104461 0.046509 0.27 96299.3
0.106282 0.0473197 0.27 96490.8
0.108109 0.0481331 0.27 96685
0.109941 0.048949 0.27 96861.1
0.111779 0.0497671 0.27 97021.7
0.11362 0.0505868 0.27 97179.9
0.115464 0.051408 0.27 97368.9
0.117311 0.0522302 0.27 97541.2
0.11916 0.0530531 0.27 97706.1
0.121009 0.0538763 0.27 97926.6
0.122857 0.0546995 0.27 98137.3
0.124705 0.0555223 0.27 98347.9
0.126552 0.0563444 0.27 98579.5
0.128395 0.0571653 0.27 98825.9
0.130236 0.0579847 0.27 99081.2
0.132072 0.0588023 0.27 99343.2
0.133904 0.0596177 0.27 99606
0.13573 0.0604306 0.27 99847.7
0.137549 0.0612407 0.27 100055
0.139361 0.0620475 0.27 100247
0.141165 0.0628508 0.27 100387
0.14296 0.0636503 0.27 100558
0.144747 0.0644455 0.27 100694
0.146523 0.0652363 0.27 100783
0.148288 0.0660222 0.27 100848
0.150042 0.0668031 0.27 100872
0.151784 0.0675785 0.27 100902
0.153513 0.0683483 0.27 100865
0.155228 0.0691121 0.27 100837
0.15693 0.0698698 0.27 100821
0.158617 0.070621 0.27 100778
0.160289 0.0713654 0.27 100749
0.161946 0.072103 0.27 100700
0.163586 0.0728334 0.27 100643
0.165211 0.0735564 0.27 100605
0.166817 0.0742718 0.27 100567
0.168406 0.0749795 0.27 100543
0.169978 0.0756793 0.27 100545
0.171532 0.0763709 0.27 100582
0.173067 0.0770543 0.27 100601
0.174583 0.0777293 0.27 100636
0.17608 0.0783958 0.27 100732
0.177557 0.0790535 0.27 100863
0.179014 0.0797025 0.27 100937
0.180452 0.0803425 0.27 101062
0.18187 0.0809736 0.27 101252
0.183266 0.0815956 0.27 101470
0.184643 0.0822085 0.27 101728
0.185999 0.0828122 0.27 101989
0.187334 0.0834066 0.27 102245
0.188648 0.0839917 0.27 102549
0.189942 0.0845675 0.27 102822
0.191214 0.0851339 0.27 103196
0.192465 0.085691 0.27 103515
0.193695 0.0862387 0.27 103866
0.194904 0.086777 0.27 104237
0.196093 0.0873059 0.27 104595
0.197259 0.0878254 0.27 104934
0.198405 0.0883357 0.27 105273
0.19953 0.0888366 0.27 105623
0.200635 0.0893284 0.27 105982
0.201718 0.0898108 0.27 106291
0.202782 0.0902841 0.27 106576
0.203824 0.0907483 0.27 106846
0.204846 0.0912035 0.27 107065
0.205848 0.0916496 0.27 107288
0.206831 0.0920869 0.27 107512
0.207793 0.0925153 0.27 107704
0.208735 0.092935 0.27 107927
0.209658 0.093346 0.27 107810
