# wallHeatFlux  FACE_DATA 398
# x  y  z  wallHeatFlux
-0.7975 0 0.025 -653682
-0.79239 0 0.025 -120203
-0.787056 0 0.025 -70545.5
-0.781492 0 0.025 -67742
-0.775691 0 0.025 -70234.2
-0.769649 0 0.025 -72178.4
-0.763362 0 0.025 -73811.8
-0.756822 0 0.025 -74361.3
-0.750025 0 0.025 -74278.9
-0.742968 0 0.025 -73826
-0.735648 0 0.025 -73025.9
-0.72806 0 0.025 -72092
-0.720203 0 0.025 -71148.4
-0.712076 0 0.025 -70243.1
-0.703677 0 0.025 -69379.4
-0.695006 0 0.025 -68584.2
-0.686065 0 0.025 -67665.4
-0.676855 0 0.025 -66815.1
-0.667379 0 0.025 -66075.6
-0.65764 0 0.025 -65378.6
-0.647644 0 0.025 -64645.7
-0.637397 0 0.025 -64002
-0.626906 0 0.025 -63359.5
-0.616179 0 0.025 -62716.3
-0.605224 0 0.025 -62202.4
-0.594054 0 0.025 -61632.3
-0.582678 0 0.025 -61111.7
-0.57111 0 0.025 -60561.8
-0.559364 0 0.025 -60032.2
-0.547454 0 0.025 -59574.2
-0.535396 0 0.025 -59135.8
-0.523205 0 0.025 -58751.5
-0.510901 0 0.025 -58335.1
-0.4985 0 0.025 -57908
-0.486021 0 0.025 -57506.1
-0.473483 0 0.025 -57128.4
-0.460905 0 0.025 -56838.9
-0.448308 0 0.025 -56521.4
-0.435709 0 0.025 -56153.2
-0.42313 0 0.025 -55792.2
-0.41059 0 0.025 -55499.9
-0.39811 0 0.025 -55270.1
-0.385706 0 0.025 -55032.6
-0.373398 0 0.025 -54762.9
-0.361205 0 0.025 -54492
-0.349141 0 0.025 -54218.5
-0.337226 0 0.025 -53961
-0.325475 0 0.025 -53745.9
-0.313901 0 0.025 -53594.9
-0.30252 0 0.025 -53469.8
-0.291343 0 0.025 -53324.6
-0.280382 0 0.025 -53141.8
-0.269646 0 0.025 -52888.3
-0.259148 0 0.025 -52635.3
-0.248893 0 0.025 -52400.6
-0.23889 0 0.025 -52198.7
-0.229143 0 0.025 -52044.4
-0.219659 0 0.025 -51956.4
-0.210441 0 0.025 -51921.6
-0.201491 0 0.025 -51885.2
-0.192812 0 0.025 -51840.8
-0.184405 0 0.025 -51775
-0.176269 0 0.025 -51685.5
-0.168404 0 0.025 -51582.2
-0.160808 0 0.025 -51446.9
-0.15348 0 0.025 -51288.4
-0.146415 0 0.025 -51120.2
-0.13961 0 0.025 -50950.4
-0.133063 0 0.025 -50799
-0.126767 0 0.025 -50664.6
-0.120718 0 0.025 -50547
-0.11491 0 0.025 -50451.5
-0.109339 0 0.025 -50367.4
-0.103997 0 0.025 -50303.9
-0.0988805 0 0.025 -50250.5
-0.0939808 0 0.025 -50210
-0.0892928 0 0.025 -50181.9
-0.0848096 0 0.025 -50164.6
-0.0805248 0 0.025 -50158.6
-0.0764316 0 0.025 -50152.8
-0.0725237 0 0.025 -50152.5
-0.0687943 0 0.025 -50153.1
-0.065237 0 0.025 -50153
-0.0618454 0 0.025 -50154
-0.058613 0 0.025 -50148.8
-0.0555337 0 0.025 -50144.8
-0.0526013 0 0.025 -50145.3
-0.0498099 0 0.025 -50135.6
-0.0471536 0 0.025 -50131.2
-0.0446266 0 0.025 -50116.1
-0.0422235 0 0.025 -50106.4
-0.039939 0 0.025 -50091.4
-0.0377676 0 0.025 -50075.9
-0.0357044 0 0.025 -50056.3
-0.0337445 0 0.025 -49992.6
-0.0318832 0 0.025 -48133.6
-0.0301159 0 0.025 -38844.1
-0.0284383 0 0.025 -37578.3
-0.0268461 0 0.025 -57991.3
-0.0253353 0 0.025 -71346.6
-0.023902 0 0.025 -79256.1
-0.0225426 0 0.025 -85541.3
-0.0212532 0 0.025 -90506.3
-0.0200306 0 0.025 -94760.9
-0.0188715 0 0.025 -98626.3
-0.0177728 0 0.025 -102171
-0.0167313 0 0.025 -105464
-0.0157444 0 0.025 -108560
-0.0148092 0 0.025 -111484
-0.0139232 0 0.025 -114136
-0.0130838 0 0.025 -116485
-0.0122887 0 0.025 -118560
-0.0115356 0 0.025 -120376
-0.0108223 0 0.025 -121955
-0.0101469 0 0.025 -123314
-0.00950727 0 0.025 -124504
-0.00890168 0 0.025 -125599
-0.00832835 0 0.025 -126658
-0.00778557 0 0.025 -127746
-0.00727176 0 0.025 -128896
-0.0067854 0 0.025 -130150
-0.00632507 0 0.025 -131534
-0.00588937 0 0.025 -133049
-0.00547703 0 0.025 -134704
-0.0050868 0 0.025 -136500
-0.00471753 0 0.025 -138433
-0.0043681 0 0.025 -140540
-0.00403746 0 0.025 -142776
-0.00372461 0 0.025 -145139
-0.0034286 0 0.025 -147651
-0.00314855 0 0.025 -150348
-0.0028836 0 0.025 -153260
-0.00263294 0 0.025 -156258
-0.00239581 0 0.025 -159142
-0.0021715 0 0.025 -162173
-0.00195929 0 0.025 -165313
-0.00175856 0 0.025 -168554
-0.00156869 0 0.025 -171870
-0.00138908 0 0.025 -175290
-0.0012192 0 0.025 -178726
-0.00105853 0 0.025 -182198
-0.000906546 0 0.025 -185669
-0.000762803 0 0.025 -189053
-0.000626848 0 0.025 -192042
-0.000498265 0 0.025 -193858
-0.000376656 0 0.025 -192686
-0.000261642 0 0.025 -184608
-0.00015287 0 0.025 -161566
-5e-05 0 0.025 -104993
4.14519e-05 2.79596e-05 0.025 -76437.3
0.000125371 8.45641e-05 0.025 -90696.1
0.000211347 0.000142556 0.025 -106136
0.000299429 0.000201968 0.025 -117428
0.000389669 0.000262835 0.025 -127145
0.000482118 0.000325193 0.025 -136349
0.000576831 0.000389077 0.025 -144911
0.000673861 0.000454524 0.025 -152580
0.000773265 0.000521574 0.025 -159321
0.0008751 0.000590262 0.025 -165240
0.000979426 0.000660632 0.025 -170467
0.0010863 0.000732721 0.025 -175137
0.00119579 0.000806572 0.025 -179364
0.00130795 0.000882227 0.025 -183334
0.00142285 0.00095973 0.025 -187017
0.00154056 0.00103912 0.025 -190569
0.00166115 0.00112046 0.025 -193976
0.00178467 0.00120378 0.025 -197329
0.00191121 0.00128913 0.025 -200684
0.00204083 0.00137656 0.025 -203982
0.00217362 0.00146612 0.025 -207318
0.00230964 0.00155787 0.025 -210707
0.00244897 0.00165185 0.025 -214150
0.00259169 0.00174812 0.025 -217636
0.00273789 0.00184673 0.025 -221214
0.00288765 0.00194774 0.025 -224926
0.00304105 0.00205122 0.025 -228729
0.00319818 0.00215719 0.025 -232655
0.00335912 0.00226575 0.025 -236784
0.00352397 0.00237695 0.025 -241025
0.00369283 0.00249085 0.025 -245457
0.00386579 0.00260751 0.025 -250071
0.00404294 0.00272699 0.025 -254907
0.00422438 0.00284938 0.025 -259978
0.00441022 0.00297474 0.025 -265295
0.00460056 0.00310312 0.025 -270876
0.00479552 0.00323462 0.025 -276739
0.00499519 0.0033693 0.025 -283002
0.00519968 0.00350723 0.025 -289511
0.00540911 0.00364849 0.025 -296451
0.00562361 0.00379318 0.025 -303795
0.00584329 0.00394134 0.025 -311545
0.00606826 0.00409309 0.025 -319882
0.00629865 0.00424849 0.025 -328660
0.0065346 0.00440764 0.025 -338069
0.00677623 0.00457063 0.025 -348034
0.00702368 0.00473753 0.025 -358576
0.00727707 0.00490844 0.025 -369935
0.00753655 0.00508347 0.025 -382055
0.00780227 0.00526269 0.025 -395053
0.00807436 0.00544622 0.025 -409023
0.00835298 0.00563415 0.025 -424031
0.00863826 0.00582659 0.025 -440185
0.00893038 0.00602362 0.025 -457544
0.00922949 0.00622537 0.025 -476324
0.00953574 0.00643195 0.025 -496414
0.00984929 0.00664345 0.025 -518444
0.0101703 0.00686 0.025 -542020
0.0104991 0.00708171 0.025 -567970
0.0108356 0.00730871 0.025 -596141
0.0111801 0.0075411 0.025 -627156
0.0115329 0.00777902 0.025 -661410
0.011894 0.00802259 0.025 -699037
0.0122637 0.00827194 0.025 -740328
0.0126421 0.00852719 0.025 -783785
0.0130295 0.0087885 0.025 -830294
0.013426 0.00905597 0.025 -880208
0.013832 0.00932978 0.025 -925777
0.0142475 0.00961003 0.025 -967799
0.0146727 0.0098969 0.025 -1.01286e+06
0.0151081 0.0101905 0.025 -1.06282e+06
0.0155536 0.010491 0.025 -1.11838e+06
0.0160097 0.0107986 0.025 -1.17671e+06
0.0164764 0.0111134 0.025 -1.2406e+06
0.016954 0.0114356 0.025 -1.30682e+06
0.0174427 0.0117653 0.025 -1.37039e+06
0.0179429 0.0121026 0.025 -1.43648e+06
0.0184548 0.0124479 0.025 -1.5121e+06
0.0189786 0.0128013 0.025 -1.56738e+06
0.0195146 0.0131628 0.025 -1.62591e+06
0.020063 0.0135327 0.025 -1.69433e+06
0.0206242 0.0139112 0.025 -1.74337e+06
0.0211983 0.0142984 0.025 -1.7829e+06
0.0217857 0.0146947 0.025 -1.82902e+06
0.0223867 0.0151 0.025 -1.86984e+06
0.0230015 0.0155147 0.025 -1.90516e+06
0.0236304 0.0159389 0.025 -1.94537e+06
0.0242738 0.0163729 0.025 -1.95665e+06
0.0249318 0.0168167 0.025 -1.98046e+06
0.025605 0.0172708 0.025 -1.99779e+06
0.0262935 0.0177352 0.025 -1.97827e+06
0.0269977 0.0182102 0.025 -1.95317e+06
0.0277178 0.0186959 0.025 -1.91374e+06
0.0284544 0.0191927 0.025 -1.92444e+06
0.0292075 0.0197008 0.025 -1.85654e+06
0.0299777 0.0202203 0.025 -1.79129e+06
0.0307653 0.0207514 0.025 -1.74395e+06
0.0315704 0.0212945 0.025 -1.70338e+06
0.0323937 0.0218499 0.025 -1.66684e+06
0.0332354 0.0224176 0.025 -1.63088e+06
0.0340959 0.022998 0.025 -1.60114e+06
0.0349755 0.0235913 0.025 -1.5641e+06
0.0358747 0.0241978 0.025 -1.55776e+06
0.0367938 0.0248178 0.025 -1.51818e+06
0.0377331 0.0254513 0.025 -1.48814e+06
0.0386932 0.0260989 0.025 -1.46459e+06
0.0396743 0.0267606 0.025 -1.44529e+06
0.0406769 0.0274369 0.025 -1.4303e+06
0.0417013 0.0281279 0.025 -1.41052e+06
0.042748 0.0288339 0.025 -1.41214e+06
0.0438175 0.0295552 0.025 -1.39612e+06
0.04491 0.0302922 0.025 -1.37411e+06
0.0460262 0.031045 0.025 -1.3755e+06
0.0471662 0.031814 0.025 -1.38014e+06
0.0483306 0.0325995 0.025 -1.36511e+06
0.0495199 0.0334016 0.025 -1.36242e+06
0.0507344 0.0342208 0.025 -1.35835e+06
0.0519746 0.0350573 0.025 -1.35383e+06
0.0532409 0.0359114 0.025 -1.36492e+06
0.0545339 0.0367835 0.025 -1.35058e+06
0.0558538 0.0376739 0.025 -1.34104e+06
0.0572012 0.0385827 0.025 -1.33556e+06
0.0585766 0.0395104 0.025 -1.33356e+06
0.0599804 0.0404573 0.025 -1.339e+06
0.061413 0.0414236 0.025 -1.32173e+06
0.0628748 0.0424096 0.025 -1.34482e+06
0.0643665 0.0434157 0.025 -1.34067e+06
0.0658883 0.0444422 0.025 -1.31715e+06
0.0674408 0.0454894 0.025 -1.31152e+06
0.0690245 0.0465576 0.025 -1.31367e+06
0.0706398 0.0476471 0.025 -1.30713e+06
0.0722871 0.0487582 0.025 -1.3015e+06
0.0739669 0.0498912 0.025 -1.29596e+06
0.0756797 0.0510466 0.025 -1.3036e+06
0.0774258 0.0522244 0.025 -1.31469e+06
0.0792059 0.053425 0.025 -1.3054e+06
0.0810203 0.0546489 0.025 -1.32212e+06
0.0828694 0.0558961 0.025 -1.2936e+06
0.0847537 0.0571671 0.025 -1.33058e+06
0.0866737 0.0584622 0.025 -1.29507e+06
0.0886298 0.0597816 0.025 -1.29283e+06
0.0906224 0.0611256 0.025 -1.29955e+06
0.0926518 0.0624944 0.025 -1.2664e+06
0.0947185 0.0638884 0.025 -1.30258e+06
0.096823 0.065308 0.025 -1.26419e+06
0.0989659 0.0667532 0.025 -1.33958e+06
0.101147 0.0682245 0.025 -1.65989e+06
0.103367 0.0697219 0.025 -1.57786e+06
0.105626 0.0712458 0.025 -1.21628e+06
0.107926 0.0727965 0.025 -1.20535e+06
0.110265 0.074374 0.025 -1.24052e+06
0.112644 0.0759789 0.025 -1.7677e+06
0.115063 0.0776111 0.025 -1.24036e+06
0.117524 0.0792709 0.025 -1.65148e+06
0.120026 0.0809585 0.025 -1.79754e+06
0.122569 0.0826741 0.025 -1.61818e+06
0.125155 0.0844179 0.025 -1.46468e+06
0.127782 0.0861901 0.025 -1.2868e+06
0.130451 0.0879908 0.025 -1.24666e+06
0.133163 0.08982 0.025 -1.22574e+06
0.135918 0.0916781 0.025 -1.19756e+06
0.138716 0.0935651 0.025 -1.19148e+06
0.141556 0.095481 0.025 -1.19504e+06
0.14444 0.097426 0.025 -1.5276e+06
0.147367 0.0994004 0.025 -2.11522e+06
0.150337 0.101404 0.025 -1.60924e+06
0.153351 0.103437 0.025 -1.56003e+06
0.156408 0.105498 0.025 -2.03621e+06
0.159508 0.107589 0.025 -1.03728e+06
0.162651 0.10971 0.025 -1.46691e+06
0.165838 0.111859 0.025 -2.52479e+06
0.169069 0.114039 0.025 -1.61381e+06
0.172343 0.116247 0.025 -1.86162e+06
0.175659 0.118483 0.025 -1.76919e+06
0.179018 0.120749 0.025 -1.77356e+06
0.182421 0.123045 0.025 -1.80591e+06
0.185866 0.125368 0.025 -1.63362e+06
0.189353 0.12772 0.025 -1.62785e+06
0.192882 0.1301 0.025 -1.71184e+06
0.196453 0.132509 0.025 -1.60744e+06
0.200065 0.134946 0.025 -1.86063e+06
0.203718 0.13741 0.025 -1.74619e+06
0.207412 0.139901 0.025 -929005
0.211146 0.14242 0.025 -986577
0.214919 0.144965 0.025 -1.53606e+06
0.218732 0.147537 0.025 -985824
0.222583 0.150134 0.025 -1.73475e+06
0.226472 0.152757 0.025 -978108
0.230399 0.155406 0.025 -1.68681e+06
0.234362 0.15808 0.025 -1.58765e+06
0.238362 0.160777 0.025 -1.96112e+06
0.242396 0.163498 0.025 -1.76222e+06
0.246466 0.166244 0.025 -1.87195e+06
0.250569 0.169012 0.025 -937224
0.254706 0.171801 0.025 -1.44839e+06
0.258874 0.174613 0.025 -1.44067e+06
0.263074 0.177446 0.025 -1.74755e+06
0.267304 0.180299 0.025 -1.48093e+06
0.271564 0.183172 0.025 -941816
0.275852 0.186064 0.025 -1.50309e+06
0.280168 0.188975 0.025 -914188
0.28451 0.191904 0.025 -1.52285e+06
0.288876 0.19485 0.025 -1.93677e+06
0.293268 0.197812 0.025 -1.51651e+06
0.297683 0.20079 0.025 -1.70142e+06
0.302119 0.203782 0.025 -1.86732e+06
0.306577 0.206788 0.025 -1.38655e+06
0.311054 0.209808 0.025 -1.48966e+06
0.315549 0.212841 0.025 -1.14396e+06
0.320063 0.215885 0.025 -1.70847e+06
0.324591 0.218939 0.025 -1.28482e+06
0.329134 0.222003 0.025 -1.31443e+06
0.333691 0.225077 0.025 -1.84083e+06
0.33826 0.228159 0.025 -1.64727e+06
0.342839 0.231248 0.025 -1.66658e+06
0.347428 0.234343 0.025 -872374
0.352025 0.237444 0.025 -1.69855e+06
0.356628 0.240548 0.025 -1.32893e+06
0.361237 0.243658 0.025 -1.11662e+06
0.36585 0.246769 0.025 -1.99561e+06
0.370465 0.249882 0.025 -1.10452e+06
0.375082 0.252996 0.025 -1.40872e+06
0.379698 0.25611 0.025 -1.9693e+06
0.384313 0.259223 0.025 -1.3322e+06
0.388926 0.262333 0.025 -1.52154e+06
0.393534 0.265442 0.025 -1.30835e+06
0.398136 0.268546 0.025 -870049
0.40273 0.271645 0.025 -1.48017e+06
0.407317 0.274739 0.025 -1.527e+06
0.411894 0.277826 0.025 -1.77925e+06
0.41646 0.280906 0.025 -848865
0.421014 0.283977 0.025 -1.46171e+06
0.425554 0.28704 0.025 -1.61634e+06
0.430079 0.290092 0.025 -1.36257e+06
0.434588 0.293133 0.025 -1.58465e+06
0.439079 0.296162 0.025 -1.21149e+06
0.443551 0.299179 0.025 -1.50763e+06
0.448004 0.302183 0.025 -1.51661e+06
0.452437 0.305172 0.025 -1.49538e+06
0.456846 0.308146 0.025 -1.39929e+06
0.461232 0.311105 0.025 -1.41734e+06
0.465593 0.314047 0.025 -1.33929e+06
0.469929 0.316971 0.025 -1.66837e+06
0.474238 0.319878 0.025 -976994
0.47852 0.322766 0.025 -1.06971e+06
0.482773 0.325635 0.025 -863727
0.486996 0.328483 0.025 -1.22932e+06
0.491189 0.331311 0.025 -1.70705e+06
0.49535 0.334118 0.025 -1.19745e+06
