# Wall heat-flux
# Time        	patch         	min           	max           	integral      
100           	base	-2.524791e+06	-3.757835e+04	-9.097211e+03
