# wallHeatFlux  FACE_DATA 398
# x  y  z  wallHeatFlux
-0.7975 0 0.025 -653671
-0.79239 0 0.025 -120082
-0.787056 0 0.025 -71265.6
-0.781492 0 0.025 -63872.3
-0.775691 0 0.025 -65273.9
-0.769649 0 0.025 -65995
-0.763362 0 0.025 -66500.2
-0.756822 0 0.025 -66404.1
-0.750025 0 0.025 -65898.2
-0.742968 0 0.025 -65132.1
-0.735648 0 0.025 -64210.2
-0.72806 0 0.025 -63244.9
-0.720203 0 0.025 -62290.8
-0.712076 0 0.025 -61417.4
-0.703677 0 0.025 -60596.4
-0.695006 0 0.025 -59822.4
-0.686065 0 0.025 -59090.4
-0.676855 0 0.025 -58443.2
-0.667379 0 0.025 -57709.2
-0.65764 0 0.025 -57028.4
-0.647644 0 0.025 -56472.6
-0.637397 0 0.025 -55894
-0.626906 0 0.025 -55278.8
-0.616179 0 0.025 -54787
-0.605224 0 0.025 -54268.8
-0.594054 0 0.025 -53786
-0.582678 0 0.025 -53267.3
-0.57111 0 0.025 -52805.6
-0.559364 0 0.025 -52369.7
-0.547454 0 0.025 -52011.2
-0.535396 0 0.025 -51575.8
-0.523205 0 0.025 -51157.5
-0.510901 0 0.025 -50771.5
-0.4985 0 0.025 -50397.1
-0.486021 0 0.025 -50101.9
-0.473483 0 0.025 -49804.4
-0.460905 0 0.025 -49471.7
-0.448308 0 0.025 -49138
-0.435709 0 0.025 -48818.6
-0.42313 0 0.025 -48512.2
-0.41059 0 0.025 -48274.6
-0.39811 0 0.025 -48089
-0.385706 0 0.025 -47869.2
-0.373398 0 0.025 -47611.7
-0.361205 0 0.025 -47342.5
-0.349141 0 0.025 -47081.8
-0.337226 0 0.025 -46853.3
-0.325475 0 0.025 -46661.7
-0.313901 0 0.025 -46513
-0.30252 0 0.025 -46379.5
-0.291343 0 0.025 -46241.9
-0.280382 0 0.025 -46082.7
-0.269646 0 0.025 -45911.9
-0.259148 0 0.025 -45736.3
-0.248893 0 0.025 -45567.9
-0.23889 0 0.025 -45416
-0.229143 0 0.025 -45274.4
-0.219659 0 0.025 -45139.9
-0.210441 0 0.025 -44999.8
-0.201491 0 0.025 -44857.7
-0.192812 0 0.025 -44713.2
-0.184405 0 0.025 -44584.2
-0.176269 0 0.025 -44474.6
-0.168404 0 0.025 -44382.9
-0.160808 0 0.025 -44318.1
-0.15348 0 0.025 -44283.1
-0.146415 0 0.025 -44264.9
-0.13961 0 0.025 -44250.8
-0.133063 0 0.025 -44227.9
-0.126767 0 0.025 -44205.9
-0.120718 0 0.025 -44179.1
-0.11491 0 0.025 -44137
-0.109339 0 0.025 -44084.9
-0.103997 0 0.025 -44021.3
-0.0988805 0 0.025 -43945.8
-0.0939808 0 0.025 -43862.3
-0.0892928 0 0.025 -43780.2
-0.0848096 0 0.025 -43692.8
-0.0805248 0 0.025 -43605.9
-0.0764316 0 0.025 -43524.6
-0.0725237 0 0.025 -43448.7
-0.0687943 0 0.025 -43379
-0.065237 0 0.025 -43313.9
-0.0618454 0 0.025 -43249.9
-0.058613 0 0.025 -43195.7
-0.0555337 0 0.025 -43142.6
-0.0526013 0 0.025 -43099.5
-0.0498099 0 0.025 -43056.7
-0.0471536 0 0.025 -43024.7
-0.0446266 0 0.025 -42992.6
-0.0422235 0 0.025 -42966
-0.039939 0 0.025 -42939.3
-0.0377676 0 0.025 -42917.6
-0.0357044 0 0.025 -42902.3
-0.0337445 0 0.025 -42886
-0.0318832 0 0.025 -42870
-0.0301159 0 0.025 -42237.5
-0.0284383 0 0.025 -36951.1
-0.0268461 0 0.025 -32971.7
-0.0253353 0 0.025 -50496.1
-0.023902 0 0.025 -64399.3
-0.0225426 0 0.025 -72640.6
-0.0212532 0 0.025 -78054.3
-0.0200306 0 0.025 -82994.3
-0.0188715 0 0.025 -87330.4
-0.0177728 0 0.025 -90932.5
-0.0167313 0 0.025 -94181.5
-0.0157444 0 0.025 -97163.3
-0.0148092 0 0.025 -99967.2
-0.0139232 0 0.025 -102601
-0.0130838 0 0.025 -105007
-0.0122887 0 0.025 -107155
-0.0115356 0 0.025 -109040
-0.0108223 0 0.025 -110681
-0.0101469 0 0.025 -112125
-0.00950727 0 0.025 -113409
-0.00890168 0 0.025 -114588
-0.00832835 0 0.025 -115709
-0.00778557 0 0.025 -116838
-0.00727176 0 0.025 -118017
-0.0067854 0 0.025 -119280
-0.00632507 0 0.025 -120638
-0.00588937 0 0.025 -122107
-0.00547703 0 0.025 -123678
-0.0050868 0 0.025 -125352
-0.00471753 0 0.025 -127129
-0.0043681 0 0.025 -129020
-0.00403746 0 0.025 -131056
-0.00372461 0 0.025 -133185
-0.0034286 0 0.025 -135446
-0.00314855 0 0.025 -137869
-0.0028836 0 0.025 -140510
-0.00263294 0 0.025 -143262
-0.00239581 0 0.025 -145891
-0.0021715 0 0.025 -148691
-0.00195929 0 0.025 -151632
-0.00175856 0 0.025 -154681
-0.00156869 0 0.025 -157839
-0.00138908 0 0.025 -161115
-0.0012192 0 0.025 -164477
-0.00105853 0 0.025 -167926
-0.000906546 0 0.025 -171428
-0.000762803 0 0.025 -174842
-0.000626848 0 0.025 -177891
-0.000498265 0 0.025 -179704
-0.000376656 0 0.025 -178344
-0.000261642 0 0.025 -170034
-0.00015287 0 0.025 -147685
-5e-05 0 0.025 -95812.8
4.14519e-05 2.79596e-05 0.025 -67906.4
0.000125371 8.45641e-05 0.025 -81591.4
0.000211347 0.000142556 0.025 -97025.3
0.000299429 0.000201968 0.025 -108050
0.000389669 0.000262835 0.025 -117320
0.000482118 0.000325193 0.025 -126193
0.000576831 0.000389077 0.025 -134574
0.000673861 0.000454524 0.025 -142196
0.000773265 0.000521574 0.025 -148957
0.0008751 0.000590262 0.025 -154932
0.000979426 0.000660632 0.025 -160220
0.0010863 0.000732721 0.025 -164934
0.00119579 0.000806572 0.025 -169280
0.00130795 0.000882227 0.025 -173306
0.00142285 0.00095973 0.025 -177059
0.00154056 0.00103912 0.025 -180678
0.00166115 0.00112046 0.025 -184168
0.00178467 0.00120378 0.025 -187629
0.00191121 0.00128913 0.025 -191081
0.00204083 0.00137656 0.025 -194483
0.00217362 0.00146612 0.025 -197950
0.00230964 0.00155787 0.025 -201470
0.00244897 0.00165185 0.025 -205008
0.00259169 0.00174812 0.025 -208631
0.00273789 0.00184673 0.025 -212365
0.00288765 0.00194774 0.025 -216233
0.00304105 0.00205122 0.025 -220195
0.00319818 0.00215719 0.025 -224294
0.00335912 0.00226575 0.025 -228589
0.00352397 0.00237695 0.025 -233014
0.00369283 0.00249085 0.025 -237652
0.00386579 0.00260751 0.025 -242485
0.00404294 0.00272699 0.025 -247538
0.00422438 0.00284938 0.025 -252856
0.00441022 0.00297474 0.025 -258447
0.00460056 0.00310312 0.025 -264302
0.00479552 0.00323462 0.025 -270437
0.00499519 0.0033693 0.025 -276960
0.00519968 0.00350723 0.025 -283772
0.00540911 0.00364849 0.025 -291042
0.00562361 0.00379318 0.025 -298710
0.00584329 0.00394134 0.025 -306807
0.00606826 0.00409309 0.025 -315463
0.00629865 0.00424849 0.025 -324565
0.0065346 0.00440764 0.025 -334266
0.00677623 0.00457063 0.025 -344612
0.00702368 0.00473753 0.025 -355575
0.00727707 0.00490844 0.025 -367438
0.00753655 0.00508347 0.025 -379936
0.00780227 0.00526269 0.025 -393227
0.00807436 0.00544622 0.025 -407669
0.00835298 0.00563415 0.025 -423107
0.00863826 0.00582659 0.025 -439988
0.00893038 0.00602362 0.025 -458515
0.00922949 0.00622537 0.025 -477969
0.00953574 0.00643195 0.025 -498433
0.00984929 0.00664345 0.025 -521730
0.0101703 0.00686 0.025 -547064
0.0104991 0.00708171 0.025 -575379
0.0108356 0.00730871 0.025 -609117
0.0111801 0.0075411 0.025 -645209
0.0115329 0.00777902 0.025 -684808
0.011894 0.00802259 0.025 -728247
0.0122637 0.00827194 0.025 -775329
0.0126421 0.00852719 0.025 -820299
0.0130295 0.0087885 0.025 -864242
0.013426 0.00905597 0.025 -909844
0.013832 0.00932978 0.025 -953174
0.0142475 0.00961003 0.025 -996765
0.0146727 0.0098969 0.025 -1.03722e+06
0.0151081 0.0101905 0.025 -1.07876e+06
0.0155536 0.010491 0.025 -1.12335e+06
0.0160097 0.0107986 0.025 -1.16963e+06
0.0164764 0.0111134 0.025 -1.21985e+06
0.016954 0.0114356 0.025 -1.27315e+06
0.0174427 0.0117653 0.025 -1.32532e+06
0.0179429 0.0121026 0.025 -1.38211e+06
0.0184548 0.0124479 0.025 -1.44985e+06
0.0189786 0.0128013 0.025 -1.496e+06
0.0195146 0.0131628 0.025 -1.54743e+06
0.020063 0.0135327 0.025 -1.60785e+06
0.0206242 0.0139112 0.025 -1.64701e+06
0.0211983 0.0142984 0.025 -1.67604e+06
0.0217857 0.0146947 0.025 -1.71043e+06
0.0223867 0.0151 0.025 -1.7389e+06
0.0230015 0.0155147 0.025 -1.76253e+06
0.0236304 0.0159389 0.025 -1.79272e+06
0.0242738 0.0163729 0.025 -1.79615e+06
0.0249318 0.0168167 0.025 -1.8143e+06
0.025605 0.0172708 0.025 -1.82684e+06
0.0262935 0.0177352 0.025 -1.80494e+06
0.0269977 0.0182102 0.025 -1.77746e+06
0.0277178 0.0186959 0.025 -1.7372e+06
0.0284544 0.0191927 0.025 -1.74788e+06
0.0292075 0.0197008 0.025 -1.67947e+06
0.0299777 0.0202203 0.025 -1.63349e+06
0.0307653 0.0207514 0.025 -1.60106e+06
0.0315704 0.0212945 0.025 -1.57367e+06
0.0323937 0.0218499 0.025 -1.54942e+06
0.0332354 0.0224176 0.025 -1.52344e+06
0.0340959 0.022998 0.025 -1.49984e+06
0.0349755 0.0235913 0.025 -1.46691e+06
0.0358747 0.0241978 0.025 -1.46472e+06
0.0367938 0.0248178 0.025 -1.42947e+06
0.0377331 0.0254513 0.025 -1.40526e+06
0.0386932 0.0260989 0.025 -1.38701e+06
0.0396743 0.0267606 0.025 -1.36913e+06
0.0406769 0.0274369 0.025 -1.35861e+06
0.0417013 0.0281279 0.025 -1.34198e+06
0.042748 0.0288339 0.025 -1.34343e+06
0.0438175 0.0295552 0.025 -1.32994e+06
0.04491 0.0302922 0.025 -1.31315e+06
0.0460262 0.031045 0.025 -1.31543e+06
0.0471662 0.031814 0.025 -1.32023e+06
0.0483306 0.0325995 0.025 -1.30687e+06
0.0495199 0.0334016 0.025 -1.3109e+06
0.0507344 0.0342208 0.025 -1.30747e+06
0.0519746 0.0350573 0.025 -1.30559e+06
0.0532409 0.0359114 0.025 -1.30944e+06
0.0545339 0.0367835 0.025 -1.29502e+06
0.0558538 0.0376739 0.025 -1.29145e+06
0.0572012 0.0385827 0.025 -1.28902e+06
0.0585766 0.0395104 0.025 -1.28698e+06
0.0599804 0.0404573 0.025 -1.29531e+06
0.061413 0.0414236 0.025 -1.28115e+06
0.0628748 0.0424096 0.025 -1.30882e+06
0.0643665 0.0434157 0.025 -1.3124e+06
0.0658883 0.0444422 0.025 -1.28747e+06
0.0674408 0.0454894 0.025 -1.27543e+06
0.0690245 0.0465576 0.025 -1.27606e+06
0.0706398 0.0476471 0.025 -1.26769e+06
0.0722871 0.0487582 0.025 -1.26261e+06
0.0739669 0.0498912 0.025 -1.26217e+06
0.0756797 0.0510466 0.025 -1.27343e+06
0.0774258 0.0522244 0.025 -1.28596e+06
0.0792059 0.053425 0.025 -1.2787e+06
0.0810203 0.0546489 0.025 -1.29808e+06
0.0828694 0.0558961 0.025 -1.26782e+06
0.0847537 0.0571671 0.025 -1.30935e+06
0.0866737 0.0584622 0.025 -1.26961e+06
0.0886298 0.0597816 0.025 -1.27031e+06
0.0906224 0.0611256 0.025 -1.28206e+06
0.0926518 0.0624944 0.025 -1.24968e+06
0.0947185 0.0638884 0.025 -1.29298e+06
0.096823 0.065308 0.025 -1.25139e+06
0.0989659 0.0667532 0.025 -1.33571e+06
0.101147 0.0682245 0.025 -1.681e+06
0.103367 0.0697219 0.025 -1.58546e+06
0.105626 0.0712458 0.025 -1.19636e+06
0.107926 0.0727965 0.025 -1.19112e+06
0.110265 0.074374 0.025 -1.22977e+06
0.112644 0.0759789 0.025 -1.83011e+06
0.115063 0.0776111 0.025 -1.23317e+06
0.117524 0.0792709 0.025 -1.70618e+06
0.120026 0.0809585 0.025 -1.87323e+06
0.122569 0.0826741 0.025 -1.66156e+06
0.125155 0.0844179 0.025 -1.48361e+06
0.127782 0.0861901 0.025 -1.28581e+06
0.130451 0.0879908 0.025 -1.2445e+06
0.133163 0.08982 0.025 -1.22105e+06
0.135918 0.0916781 0.025 -1.1919e+06
0.138716 0.0935651 0.025 -1.19335e+06
0.141556 0.095481 0.025 -1.20301e+06
0.14444 0.097426 0.025 -1.58213e+06
0.147367 0.0994004 0.025 -2.35427e+06
0.150337 0.101404 0.025 -1.66217e+06
0.153351 0.103437 0.025 -1.61098e+06
0.156408 0.105498 0.025 -2.25789e+06
0.159508 0.107589 0.025 -1.02244e+06
0.162651 0.10971 0.025 -1.5085e+06
0.165838 0.111859 0.025 -3.65914e+06
0.169069 0.114039 0.025 -1.61457e+06
0.172343 0.116247 0.025 -1.97546e+06
0.175659 0.118483 0.025 -1.87278e+06
0.179018 0.120749 0.025 -1.87002e+06
0.182421 0.123045 0.025 -1.9371e+06
0.185866 0.125368 0.025 -1.69826e+06
0.189353 0.12772 0.025 -1.73608e+06
0.192882 0.1301 0.025 -1.8427e+06
0.196453 0.132509 0.025 -1.74364e+06
0.200065 0.134946 0.025 -2.16199e+06
0.203718 0.13741 0.025 -1.94385e+06
0.207412 0.139901 0.025 -922994
0.211146 0.14242 0.025 -986030
0.214919 0.144965 0.025 -1.61429e+06
0.218732 0.147537 0.025 -986223
0.222583 0.150134 0.025 -1.94741e+06
0.226472 0.152757 0.025 -975743
0.230399 0.155406 0.025 -1.82744e+06
0.234362 0.15808 0.025 -1.72268e+06
0.238362 0.160777 0.025 -2.36566e+06
0.242396 0.163498 0.025 -1.95035e+06
0.246466 0.166244 0.025 -2.11224e+06
0.250569 0.169012 0.025 -929072
0.254706 0.171801 0.025 -1.52954e+06
0.258874 0.174613 0.025 -1.53164e+06
0.263074 0.177446 0.025 -1.95084e+06
0.267304 0.180299 0.025 -1.57657e+06
0.271564 0.183172 0.025 -946710
0.275852 0.186064 0.025 -1.62243e+06
0.280168 0.188975 0.025 -922992
0.28451 0.191904 0.025 -1.64897e+06
0.288876 0.19485 0.025 -2.28628e+06
0.293268 0.197812 0.025 -1.60409e+06
0.297683 0.20079 0.025 -1.92893e+06
0.302119 0.203782 0.025 -2.20586e+06
0.306577 0.206788 0.025 -1.41648e+06
0.311054 0.209808 0.025 -1.57573e+06
0.315549 0.212841 0.025 -1.16409e+06
0.320063 0.215885 0.025 -2.03204e+06
0.324591 0.218939 0.025 -1.42466e+06
0.329134 0.222003 0.025 -1.40925e+06
0.333691 0.225077 0.025 -2.22575e+06
0.33826 0.228159 0.025 -1.77936e+06
0.342839 0.231248 0.025 -1.8276e+06
0.347428 0.234343 0.025 -872419
0.352025 0.237444 0.025 -1.93122e+06
0.356628 0.240548 0.025 -1.40982e+06
0.361237 0.243658 0.025 -1.15319e+06
0.36585 0.246769 0.025 -2.59264e+06
0.370465 0.249882 0.025 -1.01869e+06
0.375082 0.252996 0.025 -1.44855e+06
0.379698 0.25611 0.025 -2.58619e+06
0.384313 0.259223 0.025 -1.3981e+06
0.388926 0.262333 0.025 -1.70878e+06
0.393534 0.265442 0.025 -1.40623e+06
0.398136 0.268546 0.025 -878946
0.40273 0.271645 0.025 -1.62598e+06
0.407317 0.274739 0.025 -1.67836e+06
0.411894 0.277826 0.025 -2.13251e+06
0.41646 0.280906 0.025 -833794
0.421014 0.283977 0.025 -1.58801e+06
0.425554 0.28704 0.025 -1.85391e+06
0.430079 0.290092 0.025 -1.47878e+06
0.434588 0.293133 0.025 -1.82556e+06
0.439079 0.296162 0.025 -1.27536e+06
0.443551 0.299179 0.025 -1.65796e+06
0.448004 0.302183 0.025 -1.69006e+06
0.452437 0.305172 0.025 -1.6498e+06
0.456846 0.308146 0.025 -1.533e+06
0.461232 0.311105 0.025 -1.5584e+06
0.465593 0.314047 0.025 -1.4434e+06
0.469929 0.316971 0.025 -1.92284e+06
0.474238 0.319878 0.025 -990167
0.47852 0.322766 0.025 -1.10965e+06
0.482773 0.325635 0.025 -880632
0.486996 0.328483 0.025 -1.32456e+06
0.491189 0.331311 0.025 -2.02379e+06
0.49535 0.334118 0.025 -1.28253e+06
