# Wall heat-flux
# Time        	patch         	min           	max           	integral      
1700          	base	-1.979860e+06	-6.135942e+04	-3.099121e+02
