/*--------------------------------*- C++ -*----------------------------------*\
| =========                 |                                                 |
| \\      /  F ield         | OpenFOAM: The Open Source CFD Toolbox           |
|  \\    /   O peration     | Version:  v2012                                 |
|   \\  /    A nd           | Website:  www.openfoam.com                      |
|    \\/     M anipulation  |                                                 |
\*---------------------------------------------------------------------------*/
FoamFile
{
    version     2.0;
    format      ascii;
    class       volScalarField;
    location    "12000";
    object      alphat;
}
// * * * * * * * * * * * * * * * * * * * * * * * * * * * * * * * * * * * * * //

dimensions      [1 -1 -1 0 0 0 0];


internalField   nonuniform List<scalar> 
27324
(
2.41945e-05
2.32666e-05
5.75368e-05
2.2263e-05
5.67309e-05
6.06897e-05
2.12816e-05
5.56253e-05
5.87064e-05
4.19553e-05
2.02818e-05
5.44792e-05
5.64039e-05
3.98968e-05
2.27589e-05
1.92573e-05
5.31246e-05
5.40969e-05
3.75678e-05
2.15065e-05
1.10565e-05
1.82231e-05
5.15051e-05
5.16507e-05
3.52816e-05
1.99966e-05
1.04445e-05
5.04431e-06
1.72179e-05
4.96285e-05
4.90498e-05
3.3002e-05
1.85068e-05
9.62876e-06
4.76157e-06
2.19804e-06
1.62891e-05
4.75949e-05
4.63332e-05
3.07578e-05
1.70569e-05
8.81185e-06
4.35499e-06
2.0711e-06
9.35961e-07
1.54356e-05
4.55489e-05
4.35999e-05
2.85873e-05
1.56906e-05
8.02339e-06
3.94443e-06
1.88263e-06
8.83528e-07
4.13334e-07
1.46394e-05
4.34866e-05
4.09558e-05
2.65183e-05
1.44331e-05
7.29868e-06
3.55177e-06
1.6933e-06
8.04829e-07
3.94192e-07
2.03632e-07
1.38844e-05
4.13416e-05
3.83837e-05
2.45369e-05
1.32698e-05
6.652e-06
3.19802e-06
1.51549e-06
7.27031e-07
3.64857e-07
1.97247e-07
1.13184e-07
1.31607e-05
3.90508e-05
3.58254e-05
2.2601e-05
1.21348e-05
6.064e-06
2.88991e-06
1.35928e-06
6.55677e-07
3.36268e-07
1.86821e-07
1.11033e-07
6.79187e-08
1.24514e-05
3.65738e-05
3.32253e-05
2.06832e-05
1.09927e-05
5.48076e-06
2.61485e-06
1.22687e-06
5.94601e-07
3.10483e-07
1.76687e-07
1.07048e-07
6.70744e-08
4.20679e-08
1.17002e-05
3.38507e-05
3.05322e-05
1.87686e-05
9.84553e-06
4.88495e-06
2.34326e-06
1.11157e-06
5.44129e-07
2.88786e-07
1.67543e-07
1.03118e-07
6.52463e-08
4.16331e-08
2.62182e-08
1.08939e-05
3.06826e-05
2.76706e-05
1.68387e-05
8.71042e-06
4.29032e-06
2.06896e-06
9.99894e-07
5.01185e-07
2.71142e-07
1.59842e-07
9.94937e-08
6.33961e-08
4.06147e-08
2.59479e-08
1.63151e-08
1.00486e-05
2.70492e-05
2.45296e-05
1.48697e-05
7.5966e-06
3.71919e-06
1.80256e-06
8.89554e-07
4.60403e-07
2.56356e-07
1.53572e-07
9.63652e-08
6.16492e-08
3.95555e-08
2.53249e-08
1.61369e-08
1.01935e-08
9.16989e-06
2.3078e-05
2.11678e-05
1.29329e-05
6.51087e-06
3.18424e-06
1.55691e-06
7.85541e-07
4.20949e-07
2.42454e-07
1.48295e-07
9.37453e-08
6.00832e-08
3.85353e-08
2.46579e-08
1.57562e-08
1.00734e-08
6.44267e-09
8.24346e-06
1.88981e-05
1.77406e-05
1.11302e-05
5.55867e-06
2.69281e-06
1.33776e-06
6.92984e-07
3.84613e-07
2.29085e-07
1.4324e-07
9.14599e-08
5.8715e-08
3.75964e-08
2.40062e-08
1.53361e-08
9.85041e-09
6.34914e-09
4.18255e-09
6.56062e-06
1.45877e-05
1.43604e-05
9.47938e-06
4.80291e-06
2.30203e-06
1.14669e-06
6.13511e-07
3.5304e-07
2.16793e-07
1.38231e-07
8.91577e-08
5.74687e-08
3.67417e-08
2.34011e-08
1.49188e-08
9.59769e-09
6.22078e-09
4.09656e-09
2.86426e-09
4.10881e-06
9.34656e-06
1.11452e-05
7.95239e-06
4.19843e-06
2.02659e-06
1.00392e-06
5.46651e-07
3.26529e-07
2.06052e-07
1.33425e-07
8.67331e-08
5.61588e-08
3.59309e-08
2.28374e-08
1.4529e-08
9.33588e-09
6.07723e-09
4.02375e-09
2.77984e-09
2.13105e-09
1.88285e-06
5.28329e-06
7.51006e-06
6.64534e-06
3.68093e-06
1.82695e-06
9.0893e-07
4.98371e-07
3.04566e-07
1.96865e-07
1.2897e-07
8.42411e-08
5.47187e-08
3.50636e-08
2.22882e-08
1.41621e-08
9.08818e-09
5.9169e-09
3.94951e-09
2.72732e-09
2.03164e-09
1.77467e-09
7.04593e-07
2.70664e-06
4.57859e-06
5.05806e-06
3.32866e-06
1.66342e-06
8.42571e-07
4.67166e-07
2.88912e-07
1.88989e-07
1.24844e-07
8.17517e-08
5.31713e-08
3.40953e-08
2.17087e-08
1.38004e-08
8.85354e-09
5.75684e-09
3.86143e-09
2.68784e-09
1.97638e-09
1.66283e-09
1.64048e-09
5.54017e-07
1.54889e-06
2.58907e-06
3.4389e-06
2.75015e-06
1.57362e-06
7.87748e-07
4.45806e-07
2.78931e-07
1.83169e-07
1.21003e-07
7.92636e-08
5.15735e-08
3.30287e-08
2.10718e-08
1.3426e-08
8.62099e-09
5.60405e-09
3.76315e-09
2.64467e-09
1.94235e-09
1.58597e-09
1.52803e-09
1.6357e-09
5.23943e-07
1.37298e-06
1.57401e-06
2.33796e-06
2.10858e-06
1.3434e-06
7.57652e-07
4.27915e-07
2.72026e-07
1.79271e-07
1.17902e-07
7.68374e-08
4.995e-08
3.19141e-08
2.03682e-08
1.30257e-08
8.38324e-09
5.45369e-09
3.66501e-09
2.5901e-09
1.92631e-09
1.5472e-09
1.44213e-09
1.52898e-09
2.30457e-09
5.09035e-07
1.3244e-06
1.37149e-06
1.72984e-06
1.62821e-06
1.11058e-06
6.57651e-07
4.1342e-07
2.65671e-07
1.76178e-07
1.15528e-07
7.47648e-08
4.83849e-08
3.07784e-08
1.96346e-08
1.25882e-08
8.13748e-09
5.30104e-09
3.57289e-09
2.53043e-09
1.90838e-09
1.53307e-09
1.36684e-09
1.43062e-09
2.04029e-09
5.27808e-09
4.97058e-07
1.29218e-06
1.31146e-06
1.59198e-06
1.34357e-06
9.33453e-07
5.67109e-07
3.61673e-07
2.54161e-07
1.72917e-07
1.134e-07
7.30325e-08
4.70188e-08
2.96902e-08
1.89081e-08
1.21306e-08
7.87872e-09
5.14719e-09
3.48564e-09
2.47624e-09
1.88262e-09
1.52299e-09
1.31442e-09
1.33083e-09
1.69445e-09
3.77661e-09
1.22703e-08
4.83859e-07
1.2611e-06
1.27104e-06
1.53191e-06
1.26704e-06
8.26099e-07
5.02836e-07
3.19159e-07
2.22278e-07
1.61229e-07
1.10546e-07
7.13997e-08
4.5789e-08
2.86813e-08
1.82319e-08
1.16832e-08
7.60207e-09
4.99493e-09
3.39706e-09
2.42988e-09
1.84507e-09
1.50654e-09
1.279e-09
1.19569e-09
1.3504e-09
2.64392e-09
8.10864e-09
3.10501e-08
4.69779e-07
1.22481e-06
1.23411e-06
1.48293e-06
1.22135e-06
7.86522e-07
4.62995e-07
2.93379e-07
2.02242e-07
1.41469e-07
9.97769e-08
6.82563e-08
4.4481e-08
2.76897e-08
1.75439e-08
1.12382e-08
7.31322e-09
4.82389e-09
3.30374e-09
2.3762e-09
1.79467e-09
1.47895e-09
1.21078e-09
1.02697e-09
1.05459e-09
1.86417e-09
5.49222e-09
2.13977e-08
8.99465e-08
4.55047e-07
1.18502e-06
1.19805e-06
1.44202e-06
1.18028e-06
7.63212e-07
4.3791e-07
2.75289e-07
1.94426e-07
1.35252e-07
8.84782e-08
5.98216e-08
4.04931e-08
2.62838e-08
1.67487e-08
1.07104e-08
6.98828e-09
4.60635e-09
3.183e-09
2.29141e-09
1.70225e-09
1.35215e-09
1.06618e-09
8.48101e-10
8.29406e-10
1.34136e-09
3.78691e-09
1.49518e-08
6.435e-08
2.71052e-07
4.4012e-07
1.14353e-06
1.16421e-06
1.40407e-06
1.14382e-06
7.4218e-07
4.28795e-07
2.51689e-07
1.85901e-07
1.39166e-07
8.96857e-08
5.48407e-08
3.48159e-08
2.28328e-08
1.48726e-08
9.68045e-09
6.40807e-09
4.20327e-09
2.90761e-09
2.07687e-09
1.50215e-09
1.13466e-09
8.75809e-10
7.11584e-10
6.88753e-10
1.01577e-09
2.67817e-09
1.04139e-08
4.5848e-08
1.98806e-07
8.12849e-07
4.25555e-07
1.10248e-06
1.13306e-06
1.36892e-06
1.10793e-06
7.22295e-07
4.21668e-07
2.47323e-07
1.69415e-07
1.39644e-07
9.85079e-08
5.91708e-08
3.39626e-08
2.01441e-08
1.25247e-08
8.01946e-09
5.20949e-09
3.43538e-09
2.35499e-09
1.65692e-09
1.19358e-09
9.20471e-10
7.47193e-10
6.43273e-10
6.17716e-10
8.12902e-10
1.93254e-09
7.24161e-09
3.23447e-08
1.44751e-07
6.11866e-07
2.37975e-06
4.11699e-07
1.0644e-06
1.10478e-06
1.33579e-06
1.07322e-06
7.02191e-07
4.13588e-07
2.45339e-07
1.64322e-07
1.28106e-07
1.04309e-07
6.82328e-08
3.87238e-08
2.13496e-08
1.21107e-08
7.19325e-09
4.46427e-09
2.88473e-09
1.94955e-09
1.38178e-09
1.03396e-09
8.19645e-10
6.93906e-10
6.17691e-10
5.8754e-10
6.87947e-10
1.42143e-09
5.02409e-09
2.26168e-08
1.04208e-07
4.56581e-07
1.84048e-06
6.72278e-06
3.98875e-07
1.03094e-06
1.07935e-06
1.30358e-06
1.03944e-06
6.83071e-07
4.05297e-07
2.42576e-07
1.63214e-07
1.2044e-07
9.70318e-08
7.6045e-08
4.62499e-08
2.51974e-08
1.36721e-08
7.67596e-09
4.50379e-09
2.7889e-09
1.84323e-09
1.30445e-09
9.87441e-10
7.9327e-10
6.79136e-10
6.14772e-10
5.80646e-10
6.14434e-10
1.07011e-09
3.4908e-09
1.56594e-08
7.42195e-08
3.36821e-07
1.4108e-06
5.33941e-06
1.83296e-05
3.87197e-07
1.00246e-06
1.05574e-06
1.27108e-06
1.0063e-06
6.65088e-07
3.97449e-07
2.39215e-07
1.62215e-07
1.19461e-07
9.05047e-08
7.22125e-08
5.36056e-08
3.08263e-08
1.63399e-08
8.87647e-09
5.01468e-09
2.9978e-09
1.91762e-09
1.32746e-09
9.97202e-10
8.03831e-10
6.87976e-10
6.19528e-10
5.80897e-10
5.76533e-10
8.37731e-10
2.43511e-09
1.07507e-08
5.22789e-08
2.45748e-07
1.06927e-06
4.20456e-06
1.49458e-05
4.80895e-05
3.7661e-07
9.77865e-07
1.03191e-06
1.23647e-06
9.73422e-07
6.48017e-07
3.90136e-07
2.35759e-07
1.60818e-07
1.19016e-07
8.92739e-08
6.69626e-08
5.2284e-08
3.6339e-08
1.97964e-08
1.05164e-08
5.77141e-09
3.3589e-09
2.08871e-09
1.40968e-09
1.03743e-09
8.27609e-10
7.03679e-10
6.28263e-10
5.83887e-10
5.60711e-10
6.9087e-10
1.71597e-09
7.32402e-09
3.64215e-08
1.77269e-07
8.01436e-07
3.27633e-06
1.20869e-05
4.01598e-05
0.00012232
3.66219e-07
9.54821e-07
1.00593e-06
1.19826e-06
9.40718e-07
6.3155e-07
3.83286e-07
2.32334e-07
1.59371e-07
1.18467e-07
8.89272e-08
6.47203e-08
4.85239e-08
3.6774e-08
2.34294e-08
1.24793e-08
6.67226e-09
3.78064e-09
2.29209e-09
1.50868e-09
1.08822e-09
8.55876e-10
7.20731e-10
6.37785e-10
5.87153e-10
5.5627e-10
6.03674e-10
1.23206e-09
4.96207e-09
2.50828e-08
1.26425e-07
5.93711e-07
2.52693e-06
9.68074e-06
3.3273e-05
0.000104599
0.000301124
3.55169e-07
9.30752e-07
9.76555e-07
1.1567e-06
9.08711e-07
6.15582e-07
3.7659e-07
2.2906e-07
1.57973e-07
1.17923e-07
8.86376e-08
6.43386e-08
4.61606e-08
3.46288e-08
2.46853e-08
1.45989e-08
7.71256e-09
4.25894e-09
2.52194e-09
1.61931e-09
1.14262e-09
8.85156e-10
7.38398e-10
6.48273e-10
5.91118e-10
5.55993e-10
5.58988e-10
9.17025e-10
3.35194e-09
1.70773e-08
8.90833e-08
4.34767e-07
1.92704e-06
7.68305e-06
2.73578e-05
8.87801e-05
0.000263451
0.00071516
3.43299e-07
9.04399e-07
9.43457e-07
1.11348e-06
8.77848e-07
6.00271e-07
3.6988e-07
2.25895e-07
1.5669e-07
1.17425e-07
8.834e-08
6.41156e-08
4.56414e-08
3.24924e-08
2.3898e-08
1.6e-08
8.84547e-09
4.80481e-09
2.78179e-09
1.74504e-09
1.20317e-09
9.16216e-10
7.56663e-10
6.59843e-10
5.97076e-10
5.57205e-10
5.39413e-10
7.22351e-10
2.26914e-09
1.14918e-08
6.1996e-08
3.14583e-07
1.45271e-06
6.03776e-06
2.23205e-05
7.48843e-05
0.000228842
0.000639086
0.00162846
3.30779e-07
8.74475e-07
9.069e-07
1.06918e-06
8.48153e-07
5.85517e-07
3.63212e-07
2.22852e-07
1.55502e-07
1.16979e-07
8.80553e-08
6.38917e-08
4.54709e-08
3.15311e-08
2.22041e-08
1.61842e-08
1.00659e-08
5.43962e-09
3.07733e-09
1.88847e-09
1.27276e-09
9.50976e-10
7.76289e-10
6.72468e-10
6.04455e-10
5.59683e-10
5.32738e-10
6.08564e-10
1.55384e-09
7.64821e-09
4.25733e-08
2.24869e-07
1.08213e-06
4.69635e-06
1.80597e-05
6.27649e-05
0.00019782
0.00056711
0.00148314
0.00354196
3.18147e-07
8.42508e-07
8.69694e-07
1.02634e-06
8.19823e-07
5.7119e-07
3.56679e-07
2.19997e-07
1.5439e-07
1.16552e-07
8.77914e-08
6.36752e-08
4.53349e-08
3.13415e-08
2.11835e-08
1.51164e-08
1.06359e-08
6.17472e-09
3.41504e-09
2.04892e-09
1.35207e-09
9.9026e-10
7.97664e-10
6.86063e-10
6.13392e-10
5.63419e-10
5.31464e-10
5.49107e-10
1.09334e-09
5.04195e-09
2.88324e-08
1.5866e-07
7.96675e-07
3.61271e-06
1.44872e-05
5.22483e-05
0.000170173
0.000501446
0.00134147
0.00327938
0.00731623
3.06114e-07
8.11326e-07
8.34871e-07
9.87377e-07
7.93157e-07
5.57306e-07
3.50448e-07
2.17357e-07
1.53341e-07
1.1613e-07
8.75264e-08
6.34897e-08
4.52041e-08
3.12347e-08
2.08781e-08
1.41132e-08
1.02231e-08
6.7155e-09
3.80263e-09
2.22419e-09
1.44013e-09
1.03451e-09
8.21042e-10
7.00503e-10
6.23464e-10
5.68969e-10
5.32158e-10
5.21602e-10
8.10297e-10
3.3024e-09
1.92458e-08
1.10434e-07
5.79354e-07
2.74708e-06
1.15152e-05
4.3186e-05
0.000145627
0.000441828
0.0012103
0.00301549
0.0068743
0.0141317
2.95487e-07
7.82668e-07
8.04383e-07
9.52321e-07
7.6821e-07
5.43662e-07
3.44458e-07
2.14982e-07
1.52354e-07
1.15707e-07
8.72561e-08
6.33167e-08
4.50996e-08
3.11285e-08
2.07693e-08
1.36127e-08
9.4293e-09
6.78275e-09
4.17248e-09
2.41814e-09
1.53483e-09
1.08373e-09
8.46925e-10
7.1591e-10
6.34455e-10
5.76085e-10
5.34239e-10
5.10916e-10
6.45071e-10
2.16559e-09
1.26507e-08
7.57751e-08
4.15905e-07
2.06374e-06
9.06649e-06
3.54246e-05
0.000123942
0.000387871
0.00108932
0.00276818
0.00641366
0.0134733
0.0249517
2.8578e-07
7.57363e-07
7.78013e-07
9.20065e-07
7.44329e-07
5.30221e-07
3.38512e-07
2.1283e-07
1.51465e-07
1.15293e-07
8.69834e-08
6.31509e-08
4.50079e-08
3.10442e-08
2.06764e-08
1.34909e-08
8.89455e-09
6.34366e-09
4.41712e-09
2.62878e-09
1.63535e-09
1.13691e-09
8.75816e-10
7.32618e-10
6.46201e-10
5.84653e-10
5.37785e-10
5.07839e-10
5.5607e-10
1.44172e-09
8.19083e-09
5.11851e-08
2.94592e-07
1.53161e-06
7.06571e-06
2.88304e-05
0.000104863
0.000339224
0.000978075
0.00253712
0.00597667
0.0127502
0.02415
0.039826
2.76842e-07
7.36004e-07
7.54191e-07
8.89407e-07
7.21158e-07
5.16925e-07
3.32541e-07
2.10588e-07
1.50668e-07
1.14913e-07
8.67176e-08
6.2994e-08
4.49213e-08
3.09699e-08
2.05959e-08
1.34169e-08
8.61584e-09
5.82829e-09
4.32312e-09
2.8475e-09
1.74422e-09
1.19198e-09
9.07782e-10
7.51061e-10
6.58737e-10
5.94259e-10
5.43016e-10
5.07572e-10
5.12358e-10
9.97573e-10
5.22928e-09
3.40015e-08
2.05676e-07
1.12255e-06
5.44723e-06
2.32678e-05
8.81761e-05
0.000295478
0.000876106
0.00232191
0.00556319
0.0120522
0.0231895
0.0390348
0.0589238
2.68126e-07
7.1653e-07
7.31837e-07
8.59874e-07
6.98516e-07
5.03918e-07
3.26529e-07
2.08296e-07
1.49877e-07
1.14538e-07
8.64782e-08
6.28554e-08
4.4839e-08
3.09004e-08
2.05281e-08
1.33495e-08
8.55276e-09
5.5324e-09
3.97064e-09
2.90723e-09
1.8653e-09
1.24752e-09
9.41982e-10
7.71673e-10
6.72185e-10
6.04659e-10
5.49931e-10
5.08796e-10
4.93315e-10
7.37675e-10
3.30814e-09
2.21729e-08
1.41436e-07
8.11877e-07
4.15251e-06
1.86144e-05
7.36559e-05
0.000256296
0.000782825
0.00212202
0.00517362
0.0113798
0.0222428
0.0379463
0.0582789
0.0833373
2.58863e-07
6.96179e-07
7.07799e-07
8.30441e-07
6.76495e-07
4.9109e-07
3.20553e-07
2.06056e-07
1.49162e-07
1.14195e-07
8.62737e-08
6.27546e-08
4.47706e-08
3.08369e-08
2.04708e-08
1.32953e-08
8.50524e-09
5.39271e-09
3.64041e-09
2.79469e-09
1.95767e-09
1.3056e-09
9.76557e-10
7.94635e-10
6.86792e-10
6.15671e-10
5.58027e-10
5.11721e-10
4.86328e-10
5.94402e-10
2.09516e-09
1.41812e-08
9.56361e-08
5.79312e-07
3.12644e-06
1.47568e-05
6.1107e-05
0.0002213
0.00069776
0.0019367
0.00480774
0.0107363
0.0213091
0.0368667
0.0571232
0.0830211
0.108972
2.48329e-07
6.72892e-07
6.81589e-07
8.00723e-07
6.55204e-07
4.78359e-07
3.14565e-07
2.03958e-07
1.48552e-07
1.13877e-07
8.60788e-08
6.26893e-08
4.47323e-08
3.07887e-08
2.04236e-08
1.32519e-08
8.46441e-09
5.35272e-09
3.46538e-09
2.53546e-09
1.98486e-09
1.36557e-09
1.00972e-09
8.19389e-10
7.02856e-10
6.27249e-10
5.67163e-10
5.16285e-10
4.84257e-10
5.2055e-10
1.35553e-09
8.88957e-09
6.34885e-08
4.07458e-07
2.32397e-06
1.15849e-05
5.03407e-05
0.000190176
0.000620312
0.00176541
0.00446481
0.010123
0.0203961
0.0357911
0.0559715
0.0819109
0.107664
0.13373
2.36863e-07
6.45539e-07
6.54531e-07
7.71498e-07
6.34606e-07
4.65642e-07
3.08583e-07
2.01992e-07
1.48047e-07
1.13594e-07
8.59181e-08
6.26549e-08
4.47244e-08
3.07681e-08
2.03911e-08
1.32209e-08
8.43402e-09
5.32426e-09
3.38739e-09
2.31077e-09
1.88376e-09
1.42376e-09
1.04198e-09
8.44173e-10
7.20568e-10
6.39525e-10
5.76963e-10
5.22522e-10
4.8429e-10
4.85413e-10
9.23052e-10
5.4731e-09
4.12771e-08
2.82323e-07
1.70356e-06
9.00228e-06
4.11653e-05
0.000162624
0.000549979
0.00160733
0.00414447
0.0095405
0.0195083
0.0347267
0.0548043
0.0807918
0.107855
0.131209
0.151552
2.24944e-07
6.15853e-07
6.26672e-07
7.42777e-07
6.1463e-07
4.52932e-07
3.02169e-07
2.00126e-07
1.47608e-07
1.13343e-07
8.57838e-08
6.26528e-08
4.47481e-08
3.07769e-08
2.03807e-08
1.32021e-08
8.41655e-09
5.30134e-09
3.36505e-09
2.19495e-09
1.69596e-09
1.42068e-09
1.07592e-09
8.66519e-10
7.3973e-10
6.52769e-10
5.87293e-10
5.30051e-10
4.85973e-10
4.70274e-10
6.83193e-10
3.32642e-09
2.62447e-08
1.9237e-07
1.23077e-06
6.91812e-06
3.341e-05
0.000138338
0.000486269
0.00146179
0.00384578
0.00898968
0.0186484
0.0336728
0.0536399
0.0796255
0.10733
0.131372
0.154301
0.160922
2.13772e-07
5.86682e-07
6.00803e-07
7.15303e-07
5.94738e-07
4.4019e-07
2.95615e-07
1.98116e-07
1.47157e-07
1.13092e-07
8.56688e-08
6.26715e-08
4.47943e-08
3.08081e-08
2.03954e-08
1.31988e-08
8.40954e-09
5.29128e-09
3.35151e-09
2.14204e-09
1.53012e-09
1.34907e-09
1.10215e-09
8.85897e-10
7.59326e-10
6.67291e-10
5.98133e-10
5.38653e-10
4.89296e-10
4.64605e-10
5.57231e-10
2.02604e-09
1.63185e-08
1.28595e-07
8.75541e-07
5.25435e-06
2.68996e-05
0.000117064
0.000428664
0.00132808
0.0035681
0.00847037
0.0178203
0.0326327
0.0524836
0.0784409
0.106957
0.130327
0.155832
0.164253
0.164671
2.03992e-07
5.6e-07
5.77955e-07
6.90023e-07
5.75058e-07
4.2765e-07
2.89031e-07
1.9601e-07
1.46678e-07
1.12828e-07
8.55419e-08
6.26964e-08
4.48526e-08
3.08562e-08
2.0428e-08
1.32138e-08
8.41272e-09
5.2892e-09
3.34567e-09
2.13103e-09
1.44202e-09
1.20819e-09
1.10697e-09
9.04148e-10
7.77304e-10
6.83255e-10
6.09705e-10
5.47858e-10
4.94406e-10
4.62846e-10
4.9469e-10
1.27253e-09
9.88195e-09
8.39597e-08
6.12895e-07
3.93964e-06
2.14782e-05
9.85274e-05
0.000376771
0.00120533
0.00331071
0.00798273
0.0170262
0.0316129
0.051339
0.077241
0.106603
0.129463
0.155183
0.166534
0.168401
0.163634
1.95024e-07
5.35958e-07
5.57575e-07
6.66075e-07
5.55567e-07
4.15283e-07
2.82955e-07
1.93908e-07
1.46087e-07
1.12513e-07
8.53949e-08
6.26937e-08
4.49079e-08
3.09116e-08
2.04695e-08
1.32369e-08
8.42543e-09
5.29338e-09
3.34548e-09
2.12465e-09
1.40157e-09
1.07096e-09
1.05372e-09
9.20543e-10
7.91613e-10
7.00388e-10
6.22278e-10
5.57516e-10
5.01053e-10
4.62761e-10
4.65692e-10
8.57322e-10
5.83342e-09
5.35247e-08
4.21803e-07
2.91364e-06
1.69932e-05
8.24863e-05
0.000330168
0.00109287
0.00307251
0.00752673
0.0162689
0.0306177
0.0502113
0.0760315
0.106293
0.128643
0.154047
0.168932
0.171221
0.167616
0.158539
1.86518e-07
5.13929e-07
5.38932e-07
6.42958e-07
5.36448e-07
4.03329e-07
2.7715e-07
1.92191e-07
1.45427e-07
1.12108e-07
8.52107e-08
6.26541e-08
4.49266e-08
3.09594e-08
2.05127e-08
1.32652e-08
8.44295e-09
5.30122e-09
3.34885e-09
2.12245e-09
1.39379e-09
9.88726e-10
9.49375e-10
9.23167e-10
8.02879e-10
7.17496e-10
6.36148e-10
5.67686e-10
5.08559e-10
4.65264e-10
4.53554e-10
6.4094e-10
3.38114e-09
3.32027e-08
2.84983e-07
2.12246e-06
1.33127e-05
6.86786e-05
0.000288535
0.0009899
0.00285263
0.00710163
0.0155507
0.0296523
0.0491048
0.0748188
0.106011
0.127932
0.152877
0.171252
0.174164
0.170815
0.162648
0.150179
1.78053e-07
4.91985e-07
5.20705e-07
6.20897e-07
5.18002e-07
3.91931e-07
2.71711e-07
1.9059e-07
1.44893e-07
1.11654e-07
8.49789e-08
6.25612e-08
4.49025e-08
3.09815e-08
2.05476e-08
1.32926e-08
8.46104e-09
5.31052e-09
3.35347e-09
2.12233e-09
1.39088e-09
9.51158e-10
8.28791e-10
8.89857e-10
8.13476e-10
7.32342e-10
6.51481e-10
5.78511e-10
5.16648e-10
4.69396e-10
4.49042e-10
5.34047e-10
1.96628e-09
1.99486e-08
1.88702e-07
1.52093e-06
1.03145e-05
5.68683e-05
0.00025151
0.00089588
0.00264978
0.00670719
0.0148727
0.0287215
0.048026
0.0736068
0.105727
0.127376
0.151733
0.173534
0.177051
0.174145
0.166083
0.154298
0.139408
1.69522e-07
4.69237e-07
5.01953e-07
5.99676e-07
5.0027e-07
3.81089e-07
2.66729e-07
1.89122e-07
1.4432e-07
1.11295e-07
8.47441e-08
6.24358e-08
4.4831e-08
3.09622e-08
2.05697e-08
1.33134e-08
8.47643e-09
5.31994e-09
3.35728e-09
2.12316e-09
1.38819e-09
9.39103e-10
7.41381e-10
8.16269e-10
8.18186e-10
7.43221e-10
6.68016e-10
5.90228e-10
5.25168e-10
4.75117e-10
4.47665e-10
4.84266e-10
1.19469e-09
1.15627e-08
1.22106e-07
1.07069e-06
7.89497e-06
4.68108e-05
0.000218784
0.000810219
0.00246292
0.00634228
0.0142368
0.027829
0.0469817
0.0724062
0.105044
0.126886
0.150501
0.175753
0.179927
0.177444
0.169651
0.157835
0.143436
0.127083
1.61006e-07
4.46439e-07
4.83141e-07
5.79213e-07
4.83613e-07
3.70781e-07
2.6216e-07
1.87761e-07
1.43807e-07
1.10936e-07
8.45958e-08
6.23072e-08
4.47387e-08
3.09077e-08
2.05582e-08
1.33274e-08
8.48752e-09
5.32801e-09
3.35989e-09
2.12356e-09
1.38609e-09
9.35762e-10
6.98236e-10
7.12603e-10
8.07179e-10
7.51219e-10
6.84599e-10
6.03103e-10
5.3417e-10
4.81861e-10
4.49936e-10
4.62818e-10
7.99653e-10
6.4707e-09
7.69244e-08
7.39029e-07
5.9634e-06
3.82888e-05
0.000189986
0.000732552
0.00229079
0.00600606
0.0136439
0.0269793
0.0459778
0.0712295
0.104042
0.126426
0.149246
0.174693
0.18278
0.180757
0.173211
0.161506
0.146956
0.130932
0.113984
1.53003e-07
4.24143e-07
4.64622e-07
5.59242e-07
4.67772e-07
3.60689e-07
2.57995e-07
1.86479e-07
1.43303e-07
1.10607e-07
8.45326e-08
6.22544e-08
4.46497e-08
3.08439e-08
2.05274e-08
1.33201e-08
8.49543e-09
5.33288e-09
3.36212e-09
2.12323e-09
1.38546e-09
9.33381e-10
6.78817e-10
6.17997e-10
7.6032e-10
7.58412e-10
6.99025e-10
6.1737e-10
5.43751e-10
4.89283e-10
4.5445e-10
4.54375e-10
6.10532e-10
3.54934e-09
4.66358e-08
4.99301e-07
4.43857e-06
3.11026e-05
0.000164766
0.000662462
0.00213259
0.00569679
0.0130952
0.0261754
0.045022
0.0700857
0.103028
0.125989
0.148056
0.173022
0.18563
0.184076
0.176805
0.165186
0.150607
0.134337
0.117588
0.10077
1.45916e-07
4.03925e-07
4.47222e-07
5.39665e-07
4.52723e-07
3.50829e-07
2.53878e-07
1.8515e-07
1.42771e-07
1.10328e-07
8.45203e-08
6.22714e-08
4.46209e-08
3.07891e-08
2.04862e-08
1.33078e-08
8.49314e-09
5.33686e-09
3.3651e-09
2.12295e-09
1.38556e-09
9.32682e-10
6.75092e-10
5.59019e-10
6.8284e-10
7.58074e-10
7.09574e-10
6.32975e-10
5.54055e-10
4.97325e-10
4.6095e-10
4.51346e-10
5.2605e-10
1.94449e-09
2.70421e-08
3.29239e-07
3.25158e-06
2.50677e-05
0.000142765
0.000599617
0.00198755
0.00541294
0.0125908
0.0254219
0.0441204
0.0689874
0.102007
0.125574
0.146988
0.171376
0.188453
0.1874
0.180423
0.168917
0.154284
0.137868
0.120804
0.104083
0.087951
1.39395e-07
3.85682e-07
4.30848e-07
5.20922e-07
4.3841e-07
3.41468e-07
2.49831e-07
1.83699e-07
1.42207e-07
1.10057e-07
8.45428e-08
6.23164e-08
4.46593e-08
3.07786e-08
2.04566e-08
1.32921e-08
8.49049e-09
5.33825e-09
3.36776e-09
2.12382e-09
1.38595e-09
9.33045e-10
6.74014e-10
5.31602e-10
5.8842e-10
7.40926e-10
7.17053e-10
6.49097e-10
5.65315e-10
5.06009e-10
4.68261e-10
4.50673e-10
4.9085e-10
1.12852e-09
1.49471e-08
2.11216e-07
2.34001e-06
2.00311e-05
0.000123616
0.000543634
0.00185535
0.0051525
0.0121309
0.0247222
0.0432811
0.0679445
0.100993
0.125154
0.146117
0.16975
0.191224
0.190708
0.184061
0.172686
0.158021
0.141435
0.124137
0.107058
0.0909486
0.0758924
1.33105e-07
3.69014e-07
4.15525e-07
5.02831e-07
4.24969e-07
3.3263e-07
2.46124e-07
1.82132e-07
1.41484e-07
1.0978e-07
8.45454e-08
6.23748e-08
4.47171e-08
3.08199e-08
2.0454e-08
1.32816e-08
8.48612e-09
5.34043e-09
3.37065e-09
2.12619e-09
1.38676e-09
9.34245e-10
6.73502e-10
5.20786e-10
5.10007e-10
6.91306e-10
7.23391e-10
6.63884e-10
5.7791e-10
5.15277e-10
4.76339e-10
4.56328e-10
4.77407e-10
7.4895e-10
7.84394e-09
1.30975e-07
1.65071e-06
1.58521e-05
0.000107009
0.000494008
0.00173587
0.00491408
0.0117138
0.0240821
0.0425108
0.0669679
0.100003
0.124736
0.14532
0.168024
0.193212
0.19398
0.1877
0.176487
0.161808
0.14507
0.127514
0.110141
0.0936536
0.0785668
0.0648258
1.26758e-07
3.53149e-07
4.01442e-07
4.85498e-07
4.1229e-07
3.2434e-07
2.42669e-07
1.80654e-07
1.40646e-07
1.09442e-07
8.45094e-08
6.24005e-08
4.47759e-08
3.08748e-08
2.04884e-08
1.32819e-08
8.48313e-09
5.34241e-09
3.37394e-09
2.12947e-09
1.38828e-09
9.35582e-10
6.73903e-10
5.1894e-10
4.63308e-10
6.16069e-10
7.2239e-10
6.75242e-10
5.92181e-10
5.25253e-10
4.85382e-10
4.62908e-10
4.72338e-10
5.88592e-10
3.9443e-09
7.78038e-08
1.1372e-06
1.24131e-05
9.26521e-05
0.000450256
0.0016289
0.00469703
0.011337
0.0235058
0.0418154
0.0660649
0.099053
0.124354
0.144562
0.166302
0.191219
0.197213
0.191327
0.180305
0.165637
0.148763
0.130963
0.113272
0.0964552
0.0809898
0.0671827
0.0548739
1.2038e-07
3.37693e-07
3.88525e-07
4.69087e-07
4.00278e-07
3.16603e-07
2.39307e-07
1.7924e-07
1.39834e-07
1.09081e-07
8.44222e-08
6.23731e-08
4.48089e-08
3.09272e-08
2.0527e-08
1.33006e-08
8.48261e-09
5.34222e-09
3.37717e-09
2.13283e-09
1.39038e-09
9.36681e-10
6.74736e-10
5.18164e-10
4.4155e-10
5.29512e-10
7.0581e-10
6.83549e-10
6.08088e-10
5.361e-10
4.95248e-10
4.71445e-10
4.72492e-10
5.27934e-10
1.97921e-09
4.373e-08
7.61708e-07
9.60453e-06
8.03147e-05
0.000411825
0.00153424
0.00450127
0.0109982
0.0229956
0.0411997
0.0652473
0.0981583
0.124017
0.143847
0.16464
0.189069
0.200424
0.194939
0.184131
0.169497
0.152506
0.134473
0.116475
0.0993067
0.0834982
0.0693256
0.056929
0.0460751
1.13982e-07
3.22979e-07
3.76875e-07
4.53707e-07
3.88494e-07
3.09311e-07
2.36002e-07
1.7783e-07
1.39062e-07
1.08799e-07
8.43128e-08
6.22958e-08
4.47891e-08
3.09613e-08
2.05613e-08
1.3323e-08
8.48538e-09
5.34107e-09
3.37898e-09
2.13553e-09
1.39263e-09
9.37543e-10
6.75533e-10
5.18218e-10
4.3341e-10
4.58053e-10
6.59725e-10
6.90325e-10
6.24444e-10
5.4806e-10
5.05915e-10
4.81198e-10
4.76813e-10
5.05993e-10
1.08088e-09
2.26765e-08
4.92525e-07
7.33152e-06
6.97837e-05
0.000378262
0.00145137
0.00432766
0.0106949
0.0225514
0.0406736
0.0645268
0.0973356
0.123703
0.143203
0.163096
0.186923
0.203584
0.198533
0.18796
0.173383
0.156291
0.13804
0.119741
0.102228
0.086056
0.0715432
0.0588035
0.0478506
0.0384069
1.07506e-07
3.08839e-07
3.66907e-07
4.39242e-07
3.76946e-07
3.02242e-07
2.32624e-07
1.76381e-07
1.38295e-07
1.08614e-07
8.42547e-08
6.22071e-08
4.473e-08
3.09555e-08
2.05852e-08
1.33447e-08
8.49006e-09
5.33911e-09
3.37641e-09
2.13721e-09
1.39445e-09
9.3834e-10
6.75986e-10
5.18789e-10
4.32027e-10
4.1401e-10
5.91293e-10
6.9217e-10
6.39163e-10
5.6139e-10
5.1737e-10
4.92087e-10
4.83745e-10
4.97503e-10
7.21781e-10
1.07939e-08
3.04395e-07
5.5045e-06
6.08881e-05
0.00034915
0.0013797
0.00417694
0.0104273
0.0221693
0.0402469
0.0639152
0.0966004
0.123421
0.142592
0.161757
0.184698
0.206655
0.202081
0.191783
0.177288
0.160116
0.141657
0.123067
0.105213
0.0886805
0.0738082
0.0607427
0.0494745
0.0399281
0.0318065
1.01021e-07
2.9494e-07
3.58141e-07
4.25996e-07
3.65622e-07
2.9526e-07
2.29063e-07
1.74857e-07
1.3759e-07
1.08463e-07
8.42577e-08
6.21645e-08
4.46747e-08
3.09259e-08
2.05867e-08
1.33592e-08
8.49874e-09
5.33719e-09
3.37176e-09
2.13654e-09
1.39568e-09
9.39371e-10
6.76198e-10
5.19817e-10
4.31709e-10
3.92143e-10
5.11742e-10
6.81842e-10
6.50505e-10
5.76295e-10
5.2967e-10
5.03985e-10
4.92786e-10
4.94367e-10
6.00195e-10
4.71982e-09
1.77102e-07
4.04584e-06
5.34632e-05
0.000324216
0.00131849
0.00404976
0.0101974
0.0218457
0.0399246
0.0634283
0.0959651
0.123234
0.141982
0.160559
0.182277
0.207588
0.205566
0.195593
0.181207
0.163972
0.145322
0.126447
0.108256
0.0913647
0.0761351
0.0627265
0.0511544
0.041323
0.0331003
0.0261868
9.4557e-08
2.80801e-07
3.503e-07
4.14026e-07
3.54657e-07
2.88414e-07
2.2528e-07
1.73149e-07
1.36898e-07
1.08339e-07
8.42645e-08
6.21746e-08
4.46418e-08
3.08966e-08
2.058e-08
1.33681e-08
8.50883e-09
5.33684e-09
3.36636e-09
2.13504e-09
1.3965e-09
9.40649e-10
6.76402e-10
5.20787e-10
4.31837e-10
3.82411e-10
4.42897e-10
6.43967e-10
6.58563e-10
5.92881e-10
5.43021e-10
5.16884e-10
5.03487e-10
4.9676e-10
5.6466e-10
2.02837e-09
9.45499e-08
2.88846e-06
4.73704e-05
0.000303249
0.0012672
0.00394597
0.0100087
0.021578
0.0397045
0.0630834
0.0954357
0.123181
0.141401
0.159419
0.179923
0.204996
0.208999
0.19937
0.18513
0.167857
0.149026
0.129881
0.111357
0.0941072
0.0785179
0.0647666
0.0528754
0.0427663
0.034289
0.0272793
0.0214478
8.82453e-08
2.66535e-07
3.42983e-07
4.03238e-07
3.43974e-07
2.81617e-07
2.21396e-07
1.71339e-07
1.36185e-07
1.08199e-07
8.42676e-08
6.21933e-08
4.46538e-08
3.08863e-08
2.05676e-08
1.33719e-08
8.51647e-09
5.34095e-09
3.36246e-09
2.13276e-09
1.39722e-09
9.41736e-10
6.76911e-10
5.2151e-10
4.32545e-10
3.80275e-10
3.95898e-10
5.86435e-10
6.65207e-10
6.11045e-10
5.57579e-10
5.30767e-10
5.15651e-10
5.01737e-10
5.52999e-10
1.03512e-09
4.43684e-08
1.97667e-06
4.24839e-05
0.00028614
0.00122544
0.00386514
0.00986474
0.0213692
0.0395753
0.0628951
0.0950198
0.123234
0.140894
0.158249
0.177761
0.202369
0.212378
0.203079
0.188998
0.171726
0.152757
0.13336
0.114512
0.0969051
0.0809557
0.0668583
0.0546471
0.044247
0.0355199
0.028285
0.0223642
0.0174862
8.20972e-08
2.52577e-07
3.3623e-07
3.93251e-07
3.33561e-07
2.74606e-07
2.17561e-07
1.6953e-07
1.3549e-07
1.08005e-07
8.42362e-08
6.22043e-08
4.46786e-08
3.08958e-08
2.05604e-08
1.33699e-08
8.52327e-09
5.34873e-09
3.361e-09
2.13063e-09
1.39588e-09
9.42409e-10
6.77992e-10
5.21986e-10
4.33507e-10
3.79811e-10
3.69686e-10
5.19364e-10
6.56802e-10
6.28641e-10
5.73426e-10
5.45679e-10
5.29078e-10
5.09678e-10
5.47606e-10
7.59132e-10
1.72313e-08
1.2693e-06
3.86892e-05
0.00027283
0.0011931
0.00380651
0.0097678
0.0212255
0.0395243
0.0628599
0.0947446
0.12331
0.140406
0.157168
0.175671
0.200123
0.215637
0.206744
0.192889
0.175636
0.156527
0.136879
0.117715
0.0997588
0.0834463
0.0690008
0.0564656
0.0457729
0.0367843
0.0293274
0.023209
0.0182498
0.0142004
7.6126e-08
2.39198e-07
3.29984e-07
3.83996e-07
3.23191e-07
2.67248e-07
2.13686e-07
1.67811e-07
1.34901e-07
1.07769e-07
8.41508e-08
6.21938e-08
4.46938e-08
3.09164e-08
2.05617e-08
1.33669e-08
8.52771e-09
5.35526e-09
3.36519e-09
2.12987e-09
1.394e-09
9.42871e-10
6.79457e-10
5.22272e-10
4.34085e-10
3.79672e-10
3.56455e-10
4.54809e-10
6.34756e-10
6.43509e-10
5.90527e-10
5.61723e-10
5.43736e-10
5.19559e-10
5.46096e-10
7.05658e-10
5.49083e-09
7.35447e-07
3.58933e-05
0.000263279
0.00117036
0.00376957
0.00971821
0.021155
0.0395426
0.0629542
0.0945994
0.123545
0.139937
0.156239
0.173813
0.198458
0.218765
0.210399
0.196762
0.179534
0.160304
0.140427
0.120962
0.102661
0.0859895
0.0711926
0.0583304
0.0473407
0.0380887
0.0303998
0.0240858
0.0189543
0.0148322
0.0114947
7.03707e-08
2.26443e-07
3.2412e-07
3.75169e-07
3.13041e-07
2.59444e-07
2.09752e-07
1.66188e-07
1.34393e-07
1.07553e-07
8.40302e-08
6.21576e-08
4.46941e-08
3.09355e-08
2.0566e-08
1.33659e-08
8.52653e-09
5.36029e-09
3.37018e-09
2.13023e-09
1.39149e-09
9.42596e-10
6.80757e-10
5.22483e-10
4.34174e-10
3.81072e-10
3.52313e-10
4.0517e-10
5.93244e-10
6.52323e-10
6.09548e-10
5.79054e-10
5.59587e-10
5.31279e-10
5.4802e-10
6.94521e-10
2.11249e-09
3.5422e-07
3.40214e-05
0.000257493
0.00115755
0.00375416
0.00971473
0.0211622
0.03963
0.0631441
0.0944311
0.124241
0.139496
0.155377
0.172451
0.196901
0.221763
0.213953
0.20057
0.183419
0.164094
0.143999
0.124241
0.105604
0.0885834
0.0734343
0.0602404