/*--------------------------------*- C++ -*----------------------------------*\
| =========                 |                                                 |
| \\      /  F ield         | OpenFOAM: The Open Source CFD Toolbox           |
|  \\    /   O peration     | Version:  v2012                                 |
|   \\  /    A nd           | Website:  www.openfoam.com                      |
|    \\/     M anipulation  |                                                 |
\*---------------------------------------------------------------------------*/
FoamFile
{
    version     2.0;
    format      ascii;
    class       volScalarField;
    location    "12000";
    object      betann;
}
// * * * * * * * * * * * * * * * * * * * * * * * * * * * * * * * * * * * * * //

dimensions      [0 0 0 0 0 0 0];


internalField   nonuniform List<scalar> 
27324
(
1.03168
1.03169
1.02191
1.0317
1.02146
1.02008
1.03157
1.02136
1.01984
1.02126
1.03137
1.02115
1.01997
1.02032
1.0177
1.03113
1.02096
1.01998
1.02016
1.01643
1.01598
1.03084
1.02078
1.02
1.01937
1.01662
1.01439
1.01638
1.03053
1.0206
1.02
1.01844
1.0159
1.01591
1.01376
1.01866
1.03015
1.02028
1.01937
1.01724
1.01498
1.01565
1.01857
1.01785
1.03596
1.02927
1.01937
1.01839
1.0157
1.01363
1.01497
1.01926
1.03113
1.04034
1.05255
1.0267
1.01792
1.01688
1.01401
1.01168
1.0134
1.01901
1.03507
1.04757
1.05961
1.0599
1.02354
1.01591
1.01512
1.01226
1.00953
1.01052
1.01693
1.03563
1.04908
1.06631
1.06505
1.06277
1.01997
1.01348
1.01299
1.01029
1.00748
1.0073
1.0123
1.03498
1.05011
1.06859
1.07268
1.06763
1.06271
1.01625
1.01065
1.01048
1.00792
1.00522
1.00474
1.00759
1.02866
1.0504
1.06988
1.07491
1.07419
1.06894
1.06517
1.01292
1.0074
1.00765
1.005
1.00242
1.0024
1.00515
1.0243
1.05007
1.07011
1.07639
1.0769
1.07073
1.06824
1.07008
1.01007
1.00363
1.00432
1.00174
0.999002
0.999733
1.00404
1.02629
1.05115
1.06906
1.07666
1.07859
1.07415
1.06701
1.06846
1.07202
1.0074
0.999178
1.00017
0.997983
0.995766
0.99664
1.00278
1.03123
1.05384
1.0685
1.07546
1.0791
1.07528
1.06994
1.06839
1.06931
1.07141
1.00454
0.994772
0.995072
0.995007
0.99537
0.995644
1.00082
1.03382
1.05682
1.06953
1.07442
1.0784
1.07584
1.07201
1.06986
1.07054
1.07025
1.06295
1.00199
0.996001
0.995661
0.995992
0.99598
0.995483
1.00183
1.03406
1.05901
1.07143
1.07492
1.07731
1.07619
1.07325
1.07297
1.07186
1.07212
1.07097
1.04305
1.00067
0.997589
0.996853
0.996926
0.996757
0.995545
1.00428
1.03569
1.05979
1.07297
1.07671
1.07712
1.07528
1.07431
1.07534
1.07451
1.07414
1.07393
1.07095
1.04301
1.43519
1.00669
0.998156
0.997709
0.997163
0.995972
1.00426
1.03656
1.06006
1.07393
1.07822
1.0784
1.07436
1.07402
1.07682
1.07717
1.07648
1.07601
1.07537
1.01815
1.0499
1.58595
1.37566
1.01147
0.997532
0.996851
0.99545
1.00175
1.03557
1.05834
1.07505
1.07928
1.07973
1.07457
1.07359
1.07707
1.0786
1.07829
1.07884
1.07625
1.05123
0.988918
1.05555
1.04404
1.57455
1.40955
1.01809
0.994363
1.00062
1.00898
1.03147
1.05448
1.07644
1.07958
1.08052
1.07544
1.07341
1.07701
1.07866
1.07931
1.07941
1.07685
1.05078
0.990897
1.03249
1.05354
1.02973
0.998926
1.56248
1.43455
1.01978
1.02369
1.033
1.03774
1.04708
1.07612
1.0819
1.07971
1.07526
1.07293
1.0762
1.07816
1.07909
1.0789
1.07675
1.05279
1.0038
1.01227
1.04041
0.993528
1.03205
1.01209
1.00683
1.54739
1.48688
1.00867
1.03765
1.0384
1.04128
1.07213
1.08204
1.08245
1.07311
1.07319
1.07456
1.0767
1.07829
1.07837
1.0758
1.05442
1.00583
1.04295
0.988311
1.05205
1.0688
1.02909
1.01732
1.00242
1.01507
1.53094
1.48482
1
1.04087
1.04101
1.04052
1.07871
1.08298
1.07481
1.07308
1.07509
1.07522
1.07729
1.07821
1.07636
1.05664
1.00009
0.992459
0.986448
1.06242
1.0524
1.07588
1.02607
1.01455
1.01145
0.995849
1.01724
1.50739
1.48837
1.26017
1.08071
1.07835
1.04338
1.07468
1.078
1.07556
1.07793
1.07517
1.07561
1.07859
1.07637
1.05147
0.996132
1.04682
1.01828
1.03886
1.59796
1.53304
1.08057
1.02364
1.01288
1.01112
1.01031
0.99811
1.01452
1.49542
1.52663
1.43333
1.06556
1.10354
1.05271
1.05113
1.08133
1.07656
1.07969
1.07128
1.07346
1.07178
1.04526
1.04497
1.03595
1.03614
1.48433
1.68162
1.57688
1.09785
1.0938
1.02246
1.01179
1.01223
1.01291
1.01099
1.00355
1.01863
1.51394
1.62013
1.51764
1.30268
1.11435
1.08623
1.06096
1.05876
1.07059
1.07757
1.05461
1.07036
1.03457
1.03723
1.03914
1.03765
1.69341
1.63332
1.58045
1.09112
1.05291
1.03492
1.02247
1.01168
1.01317
1.01522
1.01536
1.00741
1.01934
1
1.55429
1.58651
1.61365
1.48933
1.33727
1.11815
1.09717
1.08386
1.07004
1.08272
1.08566
1.0624
1.06107
1.25316
1.68197
1.61178
1.68573
1.26242
1.0607
1.05518
1.0364
1.02598
1.02308
1.01237
1.01448
1.01646
1.01654
1.0142
0.997209
1.02214
1.25841
1.47874
1.04183
1.61797
1.59181
1.51873
1.53283
1.21616
1.06445
1.07459
1.03138
1.34065
1.69492
1.67206
1.62598
1.5878
1.2169
1.00844
1.03096
1.05888
1.037
1.03395
1.02203
1.02387
1.01358
1.0158
1.01738
1.01674
1.01517
1.01089
1.00121
1.03463
1.49614
1.10592
1.10021
1.08481
1.5988
1.68831
1.63045
1.65044
1.67955
1.71274
1.69821
1.66117
1.63852
1.28182
1.06652
1.12629
1.04886
0.994531
1.06595
1.04118
1.03161
1.03098
1.01633
1.02507
1.01516
1.01698
1.01768
1.01644
1.01531
1.01408
1.01264
1.01967
1.04626
1.58896
1.10936
1.09965
1.10632
1.09355
1.03024
1.48372
1.59166
1.6108
1.49131
1
0.989262
1.07974
1.12816
1.12994
1.07652
0.989271
1.06964
1.04907
1.03442
1.03001
1.02411
1.0039
1.02657
1.01669
1.01786
1.01716
1.0156
1.01501
1.01508
1.01889
1.00814
1.02638
1.05335
1.63068
1.06805
1.027
1.05239
1.06655
1.0646
1.0459
1.03565
0.995064
1.06106
1.18967
1.19296
1.10905
1.14218
1.13165
1.02032
1.05678
1.05796
1.03733
1.03204
1.02524
1.01083
1.00912
1.02728
1.01764
1.01779
1.01587
1.01452
1.01439
1.01535
1.02101
1.02219
0.999128
1.008
1.29932
1.37711
1.09854
1.07986
1.07031
1.07728
1.05587
0.996125
1.08045
1.12761
1.12087
1.09815
1.03905
1.13711
1.13741
1.05647
1.00595
1.06781
1.04164
1.03322
1.02791
1.01347
1.01133
1.02564
1.02702
1.01759
1.01659
1.01438
1.01372
1.01385
1.01486
1.0214
1.02873
1.01969
1.01793
1.05995
1.67287
1.12897
1.05009
1.08207
1.06858
1.05255
0.99471
1.03506
1.10986
1.13079
1.12986
1.0521
1.14781
1.03927
1.09831
0.993386
1.07769
1.04756
1.03479
1.0295
1.01733
1.01292
1.02866
1.03925
1.02593
1.01684
1.01516
1.01335
1.01354
1.0138
1.01421
1.02089
1.03131
1.03242
1.01806
1.02843
1.08489
1.57356
1.11558
1.03787
1.05078
1.04789
0.986942
1.01644
1.09994
1.13295
1.13085
1.07797
1.12413
1.13114
1.14133
1.01712
1.07088
1.05508
1.03713
1.03056
1.02032
1.01512
1.03071
1.04211
1.04681
1.0235
1.01508
1.01371
1.01306
1.01383
1.01406
1.01387
1.02053
1.03224
1.03614
1.03762
0.998267
1.05943
1.08921
1.56073
1.10148
1.02828
1.02534
0.998051
0.993664
1.08081
1.12538
1.12698
1.1002
1.05503
1.12457
1.13858
1.06077
1.05055
1.06385
1.04071
1.03124
1.02277
1.0173
1.03285
1.04407
1.04862
1.04862
1.02053
1.01265
1.01216
1.01311
1.01424
1.01419
1.01397
1.0212
1.03202
1.03648
1.03998
1.03822
1.01546
1.0942
1.68461
1.11355
1.07629
1.00674
0.997768
0.991161
1.06077
1.12257
1.12643
1.11684
1.03945
1.14152
1.04538
1.10264
0.995068
1.0731
1.04571
1.03219
1.02427
1.01964
1.03488
1.0461
1.05037
1.0488
1.04552
1.01855
1.01091
1.01194
1.01397
1.0149
1.01414
1.01446
1.02248
1.03227
1.03619
1.04082
1.04125
1.02962
1.03225
1.10441
1.64219
1.10699
1.02833
1.02463
0.992504
1.04413
1.11725
1.12716
1.1247
1.07367
1.12107
1.10307
1.14163
0.995868
1.08181
1.05219
1.0339
1.02472
1.02185
1.03684
1.04795
1.05203
1.0511
1.04485
1.03507
1.01757
1.0104
1.01322
1.01566
1.01538
1.01404
1.01508
1.02373
1.0329
1.03609
1.04025
1.04394
1.0384
1.01058
1.08378
1.46142
1.5267
1.0854
1.01858
1.04992
1.03793
1.10033
1.12738
1.12653
1.09996
1.05302
1.12504
1.14341
1.05171
1.06758
1.0599
1.03666
1.02464
1.0239
1.03848
1.04957
1.05355
1.05244
1.04804
1.03536
1.04633
1.01765
1.01061
1.01475
1.01685
1.01537
1.01344
1.01547
1.02466
1.03356
1.03641
1.03988
1.04335
1.04129
1.0258
1.00574
1.10335
1.68485
1.12098
1.03731
1.01857
1.0565
1.08666
1.12691
1.12721
1.11679
1.03999
1.14357
1.07863
1.09742
1.02215
1.06821
1.04085
1.02462
1.02573
1.03995
1.05102
1.05499
1.05387
1.04937
1.0385
1.05108
1.06509
1.01871
1.0113
1.01589
1.01694
1.01462
1.01268
1.01604
1.02495
1.0342
1.03696
1.04017
1.04246
1.03976
1.03269
1.01503
1.05773
1.0651
1.62783
1.08689
1.04427
1.08374
1.08356
1.12541
1.12849
1.1249
1.07621
1.12247
1.05698
1.1395
0.993753
1.07634
1.04662
1.02497
1.02739
1.04108
1.05229
1.05632
1.05522
1.0509
1.04031
1.04407
1.07046
1.08688
1.02108
1.0134
1.01653
1.01656
1.01365
1.01177
1.01562
1.02362
1.03435
1.03747
1.04084
1.04266
1.03653
1.03323
1.02339
1.0038
1.10483
1.68402
1.11983
0.99619
1.06019
1.10467
1.11931
1.13032
1.12821
1.10096
1.05727
1.14715
1.14918
1.02766
1.08349
1.05379
1.02613
1.02908
1.04187
1.05343
1.05752
1.05652
1.05228
1.04236
1.04227
1.06323
1.08897
1.06113
1.02178
1.01478
1.01684
1.01599
1.01306
1.01111
1.01453
1.02143
1.03301
1.03775
1.0413
1.04366
1.03382
1.02996
1.02709
1.01545
1.0395
1.09295
1.68141
1.06928
1.058
1.08229
1.11393
1.13074
1.12874
1.11594
1.04081
1.13558
1.11763
1.08199
1.0628
1.06174
1.0284
1.03101
1.04258
1.05437
1.0586
1.05775
1.05359
1.04422
1.03968
1.06136
1.07982
1.07738
1.1214
1.02077
1.01467
1.01526
1.01445
1.01278
1.01091
1.01322
1.01891
1.03095
1.03769
1.04137
1.04473
1.0325
1.02627
1.02546
1.02345
1.00204
1.07295
1.67896
1.0514
1.00703
1.06973
1.11853
1.12935
1.12987
1.12473
1.07245
1.14312
1.04171
1.12981
0.994666
1.06966
1.0321
1.03313
1.04336
1.05521
1.05957
1.05888
1.05482
1.04598
1.03734
1.0586
1.07879
1.07738
1.12034
1.35771
1.01952
1.01378
1.01407
1.0137
1.0129
1.01113
1.01249
1.01638
1.02739
1.03687
1.04064
1.04469
1.03217
1.02452
1.02182
1.0256
1.01041
1.01065
1.0787
1.71643
1.02998
1.06062
1.10364
1.12771
1.1318
1.12841
1.09674
1.07151
1.10153
1.14732
0.987701
1.07681
1.03737
1.03525
1.04415
1.05597
1.06045
1.05991
1.05596
1.04762
1.03506
1.056
1.07677
1.08538
1.10927
1.34842
1.45665
1.01601
1.0127
1.01381
1.01397
1.01361
1.01191
1.01251
1.01519
1.02243
1.03317
1.03887
1.04326
1.03197
1.02413
1.01923
1.02488
1.01538
1.0242
1.00297
1.67475
1.05295
1.0872
1.03979
1.12558
1.13277
1.13014
1.11108
1.04228
1.13029
1.1454
1.05486
1.0827
1.04419
1.03695
1.04537
1.05656
1.06123
1.06081
1.05699
1.04916
1.03311
1.05335
1.07483
1.09187
1.09955
1.3301
1.4562
1.47402
1.01375
1.01082
1.01382
1.01442
1.01447
1.01273
1.0129
1.01552
1.01954
1.02372
1.03589
1.03947
1.0311
1.02354
1.01843
1.02196
1.01823
1.01335
1.06796
1.04734
1.72156
0.997412
1.10124
1.11744
1.13224
1.13111
1.12063
1.06071
1.16518
1.08681
1.10886
1.05668
1.05218
1.03786
1.04709
1.05705
1.06193
1.06159
1.05791
1.05058
1.03527
1.05071
1.07274
1.09799
1.09093
1.31336
1.45131
1.47345
1.49826
1.01305
1.01073
1.01509
1.0149
1.01475
1.01379
1.01399
1.01734
1.01997
1.01795
1.02143
1.03594
1.03107
1.02142
1.01769
1.01998
1.01714
1.02049
1.07221
0.988835
1.67489
1.03882
1.02659
1.03108
1.13104
1.13322
1.12645
1.08825
1.09782
1.04345
1.13584
0.996385
1.06063
1.03777
1.04944
1.05747
1.0625
1.06225
1.05869
1.05189
1.03729
1.04814
1.07055
1.1034
1.08335
1.29636
1.44711
1.46726
1.49936
1.51799
1.0129
1.01109
1.01668
1.0153
1.01449
1.01442
1.01553
1.01919
1.02337
1.01795
1.01246
1.01741
1.0261
1.01872
1.01657
1.01912
1.01506
1.03659
1.08344
1.06099
1
1.65994
1.02763
1.1295
1.12769
1.13514
1.13043
1.10377
1.0443
1.14135
1.14329
1.02114
1.06843
1.03694
1.05222
1.05793
1.06293
1.06282
1.05934
1.05309
1.03918
1.04564
1.06828
1.10223
1.07631
1.27957
1.4425
1.46293
1.49311
1.52105
1.53277
1.01381
1.01139
1.01698
1.01481
1.01365
1.0143
1.01644
1.02267
1.02722
1.02287
1.01241
1.00021
1.011
1.01284
1.01492
1.01977
1.01547
1.03497
1.03855
1.09154
1.02422
1.68391
0.995288
1.05592
1.10013
1.13535
1.13283
1.11314
1.03854
1.1403
1.14201
1.09214
1.07428
1.04158
1.05493
1.05853
1.06315
1.06332
1.05985
1.05414
1.04092
1.04329
1.06595
1.09742
1.06992
1.26333
1.43732
1.45882
1.48872
1.51597
1.53668
1.54483
1.01319
1.01183
1.01688
1.01418
1.01262
1.01444
1.01595
1.02478
1.03537
1.02998
1.02153
0.998811
1.01669
1.00766
1.01295
1.02001
1.01784
1.03344
1.02249
1.10762
1.11007
1.38557
1.34421
1.08745
1.04395
1.13388
1.13473
1.12072
1.07493
1.12408
1.08429
1.13875
1.0309
1.04977
1.05678
1.05936
1.06317
1.06377
1.06029
1.05501
1.04253
1.0411
1.0636
1.09275
1.06431
1.2478
1.43164
1.455
1.48416
1.51284
1.53229
1.54876
1.55543
1.01088
1.01039
1.01582
1.01397
1.01224
1.01344
1.01487
1.02389
1.03676
1.03749
1.03396
1.01483
1.01714
1.00635
1.00778
1.01793
1.01877
1.02938
1.0223
1.06398
1.11548
1.05002
1.70151
1.00217
1.10908
1.12689
1.13711
1.12813
1.09343
1.03701
1.04611
1.14909
0.992144
1.05483
1.05715
1.06036
1.06305
1.06415
1.06069
1.05569
1.04398
1.0391
1.06127
1.08821
1.05936
1.23314
1.42559
1.45142
1.47961
1.50941
1.5299
1.54474
1.55864
1.56505
1.00917
1.00872
1.01446
1.01372
1.01243
1.01302
1.01297
1.0218
1.03625
1.03952
1.04037
1.03348
1.01052
1.0057
1.00257
1.01101
1.01627
1.02253
1.02781
1.05437
1.12092
1.13616
1.61947
0.997143
1.03184
1.0846
1.13792
1.13369
1.10456
1.04255
1.12036
1.15953
1.07502
1.05634
1.05635
1.06154
1.06292
1.06443
1.06109
1.05616
1.04525
1.03726
1.059
1.08382
1.05507
1.21939
1.41896
1.44821
1.47498
1.50583
1.5274
1.54257
1.55502
1.56702
1.57371
1.00664
1.00715
1.01419
1.01442
1.01313
1.01315
1.01174
1.01833
1.03572
1.03886
1.04188
1.04034
1.02637
1.00839
1.0036
1.00273
1.00856
1.01194
1.05046
1.06702
1.13381
1.06274
1.02499
1.65917
1.09018
1.06298
1.13597
1.13614
1.11343
1.07132
1.09933
1.17829
1.14939
1.05509
1.04995
1.06268
1.06297
1.06457
1.06148
1.05648
1.04629
1.03559
1.05686
1.07957
1.05107
1.20662
1.41047
1.44521
1.47039
1.50206
1.52488
1.54041
1.55301
1.56388
1.57414
1.58122
1.00631
1.00606
1.01339
1.01494
1.0141
1.01337
1.01191
1.0155
1.02856
1.03745
1.04151
1.04216
1.03397
1.01951
1.01428
1.0083
1.00279
1.02209
1.0684
1.09786
1.10762
1.11582
1.13539
1.65951
1.01065
1.12038
1.12776
1.13841
1.12201
1.08851
1.04485
1.19885
1.19056
0.967565
1.05276
1.06376
1.06336
1.06453
1.06183
1.05671
1.04707
1.03407
1.05488
1.0755
1.04699
1.19496
1.3994
1.44224
1.46611
1.49798
1.52241
1.53833
1.55107
1.56207
1.57161
1.58014
1.58729
1.00613
1.00639
1.01352
1.01537
1.01467
1.01392
1.0125
1.01572
1.02267
1.03196
1.0404
1.04273
1.03239
1.02557
1.01648
1.0165
1.00649
1.04059
1.07452
1.11361
1.1038
1.13677
1.09917
1.46148
1.00774
1.02934
1.08945
1.14016
1.13138
1.10332
1.07072
1.18384
1.21523
1.0333
1.06532
1.06453
1.06417
1.06432
1.06205
1.05695
1.04757
1.03275
1.05305
1.07161
1.04325
1.18434
1.38708
1.43915
1.46206
1.49392
1.51989
1.53635
1.54919
1.56029
1.57003
1.57831
1.58497
1.59175
1.00558
1.00632
1.01355
1.01515
1.0151
1.01434
1.01402
1.01786
1.02296
1.02244
1.03635
1.04084
1.03299
1.02562
1.0143
1.02042
1.01305
1.04336
1.08164
1.11456
1.1207
1.1406
1.16309
1.10184
1.67503
1.08599
1.04603
1.13736
1.1381
1.11703
1.12079
1.09455
1.24553
1.14423
1.07474
1.06324
1.06522
1.06401
1.06209
1.05721
1.04784
1.03174
1.05136
1.06796
1.03966
1.17492
1.37357
1.43579
1.45825
1.48989
1.51712
1.53455
1.54738
1.55853
1.56845
1.57698
1.5839
1.58861
1.59439
1.00427
1.00597
1.01326
1.01465
1.01507
1.01362
1.01503
1.02187
1.02662
1.02248
1.0235
1.03531
1.03382
1.0282
1.00782
1.01388
1.01745
1.04018
1.07905
1.11332
1.13427
1.11783
1.13591
1.14742
1.62766
1.02402
1.12375
1.12802
1.14065
1.13116
1.14646
1.0645
1.27764
1.22318
1.07944
1.06042
1.0662
1.06376
1.06192
1.05745
1.04801
1.03205
1.04979
1.06512
1.03629
1.16662
1.35924
1.4319
1.45475
1.48582
1.51415
1.53263
1.5456
1.55681
1.56686
1.57567
1.58289
1.58826
1.59088
1.59498
1.00177
1.00522
1.01324
1.01452
1.01472
1.01283
1.01449
1.02481
1.03435
1.02952
1.02118
1.02013
1.03097
1.03074
1.01047
1.00234
1.0146
1.03717
1.06719
1.11132
1.13552
1.12232
1.16306
1.04493
1.29637
1.0013
1.03017
1.10809
1.14352
1.14196
1.16193
1.12097
1.28531
1.27601
0.979106
1.05287
1.06673
1.06377
1.06157
1.05757
1.04819
1.03258
1.04834
1.06418
1.0334
1.15963
1.34439
1.42731
1.45141
1.48183
1.51099
1.53068
1.54387
1.55514
1.56526
1.57429
1.5819
1.58767
1.59129
1.59171
1.59348
0.99888
1.00422
1.01378
1.01469
1.01483
1.01206
1.01323
1.02455
1.03669
1.03749
1.03253
1.01524
1.01745
1.02706
1.01887
1.00402
1.00566
1.02009
1.06399
1.11267
1.13402
1.14361
1.14138
1.15545
1.12797
1.65474
1.08602
1.0363
1.14501
1.14975
1.16893
1.1561
1.24049
1.29974
1.05681
1.06104
1.06662
1.06417
1.06111
1.05748
1.04841
1.03281
1.04715
1.06327
1.03145
1.15417
1.32917
1.42203
1.44814
1.47825
1.50747
1.52886
1.54225
1.55354
1.56376
1.57292
1.5808
1.58705
1.59116
1.59284
1.59092
1.58991
0.997222
1.00323
1.01504
1.01518
1.01519
1.01192
1.01176
1.02313
1.03651
1.0399
1.03931
1.02876
1.0092
1.01857
1.01693
1.01164
1.00133
1.01343
1.07526
1.09943
1.13285
1.15164
1.13961
1.14629
1.14303
1.6107
1.041
1.13449
1.14049
1.15676
1.17435
1.17215
1.15649
1.31649
1.18584
1.07355
1.06573
1.0649
1.06064
1.05708
1.04861
1.03291
1.04638
1.06236
1.03068
1.15002
1.31364
1.41593
1.44504
1.47493
1.50409
1.52703
1.54086
1.5521
1.56229
1.57159
1.57972
1.58632
1.59098
1.59315
1.59269
1.58833
1.58428
0.995514
1.00258
1.01654
1.01562
1.01547
1.01238
1.0112
1.02008
1.03582
1.03993
1.04078
1.03752
1.02579
1.01354
1.00825
1.01482
1.00607
1.03345
1.06304
1.08158
1.13475
1.13934
1.16011
1.16905
1.04054
1.27813
1.01285
1.03366
1.13235
1.16289
1.17798
1.17882
1.12552
1.31858
1.26671
1.08251
1.0626
1.06564
1.06027
1.05636
1.04866
1.03303
1.0462
1.06141
1.03106
1.14717
1.29814
1.40878
1.44216
1.47189
1.5008
1.52501
1.53977
1.55074
1.5609
1.57032
1.57867
1.58557
1.59068
1.59349
1.59356
1.59076
1.58398
1.57654
0.99514
1.00161
1.01707
1.01568
1.0155
1.01289
1.01179
1.0194
1.03125
1.03843
1.04051
1.04204
1.03413
1.02467
1.00725
1.00863
1.01367
1.04038
1.03906
1.1006
1.11928
1.14293
1.15264
1.14209
1.16976
1.11054
1.6073
1.07702
1.12131
1.16705
1.1803
1.18211
1.14826
1.29222
1.31255
1.05613
1.05745
1.06591
1.06006
1.0554
1.04844
1.03322
1.04651
1.06053
1.03315
1.14626
1.28311
1.40049
1.43935
1.46925
1.49749
1.52282
1.53857
1.54952
1.55957
1.56899
1.57762
1.58489
1.59037
1.59371
1.59449
1.59231
1.587
1.57768
1.56682
0.995505
1.00073
1.0175
1.01563
1.01481
1.0128
1.01279
1.02142
1.03005
1.03614
1.03965
1.04274
1.03729
1.0266
1.01478
1.00409
1.01525
1.04131
1.04823
1.09212
1.10497
1.15085
1.14446
1.14778
1.15548
1.14352
1.60358
1.06151
1.04386
1.17124
1.18107
1.1848
1.16666
1.23919
1.32989
1.04569
1.05283
1.06539
1.06008
1.05435
1.04785
1.0334
1.04699
1.05993
1.03774
1.14892
1.26883
1.39128
1.4364
1.46683
1.49429
1.5204
1.53736
1.54828
1.55827
1.5677
1.57647
1.5841
1.59005
1.59392
1.59528
1.5938
1.58915
1.58134
1.56946
1.55532
0.995826
0.999725
1.01844
1.01606
1.01441
1.01155
1.01304
1.02457
1.03417
1.0341
1.03695
1.03981
1.03707
1.02556
1.01647
1.00779
1.01159
1.025
1.07814
1.06752
1.10844
1.14463
1.1454
1.16869
1.1592
1.07854
1.35173
1.03731
1.03534
1.17786
1.1824
1.18664
1.17802
1.18089
1.33505
1.20193
1.06815
1.06384
1.06028
1.05338
1.04688
1.03339
1.04731
1.05976
1.04608
1.15636
1.25605
1.38148
1.43315
1.46445
1.49163
1.51756
1.53638
1.54748
1.55739
1.56672
1.57543
1.58328
1.58967
1.59405
1.59601
1.59519
1.59136
1.58414
1.57372
1.55944
1.54216
0.996139
0.998958
1.01909
1.01684
1.01448
1.01023
1.01188
1.02631
1.03679
1.0362
1.03541
1.03722
1.03748
1.02634
1.0102
1.01368
1.00671
1.00944
1.06746
1.08769
1.13491
1.1317
1.15782
1.15453
1.13091
1.12364
1.02793
1.30695
1.12922
1.17901
1.18375
1.18812
1.18452
1.15354
1.32461
1.28828
1.07862
1.06087
1.0605
1.05262
1.04562
1.03337
1.04738
1.05991
1.05924
1.16912
1.24635
1.3709
1.42946
1.46199
1.48949
1.51506
1.5356
1.54696
1.55668
1.566
1.57474
1.58264
1.58926
1.59412
1.59665
1.59649
1.59338
1.58702
1.5773
1.56422
1.54771
1.52767
0.996485
0.998144
1.0198
1.0171
1.01433
1.00957
1.01062
1.02498
1.03731
1.03828
1.03644
1.03502
1.03548
1.02877
1.00821
1.01033
1.00716
1.02737
1.08379
1.10183
1.10379
1.1213
1.16034
1.14659
1.13693
1.15729
1.16034
1.51806
1.11922
1.16019
1.18461
1.18958
1.18772
1.15249
1.29675
1.31906
1.08482
1.05569
1.06036
1.05211
1.04417
1.03462
1.04738
1.05996
1.07864
1.1864
1.24159
1.35971
1.42488
1.4597
1.48769
1.51312
1.53453
1.547
1.55621
1.56517
1.57387
1.58193
1.58888
1.59418
1.59721
1.59772
1.59525
1.58967
1.58077
1.56848
1.55302
1.53453
1.512
0.996912
0.997856
1.0205
1.017
1.01394
1.00904
1.01061
1.0228
1.03631
1.03903
1.03934
1.03542
1.0327
1.02606
1.01448
1.00166
1.01359
1.03772
1.04641
1.0819
1.08682
1.13234
1.15993
1.14958
1.17593
1.1209
1.11379
1.31576
1.07619
1.07091
1.18384
1.19119
1.19014
1.16275
1.25026
1.33054
1.02879
1.05019
1.05945
1.05181
1.0427
1.03657
1.04758
1.05954
1.10515
1.20772
1.24218
1.34947
1.41918
1.4576
1.48609
1.51157
1.53344
1.54696
1.55565
1.56446
1.57315
1.58128
1.58848
1.59414
1.59774
1.59888
1.59717
1.59227
1.58412
1.5727
1.55793
1.54023
1.51996
1.4956
0.997332
0.997365
1.02163
1.01665
1.0129
1.00865
1.01233
1.02278
1.03245
1.03783
1.04011
1.03754
1.03251
1.02438
1.01663
1.00348
1.01215
1.02872
1.07672
1.10398
1.11609
1.1491
1.14725
1.1662
1.14741
1.08431
1.04392
1.01831
1.05786
1.09631
1.18133
1.18964
1.19203
1.17368
1.20619
1.33796
1.20041
1.0629
1.05763
1.05156
1.04136
1.03917
1.04823
1.05847
1.14711
1.23378
1.2442
1.34317
1.41232
1.45559
1.48502
1.51003
1.53264
1.54667
1.55526
1.56381
1.57233
1.58058
1.588
1.59401
1.59815
1.59989
1.59891
1.59481
1.5875
1.57681
1.56282
1.54582
1.52606
1.50439
1.47887
0.997862
0.99675
1.02234
1.01594
1.01197
1.0078
1.01357
1.02565
1.03038
1.03587
1.03922
1.03831
1.03271
1.02378
1.01268
1.00999
1.00624
1.01386
1.06164
1.09029
1.12099
1.11854
1.12666
1.16678
1.1349
1.08244
1.15878
1.14751
1.0139
1.25233
1.17563
1.18188
1.19372
1.18156
1.16881
1.33359
1.22865
1.07256
1.05485
1.05111
1.04012
1.04219
1.04951
1.05761
1.2146
1.26522
1.24549
1.34257
1.40521
1.45354
1.48417
1.50867
1.53204
1.54647
1.55507
1.56325
1.57157
1.57984
1.58745
1.59388
1.59846
1.60082
1.60057
1.59718
1.59066
1.58079
1.56761
1.55132
1.53229
1.51087
1.48828
1.46209
0.998766
0.995188
1.02241
1.01507
1.01126
1.0079
1.01335
1.02703
1.03344
1.03306
1.03698
1.03748
1.03419
1.02138
1.01096
1.0096
1.00582
1.01165
1.07824
1.09924
1.11305
1.12518
1.13452
1.16175
1.13797
1.0996
1.04717
1.19124
1.01166
1.17855
1.15243
1.1742
1.19296
1.18699
1.1518
1.31308
1.23141
1.07912
1.05018
1.04999
1.03885
1.04521
1.05145
1.06091
1.31242
1.30488
1.24599
1.34453
1.39937
1.45148
1.48356
1.50789
1.53135
1.54657
1.55514
1.56292
1.571
1.57912
1.58687
1.59362
1.59871
1.60166
1.60199
1.59945
1.59371
1.58461
1.57225
1.55676
1.5383
1.51747
1.49488
1.4719
1.44586
0.999802
0.995545
1.02167
1.01365
1.01072
1.0092
1.01323
1.02479
1.03529
1.03626
1.0357
1.03655
1.03611
1.02135
1.01386
1.00476
1.01371
1.04276
1.03154
1.09674
1.12035
1.13902
1.14736
1.16781
1.17064
1.10651
1.06931
1.22743
1.02941
1.15731
1.09457
1.16945
1.18581
1.19164
1.15325
1.279
1.23625
1.08212
1.04948
1.04763
1.03736
1.04765
1.05395
1.06451
1.43524
1.35354
1.24692
1.34483
1.39495
1.4498
1.48319
1.5077
1.53101
1.54716
1.55568
1.56291
1.57068
1.5786
1.58635
1.59333
1.59888
1.60236
1.60337
1.60154
1.59659
1.58844
1.57686
1.56206
1.54434
1.524
1.50186
1.4785
1.45565
1.43044
1.00084
0.99631
1.02069
1.01295
1.00929
1.01041
1.01393
1.02214
1.03259
1.0372
1.03646
1.0345
1.03454
1.02649
1.01023
1.00613
1.01009
1.03623
1.04412
1.09934
1.08463
1.10969
1.09614
1.14886
1.11452
1.09092
1.09795
1.21695
1.17398
1.13831
1.11358
1.16536
1.1783
1.19586
1.16359
1.24064
1.24802
1.08143
1.0598
1.04399
1.03721
1.04902
1.05648
1.04479
1.51156
1.40317
1.24942
1.33992
1.39087
1.44881
1.48325
1.50794
1.53101
1.54797
1.55662
1.56333
1.57066
1.57835
1.58598
1.59305
1.59892
1.60301
1.60467
1.60355
1.59936
1.59198
1.58129
1.56734
1.5503
1.53054
1.5088
1.48572
1.46219
1.43994
1.41614
1.00248
0.997375
1.01913
1.01388
1.00894
1.00954
1.01458
1.0216
1.02962
1.03679
1.03775
1.03329
1.03135
1.02729
1.00876
1.00824
1.00155
1.01075
1.07842
1.08451
1.12377
1.14921
1.09144
1.12277
1.05613
1.04225
1.11542
1.09307
1.26249
1.12586
1.23564
1.15792
1.17169
1.19985
1.17383
1.19813
1.25684
1.07614
1.06629
1.04137
1.0376
1.04905
1.05793
1.06635
1.54761
1.44115
1.24928
1.33159
1.38567
1.44811
1.48376
1.5086
1.53124
1.54906
1.5578
1.56406
1.57091
1.57827
1.58583
1.59291
1.59899
1.60349
1.60582
1.60543
1.60199
1.59541
1.58557
1.57245
1.55616
1.5371
1.5157
1.49288
1.46941
1.44623
1.42508
1.40331
1.00296
0.998613
1.01356
1.0133
1.01083
1.00902
1.01211
1.02192
1.03215
1.03581
1.03776
1.03503
1.02966
1.0277
1.01384
1.00414
1.00605
1.01736
1.07573
1.07975
1.09892
1.09697
1.1468
1.16876
1.04552
1.04578
1.1175
1.11016
1.35782
1.15498
1.23244
1.13791
1.16666
1.19582
1.1828
1.16285
1.25938
1.06776
1.06852
1.04831
1.03884
1.04801
1.05713
1.17804
1.55825
1.49186
1.27612
1.32625
1.37761
1.44778
1.48468
1.5098
1.53153
1.5503
1.55934
1.56515
1.57151
1.57849
1.58578
1.59288
1.59916
1.60395
1.60681
1.60711
1.60455
1.59875
1.58974
1.57745
1.56196
1.54354
1.52267
1.50011
1.47658
1.45328
1.43098
1.41144
1.39206
1.01934
0.999063
1.01212
1.00947
1.01107
1.01119
1.01075
1.01802
1.03594
1.03585
1.03659
1.03583
1.02799
1.02318
1.01251
1.00319
1.01384
1.03686
1.04248
1.10192
1.11563
1.09002
1.11895
1.09373
1.04733
1.06228
1.13019
1.14804
1.32685
1.2028
1.21919
1.09419
1.16309
1.1914
1.19059
1.14342
1.25483
1.06258
1.06481
1.05273
1.04084
1.0453
1.0542
1.24869
1.56638
1.5193
1.29008
1.32899
1.37108
1.44749
1.48588
1.51159
1.53272
1.5514
1.56115
1.56659
1.57245
1.57904
1.58603
1.59302
1.59936
1.60448
1.6077
1.60863
1.60681
1.60193
1.59375
1.5823
1.56759
1.54993
1.52964
1.50741
1.48398
1.46035
1.4377
1.41686
1.39924
1.38245
1.02159
1.01303
1.01011
1.01271
1.00831
1.01101
1.01494
1.01518
1.03225
1.03683
1.03539
1.03572
1.0314
1.01897
1.0084
1.00748
1.00505
1.01812
1.02897
1.09997
1.06541
1.14778
1.09793
1.04949
1.06296
1.10177
1.14816
1.16311
1.21629
1.26741
1.19384
1.0928
1.1588
1.1873
1.19756
1.14011
1.24205
1.05713
1.05531
1.05199
1.04087
1.04056
1.04794
1.31156
1.57696
1.54278
1.30996
1.32077
1.36088
1.44586
1.48767
1.513
1.53496
1.55307
1.56276
1.56834
1.57383
1.57994
1.5866
1.59337
1.59974
1.60505
1.60868
1.61014
1.60895
1.60492
1.59756
1.58701
1.57316
1.55623
1.5366
1.51476
1.49151
1.46773
1.44461
1.42311
1.40406
1.38862
1.3745
1.0131
1.07593
1.02321
1.00684
1.01268
1.00466
1.0158
1.02334
1.02519
1.03549
1.03596
1.03213
1.03197
1.02343
1.01046
1.00256
1.00592
1.00902
1.07166
1.06105
1.07915
1.11559
1.04204
1.04764
1.08062
1.13632
1.15654
1.16819
1.1612
1.33784
1.17178
1.19535
1.15374
1.1832
1.2036
1.14844
1.21525
1.05883
1.05716
1.04544
1.03636
1.0338
1.04121
1.31749
1.58424
1.56156
1.32356
1.31966
1.35679
1.44509
1.48844
1.51564
1.53633
1.55572
1.56492
1.56997
1.57555
1.58124
1.58752
1.594
1.60028
1.60567
1.60966
1.61158
1.61103
1.60771
1.60128
1.59151
1.57853
1.56238
1.54347
1.5221
1.49909
1.47527
1.45174
1.42957
1.40967
1.39277
1.37961
1.36813
1.0183
1.01293
1.05815
1.01965
0.996452
1.00584
1.00204
1.02919
1.0341
1.02236
1.03664
1.02823
1.0256
1.02651
1.00529
1.00093
1.01128
1.0396
1.06922
1.03813
1.10199
1.09207
1.07493
1.04809
1.11254
1.1514
1.16259
1.16772
1.15506
1.34337
1.18946
1.228
1.14837
1.17997
1.2088
1.1633
1.17467
1.05947
1.06609
1.04663
1.02743
1.02555
1.04056
1.28883
1.58346
1.56793
1.33212
1.31543
1.35186
1.44422
1.49126
1.51729
1.53895
1.55785
1.56788
1.57228
1.57731
1.58296
1.58877
1.59501
1.60107
1.60647
1.61065
1.61305
1.613
1.61033
1.60474
1.59587
1.58379
1.56845
1.55019
1.52948
1.50679
1.48299
1.45914
1.43636
1.41555
1.39764
1.38308
1.37216
1.36314
1.02505
1.01411
1.01343
1.06427
1.01054
1.00467
0.996848
1.00252
1.03945
1.02414
1.02386
1.03545
1.00703
1.02223
1.00569
1.00681
1.00711
1.0249
1.04406
1.10815
1.0593
1.04321
1.0921
1.09506
1.14335
1.16067
1.16264
1.16473
1.1604
1.28814
1.21805
1.22567
1.10742
1.17768
1.20541
1.17716
1.13933
1.05899
1.07361
1.05839
1.03537
1.02156
1.04227
1.2827
1.58086
1.56711
1.33027
1.30715
1.34318
1.44221
1.49308
1.52075
1.5409
1.56061
1.57075
1.57537
1.57983
1.58497
1.59056
1.59631
1.60219
1.6075
1.61175
1.61444
1.615
1.61291
1.60802
1.60004
1.58885
1.57445
1.55697
1.53681
1.51451
1.49087
1.46685
1.44346
1.42186
1.40287
1.38723
1.37491
1.36618
1.35935
1.02601
1.01131
1.0126
1.01787
1.07309
1.04504
1.02111
1.00334
0.997275
1.04072
1.01274
1.0329
1.02672
1.01181
1.01378
1.00489
1.00119
1.01096
1.06369
1.09871
1.06898
1.04176
1.10527
1.13472
1.15716
1.16258
1.16016
1.16188
1.16362
1.20824
1.27259
1.19206
1.0856
1.17513
1.20228
1.18688
1.11031
1.05729
1.07916
1.06558
1.04112
1.02094
1.0429
1.32429
1.579
1.56303
1.32487
1.29704
1.33162
1.43888
1.49505
1.52338
1.54377
1.56313
1.57374
1.57857
1.58296
1.58766
1.59284
1.59818
1.60364
1.60878
1.61305
1.61593
1.61689
1.6154
1.61123
1.60401
1.59366
1.58012
1.56349
1.54408
1.52232
1.49885
1.47472
1.45094
1.42852
1.40856
1.39169
1.37831
1.36828
1.36151
1.35661
1.02979
1.01359
1.01256
1.01976
1.01856
1.07999
1.06072
1.04771
1.0219
1.00608
1.03961
1.00916
1.03695
1.00975
1.01152
1.0017
1.00227
1.00967
1.05455
1.03659
1.08917
1.08805
1.13372
1.14989
1.16021
1.16008
1.1581
1.15978
1.16297
1.16455
1.32373
1.15901
1.16335
1.17156
1.1925
1.19316
1.09331
1.05483
1.08227
1.07079
1.04499
1.02194
1.04332
1.39168
1.57776
1.55705
1.31679
1.28545
1.31806
1.43403
1.49699
1.52618
1.54621
1.56575
1.57734
1.58166
1.58636
1.59081
1.5957
1.60069
1.60558
1.6104
1.61459
1.61758
1.61875
1.61785
1.61429
1.60786
1.59836
1.5857
1.5699
1.55122
1.52995
1.50691
1.48278
1.45866
1.43555
1.4146
1.39662
1.38203
1.37093
1.36308
1.35795
1.35472
1.03064
1.01679
1.01366
1.01456
1.01662
1.0397
1.10042
1.09195
1.06787
1.04478
1.02174
1.01316
1.01228
1.03465
1.00576
1.01674
1.00618
0.995734
1.01939
1.05801
1.11827
1.12658
1.14348
1.15409
1.15607
1.15303
1.15337
1.15674
1.16119
1.1472
1.33426
1.13955
1.21076
1.16754
1.17981
1.18904
1.08663
1.04946
1.08302
1.07383
1.04797
1.02338
1.04227
1.45404
1.57774
1.5518
1.30951
1.27339
1.30328
1.42768
1.4988
1.52899
1.54877
1.56809
1.58091
1.58578
1.58945
1.59435
1.59887
1.60379
1.60832
1.6125
1.61641
1.6194
1.6208
1.62019
1.61723
1.61159
1.60287
1.5911
1.57617
1.55826
1.53768
1.515
1.49101
1.46668
1.44298
1.42113
1.40199
1.38618
1.3739
1.36499
1.35903
1.35537
1.35344
1.03258
1.01805
1.01517
1.01343
1.01356
1.02314
1.09169
1.11595
1.11802
1.09367
1.08158
1.07628
1.057
1.05991
1.02261
1.05365
1.02755
1.03177
1.03362
1.04648
1.07774
1.09809
1.12202
1.13194
1.13627
1.14013