/*--------------------------------*- C++ -*----------------------------------*\
| =========                 |                                                 |
| \\      /  F ield         | OpenFOAM: The Open Source CFD Toolbox           |
|  \\    /   O peration     | Version:  v2012                                 |
|   \\  /    A nd           | Website:  www.openfoam.com                      |
|    \\/     M anipulation  |                                                 |
\*---------------------------------------------------------------------------*/
FoamFile
{
    version     2.0;
    format      ascii;
    class       volScalarField;
    location    "12000";
    object      c;
}
// * * * * * * * * * * * * * * * * * * * * * * * * * * * * * * * * * * * * * //

dimensions      [0 1 -1 0 0 0 0];


internalField   nonuniform List<scalar> 
27324
(
253.993
255.046
252.367
255.875
253.341
249.883
256.834
254.111
250.755
246.827
257.786
255.001
251.453
247.62
243.836
258.711
255.883
252.257
248.266
244.624
241.535
259.602
256.74
253.052
249.014
245.261
242.356
239.984
260.512
257.562
253.82
249.757
246.004
243.017
240.825
238.94
261.532
258.399
254.56
250.479
246.745
243.785
241.498
239.789
238.266
262.661
259.333
255.318
251.177
247.469
244.55
242.282
240.463
239.117
237.906
263.867
260.363
256.172
251.892
248.171
245.299
243.063
241.255
239.796
238.754
237.724
265.115
261.464
257.121
252.695
248.893
246.025
243.831
242.044
240.599
239.419
238.547
237.597
266.387
262.609
258.136
253.593
249.701
246.769
244.579
242.83
241.402
240.214
239.182
238.404
237.586
267.638
263.78
259.188
254.556
250.601
247.597
245.346
243.603
242.208
241.012
239.96
239.008
238.373
237.672
268.696
264.926
260.257
255.556
251.571
248.516
246.198
244.397
243.006
241.821
240.751
239.765
238.929
238.445
237.845
269.507
265.874
261.298
256.572
252.581
249.51
247.141
245.272
243.821
242.632
241.571
240.551
239.647
238.956
238.603
238.098
270.11
266.568
262.153
257.574
253.611
250.547
248.161
246.236
244.7
243.462
242.409
241.38
240.425
239.617
239.073
238.84
238.413
270.474
267.07
262.802
258.411
254.624
251.605
249.231
247.275
245.661
244.349
243.269
242.242
241.256
240.374
239.674
239.291
239.11
238.859
270.417
267.405
263.295
259.043
255.472
252.642
250.315
248.355
246.696
245.313
244.171
243.128
242.136
241.212
240.4
239.832
239.577
239.408
239.523
266.281
267.288
263.595
259.494
256.108
253.525
251.365
249.438
247.779
246.358
245.136
244.038
243.052
242.115
241.239
240.51
240.074
239.925
239.75
240.571
255.527
263.416
263.326
259.742
256.568
254.205
252.259
250.476
248.867
247.448
246.179
244.99
243.978
243.067
242.164
241.333
240.688
240.432
240.31
240.27
242.316
241.274
253.125
259.852
259.585
256.85
254.686
252.95
251.377
249.902
248.54
247.264
246.013
244.923
244.021
243.145
242.265
241.466
240.991
240.892
240.791
241.308
245.082
231.335
239.615
250.089
256.011
256.794
254.968
253.423
252.087
250.819
249.56
248.343
247.077
245.924
244.973
244.13
243.256
242.377
241.693
241.459
241.378
241.553
243.144
248.598
229.682
230.035
237.533
246.656
252.653
254.717
253.685
252.56
251.558
250.485
249.335
248.124
246.968
245.946
245.091
244.258
243.355
242.548
242.06
241.993
241.864
242.724
246.272
252.152
229.455
228.386
228.481
235.002
243.527
250.179
253.117
252.77
252.027
251.244
250.255
249.078
248
246.954
246.024
245.23
244.349
243.486
242.781
242.522
242.636
242.864
245.283
250.391
254.132
229.553
228.184
226.868
226.589
232.318
241.018
248.207
251.815
252.149
251.69
251.002
249.989
248.934
247.949
246.97
246.132
245.33
244.443
243.636
243.099
243.353
243.231
244.303
248.982
252.346
251.73
229.704
228.235
226.686
224.987
224.371
230.08
239.071
246.307
250.633
251.57
251.427
250.714
249.83
248.855
247.937
247.007
246.247
245.409
244.573
243.845
243.963
243.762
243.703
247.213
248.92
246.389
244.086
229.846
228.357
226.71
224.806
222.7
222.198
228.634
237.405
244.228
249.314
251.011
251.063
250.496
249.678
248.84
247.914
247.056
246.386
245.482
244.729
244.35
244.062
243.342
244.185
244.112
242.501
239.575
239.582
230
228.485
226.855
224.822
222.484
220.299
220.638
227.849
235.906
241.853
247.149
249.901
250.584
250.202
249.467
248.68
247.781
247.113
246.298
245.447
244.467
244.141
242.209
239.8
238.398
238.181
237.875
238.442
239.479
230.144
228.628
226.991
224.982
222.486
220.028
218.26
219.981
227.628
234.545
239.155
244.039
247.852
249.414
249.569
248.874
248.224
247.386
246.698
245.595
243.758
242.04
238.579
234.163
232.453
234.27
236.5
238.218
239.143
239.91
230.272
228.756
227.127
225.099
222.641
220.047
217.926
216.882
220.257
227.841
233.397
236.319
239.922
243.909
246.416
247.055
247.016
246.128
245.24
243.707
240.699
237.037
232.629
228.861
228.108
231.608
235.655
237.783
238.989
239.656
240.267
230.387
228.866
227.242
225.224
222.747
220.164
217.922
216.382
216.164
221.226
228.436
232.556
233.878
235.652
238.102
240.124
240.957
240.698
239.49
237.273
233.972
230.81
227.814
225.982
225.949
229.344
234.475
237.413
238.759
239.481
240.008
240.502
230.478
228.966
227.346
225.331
222.867
220.269
218.037
216.345
215.418
215.878
222.939
229.337
231.937
232.372
232.807
233.323
233.552
233.3
232.493
231.01
229.128
227.171
225.744
225.116
225.219
227.535
233.126
236.809
238.479
239.264
239.825
240.29
240.658
230.554
229.045
227.447
225.42
222.976
220.384
218.134
216.472
215.369
214.706
216.156
225.181
230.493
231.747
231.902
231.762
231.184
230.345
229.491
228.569
227.451
226.278
225.358
225
225.026
226.25
231.402
235.99
238.105
239.031
239.616
240.137
240.533
240.883
230.621
229.115
227.523
225.5
223.056
220.48
218.23
216.57
215.459
214.586
214.235
217.325
227.572
231.647
231.928
231.965
231.656
230.805
229.771
228.796
227.769
226.696
225.701
225.112
225.02
225.477
229.494
234.851
237.628
238.779
239.409
239.954
240.43
240.878
241.383
230.644
229.149
227.58
225.552
223.126
220.558
218.316
216.673
215.562
214.646
213.999
214.123
219.563
229.768
232.402
232.307
232.178
231.573
230.454
229.289
228.237
227.208
226.2
225.433
225.116
225.135
227.706
233.392
237.008
238.491
239.197
239.761
240.295
240.85
241.489
242.046
230.627
229.152
227.607
225.601
223.186
220.634
218.384
216.773
215.665
214.749
214.047
213.607
214.52
222.898
231.288
232.733
232.62
232.237
231.339
230.164
229.01
227.888
226.757
225.752
225.193
225.045
226.328
231.645
236.199
238.15
238.975
239.559
240.148
240.795
241.542
242.349
242.862
230.598
229.139
227.634
225.653
223.24
220.699
218.448
216.858
215.769
214.848
214.149
213.592
213.369
215.998
226.437
232.08
232.76
232.555
231.996
230.887
229.65
228.481
227.293
226.139
225.287
225.025
225.483
229.757
235.148
237.728
238.735
239.353
239.982
240.722
241.598
242.519
243.327
243.968
230.535
229.078
227.608
225.664
223.275
220.739
218.502
216.935
215.86
214.952
214.256
213.67
213.259
213.53
218.928
229.368
232.343
232.628
232.429
231.596
230.312
229.055
227.816
226.571
225.505
225.016
225.093
227.967
233.817
237.189
238.465
239.143
239.805
240.636
241.621
242.701
243.594
244.532
245.371
230.46
228.986
227.549
225.634
223.279
220.762
218.542
216.996
215.936
215.043
214.364
213.759
213.315
213.167
214.268
223.306
231.323
232.62
232.653
232.227
231.028
229.679
228.358
227.05
225.796
225.074
224.964
226.532
232.218
236.492
238.147
238.928
239.627
240.534
241.651
242.869
243.891
244.858
246.017
246.875
230.421
228.909
227.478
225.606
223.256
220.764
218.575
217.041
215.995
215.119
214.46
213.85
213.409
213.166
213.148
216.483
227.733
232.434
232.758
232.671
231.753
230.359
228.926
227.56
226.182
225.189
224.939
225.595
230.441
235.592
237.763
238.698
239.454
240.415
241.663
243.028
244.176
245.224
246.388
247.616
248.219
230.432
228.858
227.423
225.553
223.228
220.727
218.582
217.073
216.038
215.181
214.536
213.94
213.507
213.237
213.038
213.583
220.812
230.675
232.871
232.858
232.379
231.085
229.524
228.085
226.628
225.418
224.937
225.116
228.665
234.451
237.287
238.443
239.289
240.284
241.671
243.176
244.457
245.58
246.802
248.042
249.056
249.316
230.458
228.841
227.373
225.483
223.165
220.68
218.575
217.084
216.066
215.23
214.592
214.012
213.611
213.306
213.049
213.064
215.246
226.086
232.026
232.896
232.784
231.812
230.164
228.628
227.119
225.739
224.979
224.941
227.119
233.059
236.686
238.148
239.127
240.152
241.671
243.314
244.73
245.938
247.204
248.516
249.542
250.227
250.27
230.514
228.849
227.335
225.428
223.089
220.613
218.547
217.069
216.075
215.263
214.628
214.067
213.695
213.392
213.123
213.04
213.341
219.297
230.226
232.662
232.949
232.447
230.857
229.204
227.639
226.152
225.109
224.903
225.986
231.458
235.925
237.798
238.964
240.034
241.657
243.446
244.994
246.295
247.606
248.972
250.079
250.766
251.202
251.585
230.597
228.911
227.382
225.407
223.044
220.551
218.491
217.026
216.042
215.276
214.644
214.102
213.758
213.461
213.19
213.074
213.049
214.661
225.163
232.228
232.988
232.86
231.58
229.83
228.186
226.626
225.334
224.897
225.313
229.762
234.975
237.37
238.791
239.938
241.625
243.574
245.249
246.649
248.008
249.426
250.597
251.362
251.766
252.394
254.323
230.656
228.958
227.427
225.412
223.021
220.512
218.437
216.973
216.008
215.273
214.645
214.121
213.799
213.508
213.257
213.115
213.042
213.233
218.664
229.798
232.879
232.996
232.255
230.524
228.765
227.142
225.674
224.928
225.01
228.143
233.813
236.842
238.593
239.868
241.59
243.676
245.497
247.001
248.41
249.876
251.111
251.939
252.389
252.909
254.932
258.786
230.644
228.987
227.456
225.436
223.018
220.497
218.397
216.921
215.962
215.24
214.608
214.129
213.823
213.532
213.306
213.167
213.044
213.006
214.478
224.976
232.004
232.981
232.757
231.279
229.389
227.684
226.089
225.032
224.918
226.791
232.45
236.19
238.352
239.825
241.543
243.784
245.736
247.348
248.81
250.323
251.617
252.513
252.996
253.486
255.338
259.226
264.257
230.641
228.962
227.515
225.468
223.047
220.525
218.377
216.883
215.912
215.205
214.573
214.118
213.834
213.54
213.335
213.21
213.063
212.978
213.18
218.737
230.049
232.797
233.003
232.04
230.073
228.248
226.569
225.244
224.896
225.826
230.938
235.398
238.045
239.802
241.496
243.88
245.972
247.688
249.21
250.767
252.118
253.082
253.606
254.066
255.789
259.533
264.666
269.788
230.573
228.913
227.471
225.506
223.078
220.567
218.379
216.868
215.876
215.163
214.532
214.106
213.833
213.541
213.351
213.241
213.089
212.975
212.948
214.557
225.492
232.406
233.055
232.677
230.823
228.84
227.084
225.565
224.897
225.26
229.386
234.452
237.651
239.786
241.456
243.974
246.206
248.021
249.605
251.21
252.611
253.643
254.212
254.658
256.244
259.865
264.957
270.31
274.668
230.534
228.827
227.42
225.482
223.097
220.606
218.423
216.869
215.86
215.129
214.493
214.09
213.832
213.543
213.366
213.259
213.125
212.995
212.898
213.159
219.523
230.531
233.07
233.051
231.615
229.478
227.622
225.975
224.98
224.993
227.946
233.345
237.155
239.75
241.447
244.064
246.438
248.348
249.995
251.652
253.101
254.198
254.816
255.253
256.712
260.204
265.256
270.681
275.358
278.687
230.539
228.773
227.367
225.467
223.091
220.633
218.461
216.906
215.894
215.107
214.459
214.078
213.83
213.551
213.39
213.279
213.158
213.036
212.883
212.914
215.009
226.882
232.584
233.165
232.363
230.182
228.181
226.457
225.135
224.899
226.754
232.101
236.551
239.658
241.462
244.155
246.671
248.669
250.378
252.092
253.586
254.745
255.415
255.851
257.192
260.553
265.555
271.044
275.875
279.503
281.932
230.556
228.747
227.31
225.419
223.06
220.627
218.49
216.935
215.929
215.1
214.436
214.071
213.83
213.561
213.421
213.31
213.197
213.101
212.923
212.893
213.232
221.316
231.503
233.175
232.924
230.956
228.774
226.972
225.42
224.876
225.892
230.785
235.803
239.464
241.527
244.252
246.901
248.988
250.752
252.528
254.069
255.284
256.01
256.451
257.682
260.911
265.859
271.398
276.39
280.149
282.848
284.536
230.635
228.755
227.279
225.374
223.012
220.587
218.496
216.958
215.969
215.1
214.436
214.061
213.826
213.573
213.455
213.355
213.248
213.169
212.996
212.897
212.865
216.288
228.589
233.047
233.19
231.77
229.42
227.508
225.816
224.873
225.371
229.486
234.918
239.206
241.644
244.357
247.127
249.306
251.12
252.961
254.55
255.817
256.599
257.05
258.181
261.279
266.166
271.746
276.893
280.8
283.586
285.527
286.63
230.694
228.805
227.302
225.363
222.981
220.534
218.476
216.95
215.999
215.104
214.441
214.053
213.812
213.578
213.485
213.402
213.308
213.237
213.073
212.97
212.836
213.733
223.826
232.309
233.244
232.523
230.139
228.067
226.276
225.043
225.119
228.302
233.928
238.841
241.79
244.474
247.346
249.626
251.482
253.386
255.03
256.344
257.179
257.647
258.686
261.655
266.475
272.086
277.384
281.447
284.33
286.335
287.679
288.329
230.718
228.824
227.33
225.362
222.963
220.494
218.442
216.919
216.002
215.113
214.457
214.054
213.783
213.576
213.502
213.441
213.371
213.299
213.149
213.049
212.866
213.014
218.413
230.487
233.245
233.061
230.934
228.659
226.772
225.273
225.009
227.332
232.882
238.344
241.957
244.603
247.56
249.949
251.842
253.802
255.506
256.867
257.754
258.241
259.199
262.038
266.789
272.423
277.861
282.09
285.077
287.148
288.537
289.425
289.724
230.746
228.843
227.36
225.385
222.997
220.472
218.411
216.884
215.997
215.077
214.472
214.056
213.759
213.54
213.503
213.46
213.419
213.353
213.206
213.127
212.89
212.899
214.658
226.893
232.928
233.299
231.774
229.3
227.29
225.649
224.977
226.66
231.828
237.707
242.161
244.75
247.771
250.276
252.204
254.209
255.976
257.386
258.32
258.831
259.715
262.426
267.106
272.758
278.319
282.729
285.826
287.966
289.401
290.317
290.861
290.89
230.734
228.817
227.367
225.396
223.032
220.495
218.397
216.858
215.949
215.058
214.48
214.057
213.737
213.504
213.452
213.461
213.442
213.392
213.248
213.183
212.925
212.882
213.148
221.803
231.989
233.351
232.561
230.011
227.832
226.101
225.15
226.294
230.822
237.007
241.999
244.913
247.986
250.605
252.57
254.608
256.438
257.903
258.881
259.415
260.235
262.822
267.427
273.092
278.766
283.361
286.579
288.791
290.27
291.217
291.776
292.061
291.881
230.726
228.797
227.355
225.385
223.054
220.53
218.396
216.848
215.914
215.032
214.488
214.063
213.721
213.474
213.392
213.41
213.444
213.413
213.279
213.217
212.978
212.881
212.792
216.991
229.705
233.352
233.136
230.802
228.403
226.612
225.437
226.142
229.933
236.242
241.872
245.134
248.217
250.934
252.941
255.003
256.887
258.414
259.436
259.991
260.757
263.225
267.75
273.426
279.204
283.987
287.342
289.623
291.149
292.124
292.701
292.99
293.081
292.741
230.718
228.769
227.338
225.374
223.059
220.558
218.413
216.89
215.882
215.015
214.491
214.072
213.716
213.453
213.337
213.353
213.401
213.421
213.305
213.239
213.027
212.925
212.751
214.118
225.803
232.997
233.418
231.653
229.016
227.161
225.87
226.097
229.238
235.42
241.515
245.376
248.469
251.262
253.314
255.396
257.324
258.918
259.988
260.559
261.281
263.634
268.077
273.76
279.633
284.603
288.107
290.465
292.037
293.04
293.634
293.932
294.018
293.965
293.502
230.72
228.753
227.326
225.365
223.055
220.576
218.427
216.919
215.867
215.006
214.495
214.077
213.74
213.453
213.301
213.292
213.355
213.391
213.324
213.264
213.068
212.995
212.765
213.076
220.777
231.952
233.486
232.483
229.688
227.751
226.385
226.122
228.801
234.617
241.099
245.649
248.747
251.587
253.689
255.793
257.75
259.41
260.536
261.121
261.806
264.05
268.407
274.093
280.055
285.205
288.872
291.313
292.935
293.968
294.577
294.883
294.972
294.906
294.745
294.19
230.719
228.745
227.347
225.37
223.038
220.585
218.433
216.945
215.858
215.014
214.493
214.081
213.761
213.498
213.294
213.262
213.3
213.371
213.333
213.302
213.107
213.073
212.789
212.847
216.382
229.588
233.492
233.145
230.446
228.378
226.978
226.595
228.615
233.896
240.583
245.901
249.043
251.915
254.061
256.195
258.17
259.886
261.08
261.678
262.331
264.47
268.742
274.425
280.472
285.787
289.634
292.167
293.842
294.906
295.533
295.845
295.935
295.866
295.686
295.447
294.825
230.717
228.718
227.353
225.42
223.026
220.576
218.427
216.956
215.848
215.036
214.489
214.066
213.777
213.534
213.333
213.261
213.26
213.346
213.34
213.35
213.155
213.141
212.86
212.824
213.858
225.733
233.101
233.509
231.307
229.05
227.662
227.101
228.567
233.314
240.037
245.891
249.355
252.249
254.432
256.599
258.587
260.346
261.616
262.234
262.854
264.893
269.082
274.757
280.885
286.362
290.397
293.029
294.757
295.854
296.499
296.82
296.91
296.836
296.651
296.386
296.092
295.422
230.731
228.686
227.357
225.449
223.04
220.579
218.427
216.954
215.841
215.055
214.491
214.043
213.779
213.561
213.378
213.306
213.239
213.313
213.343
213.39
213.212
213.194
212.936
212.822
212.93
220.952
232.073
233.638
232.246
229.775
228.413
227.782
228.618
232.952
239.477
245.838
249.684
252.601
254.801
257.004
259.007
260.789
262.136
262.79
263.375
265.318
269.426
275.091
281.293
286.928
291.155
293.904
295.679
296.809
297.473
297.805
297.897
297.819
297.624
297.35
297.023
296.693
295.995
230.743
228.68
227.359
225.47
223.043
220.591
218.432
216.923
215.839
215.078
214.486
214.026
213.747
213.564
213.412
213.351
213.251
213.288
213.339
213.417
213.271
213.235
213
212.867
212.715
216.735
229.821
233.664
233.141
230.575
229.229
228.552
229.127
232.754
238.907
245.581
250.021
252.977
255.168
257.405
259.429
261.224
262.637
263.342
263.895
265.744
269.775
275.428
281.697
287.484
291.908
294.782
296.613
297.775
298.458
298.799
298.894
298.814
298.611
298.325
297.987
297.618
297.265
296.554
230.778
228.662
227.348
225.479
223.048
220.602
218.461
216.904
215.845
215.101
214.494
214.007
213.716
213.537
213.424
213.393
213.267
213.281
213.297
213.402
213.32
213.27
213.043
212.94
212.689
214.166
226.252
233.425
233.833
231.469
230.107
229.421
229.669
232.682
238.417
245.263
250.345
253.378
255.537
257.799
259.852
261.655
263.117
263.886
264.419
266.171
270.128
275.767
282.102
288.032
292.647
295.662
297.554
298.751
299.454
299.803
299.901
299.819
299.61
299.313
298.96
298.578
298.181
297.819
297.107
230.787
228.664
227.347
225.48
223.058
220.609
218.468
216.89
215.858
215.118
214.5
213.996
213.696
213.497
213.401
213.417
213.297
213.28
213.245
213.379
213.345
213.307
213.069
213.029
212.7
213.083
221.788
232.512
234.221
232.465
231.042
230.37
230.424
232.709
238.081
244.904
250.602
253.796
255.91
258.187
260.274
262.087
263.579
264.412
264.946
266.6
270.482
276.107
282.507
288.579
293.372
296.541
298.501
299.734
300.458
300.819
300.92
300.835
300.62
300.312
299.947
299.547
299.135
298.725
298.364
297.666
230.795
228.654
227.354
225.476
223.08
220.598
218.466
216.862
215.881
215.137
214.505
214.002
213.687
213.477
213.371
213.405
213.321
213.28
213.213
213.325
213.354
213.35
213.09
213.103
212.738
212.755
217.624
230.575
234.35
233.554
232.047
231.403
231.295
233.144
237.912
244.528
250.784
254.222
256.293
258.569
260.691
262.523
264.031
264.915
265.471
267.036
270.836
276.449
282.912
289.126
294.086
297.421
299.457
300.725
301.472
301.845
301.949
301.862
301.639
301.323
300.945
300.529
300.098
299.671
299.258
298.908
298.234
230.806
228.65
227.354
225.464
223.117
220.598
218.452
216.84
215.898
215.15
214.512
214.004
213.699
213.473
213.343
213.384
213.328
213.306
213.198
213.27
213.357
213.384
213.124
213.157
212.819
212.687
214.691
227.461
234.371
234.701
233.13
232.516
232.296
233.674
237.85
244.139
250.645
254.65
256.689
258.949
261.099
262.961
264.479
265.393
265.984
267.479
271.182
276.79
283.315
289.669
294.795
298.297
300.425
301.722
302.487
302.874
302.986
302.899
302.671
302.345
301.955
301.524
301.075
300.626
300.193
299.787
299.457
298.82
230.836
228.651
227.354
225.447
223.146
220.598
218.414
216.826
215.909
215.15
214.507
214.007
213.712
213.484
213.329
213.351
213.331
213.336
213.215
213.237
213.317
213.399
213.181
213.191
212.907
212.679
213.161
223.762
233.509
235.717
234.288
233.709
233.399
234.429
237.844
243.798
250.525
255.064
257.1
259.332
261.499
263.396
264.926
265.849
266.469
267.925
271.527
277.124
283.717
290.2
295.497
299.164
301.39
302.72
303.509
303.91
304.029
303.943
303.712
303.379
302.976
302.531
302.065
301.595
301.138
300.71
300.321
300.019
299.427
230.84
228.671
227.365
225.426
223.162
220.583
218.389
216.828
215.911
215.141
214.49
213.996
213.72
213.499
213.351
213.331
213.319
213.35
213.252
213.23
213.262
213.385
213.255
213.214
212.958
212.682
212.574
219.889
232.106
236.473
235.507
234.987
234.603
235.305
238.124
243.57
250.364
255.409
257.519
259.721
261.889
263.823
265.37
266.286
266.917
268.358
271.872
277.441
284.109
290.723
296.187
300.028
302.345
303.721
304.538
304.952
305.077
304.996
304.763
304.421
304.008
303.549
303.066
302.577
302.098
301.644
301.231
300.867
300.6
300.064
230.839
228.66
227.4
225.437
223.15
220.552
218.363
216.843
215.912
215.124
214.464
213.986
213.719
213.51
213.36
213.321
213.299
213.34
213.299
213.227
213.207
213.364
213.317
213.232
212.968
212.837
212.42
216.771
229.705
236.748
236.831
236.358
235.899
236.318
238.521
243.465
250.179
255.628
257.941
260.121
262.272
264.237
265.807
266.705
267.323
268.754
272.209
277.739
284.477
291.233
296.863
300.872
303.285
304.718
305.568
306
306.134
306.054
305.819
305.473
305.051
304.578
304.079
303.572
303.071
302.593
302.15
301.759
301.428
301.204
300.734
230.86
228.641
227.414
225.457
223.116
220.505
218.324
216.854
215.918
215.112
214.435
213.97
213.72
213.506
213.359
213.313
213.283
213.326
213.318
213.249
213.182
213.308
213.351
213.26
212.963
212.966
212.389
214.771
226.744
236.586
238.325
237.829
237.282
237.446
239.124
243.568
249.875
255.712
258.364
260.534
262.652
264.631
266.222
267.1
267.685
269.094
272.521
278.023
284.808
291.721
297.526
301.689
304.212
305.704
306.591
307.05
307.197
307.119
306.883
306.533
306.102
305.619
305.104
304.578
304.056
303.555
303.085
302.662
302.301
302.011
301.838
301.443
230.986
228.663
227.412
225.468
223.066
220.471
218.301
216.853
215.914
215.099
214.408
213.952
213.718
213.511
213.359
213.301
213.269
213.288
213.322
213.273
213.165
213.231
213.36
213.295
212.952
213.053
212.484
213.825
223.571
235.562
239.852
239.366
238.748
238.68
239.879
243.731
249.548
255.745
258.787
260.952
263.028
265
266.602
267.458
268.002
269.365
272.781
278.286
285.103
292.168
298.166
302.477
305.126
306.681
307.602
308.092
308.259
308.191
307.955
307.599
307.162
306.669
306.141
305.597
305.054
304.53
304.034
303.582
303.186
302.863
302.623
302.506
302.191
231.045
228.76
227.412
225.428
222.984
220.441
218.298
216.831
215.895
215.091
214.4
213.934
213.713
213.523
213.366
213.284
213.264
213.263
213.296
213.293
213.188
213.18
213.355
213.326
212.95
213.102
212.852
213.548
220.676
234.023
241.085
240.948
240.295
240.007
240.785
244.013
249.229
255.771
259.155
261.363
263.397
265.333
266.927
267.768
268.267
269.569
272.962
278.509
285.368
292.561
298.763
303.233
306.012
307.643
308.602
309.12
309.313
309.261
309.032
308.675
308.229
307.726
307.186
306.626
306.065
305.517
304.996
304.516
304.089
303.729
303.452
303.265
303.212
302.986
231.02
228.787
227.436
225.391
222.891
220.397
218.301
216.809
215.851
215.07
214.402
213.927
213.692
213.519
213.377
213.273
213.254
213.248
213.287
213.274
213.222
213.163
213.244
213.342
213.029
213.142
213.286
213.486
218.599
232.096
241.901
242.607
241.933
241.421
241.798
244.369
248.958
255.75
259.423
261.743
263.752
265.623
267.182
268.012
268.474
269.711
273.061
278.668
285.608
292.912
299.297
303.942
306.861
308.572
309.582
310.135
310.353
310.324
310.108
309.754
309.305
308.792
308.24
307.667
307.088
306.518
305.972
305.465
305.006
304.611
304.292
304.067
303.944
303.959
303.828
231.178
228.672
227.425
225.38
222.833
220.337
218.298
216.779
215.833
215.038
214.396
213.931
213.667
213.503
213.387
213.285
213.232
213.24
213.27
213.257
213.245
213.17
213.156
213.311
213.156
213.197
213.751
213.696
217.502
229.666
241.666
244.377
243.663
242.918
242.895
244.861
249.094
255.663
259.573
262.084
264.083
265.86
267.351
268.181
268.613
269.798
273.098
278.753
285.806
293.225
299.758
304.589
307.671
309.464
310.532
311.128
311.378
311.372
311.175
310.833
310.386
309.866
309.302
308.716
308.121
307.532
306.962
306.426
305.938
305.51
305.152
304.883
304.716
304.663
304.751
304.718
231.611
228.676
227.293
225.367
222.824
220.298
218.272
216.733
215.829
215.028
214.376
213.934
213.663
213.461
213.365
213.311
213.222
213.208
213.259
213.241
213.232
213.182
213.083
213.262
213.333
213.297
214.145
214.046
217.115
227.298
241.197
246.257
245.456
244.487
244.069
245.505
249.236
255.317
259.672
262.376
264.369
266.029
267.435
268.273
268.69
269.844
273.11
278.797
285.939
293.491
300.174
305.165
308.423
310.319
311.441
312.09
312.382
312.404
312.228
311.902
311.464
310.946
310.374
309.774
309.163
308.556
307.965
307.402
306.884
306.423
306.031
305.72
305.505
305.404
305.423
305.588
305.656
231.678
229.047
227.286
225.227
222.84
220.297
218.251
216.687
215.829
215.027
214.357
213.913
213.667
213.448
213.304
213.32
213.233
213.175
213.244
213.245
213.22
213.213
213.04
213.204
213.531
213.454
214.528
214.855
217.379
225.428
240.08
247.898
247.28
246.123
245.316
246.273
249.546
254.968
259.716
262.584
264.576
266.117
267.451
268.294
268.708
269.782
272.959
278.615
285.99
293.714
300.542
305.689
309.084
311.121
312.315
313.012
313.35
313.412
313.264
312.958
312.535
312.024
311.451
310.84
310.214
309.589
308.979
308.393
307.846
307.351
306.923
306.574
306.315
306.164
306.132
306.23
306.473
306.641
232.309
229.184
227.842
225.208
222.779
220.366
218.264
216.664
215.837
215.024
214.343
213.873
213.645
213.46
213.267
213.29
213.27
213.171
213.205
213.256
213.208
213.168
213.124
213.188
213.72
213.709
214.986
215.777
217.778
224.415
238.757
249.057
249.11
247.824
246.629
247.147
249.937
254.573
259.658
262.671
264.676
266.161
267.446
268.283
268.665
269.729
272.838
278.475
285.862
293.857
300.865
306.181
309.669
311.825
313.14
313.895
314.278
314.386
314.276
313.996
313.59
313.093
312.526
311.914
311.276
310.634
310.003
309.395
308.823
308.296
307.832
307.443
307.143
306.944
306.86
306.904
307.081
307.403
307.668
248.249
233.776
228.089
225.702
222.769
220.402
218.324
216.672
215.84
215.014
214.331
213.859
213.587
213.462
213.265
213.212
213.266
213.191
213.132
213.252
213.18
213.092
213.243
213.214
213.859
214.104
215.566
216.865
218.765
223.992
237.037
249.607
250.971
249.592
248.01
248.108
250.403
254.182
259.497
262.65
264.695
266.172
267.322
268.056
268.509
269.573
272.656
278.266
285.729
293.861
301.198
306.58
310.259
312.439
313.862
314.733
315.169
315.319
315.252
315.01
314.631
314.148
313.593
312.986
312.343
311.688
311.037
310.408
309.81
309.256
308.758
308.33
307.988
307.742
307.607
307.596
307.718
307.979
308.377
308.739
250.039
246.78
233.541
226.283
223.338
220.416
218.373
216.76
215.831
214.991
214.323
213.86
213.561
213.415
213.302
213.184
213.226
213.285
213.124
213.159
213.267
213.077
213.31
213.314
214.026
214.682
216.329
218.083
220.015
224.614
235.284
249.46
252.858
251.41
249.455
249.138
250.894
253.822
259.088
262.593
264.669
266.061
267.146
267.827
268.29
269.378
272.444
278.038
285.533
293.796
301.302
307.11
310.737
313.075
314.489
315.466
316.013
316.212
316.187
315.988
315.644
315.188
314.647
314.048
313.409
312.749
312.082
311.431
310.81
310.229
309.7
309.236
308.85
308.56
308.376
308.312
308.376
308.578
308.92
309.396
309.849
250.034
249.232
246.05
233.029
224.447
221.063
218.289
216.851
215.893
214.955
214.303
213.85
213.569
213.358
213.306
213.193
213.131
213.289
213.182
213.007
213.313
213.096
213.311
213.629
214.353
215.445
217.304
219.406
221.532
225.147
233.959
249.191
254.561
253.255
250.97
250.196
251.381
253.519
258.592
262.168
264.313
265.855
266.926
267.556
268.045
269.172
272.238
277.815
285.335
293.699
301.369
307.336
311.386
313.594
315.142
316.098
316.751
317.058
317.08
316.923
316.621
316.199
315.683
315.098
314.468
313.808
313.136
312.467
311.822
311.214
310.656
310.157
309.732
309.397
309.165
309.048
309.057
309.201
309.484
309.907
310.455
310.993
250.087
249.24
247.553
244.115
232.508
222.902
218.78
216.817
215.969
214.951
214.271
213.817
213.586
213.355
213.241
213.254
213.131
213.197
213.3
212.922
213.292
213.286
213.323
214.096
214.889
216.418
218.486
220.837
223.119
225.965
232.876
248.525
255.781
255.089
252.547
251.255
251.877
253.278
257.925
261.756
263.978
265.594
266.707
267.299
267.792
268.966
272.04
277.609
285.152
293.599
301.411
307.538
311.722
314.295
315.682
316.761
317.386
317.798
317.926
317.813
317.556
317.175
316.693
316.131
315.514
314.861
314.187
313.51
312.846
312.212
311.624
311.093
310.631
310.253
309.973
309.804
309.758
309.846
310.07
310.435
310.935
311.551
312.174
250.124
249.288
247.529
245.313
242.669
232.377
222.206
217.845
215.954
215.091
214.248
213.771
213.546
213.4
213.235
213.238
213.246
213.028
213.337
212.965
213.182
213.762
213.486
214.722
215.73
217.613
219.864
222.367
224.777
227.171
233.15
247.583
256.396
256.919
254.188
252.291
252.344
253.105
257.119
261.164
263.539
265.295
266.496
267.076
267.551
268.765
271.848
277.427
284.993
293.521
301.453
307.719
312.034
314.708
316.396
317.307
318.051
318.433
318.666
318.659
318.445
318.108
317.668
317.139
316.542
315.9
315.232
314.554
313.877
313.222
312.606
312.043
311.546
311.128
310.8
310.581
310.481
310.512
310.678
310.983
311.426
312.002
312.685
313.386
250.118
249.328
247.575
245.305
243.07
241.485
232.929
222.671
217.429
215.284
214.458
213.771
213.514
213.398
213.313
213.111
213.308
212.987
213.213
213.473
213.187
214.191
214.068
215.543
216.901
219.03
221.422
224
226.493
228.666
233.491
246.211
256.664
258.713
255.907
253.285
252.721
252.871
256.207
260.483
263.061
264.964
266.297
266.89
267.331
268.562
271.656
277.261
284.86
293.473
301.515
307.901
312.333
315.097
316.843
318.024
318.602
319.097
319.299
319.396
319.286
318.994
318.598
318.108
317.545
316.923
316.265
315.59
314.911
314.242
313.601
313.007
312.476
312.019
311.648
311.378
311.225
311.199
311.307
311.554
311.939
312.46
313.107
313.854
314.632
250.084
249.306
247.598
245.357
243.093
241.745
242.019
234.096
224.137
217.969
215.127
214.154
213.591
213.316
213.363
213.121
213.211
213.388
213.125
213.921
213.234
214.67
215.012
216.662
218.387
220.668
223.147
225.739
228.257
230.361
234.393
244.609
256.758
260.325
257.579
254.177