/*--------------------------------*- C++ -*----------------------------------*\
| =========                 |                                                 |
| \\      /  F ield         | OpenFOAM: The Open Source CFD Toolbox           |
|  \\    /   O peration     | Version:  v2012                                 |
|   \\  /    A nd           | Website:  www.openfoam.com                      |
|    \\/     M anipulation  |                                                 |
\*---------------------------------------------------------------------------*/
FoamFile
{
    version     2.0;
    format      ascii;
    class       volScalarField;
    location    "12000";
    object      Fs;
}
// * * * * * * * * * * * * * * * * * * * * * * * * * * * * * * * * * * * * * //

dimensions      [0 0 0 0 0 0 0];


internalField   nonuniform List<scalar> 
27324
(
2.88992e-05
2.28808e-05
2.78865e-05
2.21901e-05
2.17605e-05
2.65736e-05
2.16681e-05
2.09371e-05
2.04659e-05
2.53142e-05
2.21843e-05
2.04097e-05
1.95406e-05
1.91767e-05
2.42007e-05
2.3075e-05
2.09444e-05
1.90153e-05
1.81676e-05
1.79556e-05
2.32644e-05
2.34524e-05
2.1866e-05
1.95322e-05
1.7651e-05
1.69064e-05
1.69011e-05
2.24155e-05
2.22091e-05
2.22378e-05
2.04431e-05
1.81402e-05
1.63897e-05
1.5831e-05
1.59971e-05
2.1646e-05
2.05398e-05
2.09703e-05
2.08287e-05
1.90408e-05
1.68641e-05
1.53076e-05
1.48858e-05
1.52497e-05
2.09767e-05
1.93606e-05
1.92479e-05
1.9524e-05
1.94299e-05
1.7736e-05
1.5734e-05
1.43509e-05
1.40611e-05
1.46578e-05
2.0378e-05
1.88026e-05
1.80199e-05
1.77818e-05
1.81206e-05
1.80977e-05
1.65476e-05
1.47044e-05
1.34938e-05
1.33677e-05
1.42506e-05
1.98836e-05
1.84899e-05
1.74085e-05
1.65457e-05
1.63879e-05
1.68199e-05
1.68982e-05
1.54102e-05
1.37282e-05
1.27442e-05
1.28506e-05
1.41248e-05
1.93392e-05
1.83641e-05
1.70871e-05
1.59164e-05
1.51474e-05
1.51135e-05
1.56878e-05
1.57141e-05
1.4277e-05
1.2844e-05
1.2107e-05
1.25535e-05
1.42159e-05
1.87573e-05
2.05514e-05
1.69489e-05
1.55849e-05
1.45186e-05
1.38804e-05
1.40331e-05
1.45935e-05
1.45177e-05
1.31961e-05
1.20134e-05
1.15806e-05
1.25579e-05
1.45878e-05
1.81469e-05
2.47987e-05
1.91221e-05
1.54546e-05
1.41939e-05
1.32304e-05
1.27984e-05
1.30188e-05
1.35511e-05
1.33517e-05
1.21088e-05
1.12495e-05
1.1166e-05
1.29881e-05
1.50705e-05
1.76137e-05
2.86514e-05
2.34462e-05
1.76128e-05
1.40993e-05
1.29244e-05
1.21133e-05
1.17945e-05
1.21253e-05
1.25808e-05
1.21391e-05
1.10327e-05
1.051e-05
1.0873e-05
1.38196e-05
1.53829e-05
1.76162e-05
3.14785e-05
2.74766e-05
2.1982e-05
1.61938e-05
1.28744e-05
1.18281e-05
1.11061e-05
1.09223e-05
1.13404e-05
1.15816e-05
1.089e-05
9.99461e-06
9.88597e-06
1.09649e-05
1.49109e-05
1.51172e-05
1.92126e-05
4.42385e-05
3.05611e-05
2.61528e-05
2.05445e-05
1.48873e-05
1.1858e-05
1.08657e-05
1.02241e-05
1.0164e-05
1.05767e-05
1.05616e-05
9.66376e-06
9.06876e-06
9.28958e-06
1.15234e-05
1.58322e-05
1.42651e-05
2.49456e-05
0.000128948
4.413e-05
2.92479e-05
2.49258e-05
1.91009e-05
1.37937e-05
1.10333e-05
1.00041e-05
9.45827e-06
9.44712e-06
9.86638e-06
9.51325e-06
8.46987e-06
8.19161e-06
8.96144e-06
1.23695e-05
1.58778e-05
1.40382e-05
4.30751e-05
0.0112378
0.000137503
4.5225e-05
2.80419e-05
2.3707e-05
1.77822e-05
1.28537e-05
1.03586e-05
9.2407e-06
8.74202e-06
8.84485e-06
9.17177e-06
8.41398e-06
7.39581e-06
7.42125e-06
9.07553e-06
1.33768e-05
1.43545e-05
1.69247e-05
0.000112592
0.838276
0.0166123
0.000153381
4.5094e-05
2.73543e-05
2.26535e-05
1.64887e-05
1.20124e-05
9.82654e-06
8.55271e-06
8.14356e-06
8.34838e-06
8.42875e-06
7.3383e-06
6.5531e-06
6.95027e-06
9.66119e-06
1.36292e-05
1.22751e-05
2.79037e-05
0.00040833
0.977708
0.920987
0.0293433
0.000184033
4.4681e-05
2.71382e-05
2.15721e-05
1.51931e-05
1.12997e-05
9.3737e-06
8.00092e-06
7.67239e-06
7.95397e-06
7.60935e-06
6.38795e-06
5.93928e-06
6.93073e-06
1.07803e-05
1.21112e-05
1.35016e-05
7.38576e-05
0.00135985
0.00227557
0.990993
0.969401
0.0554687
0.00025138
4.6283e-05
2.74743e-05
2.03937e-05
1.38938e-05
1.05988e-05
9.05141e-06
7.58339e-06
7.36298e-06
7.65059e-06
6.7209e-06
5.66057e-06
5.65538e-06
7.599e-06
1.20563e-05
1.0847e-05
2.46063e-05
0.000465903
0.00119876
7.87633e-05
0.00306337
0.996307
0.98804
0.123647
0.000387601
5.02849e-05
2.90109e-05
1.87705e-05
1.26606e-05
9.99063e-06
8.79877e-06
7.28014e-06
7.28939e-06
7.343e-06
5.91188e-06
5.29132e-06
5.84185e-06
9.71703e-06
1.18871e-05
1.17168e-05
0.000103652
0.00136578
0.000373411
4.66276e-05
8.30487e-05
0.00405142
0.998553
0.995392
0.268311
0.0007702
5.88759e-05
3.28973e-05
1.71741e-05
1.18394e-05
9.38238e-06
8.4994e-06
7.14131e-06
7.48038e-06
6.83253e-06
5.3748e-06
5.26824e-06
6.99879e-06
1.14187e-05
8.26982e-06
2.83166e-05
0.000548811
0.00472154
0.00194143
4.02689e-05
4.61927e-05
8.81995e-05
0.00642184
0.99938
0.997686
0.525736
0.00223091
8.05522e-05
4.03308e-05
1.69907e-05
1.097e-05
8.96915e-06
8.03858e-06
7.17054e-06
7.66721e-06
5.94223e-06
5.15588e-06
5.42721e-06
8.75663e-06
1.00126e-05
1.28698e-05
0.000487842
0.021096
0.308572
0.352552
3.92205e-05
3.96981e-05
4.61061e-05
9.60562e-05
0.0122184
0.999595
0.998157
0.811809
0.0116854
0.000163426
4.89365e-05
1.97389e-05
1.03269e-05
8.91422e-06
7.18201e-06
7.36636e-06
7.45766e-06
5.03757e-06
5.14934e-06
6.64499e-06
1.51551e-05
1.55735e-05
0.000502364
0.192273
0.954609
0.943175
0.320556
3.88352e-05
3.87032e-05
3.9313e-05
4.59956e-05
0.000108635
0.0308775
0.999504
0.997478
0.952121
0.127359
0.000851679
7.25713e-05
2.8969e-05
1.28054e-05
1.03762e-05
7.33253e-06
9.06993e-06
7.01971e-06
6.50579e-06
6.36193e-06
2.88076e-05
7.19363e-05
0.00230674
0.874726
0.996884
0.939014
0.124079
0.00154473
3.92174e-05
3.83861e-05
3.80484e-05
3.92892e-05
4.63716e-05
0.000135567
0.101817
0.998742
0.992575
0.987134
0.826135
0.020027
0.000320292
6.20408e-05
2.55571e-05
1.95217e-05
1.24822e-05
1.70472e-05
1.15586e-05
2.45125e-05
0.000175256
0.00291276
0.16052
0.991793
0.999131
0.932999
0.0132168
0.000285081
9.38482e-05
3.99133e-05
3.87127e-05
3.78614e-05
3.74225e-05
3.90312e-05
4.7173e-05
0.000200953
0.357005
0.991916
0.943291
0.989243
0.995444
0.806047
0.0244124
0.000968573
0.000328599
0.000165872
0.000214898
0.0003254
0.00115143
0.0249376
0.617916
0.960792
0.994879
0.995741
0.638184
0.00305884
0.000150895
8.07572e-05
7.05905e-05
4.02804e-05
3.96506e-05
3.81759e-05
3.73509e-05
3.67434e-05
3.90849e-05
4.91598e-05
0.000384252
0.761751
0.887299
0.433065
0.937698
0.999259
0.999325
0.982009
0.673355
0.309367
0.252147
0.455217
0.724633
0.961276
0.992992
0.990685
0.915707
0.63675
0.12359
0.00164224
0.000137319
8.10612e-05
7.83994e-05
6.95107e-05
4.07494e-05
4.0186e-05
3.92116e-05
3.7726e-05
3.6752e-05
3.65564e-05
3.96063e-05
5.39292e-05
0.00114023
0.9417
0.222121
0.0295187
0.204563
0.976702
0.999481
0.999752
0.999562
0.998942
0.998615
0.998029
0.995395
0.978943
0.642714
0.0345876
0.00734345
0.0226951
0.00254968
0.000181693
8.92422e-05
8.00348e-05
8.21721e-05
6.55257e-05
4.13988e-05
4.06493e-05
3.97548e-05
3.87652e-05
3.71933e-05
3.65294e-05
3.60216e-05
3.99103e-05
6.53056e-05
0.00683333
0.972658
0.00813223
0.00105129
0.00190363
0.0295541
0.453109
0.903919
0.966813
0.963398
0.862059
0.422837
0.0540984
0.00365442
0.000373082
0.000241455
0.00509061
0.00437195
0.000321478
0.000112902
8.59077e-05
8.18561e-05
7.53071e-05
5.19253e-05
4.27505e-05
4.13619e-05
4.03156e-05
3.94591e-05
3.82025e-05
3.67842e-05
3.59326e-05
3.56761e-05
4.08749e-05
9.20112e-05
0.0933701
0.950842
0.000312099
6.679e-05
6.51505e-05
0.000119456
0.000270578
0.000759765
0.00142379
0.00112116
0.000437734
0.00014022
6.36206e-05
4.79914e-05
6.10386e-05
0.00128037
0.00806435
0.000732723
0.000149398
9.20138e-05
8.48106e-05
7.62236e-05
5.72996e-05
3.70117e-05
4.36998e-05
4.22943e-05
4.12103e-05
4.00239e-05
3.92669e-05
3.77572e-05
3.61505e-05
3.56158e-05
3.59266e-05
4.24089e-05
0.000186419
0.757184
0.729243
4.33428e-05
1.65095e-05
1.60983e-05
1.2721e-05
9.98495e-06
1.34347e-05
1.79266e-05
1.70044e-05
1.39908e-05
1.43392e-05
2.35811e-05
3.95944e-05
0.000327268
0.00862081
0.00184274
0.000219412
0.000101177
8.65903e-05
7.97217e-05
5.90546e-05
3.82624e-05
2.59739e-05
4.55347e-05
4.3833e-05
4.20898e-05
4.11639e-05
3.99718e-05
3.86661e-05
3.73034e-05
3.57606e-05
3.54969e-05
3.63439e-05
4.57097e-05
0.000847991
0.98507
0.137314
2.92483e-05
1.19927e-05
1.32238e-05
7.70976e-06
6.02215e-06
7.08746e-06
8.30639e-06
8.68221e-06
1.0275e-05
1.73797e-05
3.44789e-05
0.000114565
0.00453942
0.00439896
0.000363693
0.000117141
8.93983e-05
8.18566e-05
6.20503e-05
3.94243e-05
2.50634e-05
1.66119e-05
4.7596e-05
4.55977e-05
4.40432e-05
4.22617e-05
4.08505e-05
3.95129e-05
3.83421e-05
3.67942e-05
3.54075e-05
3.53216e-05
3.78492e-05
5.78627e-05
0.0149516
0.994502
0.00997501
4.89638e-05
2.31937e-05
1.4328e-05
7.20829e-06
6.65157e-06
7.53374e-06
8.14719e-06
9.47083e-06
1.55266e-05
3.32734e-05
6.41054e-05
0.00142414
0.0079526
0.00069952
0.000145612
9.42078e-05
8.32272e-05
6.42652e-05
4.06928e-05
2.52216e-05
1.51362e-05
1.09558e-05
4.90447e-05
4.7536e-05
4.56264e-05
4.36882e-05
4.19894e-05
4.03142e-05
3.93259e-05
3.78688e-05
3.6336e-05
3.50614e-05
3.54839e-05
4.06926e-05
0.000109158
0.54272
0.960567
0.0011533
6.39579e-05
3.03219e-05
1.19501e-05
7.67875e-06
8.24382e-06
9.24075e-06
9.9188e-06
1.34745e-05
2.68215e-05
4.95991e-05
0.000395399
0.00858589
0.001514
0.000199671
0.000102616
8.4e-05
6.5955e-05
4.15339e-05
2.52048e-05
1.55442e-05
9.70391e-06
8.17075e-06
4.96088e-05
4.93487e-05
4.78146e-05
4.57834e-05
4.34096e-05
4.1587e-05
4.03309e-05
3.88492e-05
3.74986e-05
3.5728e-05
3.49518e-05
3.60915e-05
4.3898e-05
0.000577777
0.986343
0.225889
0.000161852
4.20235e-05
2.06337e-05
8.75954e-06
7.65173e-06
9.00722e-06
1.0053e-05
1.20257e-05
2.11352e-05
4.04427e-05
0.000137723
0.00501058
0.00331522
0.000308726
0.000116916
8.511e-05
6.6335e-05
4.23132e-05
2.51403e-05
1.52891e-05
1.0162e-05
7.20347e-06
6.74473e-06
4.92654e-05
5.02379e-05
4.95788e-05
4.80234e-05
4.57906e-05
4.34984e-05
4.16363e-05
3.99115e-05
3.86919e-05
3.70042e-05
3.52795e-05
3.52785e-05
3.74636e-05
5.53786e-05
0.0225843
0.994188
0.00297948
4.32769e-05
2.98081e-05
1.21174e-05
7.2169e-06
8.14261e-06
9.67847e-06
1.09338e-05
1.639e-05
3.33893e-05
7.00041e-05
0.00178411
0.00611049
0.000545017
0.000141314
8.77084e-05
6.53645e-05
4.29171e-05
2.49008e-05
1.51963e-05
9.97234e-06
7.67257e-06
5.93828e-06
6.04882e-06
4.78391e-05
4.95058e-05
5.05714e-05
4.95759e-05
4.79953e-05
4.60323e-05
4.33574e-05
4.14197e-05
3.99357e-05
3.83286e-05
3.66368e-05
3.50099e-05
3.58298e-05
4.06357e-05
0.000131919
0.846121
0.877475
0.000222643
3.47501e-05
2.07142e-05
8.19802e-06
7.42531e-06
9.25586e-06
1.03718e-05
1.32141e-05
2.56134e-05
4.86987e-05
0.000527173
0.00766915
0.00108016
0.000184682
9.27836e-05
6.35028e-05
4.30837e-05
2.47876e-05
1.51026e-05
9.92986e-06
7.54356e-06
6.45775e-06
5.26419e-06
5.77777e-06
4.52389e-05
4.74732e-05
4.95318e-05
5.04451e-05
4.98303e-05
4.82815e-05
4.58062e-05
4.34804e-05
4.15568e-05
3.97631e-05
3.81912e-05
3.63072e-05
3.4979e-05
3.7413e-05
4.55077e-05
0.00204904
0.995325
0.0508801
8.619e-05
3.38242e-05
1.23603e-05
7.23453e-06
8.61081e-06
9.99611e-06
1.12986e-05
1.91586e-05
3.92773e-05
0.000178767
0.00572889
0.00224261
0.000265856
0.000101623
6.15092e-05
4.24332e-05
2.45811e-05
1.50184e-05
9.9095e-06
7.52437e-06
6.41156e-06
5.83923e-06
4.95163e-06
2.97378e-06
4.41446e-05
4.5117e-05
4.70371e-05
4.98164e-05
5.07327e-05
5.02771e-05
4.8051e-05
4.59474e-05
4.36542e-05
4.14849e-05
3.9895e-05
3.80585e-05
3.59323e-05
3.56196e-05
3.98078e-05
7.47001e-05
0.342988
0.971827
0.000806288
5.34758e-05
2.23945e-05
8.29952e-06
7.78202e-06
9.41184e-06
1.0159e-05
1.45036e-05
3.15764e-05
8.32186e-05
0.00260527
0.00429258
0.000425548
0.000116936
5.98973e-05
4.07698e-05
2.44882e-05
1.49232e-05
9.92642e-06
7.49864e-06
6.45814e-06
5.84703e-06
5.57471e-06
2.58689e-06
1.58438e-06
4.36166e-05
4.33977e-05
4.51761e-05
4.72974e-05
5.03585e-05
5.10794e-05
5.00619e-05
4.85234e-05
4.59727e-05
4.36255e-05
4.17828e-05
4.0032e-05
3.78475e-05
3.61664e-05
3.72505e-05
4.3277e-05
0.000634789
0.990299
0.127088
8.22206e-05
3.67658e-05
1.22918e-05
7.1779e-06
8.49426e-06
9.37455e-06
1.15738e-05
2.4165e-05
5.25031e-05
0.000884663
0.00638037
0.000752739
0.000143299
5.91964e-05
3.84596e-05
2.44441e-05
1.47765e-05
9.96912e-06
7.49953e-06
6.48302e-06
5.95708e-06
5.60249e-06
3.28831e-06
1.28707e-06
1.0165e-06
4.29438e-05
4.26568e-05
4.30188e-05
4.53774e-05
4.77014e-05
5.03804e-05
5.11099e-05
5.04356e-05
4.83625e-05
4.58487e-05
4.38943e-05
4.20539e-05
4.02228e-05
3.8044e-05
3.72269e-05
4.05906e-05
6.37376e-05
0.117182
0.988273
0.00138812
4.88127e-05
2.2544e-05
7.52647e-06
7.34964e-06
8.66636e-06
9.90929e-06
1.75547e-05
4.0086e-05
0.000296492
0.00635848
0.00141753
0.000189236
6.01736e-05
3.58522e-05
2.42003e-05
1.47435e-05
1.00105e-05
7.53489e-06
6.51442e-06
6.04716e-06
5.74349e-06
3.59117e-06
1.67381e-06
8.20329e-07
6.87444e-07
4.50312e-05
4.26396e-05
4.23135e-05
4.3223e-05
4.52451e-05
4.76438e-05
5.04748e-05
5.12805e-05
4.99259e-05
4.81006e-05
4.61029e-05
4.40509e-05
4.24472e-05
4.06579e-05
3.84471e-05
3.92926e-05
4.58458e-05
0.000425938
0.983707
0.277559
0.000149967
3.9042e-05
1.00901e-05
6.33121e-06
7.8651e-06
8.93158e-06
1.3534e-05
3.15944e-05
0.000122441
0.00400906
0.00263213
0.000270286
6.39952e-05
3.32004e-05
2.37738e-05
1.46459e-05
1.00382e-05
7.60666e-06
6.55979e-06
6.1403e-06
5.87115e-06
4.02104e-06
1.8034e-06
1.03536e-06
5.75425e-07
4.84562e-07
4.7093e-05
4.44363e-05
4.291e-05
4.22307e-05
4.29509e-05
4.50417e-05
4.78339e-05
5.06095e-05
5.0646e-05
4.95529e-05
4.7908e-05
4.58372e-05
4.42268e-05
4.29423e-05
4.07952e-05
3.958e-05
4.28311e-05
6.70232e-05
0.0879995
0.986034
0.00166511
5.9664e-05
1.71322e-05
5.98658e-06
6.90915e-06
8.34543e-06
1.07854e-05
2.40408e-05
6.84109e-05
0.00174436
0.00427236
0.000415863
7.23232e-05
3.08979e-05
2.31639e-05
1.44341e-05
1.0033e-05
7.7178e-06
6.62372e-06
6.23199e-06
6.00865e-06
4.47471e-06
2.00659e-06
1.08702e-06
7.05123e-07
4.1685e-07
3.78605e-07
4.84522e-05
4.71005e-05
4.4048e-05
4.25248e-05
4.18999e-05
4.2835e-05
4.51195e-05
4.79609e-05
5.01008e-05
5.00071e-05
4.87887e-05
4.71607e-05
4.55174e-05
4.42001e-05
4.30104e-05
4.06021e-05
4.20772e-05
4.89592e-05
0.00045304
0.982888
0.182994
9.68747e-05
2.97735e-05
7.18177e-06
5.96536e-06
7.79612e-06
9.27726e-06
1.75549e-05
4.62838e-05
0.000636103
0.00530056
0.000676571
8.79383e-05
2.94234e-05
2.21451e-05
1.42656e-05
9.98975e-06
7.85661e-06
6.72352e-06
6.31817e-06
6.15053e-06
4.97656e-06
2.22234e-06
1.1775e-06
7.54814e-07
5.00855e-07
3.05033e-07
3.84183e-07
4.94942e-05
4.88559e-05
4.73323e-05
4.42361e-05
4.1773e-05
4.18098e-05
4.29118e-05
4.52174e-05
4.78658e-05
4.96179e-05
4.90414e-05
4.7557e-05
4.61377e-05
4.45984e-05
4.37802e-05
4.22194e-05
4.09041e-05
4.5444e-05
7.06891e-05
0.136569
0.978861
0.00104294
4.19494e-05
1.1812e-05
5.37275e-06
7.08459e-06
8.38877e-06
1.32001e-05
3.50165e-05
0.000243081
0.00451912
0.00112465
0.000115186
2.92316e-05
2.06602e-05
1.40209e-05
9.92004e-06
8.00992e-06
6.86537e-06
6.40898e-06
6.28837e-06
5.52059e-06
2.46848e-06
1.28016e-06
8.2785e-07
5.43919e-07
3.659e-07
2.64647e-07
4.90279e-07
4.79577e-05
4.93008e-05
4.90422e-05
4.7024e-05
4.47321e-05
4.16296e-05
4.17031e-05
4.31631e-05
4.52109e-05
4.80716e-05
4.86688e-05
4.75358e-05
4.59861e-05
4.42447e-05
4.32659e-05
4.25978e-05
4.07051e-05
4.16372e-05
4.84427e-05
0.000720133
0.985918
0.0725629
9.03027e-05
2.27834e-05
5.66798e-06
6.16846e-06
7.83667e-06
1.034e-05
2.6388e-05
0.000112497
0.00265277
0.00178376
0.00016144
3.09057e-05
1.89369e-05
1.37208e-05
9.84498e-06
8.16103e-06
7.04732e-06
6.51602e-06
6.42122e-06
6.10722e-06
2.74473e-06
1.40394e-06
9.0681e-07
6.00038e-07
3.9729e-07
3.26749e-07
2.86493e-07
6.59857e-07
4.50838e-05
4.73095e-05
4.91143e-05
4.89047e-05
4.69918e-05
4.48277e-05
4.16155e-05
4.19542e-05
4.32766e-05
4.57292e-05
4.80342e-05
4.71268e-05
4.57161e-05
4.37924e-05
4.20819e-05
4.15876e-05
4.02967e-05
3.8137e-05
4.27421e-05
7.65897e-05
0.338378
0.919155
0.000421408
3.84004e-05
7.90612e-06
5.28295e-06
7.21898e-06
8.78755e-06
1.94222e-05
6.28419e-05
0.00118299
0.00240136
0.000242997
3.51929e-05
1.71609e-05
1.3315e-05
9.80157e-06
8.28534e-06
7.26793e-06
6.64684e-06
6.55039e-06
6.51229e-06
3.05469e-06
1.54647e-06
9.96298e-07
6.62757e-07
4.35503e-07
3.49094e-07
3.61974e-07
3.37962e-07
8.59385e-07
4.33068e-05
4.50676e-05
4.7219e-05
4.9431e-05
4.91237e-05
4.68963e-05
4.48377e-05
4.18585e-05
4.22431e-05
4.3993e-05
4.60986e-05
4.72414e-05
4.55063e-05
4.35431e-05
4.13871e-05
3.99564e-05
3.91714e-05
3.68885e-05
3.74511e-05
4.55822e-05
0.00192089
0.987402
0.0142364
6.16614e-05
1.45101e-05
4.80069e-06
6.40416e-06
8.04029e-06
1.37893e-05
4.17762e-05
0.000469335
0.00252115
0.000376516
4.19016e-05
1.54643e-05
1.28219e-05
9.81014e-06
8.37823e-06
7.50264e-06
6.8192e-06
6.67502e-06
6.71261e-06
3.40033e-06
1.70903e-06
1.09923e-06
7.33849e-07
4.79489e-07
3.75116e-07
3.80032e-07
4.32405e-07
3.91601e-07
1.10487e-06
4.19236e-05
4.3081e-05
4.51724e-05
4.76121e-05
4.96571e-05
4.92441e-05
4.67584e-05
4.48846e-05
4.2225e-05
4.32909e-05
4.4478e-05
4.70376e-05
4.64009e-05
4.39356e-05
4.12822e-05
3.90296e-05
3.79137e-05
3.64489e-05
3.50939e-05
3.96631e-05
0.000105577
0.744616
0.657595
0.000202884
2.75172e-05
5.27806e-06
5.46657e-06
7.46499e-06
1.05753e-05
2.83597e-05
0.000193086
0.00196445
0.000558285
5.33302e-05
1.43642e-05
1.22775e-05
9.87847e-06
8.43198e-06
7.73349e-06
7.03897e-06
6.81371e-06
6.90715e-06
3.78329e-06
1.89289e-06
1.21726e-06
8.15958e-07
5.30617e-07
4.03923e-07
4.03936e-07
4.56515e-07
5.13878e-07
4.61523e-07
1.4097e-06
4.28578e-05
4.23559e-05
4.3208e-05
4.52512e-05
4.74294e-05
4.97832e-05
4.9198e-05
4.67827e-05
4.45208e-05
4.33225e-05
4.40875e-05
4.59802e-05
4.79664e-05
4.56596e-05
4.22028e-05
3.94323e-05
3.73264e-05
3.66752e-05
3.44932e-05
3.56761e-05
4.69999e-05
0.0133481
0.980731
0.00243356
4.6119e-05
7.83022e-06
4.62084e-06
6.87867e-06
8.92674e-06
1.93774e-05
9.15137e-05
0.00114793
0.000737764
7.41867e-05
1.40859e-05
1.17488e-05
9.97044e-06
8.46833e-06
7.92784e-06
7.31312e-06
6.98037e-06
7.09594e-06
4.20352e-06
2.10174e-06
1.35012e-06
9.12094e-07
5.89228e-07
4.39205e-07
4.30993e-07
4.90821e-07
5.54545e-07
6.15484e-07
5.6147e-07
1.79869e-06
4.45654e-05
4.3795e-05
4.27129e-05
4.33637e-05
4.5094e-05
4.75111e-05
4.97429e-05
4.87907e-05
4.65518e-05
4.4505e-05
4.40849e-05
4.57857e-05
4.81357e-05
4.83023e-05
4.478e-05
4.14481e-05
3.82016e-05
3.73135e-05
3.59427e-05
3.4799e-05
4.07723e-05
0.000304371
0.951325
0.125439
9.2024e-05
1.47484e-05
4.19671e-06
6.13392e-06
7.98195e-06
1.3653e-05
4.86152e-05
0.000533909
0.000824476
0.000109519
1.45681e-05
1.12014e-05
1.00218e-05
8.50283e-06
8.08109e-06
7.62174e-06
7.19964e-06
7.27647e-06
4.65593e-06
2.33873e-06
1.4986e-06
1.02193e-06
6.57212e-07
4.80362e-07
4.6778e-07
5.29506e-07
6.06756e-07
6.67462e-07
7.58894e-07
7.05735e-07
2.30316e-06
4.63469e-05
4.48908e-05
4.38408e-05
4.26847e-05
4.30969e-05
4.53045e-05
4.78024e-05
4.92878e-05
4.81046e-05
4.65693e-05
4.46227e-05
4.56483e-05
4.79652e-05
5.03262e-05
4.84267e-05
4.48408e-05
4.0996e-05
3.86398e-05
3.80555e-05
3.60819e-05
3.97992e-05
6.8083e-05
0.182637
0.905499
0.000443479
2.74841e-05
4.64905e-06
5.27743e-06
7.30586e-06
9.68725e-06
2.60441e-05
0.000221089
0.000763671
0.000159414
1.88787e-05
1.06861e-05
9.95875e-06
8.56361e-06
8.19399e-06
7.94614e-06
7.48394e-06
7.46534e-06
5.13227e-06
2.60601e-06
1.66278e-06
1.14411e-06
7.36736e-07
5.26394e-07
5.09403e-07
5.69071e-07
6.61803e-07
7.29686e-07
8.20851e-07
9.60959e-07
9.15091e-07
2.95941e-06
4.78705e-05
4.66259e-05
4.5112e-05
4.35626e-05
4.25846e-05
4.31501e-05
4.54289e-05
4.75514e-05
4.88937e-05
4.73967e-05
4.54182e-05
4.52684e-05
4.76412e-05
5.03735e-05
5.26784e-05
4.89125e-05
4.47424e-05
4.0906e-05
3.98691e-05
3.87666e-05
3.82824e-05
4.65668e-05
0.00218125
0.977187
0.00841986
4.899e-05
6.91608e-06
4.46251e-06
6.62677e-06
7.8856e-06
1.40858e-05
9.5555e-05
0.000580973
0.00021762
2.63799e-05
1.0147e-05
9.73669e-06
8.67377e-06
8.29377e-06
8.24916e-06
7.84723e-06
7.6797e-06
5.62399e-06
2.90415e-06
1.84208e-06
1.27855e-06
8.28717e-07
5.80633e-07
5.47092e-07
6.06172e-07
7.08265e-07
7.92117e-07
8.90147e-07
1.03191e-06
1.24933e-06
1.21649e-06
3.80913e-06
4.72083e-05
4.67858e-05
4.6396e-05
4.52758e-05
4.36532e-05
4.26472e-05
4.36569e-05
4.52627e-05
4.76624e-05
4.77877e-05
4.61215e-05
4.44118e-05
4.56344e-05
4.97017e-05
5.34927e-05
5.31258e-05
4.86237e-05
4.38746e-05
4.1044e-05
4.08338e-05
3.78576e-05
4.12032e-05
0.000143833
0.805394
0.32961
0.000117398
1.29752e-05
3.9591e-06
5.84973e-06
6.55171e-06
8.18583e-06
4.65606e-05
0.000359118
0.000274944
3.65091e-05
9.85136e-06
9.37077e-06
8.82974e-06
8.41876e-06
8.5081e-06
8.26642e-06
7.95475e-06
6.12461e-06
3.22867e-06
2.03724e-06
1.42475e-06
9.33905e-07
6.4545e-07
5.88064e-07
6.45742e-07
7.52271e-07
8.53111e-07
9.57812e-07
1.11012e-06
1.32922e-06
1.65838e-06
1.64478e-06
4.89207e-06
4.5525e-05
4.6232e-05
4.67362e-05
4.63204e-05
4.51613e-05
4.37865e-05
4.30776e-05
4.38049e-05
4.60946e-05
4.74855e-05
4.6294e-05
4.44983e-05
4.36068e-05
4.62487e-05
5.1397e-05
5.51938e-05
5.17334e-05
4.69804e-05
4.18695e-05
4.12328e-05
3.83569e-05
3.70257e-05
5.30695e-05
0.0470623
0.937215
0.000694889
2.49534e-05
4.13567e-06
4.97821e-06
5.47159e-06
5.14121e-06
2.2862e-05
0.000189729
0.000293166
5.32104e-05
1.01475e-05
8.94933e-06
9.01444e-06
8.59188e-06
8.71882e-06
8.70997e-06
8.31837e-06
6.63865e-06
3.56847e-06
2.24816e-06
1.58315e-06
1.05352e-06
7.2104e-07
6.3912e-07
6.94607e-07
8.1319e-07
9.24866e-07
1.02887e-06
1.18716e-06
1.41833e-06
1.74639e-06
2.22886e-06
2.24136e-06
6.2458e-06
4.38409e-05
4.52406e-05
4.59179e-05
4.67072e-05
4.62841e-05
4.49899e-05
4.39708e-05
4.32712e-05
4.4795e-05
4.61801e-05
4.68121e-05
4.46279e-05
4.25182e-05
4.30955e-05
4.66414e-05
5.24864e-05
5.36403e-05
4.90326e-05
4.26844e-05
4.02333e-05
3.87641e-05
3.47422e-05
4.07701e-05
0.00101184
0.962842
0.0143325
5.00012e-05
5.63655e-06
4.05207e-06
4.51476e-06
3.58812e-06
1.03347e-05
9.14739e-05
0.000254116
7.49828e-05
1.13348e-05
8.65806e-06
9.17914e-06
8.83234e-06
8.89701e-06
9.13488e-06
8.78817e-06
7.18543e-06
3.90752e-06
2.47172e-06
1.75786e-06
1.18659e-06
8.10807e-07
7.00951e-07
7.64652e-07
8.88171e-07
1.02084e-06
1.11972e-06
1.27457e-06
1.50795e-06
1.84944e-06
2.32346e-06
3.00658e-06
3.05202e-06
7.89412e-06
4.32488e-05
4.43647e-05
4.51507e-05
4.58373e-05
4.65849e-05
4.61186e-05
4.50957e-05
4.38282e-05
4.43798e-05
4.51085e-05
4.69194e-05
4.59482e-05
4.2631e-05
4.07768e-05
4.27511e-05
4.71922e-05
5.25543e-05
4.94183e-05
4.33264e-05
3.90267e-05
3.83509e-05
3.46104e-05
3.6991e-05
0.000116111
0.652357
0.406974
0.000134804
9.74937e-06
3.25887e-06
3.70553e-06
2.58489e-06
4.97123e-06
4.45711e-05
0.00018618
0.000101957
1.53715e-05
8.60013e-06
9.25235e-06
9.12576e-06
9.09112e-06
9.49532e-06
9.347e-06
7.80449e-06
4.23131e-06
2.70631e-06
1.95674e-06
1.33375e-06
9.17143e-07
7.73572e-07
8.45398e-07
9.68048e-07
1.13153e-06
1.23617e-06
1.38469e-06
1.61338e-06
1.95455e-06
2.44221e-06
3.10453e-06
4.03547e-06
4.1223e-06
9.83787e-06
4.46554e-05
4.47951e-05
4.47122e-05
4.50014e-05
4.5753e-05
4.65123e-05
4.57829e-05
4.50112e-05
4.4276e-05
4.49838e-05
4.63576e-05
4.76718e-05
4.48947e-05
4.10954e-05
3.96145e-05
4.30756e-05
4.89867e-05
5.01628e-05
4.40252e-05
3.88961e-05
3.74577e-05
3.59224e-05
3.47354e-05
5.15006e-05
0.0310962
0.926391
0.000832032
1.83248e-05
2.83164e-06
2.9541e-06
1.91332e-06
2.8925e-06
2.20654e-05
0.000118175
0.000125867
2.24216e-05
8.74261e-06
9.17517e-06
9.45233e-06
9.34269e-06
9.79117e-06
9.94081e-06
8.54412e-06
4.54991e-06
2.95132e-06
2.1806e-06
1.49943e-06
1.03606e-06
8.646e-07
9.23178e-07
1.04704e-06
1.22776e-06
1.36513e-06
1.51571e-06
1.74202e-06
2.07956e-06
2.56585e-06
3.24117e-06
4.13236e-06
5.35435e-06
5.48971e-06
1.20512e-05
4.60864e-05
4.54905e-05
4.50013e-05
4.49613e-05
4.52307e-05
4.54924e-05
4.59316e-05
4.54442e-05
4.50773e-05
4.45538e-05
4.62816e-05
4.79295e-05
4.75231e-05
4.37368e-05
3.99165e-05
4.04727e-05
4.51373e-05
5.00458e-05
4.61376e-05
4.04803e-05
3.69626e-05
3.75227e-05
3.46285e-05
4.00414e-05
0.000977564
0.948494
0.0146189
3.58503e-05
2.98009e-06
2.26924e-06
1.46594e-06
1.7551e-06
9.8297e-06
7.00753e-05
0.000139862
3.2943e-05
9.22364e-06
8.97646e-06
9.77647e-06
9.69156e-06
1.00501e-05
1.04973e-05
9.4232e-06
4.89283e-06
3.18649e-06
2.42357e-06
1.68914e-06
1.16749e-06
9.70768e-07
1.01685e-06
1.13531e-06
1.32297e-06
1.49225e-06
1.65432e-06
1.88878e-06
2.22827e-06
2.7129e-06
3.3832e-06
4.28767e-06
5.44429e-06
6.98379e-06
7.17782e-06
1.44893e-05
4.69603e-05
4.56274e-05
4.55184e-05
4.51594e-05
4.52866e-05
4.54082e-05
4.52309e-05
4.55975e-05
4.50352e-05
4.44017e-05
4.54907e-05
4.75797e-05
4.94778e-05
4.70053e-05
4.28433e-05
3.98395e-05
4.29779e-05
4.83515e-05
4.93833e-05
4.41403e-05
3.77067e-05
3.8702e-05
3.65303e-05
3.5869e-05
0.000127472
0.640348
0.332757
9.66165e-05
4.03542e-06
1.69321e-06
1.13272e-06
1.16377e-06
4.65511e-06
3.96916e-05
0.000131909
4.88515e-05
1.03488e-05
8.77271e-06
1.00785e-05
1.01423e-05
1.03349e-05
1.09543e-05
1.04101e-05
5.31604e-06
3.39066e-06
2.68244e-06
1.9035e-06
1.32007e-06
1.08339e-06
1.13686e-06
1.25152e-06
1.45708e-06
1.63946e-06
1.79812e-06
2.04312e-06
2.39348e-06
2.8834e-06
3.55252e-06
4.44861e-06
5.61454e-06
7.0616e-06
8.92455e-06
9.18909e-06
1.70864e-05
4.58448e-05
4.62655e-05
4.58078e-05
4.56147e-05
4.52826e-05
4.53981e-05
4.51635e-05
4.55502e-05
4.49077e-05
4.4385e-05
4.40857e-05
4.6292e-05
4.87264e-05
5.07193e-05
4.62767e-05
4.19708e-05
4.1191e-05
4.63595e-05
5.31596e-05
4.81714e-05
4.00155e-05
3.89892e-05
3.88761e-05
3.34989e-05
5.38497e-05
0.0468293
0.884507
0.000522027
6.53477e-06
1.27896e-06
8.81507e-07
8.103e-07
2.5165e-06
2.1864e-05
0.00010462
6.57006e-05
1.26737e-05
8.74694e-06
1.03268e-05
1.06739e-05
1.06891e-05
1.13052e-05
1.13886e-05
5.88055e-06
3.57834e-06
2.94578e-06
2.15051e-06
1.49948e-06
1.20949e-06
1.27781e-06
1.42269e-06
1.61913e-06
1.83492e-06
1.97644e-06
2.21024e-06
2.56683e-06
3.06837e-06
3.74714e-06
4.64117e-06
5.79255e-06
7.24465e-06
8.98315e-06
1.11536e-05
1.14982e-05
1.97648e-05
4.48572e-05
4.60712e-05
4.61572e-05
4.59411e-05
4.56741e-05
4.5855e-05
4.56254e-05
4.56468e-05
4.50597e-05
4.42698e-05
4.40067e-05
4.44292e-05
4.67763e-05
4.993e-05
4.94989e-05
4.50767e-05
4.10278e-05
4.49614e-05
5.23484e-05
5.20218e-05
4.30855e-05
3.87938e-05
4.01556e-05
3.35494e-05
3.96344e-05
0.00190227
0.935577
0.00719442
1.22572e-05
1.04998e-06
6.78018e-07
5.87627e-07
1.40526e-06
1.06532e-05
7.35363e-05
8.329e-05
1.7035e-05
9.03783e-06
1.04939e-05
1.12267e-05
1.11531e-05
1.15896e-05
1.2042e-05
6.61706e-06
3.80518e-06
3.18654e-06
2.45164e-06
1.70509e-06
1.37068e-06
1.43011e-06
1.63063e-06
1.79317e-06
2.04513e-06
2.20443e-06
2.42358e-06
2.76709e-06
3.26966e-06
3.95882e-06
4.85995e-06
6.00801e-06
7.43506e-06
9.1761e-06
1.11912e-05
1.36238e-05
1.40547e-05
2.24535e-05
4.55957e-05
4.58387e-05
4.6233e-05
4.62355e-05
4.568e-05
4.57487e-05
4.62306e-05
4.64725e-05
4.56959e-05
4.46319e-05
4.37482e-05
4.35368e-05
4.48584e-05
4.72325e-05
5.0367e-05
4.71846e-05
4.25642e-05
4.30002e-05
4.94189e-05
5.42722e-05
4.57355e-05
3.9298e-05
3.95955e-05
3.50711e-05
3.51126e-05
0.00021738
0.722669
0.152547
2.77991e-05
9.8582e-07
5.14947e-07
4.36375e-07
8.54666e-07
5.27508e-06
4.91017e-05
9.77962e-05
2.64511e-05
9.7338e-06
1.05844e-05
1.17418e-05
1.17254e-05
1.18977e-05
1.2556e-05
7.50183e-06
4.16568e-06
3.39855e-06
2.81695e-06
1.95157e-06
1.57844e-06
1.62538e-06
1.82837e-06
1.99361e-06
2.24812e-06
2.49466e-06
2.72645e-06
3.05771e-06
3.53348e-06
4.19758e-06
5.09362e-06
6.24799e-06
7.66644e-06
9.37418e-06
1.13843e-05
1.3637e-05
1.62709e-05
1.67881e-05
2.50788e-05
4.65853e-05
4.57948e-05
4.62596e-05
4.66043e-05
4.58424e-05
4.57476e-05
4.55794e-05
4.66171e-05
4.65162e-05
4.57677e-05
4.44798e-05
4.34253e-05
4.32518e-05
4.53126e-05
4.83946e-05
4.97791e-05
4.46977e-05
4.12677e-05
4.53329e-05
5.29124e-05
4.98714e-05
4.12876e-05
3.77475e-05
3.77412e-05
3.30562e-05
6.86769e-05
0.119523
0.643352
0.000130807
1.10196e-06
3.93495e-07
3.28436e-07
5.54048e-07
2.90825e-06
3.19615e-05
0.000101377
3.9931e-05
1.09761e-05
1.06409e-05
1.21711e-05
1.23924e-05
1.23068e-05
1.29647e-05
8.45315e-06
4.76282e-06
3.6434e-06
3.21753e-06
2.28921e-06
1.83092e-06
1.89967e-06
2.02179e-06
2.23328e-06
2.50053e-06
2.83309e-06
3.06826e-06
3.40049e-06
3.85874e-06
4.48954e-06
5.36277e-06
6.50311e-06
7.92448e-06
9.61472e-06
1.15831e-05
1.3825e-05
1.62586e-05
1.9019e-05
1.9618e-05
2.75826e-05
4.67002e-05
4.61373e-05
4.60994e-05
4.6647e-05
4.66272e-05
4.60289e-05
4.5607e-05
4.5878e-05
4.67757e-05
4.70194e-05
4.57491e-05
4.44477e-05
4.32655e-05
4.39916e-05
4.62608e-05
4.93686e-05
4.63627e-05
4.13601e-05
4.17354e-05
4.85319e-05
5.39653e-05
4.46607e-05
3.60745e-05
3.99272e-05
3.40576e-05
4.17096e-05
0.00610259
0.830436
0.0012642
1.49227e-06
3.15226e-07
2.49502e-07
3.78669e-07
1.64592e-06
1.84061e-05
9.04998e-05
5.29554e-05
1.33536e-05
1.08298e-05
1.24933e-05
1.31152e-05
1.28866e-05
1.33795e-05
9.39906e-06
5.67217e-06
4.06302e-06
3.61719e-06
2.76657e-06
2.17501e-06
2.2247e-06
2.27396e-06
2.46996e-06
2.93022e-06
3.19698e-06
3.36833e-06
3.68213e-06
4.16005e-06
4.81114e-06
5.67662e-06
6.79284e-06
8.20519e-06
9.88499e-06
1.18298e-05
1.40189e-05
1.64369e-05
1.89843e-05
2.17873e-05
2.24566e-05
2.99226e-05
4.6121e-05
4.67066e-05
4.61592e-05
4.63442e-05
4.67733e-05
4.67974e-05
4.60403e-05
4.52762e-05
4.62491e-05
4.74544e-05
4.72492e-05
4.56031e-05
4.41585e-05
4.38705e-05
4.50658e-05
4.76626e-05
4.83107e-05
4.34132e-05
3.92433e-05
4.52673e-05
5.61312e-05
4.87435e-05
3.61772e-05
4.06545e-05
3.82958e-05
3.22163e-05
0.00054719
0.68427
0.0160553
3.87627e-06
2.64863e-07
1.89719e-07
2.70775e-07
1.01433e-06
1.01648e-05
7.22308e-05
7.02649e-05
1.80094e-05
1.13255e-05
1.2728e-05
1.38375e-05
1.3685e-05
1.39719e-05
1.03558e-05
6.9213e-06
4.85499e-06
4.06849e-06
3.38512e-06
2.70796e-06
2.59779e-06
2.69365e-06
2.80164e-06
3.54304e-06
3.64288e-06
3.73843e-06
4.00664e-06
4.48559e-06
5.15256e-06
6.02004e-06
7.12875e-06
8.5142e-06
1.01767e-05
1.21019e-05
1.42601e-05
1.66158e-05
1.91443e-05
2.17348e-05
2.45012e-05
2.52285e-05
3.20678e-05
4.5522e-05
4.74826e-05
4.68951e-05
4.62126e-05
4.64131e-05
4.71981e-05
4.68562e-05
4.55767e-05
4.51281e-05
4.66637e-05
4.77357e-05
4.68735e-05
4.50122e-05
4.45603e-05