/*--------------------------------*- C++ -*----------------------------------*\
| =========                 |                                                 |
| \\      /  F ield         | OpenFOAM: The Open Source CFD Toolbox           |
|  \\    /   O peration     | Version:  v2012                                 |
|   \\  /    A nd           | Website:  www.openfoam.com                      |
|    \\/     M anipulation  |                                                 |
\*---------------------------------------------------------------------------*/
FoamFile
{
    version     2.0;
    format      ascii;
    class       volScalarField;
    location    "12000";
    object      I1_4;
}
// * * * * * * * * * * * * * * * * * * * * * * * * * * * * * * * * * * * * * //

dimensions      [0 0 0 0 0 0 0];


internalField   nonuniform List<scalar> 
27324
(
-1.92212
-1.98382
-2.143
-2.07178
-2.20833
-2.45828
-2.13733
-2.26238
-2.53661
-2.69986
-2.20464
-2.3493
-2.53772
-2.79227
-2.75555
-2.27895
-2.44059
-2.64761
-2.73716
-2.806
-2.82019
-2.36331
-2.54335
-2.75041
-2.8491
-2.76295
-2.75299
-3.05451
-2.46419
-2.65033
-2.86292
-2.94236
-2.88607
-2.78155
-2.77988
-3.36285
-2.57939
-2.7625
-2.96518
-3.05235
-2.99001
-2.91164
-2.87056
-2.80182
-3.62059
-2.70302
-2.88759
-3.04702
-3.15277
-3.10336
-3.03355
-3.00539
-2.92873
-2.73027
-3.92564
-2.83554
-3.0188
-3.1433
-3.22576
-3.21334
-3.16718
-3.12871
-3.0424
-2.908
-2.69275
-4.22985
-2.97443
-3.15271
-3.26249
-3.32216
-3.30993
-3.31018
-3.24181
-3.1405
-3.02606
-2.96925
-2.65835
-4.35661
-3.10634
-3.28782
-3.40433
-3.45167
-3.43842
-3.43499
-3.34577
-3.22162
-3.14384
-3.09961
-2.98738
-2.57098
-4.45228
-3.18605
-3.42358
-3.56304
-3.62321
-3.59965
-3.55296
-3.43234
-3.31303
-3.2462
-3.22255
-3.10667
-2.97492
-2.53147
-4.45765
-3.18435
-3.59158
-3.73801
-3.82616
-3.78026
-3.67071
-3.51909
-3.4246
-3.37131
-3.32188
-3.2141
-3.09295
-3.07877
-2.46205
-4.50747
-3.19056
-3.81042
-3.99454
-4.01667
-3.94128
-3.79118
-3.63406
-3.54554
-3.52078
-3.44252
-3.30155
-3.20977
-3.117
-3.20249
-2.38473
-4.76046
-3.35075
-4.06786
-4.26866
-4.25428
-4.05178
-3.91194
-3.78424
-3.69261
-3.65798
-3.58877
-3.42411
-3.31696
-3.25768
-3.13423
-3.30601
-2.26796
-5.80438
-3.69627
-4.15279
-4.38914
-4.42439
-4.21109
-4.02627
-3.96033
-3.8772
-3.81155
-3.72345
-3.57938
-3.45469
-3.36547
-3.2631
-3.07793
-3.42362
-2.07884
-7.31106
-3.44638
-6.16497
-4.1845
-4.39437
-4.31053
-4.23637
-4.13805
-4.08359
-3.99975
-3.85718
-3.73299
-3.61313
-3.49863
-3.36169
-3.22675
-3.09186
-3.52046
-1.6507
-7.85107
-2.95362
-3.81152
-4.15745
-4.11097
-4.28192
-4.39483
-4.42328
-4.28095
-4.20112
-4.03033
-3.86328
-3.78978
-3.64225
-3.4884
-3.34137
-3.21665
-3.14431
-3.68413
-1.33099
-7.47571
-2.10567
-3.14197
-4.51345
-2.32614
-4.05017
-4.39886
-4.62887
-4.61237
-4.3748
-4.22153
-4.0286
-3.91805
-3.82817
-3.62155
-3.4626
-3.33435
-3.26946
-3.2504
-3.96262
-1.35852
-7.09519
-1.3711
-2.12782
-3.50062
-4.73015
-2.11288
-4.05941
-4.59367
-4.8304
-4.68529
-4.37673
-4.20765
-4.06783
-3.95693
-3.79093
-3.59352
-3.4647
-3.37193
-3.42806
-3.3432
-3.79124
-1.57847
-6.04122
-0.973306
-1.39943
-2.17087
-3.81519
-4.5345
-2.29483
-3.93546
-4.66834
-4.78165
-4.64769
-4.36452
-4.24944
-4.05899
-3.94624
-3.76195
-3.60025
-3.49514
-3.44125
-3.35098
-3.30816
-3.74791
-1.76316
-6.59317
-0.831823
-0.985691
-1.47569
-2.21109
-4.26192
-4.7752
-2.47288
-3.42814
-4.40319
-4.64255
-4.63015
-4.3974
-4.22438
-4.04685
-3.93305
-3.75686
-3.62303
-3.50689
-3.23459
-3.79487
-4.24975
-3.2843
-2.6455
-6.0753
-8.6187
-0.741546
-0.979672
-1.55717
-2.28601
-4.82432
-5.13611
-2.73379
-3.15831
-4.34671
-4.57979
-4.56029
-4.36176
-4.23639
-4.02923
-3.92864
-3.76756
-3.62423
-3.43829
-3.85576
-4.41353
-2.77719
-3.59652
-2.62896
-5.65418
-0.31667
-0.692193
-0.606964
-0.942126
-1.6546
-2.28637
-5.19864
-5.54607
-3.07218
-3.16319
-4.17209
-4.39193
-4.42269
-4.29108
-4.18885
-4.08618
-3.92
-3.76962
-3.68627
-4.41972
-3.54565
-2.59196
-2.41561
-3.19825
-6.79466
-5.16195
-0.665441
-2.01899
-0.408414
-0.509451
-0.863314
-1.82426
-2.2099
-5.22462
-5.89448
-3.7506
-2.93069
-3.7801
-4.1233
-4.06526
-4.09546
-4.16124
-4.13603
-3.8493
-3.81783
-4.09914
-2.90023
-2.20291
-0.50356
-2.95777
-5.35385
-2.77272
-3.71368
-0.743013
-2.17782
-2.62577
-0.455988
-0.439443
-0.816026
-2.07504
-2.07853
-4.84294
-6.10918
-4.52582
-3.50376
-3.99761
-3.85585
-3.84619
-3.85091
-4.15259
-3.94897
-3.71892
-3.8198
-1.01335
-54.7517
-27.078
-4.99447
-3.56661
-2.33513
-1.61291
-5.68554
-1.02632
-1.52295
-1.29534
-0.679071
-0.435124
-0.397386
-0.829843
-2.38823
-1.87103
-4.17694
-5.86435
-5.47985
-4.56876
-4.07011
-4.80652
-4.60971
-4.02047
-6.88079
-5.04474
-15.8321
-19.5104
-14.7446
-5.15387
-2.61171
-2.07158
-1.90235
-2.39514
-2.52074
-3.34236
-1.0826
-1.18137
-0.813742
-0.589014
-0.385303
-0.42374
-0.38636
-0.927829
-2.71162
-1.61739
-3.31335
-5.02871
-5.92348
-5.77205
-5.61625
-5.39966
-6.23064
-7.08335
-7.84388
-9.05192
-6.41585
-4.28231
-2.47906
-1.48039
-1.70783
-2.14335
-2.41037
-2.82239
-2.44727
-4.28797
-1.0052
-0.812432
-0.611028
-0.496162
-0.425586
-0.522049
-0.35761
-0.411004
-1.11308
-2.7393
-1.34609
-2.48787
-3.59611
-4.86312
-5.51945
-5.63889
-5.58708
-5.51297
-5.20353
-4.34538
-3.13375
-2.11566
-1.55947
-1.27284
-1.71666
-2.03718
-2.99372
-3.01336
-2.69264
-1.9013
-4.48024
-0.912712
-0.592758
-0.431101
-0.4468
-0.466324
-0.904586
-0.635853
-0.326886
-0.467517
-1.37999
-2.41668
-1.17393
-1.78725
-2.2421
-2.9462
-3.45305
-3.54392
-3.41645
-2.88144
-2.46129
-1.97703
-1.55343
-1.35635
-1.35001
-1.75157
-1.73245
-2.54494
-2.70223
-3.04992
-3.30032
-2.1818
-4.1977
-0.751938
-0.435258
-0.326313
-0.428148
-0.573028
-0.997329
-0.853145
-0.765126
-0.322528
-0.57485
-1.71473
-2.06002
-1.06008
-1.22935
-1.40679
-1.69153
-1.90182
-1.90069
-1.80002
-1.6151
-1.41461
-1.25846
-1.39297
-1.83926
-1.49939
-1.3436
-2.15742
-3.11372
-3.3651
-3.18493
-3.11797
-2.429
-5.68867
-0.435684
-0.316452
-0.301962
-0.53094
-0.836433
-1.19734
-0.924528
-0.783576
-0.79681
-0.340411
-0.764841
-2.0102
-1.9232
-7.83744
-0.583565
-0.88406
-1.15375
-1.2838
-1.30616
-1.31474
-1.33956
-1.48527
-1.80266
-4.33081
-3.31654
-1.35596
-1.91862
-3.04827
-3.5246
-3.27955
-2.87301
-3.05005
-3.74967
-4.47543
-0.158499
-0.24856
-0.371562
-0.933749
-1.8123
-1.29506
-1.11807
-1.15543
-1.08523
-0.711523
-0.37937
-1.07493
-2.14675
-1.89018
-2.12884
-3.5914
-1.18748
-1.44368
-1.35714
-1.42929
-1.64933
-1.79053
-2.01768
-2.40625
-1.06222
-1.62988
-1.65457
-2.81769
-3.49739
-3.31487
-2.95038
-2.82252
-4.5124
-4.328
-3.30494
-0.0425934
-0.255063
-0.714097
-2.55588
-4.40702
-1.13544
-1.22928
-1.26483
-1.4018
-0.637418
-0.512582
-0.471724
-1.5182
-2.13301
-1.44193
-1.76459
-2.75408
-2.59321
-2.63049
-2.46031
-2.28412
-2.25248
-2.0755
-1.98896
-0.499688
-2.33552
-1.49505
-2.4201
-3.42526
-3.3746
-3.00115
-2.87089
-4.18444
-4.689
-3.12518
-3.61008
-10.9792
-0.452729
-2.29413
-5.44207
-4.1551
-0.84799
-1.46313
-1.18071
-1.23006
-0.883769
-0.406248
-0.388777
-0.631094
-2.01434
-1.94597
-1.38952
-2.24335
-2.4538
-2.59321
-2.26022
-2.2008
-2.0046
-1.80312
-1.49918
-2.19454
-3.26006
-1.49136
-2.01671
-3.22893
-3.43611
-3.09956
-2.90349
-4.06577
-4.4096
-3.21451
-3.17383
-3.66632
-3.71643
-0.440468
-0.0804474
-1.54729
-1.94103
-0.762274
-1.53268
-1.02725
-1.01184
-0.874679
-0.834946
-0.641008
-0.390955
-0.900604
-2.37286
-1.70858
-1.35686
-2.59407
-2.52038
-2.2432
-2.10911
-1.99353
-1.81047
-1.61813
-1.49577
-4.35238
-1.72541
-1.68674
-2.91627
-3.46805
-3.19989
-2.98264
-3.85781
-4.18072
-3.17911
-3.47307
-3.16123
-3.93215
-1.02085
-0.25782
-0.1778
-0.473527
-1.25383
-0.846296
-1.3345
-0.874335
-0.950407
-0.838554
-0.880109
-1.07212
-0.579297
-0.491399
-1.30372
-2.44999
-1.58573
-1.34089
-2.33502
-2.30002
-2.15475
-1.96965
-1.82834
-1.61779
-1.62247
-4.31418
-2.52344
-1.4773
-2.51695
-3.43
-3.29664
-3.06336
-3.79426
-4.03486
-3.17731
-3.40974
-3.55859
-3.3696
-4.14101
-0.660694
-0.267017
-0.342889
-0.876601
-1.02867
-0.885304
-1.02762
-0.794978
-0.982336
-0.858403
-0.95606
-1.18985
-0.48962
-0.43111
-0.68083
-1.77039
-2.24593
-1.82274
-1.88552
-2.37467
-2.3048
-2.08185
-1.92905
-1.69709
-1.53964
-2.37405
-4.63354
-1.41971
-2.10657
-3.28823
-3.38651
-3.1562
-3.87018
-3.82876
-3.19543
-3.43532
-3.53378
-3.79184
-3.61076
-4.32584
-0.446609
-0.299597
-0.785053
-2.93033
-1.6702
-1.02423
-1.09223
-0.838243
-1.04411
-0.910957
-0.981406
-1.16125
-0.838435
-0.758074
-0.443866
-0.994456
-2.18775
-2.17467
-1.20393
-2.24738
-2.42128
-2.16195
-2.01159
-1.77796
-1.5664
-1.77821
-0.462771
-1.5863
-1.75453
-3.03169
-3.44282
-3.28764
-3.98569
-3.64032
-3.22005
-3.43251
-3.60248
-3.76947
-4.02628
-3.81453
-4.49852
-0.217626
-0.397825
-1.73675
-4.50605
-2.21128
-0.838731
-1.12712
-1.0409
-1.12725
-0.95525
-1.0342
-1.13249
-0.940413
-1.15273
-0.490017
-0.603128
-1.45152
-2.42093
-2.89661
-1.55851
-2.46547
-2.2336
-2.07327
-1.8502
-1.62251
-1.59862
-11.7647
-2.20671
-1.50595
-2.68003
-3.42808
-3.4257
-4.0114
-3.455
-3.24211
-3.44748
-3.64653
-3.8523
-4.01405
-4.22947
-3.98187
-4.69253
-2.17402
-0.0957668
-3.37981
-2.42949
-0.734007
-0.691203
-1.52153
-1.02758
-1.1525
-1.01765
-1.07333
-1.1488
-0.911164
-0.955611
-0.510176
-0.457807
-0.843647
-1.97702
-2.37213
-0.789141
-2.35882
-2.2987
-2.13096
-1.93035
-1.69863
-1.54704
-2.98655
-4.02921
-1.3868
-2.28674
-3.33215
-3.52099
-4.01778
-3.30954
-3.28052
-3.46912
-3.68806
-3.91095
-4.10414
-4.23811
-4.39896
-4.16289
-4.72536
-0.459711
-0.232258
-0.131135
-1.36444
-0.462791
-0.625855
-1.4306
-0.91123
-1.13754
-1.09165
-1.09057
-1.12163
-0.97618
-0.99175
-0.831122
-0.329865
-0.604842
-1.21489
-2.36608
-2.09174
-2.08515
-2.31898
-2.18048
-2.01666
-1.79778
-1.56824
-1.90771
-3.40364
-1.43567
-1.91619
-3.14694
-3.54513
-4.06044
-3.21346
-3.32374
-3.50363
-3.71978
-3.97509
-4.17146
-4.34365
-4.42884
-4.57061
-4.32298
-4.95051
-0.217677
-0.263233
-0.307613
-1.26861
-0.412334
-0.800445
-1.05847
-0.623534
-1.20557
-1.18102
-1.10083
-1.13921
-1.03175
-1.0528
-0.976733
-0.964504
-0.476371
-0.793086
-1.7709
-2.74985
-2.25985
-2.16351
-2.21524
-2.10562
-1.89965
-1.62992
-1.59702
-23.3856
-1.7649
-1.61902
-2.87088
-3.49244
-4.07769
-3.17423
-3.33416
-3.56064
-3.74372
-4.03546
-4.24952
-4.42332
-4.55324
-4.60859
-4.64781
-4.90622
-5.21258
-0.107404
-0.492343
-1.80974
-2.98424
-0.557202
-0.904929
-1.11085
-0.565363
-1.29348
-1.24117
-1.11748
-1.14898
-1.08458
-1.06761
-1.03424
-0.883145
-21.6275
-0.660799
-1.09715
-2.49024
-4.07894
-1.4848
-2.24723
-2.18579
-2.00154
-1.71978
-1.51844
-4.34529
-2.75298
-1.42704
-2.52937
-3.37455
-4.02418
-3.1883
-3.32744
-3.61971
-3.76239
-4.09191
-4.33107
-4.51222
-4.65493
-4.72883
-4.73668
-4.96685
-5.99252
-5.34873
-2.99797
-3.38777
-6.56665
-77.8855
-1.93637
-1.10172
-1.04714
-0.8872
-1.66257
-1.18647
-1.07403
-1.2141
-1.09499
-1.09595
-1.05264
-0.995253
-0.97701
-0.551479
-0.78614
-1.65158
-3.07867
-0.483901
-2.28936
-2.24053
-2.09182
-1.81483
-1.53734
-1.90098
-4.41638
-1.36487
-2.16912
-3.19882
-3.89081
-3.29543
-3.29386
-3.66148
-3.78816
-4.14327
-4.41596
-4.60226
-4.76037
-4.83532
-4.8798
-5.07199
-5.58514
-6.9736
-5.41226
-1.52081
-0.0863991
-0.393093
-3.5621
-0.87756
-0.575646
-1.34301
-0.986806
-1.30882
-1.15275
-0.903932
-1.23823
-1.12984
-1.10156
-1.05578
-1.01844
-0.978186
-1.31463
-0.716427
-1.05197
-2.41729
-3.72525
-2.26634
-2.26199
-2.15897
-1.92164
-1.58376
-1.663
-0.846908
-1.48395
-1.84253
-2.96098
-3.72328
-3.49427
-3.25412
-3.70244
-3.81421
-4.18908
-4.50268
-4.69553
-4.86295
-4.95028
-5.00871
-5.17123
-5.79598
-6.07507
-7.28481
-4.82571
-0.381232
-0.17758
-0.106003
-2.17889
-0.533353
-0.529349
-0.844491
-1.20539
-1.13103
-1.08451
-0.467144
-1.08127
-1.04387
-1.11381
-1.08106
-0.994466
-1.06191
-0.882839
-0.751188
-0.799678
-1.67816
-3.48011
-6.20649
-2.27966
-2.19139
-2.01929
-1.68548
-1.48181
-7.82723
-1.96773
-1.58968
-2.67024
-3.59534
-3.79711
-3.2178
-3.70873
-3.85545
-4.23314
-4.58697
-4.79356
-4.96571
-5.06312
-5.13679
-5.28166
-5.87358
-6.46794
-6.28018
-6.16202
-4.05755
-0.367079
-0.248602
-0.555984
-0.980954
-0.784621
-0.589498
-0.484401
-1.03964
-1.13244
-1.05888
-0.929527
-1.18238
-0.844472
-0.990113
-1.10877
-1.01515
-0.97388
-0.981834
-1.21215
-0.815114
-1.06218
-2.78712
-8.41561
-2.39126
-2.1788
-2.1034
-1.80122
-1.49872
-2.52437
-3.2368
-1.42912
-2.40709
-3.53945
-4.11824
-3.18223
-3.69143
-3.90733
-4.27895
-4.66526
-4.89676
-5.06901
-5.17704
-5.26633
-5.39498
-5.99532
-6.60039
-6.81739
-5.55868
-4.62818
-3.56603
-0.244206
-0.661214
-1.30276
-2.87688
-0.910374
-1.00772
-0.742819
-0.781856
-0.9058
-1.20126
-1.03441
-1.10951
-15.1642
-0.792787
-1.07489
-0.996792
-0.995212
-0.889885
-1.19808
-1.15727
-0.815586
-1.77359
-4.20918
-1.80044
-2.14534
-2.15922
-1.92844
-1.55256
-1.76917
-3.4209
-1.38624
-2.16216
-3.31152
-4.27988
-3.1434
-3.64724
-3.97245
-4.33019
-4.73527
-5.00123
-5.17681
-5.29125
-5.39924
-5.51403
-6.10984
-6.80365
-6.99373
-6.2029
-4.19045
-3.749
-3.20372
-0.321499
-0.305332
-1.94245
-1.02758
-0.921306
-1.05558
-0.895598
-1.10988
-0.44311
-1.35867
-1.13493
-1.13528
-1.17138
-2.17124
-0.870243
-0.980963
-0.984674
-0.89341
-1.11228
-3.1799
-0.836704
-1.12241
-3.15229
-70.7668
-2.19905
-2.16781
-2.04157
-1.67609
-1.45385
-18.5444
-1.52308
-1.93666
-2.96927
-4.13342
-3.11525
-3.6003
-4.04423
-4.3892
-4.79728
-5.10188
-5.29009
-5.40528
-5.53282
-5.63561
-6.22592
-6.98269
-7.25867
-6.53328
-4.6472
-3.35577
-3.23807
-2.93151
-0.163117
-0.268731
-1.31602
-1.04303
-1.07612
-0.703516
-1.2135
-0.953253
-0.970183
-0.764464
-1.05838
-1.26032
-1.0838
-1.06321
-0.874425
-0.939224
-1.01793
-0.959751
-0.825814
-0.977837
-1.0213
-0.831667
-2.13235
-7.68587
-2.52038
-2.12133
-2.13595
-1.81269
-1.41298
-6.74099
-2.01337
-1.74934
-2.65461
-3.87048
-3.21671
-3.57186
-4.1128
-4.45504
-4.85524
-5.196
-5.41084
-5.52189
-5.66584
-5.75891
-6.3442
-7.16887
-7.49893
-6.95186
-4.94164
-3.62897
-2.91279
-2.89432
-2.7279
-0.267311
-0.663389
-1.01444
-1.35528
-1.68529
-1.18801
-0.671195
-1.48268
-0.839422
-1.17346
-0.16426
-0.9771
-1.30123
-0.997009
-1.15339
-0.912907
-1.02454
-1.06002
-0.919756
-0.862126
-0.62176
-0.834774
-1.29703
-4.18835
-0.246715
-2.07268
-2.18759
-1.94125
-1.52118
-2.06771
-3.39589
-1.61516
-2.38245
-3.55671
-3.42327
-3.57998
-4.1657
-4.52461
-4.91445
-5.28084
-5.53711
-5.64292
-5.79876
-5.88769
-6.46175
-7.35595
-7.75425
-7.34694
-5.34759
-3.76199
-3.10903
-2.61325
-2.66358
-2.57424
-0.729818
-18.6174
-3.2802
-1.59297
-0.884157
-1.43324
-1.06265
-0.753605
-1.42248
-0.925665
-1.10538
-0.0358193
-0.981309
-1.31228
-1.00557
-1.00956
-1.00576
-1.23784
-0.968831
-0.902657
-2.44547
-1.15284
-0.893334
-2.6948
-27.6417
-2.17674
-2.16725
-2.06277
-1.60418
-1.55221
-5.01163
-1.53702
-2.14562
-3.24813
-3.70216
-3.63009
-4.19139
-4.59273
-4.98237
-5.35622
-5.66264
-5.77294
-5.92741
-6.02163
-6.5835
-7.53023
-8.00446
-7.71739
-5.80143
-3.9562
-3.17093
-2.76745
-2.41796
-2.50421
-2.45969
-0.315967
-0.471204
-4.00316
-0.902194
-0.246653
-1.51721
-1.2149
-2.5929
-0.517171
-1.29099
-1.10825
-1.18019
-0.335062
-0.987602
-1.19643
-1.27386
-1.20386
-1.25983
-1.07499
-0.914224
-0.943922
-2.02106
-0.793767
-1.66515
-6.8439
-2.44063
-2.08143
-2.16524
-1.70349
-1.4277
-3.25963
-1.52572
-1.96958
-3.00635
-4.07454
-3.69842
-4.19071
-4.65483
-5.06259
-5.42849
-5.78079
-5.91442
-6.0527
-6.15787
-6.71114
-7.69027
-8.24478
-8.07046
-6.27921
-4.16386
-3.26411
-2.81193
-2.54583
-2.28771
-2.39285
-2.37393
-0.166746
-0.234725
-5.92701
-1.15652
-0.352148
-0.505209
-1.5006
-1.53017
-0.909125
-0.596345
-1.2903
-0.983008
-1.05138
-0.787637
-0.946258
-1.4611
-2.02143
-1.15684
-1.04573
-1.00622
-0.856039
-1.49035
-0.980958
-1.03507
-3.91413
-3.2893
-2.0267
-2.21751
-1.80062
-1.43168
-1.44301
-1.58862
-1.89754
-2.86284
-4.25154
-3.74414
-4.17414
-4.71099
-5.15446
-5.50535
-5.88721
-6.06561
-6.17893
-6.29635
-6.83886
-7.84093
-8.47883
-8.41712
-6.7435
-4.42071
-3.352
-2.88574
-2.57821
-2.39866
-2.20039
-2.31398
-2.3103
-0.645861
-0.964849
-2.28973
-1.52322
-1.2425
-0.364185
-0.909798
-1.26862
-1.24415
-1.03588
-0.56783
-1.35443
-0.955702
-1.3808
-0.892823
-1.15147
-2.74904
-1.029
-0.956749
-1.06188
-0.783288
-1.28805
-1.61865
-0.795703
-2.35088
-30.4499
-2.21855
-2.16264
-1.92466
-1.46701
-1.04632
-1.65008
-1.89004
-2.64235
-4.12231
-3.80696
-4.16198
-4.76193
-5.25423
-5.59288
-5.97829
-6.21756
-6.3117
-6.43691
-6.96787
-7.98377
-8.70188
-8.76901
-7.22788
-4.73651
-3.46442
-2.95575
-2.63595
-2.42495
-2.29961
-2.14291
-2.25889
-2.26292
-0.892903
-6.70818
-1.35018
-1.17656
-2.1735
-1.29216
-2.25984
-0.595238
-1.44709
-1.23378
-2.17315
-0.570556
-1.45598
-0.928519
-1.01081
-1.02359
-1.26742
-0.981482
-0.900415
-1.09883
-0.830732
-0.881131
-2.62242
-0.81545
-1.41455
-7.28722
-2.64433
-1.99628
-2.07817
-1.52971
-1.53205
-1.8019
-1.8727
-2.3991
-3.74859
-3.87465
-4.17721
-4.80849
-5.3535
-5.69485
-6.05983
-6.36223
-6.45869
-6.58002
-7.0977
-8.12357
-8.91278
-9.12418
-7.72432
-5.11438
-3.59545
-3.02239
-2.68605
-2.47119
-2.32178
-2.2331
-2.10663
-2.2215
-2.22981
-0.763398
-4.2527
-0.268477
-0.682646
-1.70338
-2.15382
-2.12991
-0.322519
-1.29143
-1.49568
-1.38072
-2.13191
-0.818241
-1.19441
-0.960182
-1.02621
-1.15907
-0.318717
-0.90201
-1.14651
-0.884894
-0.838875
-3.19611
-1.16962
-0.922522
-3.89035
-1.31124
-1.82722
-2.2225
-1.62255
-1.6897
-2.40822
-1.83009
-2.21844
-3.43269
-4.08071
-4.25823
-4.85064
-5.44319
-5.80793
-6.14501
-6.48944
-6.6215
-6.72783
-7.22129
-8.25596
-9.11654
-9.46446
-8.20126
-5.55123
-3.73528
-3.07982
-2.73191
-2.50997
-2.36064
-2.25281
-2.18933
-2.08608
-2.19817
-2.20838
-0.162142
-0.521538
-0.678296
-0.148892
-8.80235
-1.71145
-2.56831
-1.50617
-8.09282
-0.839914
-1.55731
-1.19601
-1.23125
-0.84785
-1.36263
-1.75324
-0.993642
-0.868893
-0.355958
-1.17083
-0.96999
-0.880088
-1.07704
-2.19699
-0.759945
-2.22271
-121.843
-1.78791
-2.27033
-1.75345
-1.84126
-2.73272
-1.82175
-2.11515
-3.1929
-4.39156
-4.39156
-4.88429
-5.51766
-5.92637
-6.24345
-6.59546
-6.78933
-6.87946
-7.33781
-8.38613
-9.32094
-9.7998
-8.66773
-5.99109
-3.89186
-3.132
-2.77543
-2.5455
-2.39273
-2.2869
-2.20699
-2.16252
-2.0774
-2.18675
-2.19765
-0.523707
-0.0495859
-0.301656
-0.260645
-3.31902
-0.779098
-1.46141
-2.12789
-1.78
-0.150867
-1.03506
-1.58734
-1.06374
-0.726577
-1.21239
-1.40418
-1.01885
-0.859921
-1.45615
-1.18858
-1.02905
-1.10761
-0.816858
-4.19953
-0.837503
-1.33686
-8.97213
-1.95191
-2.15996
-1.92704
-1.87748
-2.41133
-1.85949
-2.08525
-3.07344
-4.53288
-4.5389
-4.90943
-5.57714
-6.04328
-6.36124
-6.6895
-6.95082
-7.04741
-7.45461
-8.51208
-9.52203
-10.1224
-9.14099
-6.43094
-4.09243
-3.18812
-2.82204
-2.57955
-2.42219
-2.31411
-2.23832
-2.17926
-2.14833
-2.07911
-2.18558
-2.19527
-2.76028
-0.356935
-1.49857
-0.0858437
-2.71626
-2.97585
-2.84534
-1.06531
-1.89279
-1.58218
-1.35152
-1.12083
-1.50986
-1.01633
-1.21337
-1.44816
-1.05615
-1.01611
-0.953259
-1.39417
-0.916838
-1.48025
-0.772111
-2.11604
-1.25821
-0.889993
-4.06287
-0.302357
-1.91596
-2.13906
-1.9659
-2.24725
-2.16455
-2.09707
-2.89847
-4.47106
-4.68679
-4.94216
-5.6291
-6.15327
-6.49677
-6.78465
-7.09093
-7.23216
-7.57882
-8.63008
-9.71741
-10.4364
-9.61785
-6.9107
-4.34509
-3.26979
-2.87203
-2.61632
-2.45106
-2.34014
-2.26302
-2.20784
-2.16467
-2.14512
-2.08896
-2.19373
-2.20328
-0.0459035
-3.85772
-1.65803
-0.483092
-5.61932
-2.77771
-1.28681
-0.0273918
-1.59762
-1.5426
-1.21157
-0.864196
-1.43265
-1.17436
-1.23542
-1.3334
-0.296903
-0.886627
-0.989556
-11.0357
-0.752225
-1.61654
-0.841759
-0.834262
-2.40039
-0.742912
-2.31495
-3844.75
-1.70688
-2.36825
-2.06049
-2.19001
-2.361
-2.11536
-2.75031
-4.1797
-4.72743
-5.00523
-5.68369
-6.25562
-6.64191
-6.89867
-7.20244
-7.42232
-7.71947
-8.73903
-9.90181
-10.7414
-10.1046
-7.39106
-4.6417
-3.3632
-2.91643
-2.65261
-2.48219
-2.36662
-2.28651
-2.23003
-2.19152
-2.16005
-2.1508
-2.10669
-2.21167
-2.22183
-0.0756749
-0.129813
-1.80479
-2.88439
-5.1978
-3.54051
-1.69603
-1.60978
-1.55997
-1.24349
-1.63134
-0.809119
-1.16022
-1.32069
-3.13943
-1.27419
-0.912942
-0.413295
-0.861115
-1.95489
-0.759592
-1.31308
-0.879544
-0.619949
-2.04579
-0.821345
-1.3974
-11.2079
-1.56152
-2.49441
-2.15073
-2.20066
-2.48654
-2.1468
-2.59888
-3.87511
-5.00234
-5.11294
-5.74714
-6.34801
-6.78229
-7.03605
-7.29613
-7.59734
-7.8924
-8.83555
-10.0741
-11.0409
-10.6049
-7.84642
-4.95593
-3.45176
-2.95157
-2.6831
-2.51155
-2.39225
-2.3085
-2.25202
-2.21251
-2.18565
-2.16524
-2.16375
-2.1318
-2.23894
-2.24947
-0.64023
-0.456874
-0.35365
-2.48153
-4.00293
-1.55953
-1.22012
-1.27759
-1.74811
-0.135603
-1.75452
-2.13897
-0.635922
-1.48836
-1.84358
-1.58264
-0.938139
-1.78147
-0.860451
-1.41608
-0.799417
-1.03775
-0.989404
-0.713175
-2.08603
-1.23384
-0.946512
-4.63817
-0.98252
-2.43259
-2.2455
-2.25203
-2.51899
-2.30611
-2.54811
-3.71697
-5.20782
-5.27306
-5.81803
-6.43241
-6.90777
-7.19109
-7.39379
-7.73799
-8.08651
-8.94349
-10.2323
-11.3673
-11.0988
-8.28551
-5.26453
-3.56274
-2.97839
-2.70644
-2.5302
-2.40959
-2.32772
-2.27291
-2.23316
-2.20627
-2.18938
-2.17831
-2.1852
-2.16417
-2.27651
-2.29035
-0.865714
-17.1571
-8.86851
-0.470666
-1.58526
-0.695932
-4.38184
-0.283281
-0.858305
-0.97742
-21.2981
-1.84538
-0.981313
-1.96972
-1.54334
-0.282572
-1.07263
-1.0342
-1.449
-0.947078
-2.54597
-0.872307
-1.12351
-0.962197
-0.866946
-2.36841
-0.756817
-2.66817
-22.067
-2.3165
-2.36492
-2.31366
-2.50264
-2.50594
-2.57828
-3.57342
-5.34054
-5.45115
-5.89627
-6.51263
-7.01423
-7.35365
-7.51175
-7.84404
-8.27732
-9.09155
-10.3668
-11.7217
-11.5812
-8.74372
-5.6086
-3.71819
-2.98561
-2.69031
-2.5105
-2.40225
-2.33763
-2.29079
-2.25151
-2.22563
-2.20826
-2.20119
-2.19852
-2.21402
-2.20468
-2.32496
-2.34308
-0.0751525
-3.99619
-3.2938
-0.440645
-0.183739
-1.384
-1.3393
-0.33295
-1.23925
-1.74542
-1.16748
-15.0646
-2.04692
-6.94692
-1.54531
-1.03388
-0.4438
-1.17203
-1.82537
-0.845993
-1.55413
-0.834506
-0.98604
-1.74148
-0.667059
-3.50566
-0.777993
-1.63763
-6.5403
-2.2733
-2.49809
-2.38789
-2.52812
-2.70286
-2.6027
-3.38195
-5.1375
-5.56863
-5.99149
-6.59476
-7.10392
-7.51105
-7.65032
-7.92961
-8.43018
-9.30321
-10.5353
-12.0823
-12.1039
-9.25937
-6.03252
-3.87897
-2.96841
-2.69464
-2.53568
-2.42883
-2.35735
-2.30433
-2.26787
-2.24389
-2.22636
-2.21861
-2.22018
-2.22606
-2.25048
-2.2537
-2.38599
-2.40992
-0.198404
-0.181733
-10.8739
-0.266233
-11.4442
-0.109727
-0.793899
-2.90151
-2.73018
-8.40502
-0.0976651
-3.23424
-4.25224
-1.01436
-2.01686
-1.27298
-0.89059
-1.06308
-1.58158
-0.894754
-0.875954
-0.839744
-0.703782
-4.43592
-0.711521
-2.61462
-1.05291
-1.16939
-3.59682
-2.559
-2.64075
-2.47671
-2.56762
-2.84725
-2.68806
-3.20598
-4.85657
-5.80289
-6.11384
-6.68537
-7.18346
-7.65013
-7.79982
-8.02766
-8.53054
-9.55454
-10.8462
-12.4091
-12.7507
-9.92714
-6.51075
-4.01554
-2.96583
-2.75403
-2.59031
-2.47015
-2.3849
-2.32299
-2.28399
-2.25792
-2.24286
-2.236
-2.23738
-2.24695
-2.26199
-2.29664
-2.31252
-2.46072
-2.49404
-5.15718
-0.500055
-0.371581
-0.424774
-0.840448
-0.605262
-0.1004
-2.99038
-5.54597
-7.98322
-0.275895
-1.12333
-3.67595
-3.26655
-0.258452
-1.68001
-0.946467
-3.45595
-1.10725
-0.21834
-0.673574
-0.834211
-0.581934
-3.44603
-0.728288
-0.754886
-1.98142
-0.903452
-3.06283
-7.513
-2.76366
-2.57856
-2.64405
-2.93439
-2.81113
-3.13556
-4.66853
-6.21774
-6.26709
-6.77919
-7.2603
-7.76279
-7.95129
-8.14766
-8.58723
-9.782
-11.3711
-12.7617
-13.5005
-10.8686
-6.98157
-4.10884
-3.00003
-2.8079
-2.60776
-2.47444
-2.38681
-2.33116
-2.29749
-2.27342
-2.25858
-2.25238
-2.25291
-2.26249
-2.28069
-2.30625
-2.35312
-2.38199
-2.55287
-2.59792
-7.1021
-71.1903
-0.504243
-2.28618
-0.24685
-0.276465
-0.301213
-0.706819
-2.035
-1.88412
-0.874774
-0.403508
-1.88643
-2.61336
-1.44538
-2.14156
-1.28506
-0.961562
-1.00468
-1.32284
-0.896367
-1.42406
-0.652732
-1.49095
-0.838089
-0.502876
-4.78525
-0.84269
-2.08035
-7.9693
-2.80305
-2.6863
-2.75044
-3.04168
-3.04232
-3.14305
-4.52231
-6.54181
-6.4039
-6.86794
-7.34639
-7.84082
-8.0931
-8.29261
-8.63548
-9.92646
-12.1228
-13.4394
-14.395
-12.1564
-7.33626
-4.12236
-3.06479
-2.79981
-2.58528
-2.47364
-2.39549
-2.34023
-2.30351
-2.28253
-2.27218
-2.26778
-2.26814
-2.27686
-2.29505
-2.32346
-2.36003
-2.42065
-2.46461
-2.66443
-2.72152
-0.0103946
-9.05984
-149.802
-8.6504
-0.138677
-0.319246
-0.521068
-5.4117
-1.22569
-6.07774
-0.600587
-3.02483
-0.946952
-1.63399
-2.31661
-0.700901
-2.75851
-1.66285
-1.70889
-0.862852
-2.95588
-0.757553
-0.777914
-0.861505
-1.07863
-0.508456
-9.37796
-0.929218
-1.48945
-4.0637
-2.84428
-2.83943
-2.88891
-3.14515
-3.282
-3.22396
-4.28965
-6.47319
-6.43338
-6.96053
-7.45403
-7.88534
-8.22196
-8.44487
-8.70439
-9.96533
-12.9479
-14.9439
-15.6751
-13.8284
-7.74245
-4.1782
-3.16021
-2.75452
-2.54728
-2.45451
-2.38742
-2.34127
-2.30823
-2.28793
-2.27873
-2.27703
-2.28119
-2.29089
-2.30853
-2.33592
-2.37486
-2.42443
-2.50115
-2.56209
-2.79741
-2.86962
-0.0685629
-0.0268751
-2.32985
-1.03663
-0.110924
-0.897985
-1.8719
-4.53665
-0.818875
-1.61735
-1.49795
-1.73801
-1.08231
-1.10538
-1.82911
-1.46836
-1.23126
-1.22837
-0.808821
-1.18315
-0.911466
-0.805732
-0.500942
-0.67782
-1.72738
-0.269129
-1.64627
-1.16352
-1.16433
-3.15151
-3.51853
-3.05515
-3.05154
-3.25551
-3.53922
-3.3062
-4.03583
-6.19482
-6.59847
-7.08987
-7.59089
-7.90137
-8.34056
-8.61313
-8.80152
-9.93295
-13.4909
-17.6463
-18.1966
-16.0991
-8.30109
-4.2975
-3.19841
-2.70279
-2.50877
-2.41746
-2.36087
-2.32974
-2.30803
-2.29176
-2.28274
-2.28299
-2.28971
-2.30212
-2.32041
-2.3472
-2.38471
-2.43683
-2.50133
-2.59791
-2.67869
-2.95763
-3.04869
-6.23288
-0.385867
-0.264277
-0.573038
-0.163622
-1.35494
-1.56042
-1.47237
-1.94949
-0.579698
-1.70137
-0.484417
-3.2795
-0.243937
-1.545
-2.88147
-1.12949
-9.18601
-0.787782
-1.60801
-0.673947
-0.741158
-0.800225
-0.529477
-1.28773
-2.7503
-0.95077
-1.46316
-1.0787
-2.50754
-5.55624
-3.24527
-3.22828
-3.37655
-3.70771
-3.40024
-3.91814
-5.92218
-7.01688
-7.27538
-7.75084
-7.91865
-8.43615
-8.8055
-8.92824
-9.92116
-13.2209
-21.1213
-24.0575
-19.43
-9.0248
-4.4476
-3.14215
-2.61589
-2.46185
-2.37346
-2.32102
-2.30243
-2.29476
-2.28866
-2.28448
-2.28558
-2.29404
-2.30919
-2.33025
-2.35681
-2.394
-2.44402
-2.51039
-2.59316
-2.71269
-2.81599
-3.14929
-3.25828
-0.806668
-1.54346
-3.62546
-0.019773
-0.324657
-0.841774
-1.78258
-1.5927
-0.887434
-1.43781
-1.2291
-2.00796
-0.928825
-11.8575
-1.00227
-2.47432
-0.39769
-37.6629
-15.0656
-0.819657
-0.726131
-0.0824595
-0.702628
-0.338158
-0.818021
-1.08508
-1.21638
-1.76053
-1.14793
-2.01434
-7.16355
-3.35328
-3.42172
-3.52962
-3.80927
-3.57663
-3.86318
-5.61607
-7.53314
-7.46407
-7.90691
-7.97195
-8.49931
-9.02189
-9.05636
-9.98175
-12.0252
-20.0453
-36.1445
-26.1129
-10.3458
-4.64297
-3.04303
-2.50796
-2.37989
-2.30902
-2.27414
-2.2628
-2.26557
-2.27391
-2.28024
-2.28553
-2.29525
-2.31153
-2.33488
-2.36484
-2.40161
-2.45091
-2.51512
-2.59773
-2.70085
-2.84863
-2.97733
-3.37718
-3.50877
-0.809261
-3.07496
-0.175647
-3.86335
-0.0931104
-0.834179
-2.39826
-0.933487
-2.67777
-1.00044
-5.31572
-1.34007
-1.70605
-1.58721
-0.0889759
-1.36451
-1.37564
-2.60975
-0.670376
-0.649633
-1.12767
-0.701082
-0.776357
-0.675824
-0.703417
-1.20928
-1.8387
-2.2271
-1.27288
-1.5728
-4.93957
-3.40989
-3.66107
-3.71966
-3.93455
-3.8905
-3.86658
-5.29299
-7.71201
-7.4702
-8.04952
-8.06193
-8.49919
-9.21339
-9.20894
-10.0605
-10.9617
-12.9153
-36.9596
-49.0803
-14.1291
-4.85335
-2.86905
-2.36111
-2.25446
-2.21237
-2.20641
-2.21282
-2.22464
-2.24446
-2.26407
-2.28036
-2.29459
-2.31186
-2.33557
-2.36758
-2.40634
-2.45522
-2.51812
-2.59791
-2.70226
-2.83023
-3.0113
-3.16842
-3.64887
-3.80159
-1.20239
-1.95109
-2.22736
-0.0453453
-4.54762
-0.524163
-1.04887
-0.678189
-1.40586
-2.73417
-1.86009
-0.49891
-1.26918
-0.888275
-2.11027
-1.06295
-1.87886
-0.613817
-5.40638
-1.30677
-19.6509
-0.511474
-1.69144
-0.947058
-0.850689
-1.65175
-1.96167
-2.58105
-1.32303
-1.35759
-3.57587
-4.00438
-3.94988
-3.93604
-4.09832
-4.21724
-3.93705
-5.01178
-7.68046
-7.54455
-8.10779
-8.07457
-8.35337
-9.17808
-9.06451
-9.17431
-6.99248
-4.16327
-8.74832
-62.2099
-27.6834
-5.17362
-2.57634
-2.15483
-2.09218
-2.07914
-2.10492
-2.13964
-2.17209
-2.20215
-2.23422
-2.26353
-2.28731
-2.30897
-2.33417
-2.36623
-2.40778
-2.45775
-2.51877
-2.59732
-2.6978
-2.82521
-2.98319
-3.20365
-3.39304
-3.9705
-4.14127
-0.080549
-3.0171
-1.31826
-2.48914
-0.312137
-2.2021
-0.546388
-1.01153
-17.368
-1.30243
-4.51253
-1.93652
-0.69461
-1.86252
-0.899781
-0.287178
-1.01746
-0.546541
-3.06961
-0.609911
-12.433
-0.559862
-0.0440219
-0.85131
-1.7608
-1.95105
-1.46234
-1.84514
-1.34856
-1.347
-2.95017
-5.71109
-4.2521
-4.17478
-4.28531
-4.55832
-3.98032
-4.78907
-7.61948
-7.8302
-8.13793
-8.20961
-8.14557
-9.11983
-9.35497
-8.4968
-4.37283
-1.32281
-0.84091
-10.9271
-144.721
-6.04169
-2.1108
-1.80097
-1.87241
-1.91434
-1.96773
-2.03594
-2.09647
-2.14534
-2.19021
-2.23185
-2.26872
-2.29984
-2.32901
-2.36275
-2.40393
-2.45531
-2.51837
-2.59505
-2.69132
-2.81398
-2.97015
-3.16425
-3.43153
-3.65633
-4.34721
-4.53599
-2.10715
-0.499614
-0.832271
-1.33299
-2.83942
-0.091509
-2.61174
-0.76329
-1.03058
-5.70499
-1.40425
-1.31361
-1.47825
-1.35854
-2.85909
-1.37775
-0.719394
-1.48846
-0.891591
-0.257102
-1.74748
-0.302436
-0.213323
-1.62278
-1.92696
-1.98373
-1.28076
-1.47142
-1.44211
-1.42897
-2.54308
-7.46424
-4.54264
-4.43887
-4.48714
-4.83243
-3.99824
-4.58369
-7.5407
-8.07929
-8.35167
-8.35033
-8.0646
-9.15351
-8.96334
-7.07047
-2.97622
-0.985979
-0.439402
-0.19435
-339.257
-7.66095
-1.82791
-1.2834
-1.50375
-1.6999
-1.80554
-1.89978
-1.99356
-2.07292
-2.13511
-2.18771
-2.23671
-2.27998
-2.31789
-2.35543
-2.39731
-2.44951
-2.51248
-2.58939
-2.68291
-2.80181
-2.95212
-3.14251
-3.37694
-3.69829
-3.9626
-4.79097
-4.99059
-2.96241
-6.26212
-0.454024
-0.648216
-0.729168
-2.60864
-0.471263
-1.12282
-1.00615
-0.84351
-8.7438
-1.65818
-0.813113
-0.357756
-1.35543
-0.49635
-64.9743
-0.826858
-0.174662
-2.45034
-0.441926
-0.499644
-0.737331
-2.60502
-1.40735
-1.69456
-1.15542
-1.35061
-1.70134
-1.55098
-2.22604
-6.58357
-4.82022
-4.7428
-4.69899
-4.99964
-3.94826
-4.3917
-7.2744
-8.13274
-8.43926
-9.35954
-8.94485
-8.96713
-8.88185
-5.50511
-2.24879
-0.910442
-0.552805
-0.230948
-1.66819
-13.0698
-1.31201
-0.991048