/*--------------------------------*- C++ -*----------------------------------*\
| =========                 |                                                 |
| \\      /  F ield         | OpenFOAM: The Open Source CFD Toolbox           |
|  \\    /   O peration     | Version:  v2012                                 |
|   \\  /    A nd           | Website:  www.openfoam.com                      |
|    \\/     M anipulation  |                                                 |
\*---------------------------------------------------------------------------*/
FoamFile
{
    version     2.0;
    format      ascii;
    class       volScalarField;
    location    "12000";
    object      I2_1;
}
// * * * * * * * * * * * * * * * * * * * * * * * * * * * * * * * * * * * * * //

dimensions      [0 0 0 0 0 0 0];


internalField   nonuniform List<scalar> 
27324
(
0.0481408
0.049738
0.0769247
0.0513497
0.0786261
0.0812815
0.0535138
0.0794102
0.0825094
0.0841244
0.0560627
0.0806911
0.0832054
0.0847334
0.0856924
0.0587871
0.0820662
0.0843135
0.0855019
0.085239
0.0824912
0.0613264
0.08347
0.0855194
0.0865684
0.0861089
0.0800584
0.0733081
0.0636402
0.0847616
0.0867311
0.0878385
0.0872269
0.0809595
0.0667471
0.0547272
0.0662153
0.0860527
0.0878759
0.0891651
0.0887889
0.0821481
0.0673008
0.0401258
0.019514
0.0693151
0.0876165
0.0890207
0.0904506
0.0904697
0.0841864
0.0680302
0.0394361
0.0052296
4.24478e-06
0.07285
0.0895589
0.0904306
0.0917107
0.0920201
0.0863487
0.0702386
0.0382892
0.00557339
0.0044145
0.00546294
0.0765944
0.0918663
0.0922268
0.0933099
0.0933307
0.0878975
0.0722742
0.0392181
0.00489421
0.00212496
0.0158225
0.00896134
0.0805262
0.0945407
0.0944731
0.095444
0.0949427
0.0882558
0.0725444
0.0396846
0.00531922
0.00212445
0.0105769
0.0207044
0.00642818
0.0853142
0.0976972
0.0972684
0.0981652
0.0971318
0.08837
0.0695799
0.0375762
0.00519209
0.00172343
0.0108715
0.0164374
0.0167805
0.00351603
0.0903991
0.101688
0.100794
0.10147
0.0998415
0.0888114
0.0656744
0.0316543
0.00365487
0.00209383
0.0105373
0.0173762
0.0174193
0.0105918
0.00161794
0.0953208
0.106355
0.105333
0.105434
0.102882
0.0896358
0.0624337
0.026034
0.00145177
0.00389293
0.0119364
0.0173259
0.0206565
0.0140992
0.0053877
0.000553432
0.0998814
0.111688
0.110454
0.110369
0.106355
0.0908667
0.0605266
0.0222329
0.000382711
0.0071408
0.0153693
0.0187172
0.0215332
0.0205442
0.00820542
0.00331234
0.000124197
0.103627
0.117857
0.115912
0.115614
0.11134
0.0932667
0.0603464
0.0203403
5.07968e-05
0.00985182
0.0192763
0.021538
0.0230198
0.0232667
0.0171613
0.00330691
0.00314446
0.0133982
0.104619
0.124977
0.122154
0.120816
0.116717
0.0997304
0.063338
0.0202769
1.14164e-07
0.01166
0.021829
0.0244053
0.0251342
0.0253686
0.0226305
0.0108284
0.00161284
0.0014995
0.0683847
0.0329784
0.13403
0.129709
0.126599
0.121454
0.107509
0.0739759
0.0239345
3.16197e-06
0.0129543
0.0232473
0.0263173
0.02691
0.0267585
0.0256617
0.0196722
0.00422448
0.002369
0.00270576
0.0537869
0.00347896
0.101006
0.136898
0.133472
0.126391
0.113708
0.0870077
0.0353182
0.000196668
0.0131697
0.0240613
0.0276318
0.0278509
0.0276062
0.0272773
0.0247228
0.0135194
0.00091794
0.00362917
0.0643909
0.030257
0.013793
0.0179205
0.101245
0.135628
0.132468
0.119648
0.098115
0.049825
0.0027213
0.0103749
0.0234604
0.028384
0.0293141
0.0273768
0.0280808
0.0273172
0.0219315
0.00482851
0.00123575
1.93536e-07
0.108701
0.0219236
0.000493299
0.00012177
0.0192248
0.0901165
0.129806
0.127604
0.109266
0.0658968
0.00760644
0.00494365
0.0196543
0.0274367
0.0311877
0.0280866
0.0275641
0.0287116
0.0264285
0.0152037
0.000600221
0.00311112
0.0443692
0.0579313
0.0302193
0.0610424
0.0293955
3.70874e-07
0.0112888
0.0500447
0.113231
0.123414
0.0896429
0.0172606
0.00184559
0.0120374
0.0237982
0.0315107
0.0307384
0.027319
0.0290176
0.0287648
0.0238999
0.005509
0.000320194
6.37547e-05
0.0870197
0.0479046
0.0500864
0.0666804
0.08283
0.0282296
2.27753e-05
0.000480776
0.0100092
0.0736132
0.11339
0.0626876
0.000200655
0.00622504
0.0163893
0.0297792
0.0322528
0.029474
0.0284355
0.0300185
0.0277538
0.0176085
1.54305e-07
0.00484321
0.0699664
0.0507164
0.0111096
0.0176526
0.0716799
0.0861647
0.0869582
0.0264055
0.0026012
0.00355162
0.000378291
0.0264519
0.0925057
0.0560336
8.37399e-05
0.00906794
0.0236099
0.0309275
0.0319034
0.0282525
0.0298999
0.0293581
0.0256178
0.0030417
0.000786597
1.89162e-05
0.0265046
0.00482004
0.0349402
0.00766303
0.0752518
0.0900626
0.0910075
0.0866084
0.0116552
0.0119634
0.0109354
0.000108792
0.0047324
0.0486553
0.0723475
0.00258304
0.0115822
0.0258123
0.0296342
0.0299791
0.0279719
0.0305065
0.0278905
0.0185022
9.93434e-06
0.0116023
0.000414666
0.0290716
0.0410844
0.011655
0.00279821
0.0779173
0.0915125
0.092106
0.090244
0.0822605
0.00078226
0.020773
0.0150587
0.000372985
0.00177224
0.0123267
0.0794763
0.0336877
0.00390938
0.0200211
0.0232657
0.0272943
0.0295351
0.0300793
0.0268124
0.000171147
0.0197848
0.00105493
0.0346603
0.0362007
0.015418
0.0146995
0.00526461
0.0790791
0.0924291
0.0905411
0.0895859
0.0877671
0.0745268
0.0242653
0.0236117
0.016541
0.000489764
0.00110409
0.00329218
0.0340797
0.0966612
0.0432712
0.00280428
0.00349989
0.0116975
0.00517001
0.0155303
0.0129592
0.000781095
7.81161e-06
0.0145087
0.0294692
0.0327279
0.0220617
0.027681
0.0013918
0.0789398
0.0923418
0.0894017
0.0877378
0.0873981
0.0870051
0.0500448
0.0159736
0.0219222
0.0171929
0.00032415
0.00033792
0.000960454
0.00633358
0.034299
0.042494
0.0719421
0.0389348
0.0342482
0.0252614
0.00511778
2.91801e-07
5.2474e-05
0.00211551
0.0311241
0.0454358
0.0247916
0.00106468
0.00160463
0.000259438
0.0781928
0.0915206
0.0880377
0.0868168
0.0879258
0.088157
0.0861114
0.00019132
0.00385698
0.0175081
0.017914
0.000140558
6.04089e-05
0.000496164
0.00184381
0.00543554
0.00535794
0.00547558
0.00310801
0.00388932
0.0017088
0.000277899
0.00032281
0.000260625
0.0316702
0.0284969
0.00324502
0.00244653
0.00217423
0.000528399
1.44934e-05
0.0770463
0.0903439
0.0869154
0.086319
0.0885775
0.0898297
0.0889683
0.0730633
0.027626
0.000550954
0.00754835
0.016984
9.43298e-08
7.58293e-05
0.000442677
0.00149808
0.00165963
0.00215072
0.0015796
0.00178264
0.00283399
0.00144362
0.000815673
1.92187e-05
0.0265696
0.00609645
6.96657e-06
0.00438469
0.00183157
9.2847e-06
0.00016698
0.000153113
0.075411
0.0889285
0.0862928
0.0865348
0.0896647
0.0909094
0.0889719
0.0794105
0.0475986
0.0126047
3.28895e-05
0.000927424
0.0170757
0.000672272
0.00179993
0.0031754
0.00399126
0.00353405
0.00290988
0.00420626
0.00635933
0.00522125
0.00335031
0.000132433
0.0100056
7.72878e-09
0.000817337
0.00191914
0.0003558
2.23589e-05
0.000247846
0.000305707
3.99796e-05
0.0737592
0.0876708
0.0864225
0.0876048
0.0909051
0.09204
0.0893399
0.0809609
0.0686765
0.0020367
0.00285639
0.000468204
0.0840251
0.0113755
0.032259
0.0502376
0.0632834
0.0471822
0.0324089
0.0323919
0.0447488
0.0643908
0.0506324
0.00439005
4.01891e-05
0.000344515
0.000285719
0.000349119
6.10885e-05
6.39262e-05
0.000251399
0.000198354
0.000183661
0.000179336
0.0732535
0.0870558
0.0875468
0.0893835
0.0919538
0.0927853
0.0895973
0.0823806
0.072222
0.0556194
0.0168179
0.000851393
0.00089634
0.159131
0.000591686
0.00565187
0.00653465
3.46179e-06
0.00738794
0.0192587
0.0114888
0.000641251
0.00202365
0.00363634
1.5941e-06
0.000281315
6.77303e-05
1.58797e-05
4.65131e-06
4.36055e-05
0.000229068
0.00017481
0.000310263
0.00110994
1.94519e-05
0.0742094
0.0875671
0.0893041
0.091132
0.0924473
0.0929622
0.0896813
0.083209
0.072569
0.0567531
0.0256962
0.00327129
0.000213346
0.000623163
0.101791
0.000362313
0.0144755
0.0130345
0.00840206
0.00565063
0.00418217
0.00405684
0.00463767
0.00446767
0.000514309
0.000121364
1.67456e-05
6.74239e-07
2.04372e-06
2.3403e-05
0.000223267
0.000149508
0.000507051
0.002305
1.60954e-05
0.00113409
0.0755132
0.0886294
0.0908587
0.0922003
0.0922807
0.0926395
0.0895782
0.0834921
0.0724108
0.0559065
0.034474
5.62839e-05
0.000443674
3.42369e-05
0.000163651
0.0353206
0.00625483
0.0109846
0.00706103
0.00730236
0.00725912
0.00537089
0.00300908
0.000775857
2.45518e-07
4.58941e-06
1.49621e-06
2.54952e-06
2.46338e-06
6.97039e-06
0.000227834
0.000128999
0.000797974
0.0043675
0.000437365
0.00167599
0.00244548
0.0789155
0.0904798
0.0923271
0.0923831
0.091756
0.0921618
0.0896858
0.0831585
0.0720046
0.0551115
0.0360288
0.0264578
0.00401688
4.81665e-05
1.58179e-05
0.00601585
0.0019482
0.000516748
0.00172499
0.00138548
0.00122275
0.00100049
0.000522256
8.48473e-05
0.000265369
2.88403e-06
5.59972e-06
1.54894e-07
1.97028e-06
1.28095e-06
0.00023524
9.72711e-05
0.00124894
0.0066071
0.00157727
0.000294439
0.00460583
0.00275452
0.0819158
0.0925943
0.0934619
0.092269
0.091326
0.091865
0.0899402
0.0827355
0.071621
0.0555149
0.037913
0.0277161
0.00704019
7.87715e-06
2.55316e-06
9.93092e-05
0.00266362
0.000440286
0.00144711
0.00107232
0.000753345
0.000382447
6.25125e-05
2.78128e-05
0.000262365
0.000131606
2.2676e-05
1.35151e-05
1.67825e-06
2.96415e-08
0.000232628
5.66735e-05
0.00186811
0.00937872
0.00327214
2.32413e-05
0.00193717
0.00558718
0.00298583
0.0838711
0.0934382
0.0926039
0.0910299
0.0905412
0.0918171
0.0901447
0.0824778
0.0719235
0.0562891
0.0410311
0.0292247
0.0108947
0.000238194
1.354e-07
0.000117379
0.00406664
0.0199042
0.00317936
0.00209947
0.00093074
0.000420183
3.64452e-05
5.59136e-05
0.00037499
0.000253901
9.22077e-06
4.33711e-05
3.61962e-06
2.47387e-08
0.000212016
2.15701e-05
0.00267805
0.0124991
0.00525168
0.000113746
0.00138664
0.00264555
0.00625543
0.00404467
0.0847717
0.0932523
0.0905907
0.0891833
0.0900916
0.0918158
0.0902834
0.0826667
0.0727372
0.0573608
0.0440708
0.0308586
0.0116121
0.00120105
0.000307637
7.77015e-09
7.5698e-05
0.00807589
6.49507e-06
0.00301185
0.00091834
0.000273211
3.97555e-07
0.000116258
0.000300183
0.000207365
1.49758e-06
5.93749e-05
1.39715e-05
1.22988e-08
0.000177065
2.52368e-06
0.0037167
0.0158046
0.00794905
0.000672725
0.000712455
0.00227746
0.00292503
0.00862866
0.00577685
0.0845994
0.0925587
0.0885769
0.0883173
0.0902707
0.0919611
0.0903562
0.0832973
0.0736701
0.0585644
0.0469958
0.0327932
0.0125196
0.00297122
8.74914e-05
0.000162218
1.88167e-06
9.98906e-05
0.000718618
0.00128422
0.000645421
8.66932e-05
4.59222e-05
0.000211677
0.000282026
0.000132104
1.16928e-05
5.26869e-05
4.40903e-05
4.66909e-07
0.000133293
3.21861e-06
0.0051561
0.0189316
0.0108773
0.00171304
0.00023682
0.00164638
0.00252762
0.00424571
0.0125945
0.00697422
0.0832447
0.0917681
0.0873097
0.0885027
0.0909618
0.0922918
0.0900408
0.0838385
0.0742901
0.0597586
0.0498862
0.0350009
0.0142307
0.00361032
4.14492e-06
0.00195319
3.85248e-06
6.27893e-05
6.81768e-08
0.000452124
0.000499109
4.40465e-06
0.000151668
0.000246086
0.000209906
6.97109e-05
7.25474e-06
5.71512e-05
0.000101197
7.96844e-07
9.24226e-05
3.04477e-05
0.00708769
0.0213391
0.0144266
0.00312886
7.76768e-06
0.00112989
0.00186629
0.00372518
0.00684865
0.015893
0.00539316
0.081031
0.0898824
0.0869938
0.0892376
0.0915527
0.0921894
0.0899989
0.0849933
0.0741646
0.060606
0.0526796
0.0373309
0.0168915
0.00611041
5.08033e-05
5.54598e-05
0.00014739
1.80365e-08
0.000312868
0.011615
0.000282996
3.03108e-05
0.000227668
0.000191419
0.000121153
3.31933e-05
1.39209e-06
1.57977e-05
0.0001636
3.56513e-09
6.08675e-05
9.0405e-05
0.00956177
0.0227739
0.0183328
0.00474914
0.000113413
0.00066181
0.00136552
0.00279855
0.00634982
0.00953595
0.0138673
0.000379383
0.0813319
0.0894011
0.0876547
0.0900744
0.0918359
0.0915405
0.0896226
0.0852657
0.072566
0.0607173
0.0549313
0.0393671
0.0201634
0.00955056
0.000794181
4.37303e-05
0.000476854
1.26754e-07
1.48901e-05
1.46609e-05
0.00138868
0.000418004
0.000241256
9.16132e-05
5.24227e-05
1.3405e-05
1.90029e-08
2.45091e-06
0.000217677
3.60768e-06
4.01593e-05
0.000184585
0.0127408
0.0233508
0.0215877
0.00702706
0.000595731
0.000282179
0.000931564
0.00207616
0.00513367
0.00943305
0.00903125
0.00310219
0.00489702
0.0834941
0.0905891
0.090223
0.0917233
0.0919046
0.0908101
0.0892636
0.084561
0.0699663
0.0596839
0.0559038
0.0404865
0.0228655
0.013421
0.00194182
0.00011355
4.37875e-09
4.6917e-05
5.01555e-06
0.000123725
0.00438654
0.00110466
0.000157142
1.62706e-05
1.53996e-05
8.07715e-06
1.71621e-06
8.12582e-06
0.00027739
2.03668e-05
2.4183e-05
0.000319383
0.0165895
0.0230307
0.0244192
0.00948949
0.00143062
4.38077e-05
0.000569423
0.00145014
0.00410382
0.00832148
0.00959551
0.00194194
0.00237234
0.0204464
0.086108
0.0922236
0.0920541
0.0923197
0.0913011
0.0901995
0.0891871
0.0836211
0.0671
0.0586343
0.0565422
0.0401863
0.0243278
0.0159579
0.00372134
0.00104066
0.000325405
0.000898194
2.03426e-05
1.19169e-07
0.000144753
0.000631628
5.43771e-06
3.09283e-06
2.97651e-06
8.7798e-06
3.1908e-06
3.53645e-06
0.00016069
4.13654e-05
8.58994e-06
0.000500461
0.0205277
0.0225382
0.0265959
0.011846
0.00259537
2.23995e-05
0.000278605
0.000948086
0.00312106
0.00732501
0.00913938
0.00254223
0.00275272
0.0177995
0.0337523
0.0900834
0.0946084
0.0926746
0.0919769
0.0903145
0.0897043
0.0893179
0.083039
0.0649753
0.0577533
0.0549132
0.0369309
0.0243732
0.0166826
0.00461547
0.00249316
0.00137995
0.00032448
0.000236652
9.24317e-06
2.38736e-06
0.00207311
0.000130031
3.23366e-05
9.69741e-07
1.49618e-05
7.57453e-06
3.12213e-05
1.60382e-05
5.25508e-05
9.5787e-08
0.000730991
0.0233781
0.0231068
0.0274563
0.0147017
0.00393522
0.000280947
7.25366e-05
0.000562906
0.00225133
0.00622292
0.00872507
0.00284268
0.00228797
0.0181748
0.032389
0.0395912
0.0919964
0.0964085
0.0926873
0.0916347
0.0895965
0.0893747
0.0902043
0.0828146
0.0641021
0.0571201
0.0529579
0.033171
0.0220737
0.0157739
0.0042527
0.00305095
0.00193882
0.0023246
0.00126711
9.01235e-06
6.99454e-05
1.12655e-06
4.0878e-07
3.41833e-05
2.65053e-06
2.56225e-05
9.15262e-06
1.14771e-05
9.00237e-06
6.15224e-05
3.0648e-05
0.00101593
0.0241956
0.0263831
0.0266439
0.017568
0.00541255
0.000844375
7.47391e-07
0.000277218
0.00152061
0.00510812
0.00815262
0.00311044
0.00197557
0.017705
0.0333432
0.0389164
0.0398422
0.0921491
0.0962229
0.0908533
0.0899985
0.089574
0.0897135
0.0907612
0.0820863
0.0644847
0.0575564
0.0497766
0.0286559
0.018832
0.0128244
0.00301618
0.00242318
0.00161495
0.002599
3.81256e-05
7.74639e-05
8.16512e-07
1.83925e-05
0.000193475
1.90269e-05
7.10273e-06
3.34765e-05
9.28025e-06
8.84417e-06
1.37582e-06
0.000101533
0.00015901
0.00127676
0.0229104
0.0338755
0.0249277
0.0204149
0.00700569
0.00167135
0.000132864
8.35918e-05
0.000947105
0.00400685
0.00746757
0.00326954
0.00167152
0.0173426
0.0337066
0.0410109
0.0387131
0.0380834
0.0921051
0.0954635
0.0891187
0.0891464
0.089256
0.0902139
0.0916762
0.0828776
0.0648706
0.05894
0.0470103
0.0236903
0.0150557
0.00917583
0.00122929
0.00123449
0.000516266
0.000966841
0.000304757
0.000111198
6.83881e-06
9.08827e-06
0.000273148
1.5382e-06
1.35204e-05
3.17473e-05
6.99868e-06
4.58433e-06
1.74771e-07
0.000145646
0.000459813
0.00162193
0.0207332
0.0461829
0.0230179
0.0227534
0.00878897
0.00266647
0.000541391
6.67802e-07
0.000520387
0.00298024
0.00667071
0.00334833
0.00141701
0.0170073
0.0339693
0.0425376
0.0412803
0.0362569
0.0356399
0.0911724
0.0951636
0.0886587
0.0890766
0.0898957
0.0904587
0.0924486
0.0835228
0.0668329
0.0618172
0.0461393
0.0196937
0.0115234
0.0058464
0.000209061
0.00025152
9.64056e-06
5.73052e-05
1.6487e-05
2.15079e-06
2.91442e-05
4.57211e-06
1.38469e-05
0.000491158
4.32614e-05
2.14851e-05
4.00709e-06
2.96852e-06
3.54067e-07
1.31582e-05
0.00103628
0.00229921
0.0195603
0.0598561
0.0214698
0.0244338
0.0108592
0.00373538
0.00125518
7.65681e-05
0.000227913
0.00208033
0.00578486
0.0033519
0.00121798
0.0167003
0.0342123
0.0438884
0.0433665
0.0387513
0.0333038
0.0328386
0.0925229
0.094757
0.0888447
0.0891896
0.0899636
0.0905247
0.0926498
0.0839354
0.068698
0.0644261
0.0463716
0.0185372
0.00932373
0.0034798
5.61959e-08
6.22918e-07
0.000108311
4.82454e-05
4.50012e-05
5.93637e-05
0.000186979
5.78435e-05
3.58306e-05
1.72601e-05
8.07522e-05
9.44273e-06
1.69148e-06
2.15186e-06
3.06454e-06
0.000264108
0.00219041
0.00367443
0.0195636
0.0717275
0.0219558
0.0251681
0.013268
0.00482522
0.00222931
0.00039413
5.26907e-05
0.00134515
0.00484019
0.00328079
0.00106697
0.0164461
0.0344248
0.0451548
0.0454095
0.0407552
0.0357834
0.0302092
0.0299073
0.0949853
0.0964084
0.0900234
0.0892705
0.0897044
0.0903068
0.0923109
0.0836581
0.0699073
0.0673909
0.0467822
0.0210143
0.00825431
0.0023965
1.19018e-05
3.39035e-05
0.000239351
0.000161612
0.000150738
0.000351568
0.000135112
4.59114e-05
3.12547e-06
2.42962e-07
2.89567e-05
3.73801e-06
2.08481e-07
3.67269e-07
1.19968e-06
0.000382719
0.00410605
0.00661626
0.0210697
0.0783743
0.0249841
0.0249977
0.0159525
0.00597878
0.00333342
0.0010488
1.74147e-06
0.000789378
0.00387979
0.00312648
0.000948293
0.0162789
0.0346074
0.0463497
0.0474519
0.0427782
0.037697
0.0326842
0.0272159
0.0270806
0.0969715
0.0979736
0.0911858
0.08911
0.0895602
0.090325
0.0915743
0.082369
0.071066
0.0695496
0.0481982
0.0238397
0.0104086
0.00149141
1.35016e-07
9.19471e-06
0.000164114
0.00010496
9.20934e-05
0.000201582
2.55647e-05
4.52464e-07
6.95759e-06
1.31697e-05
3.7497e-05
1.17036e-05
2.14632e-07
1.39097e-07
3.54618e-07
0.000245696
0.00554505
0.013379
0.024255
0.079571
0.0311839
0.0241558
0.0186658
0.00729342
0.00443754
0.00208353
0.000125974
0.000394574
0.00297243
0.00288743
0.000860517
0.0161811
0.0348132
0.0474028
0.0495396
0.0448746
0.0395772
0.0345385
0.0296704
0.0245004
0.0245389
0.0996439
0.0988547
0.091228
0.0886288
0.0888671
0.0905197
0.0910605
0.0816518
0.0704335
0.0696996
0.0495207
0.0281265
0.0138447
0.00172985
1.89539e-05
1.37407e-05
8.30335e-06
1.36518e-06
1.5557e-06
1.17859e-06
0.000137985
0.000139438
2.72589e-05
2.88949e-05
1.8982e-07
2.67337e-05
2.1769e-06
2.23583e-06
5.96457e-07
0.0006944
9.50332e-05
0.0282703
0.0294017
0.076089
0.0528287
0.0232099
0.0210444
0.00888326
0.00547018
0.00343781
0.000527958
0.000136742
0.00217522
0.00257474
0.000800985
0.0161261
0.0350788
0.0483441
0.0516236
0.0470365
0.0415074
0.0363361
0.03142
0.0268926
0.0221948
0.0224087
0.0992917
0.0995366
0.0907199
0.0882305
0.0886159
0.091539
0.0908317
0.0810773
0.0699956
0.0688274
0.0459837
0.0310294
0.0179156
0.00348587
0.000218157
2.48599e-06
5.57108e-05
0.000129064
0.000244813
0.000149161
0.00056726
1.43646e-05
8.15905e-06
9.76067e-07
7.1521e-06
5.67939e-05
5.14022e-06
5.83432e-06
2.83389e-06
0.000961713
0.00477533
0.0500953
0.0362486
0.0733823
0.0778286
0.0218635
0.0226827
0.0108443
0.00645458
0.00493995
0.0013436
8.52367e-06
0.00152326
0.00220289
0.000768554
0.0161135
0.035398
0.0492466
0.0535554
0.0493635
0.0434422
0.0381636
0.0331105
0.0285041
0.0244841
0.0203574
0.0207476
0.0993182
0.098737
0.0892964
0.0879974
0.0886146
0.0923907
0.0907587
0.0812666
0.0698531
0.0652362
0.0426044
0.030544
0.0210154
0.00642271
0.000160874
0.000206749
6.57082e-06
0.000322063
0.000691974
0.000386525
0.000597839
9.65627e-05
2.93114e-06
6.5614e-05
4.9601e-05
0.000196942
8.92009e-07
1.0894e-05
1.25788e-05
0.00149865
0.00673429
0.0558392
0.0470522
0.0720245
0.0965081
0.0243205
0.0233833
0.0131407
0.00753934
0.00637941
0.00265101
5.4383e-05
0.00101852
0.00180922
0.000767247
0.0161357
0.0357503
0.0501338
0.0554031
0.0517398
0.0454381
0.0399964
0.0348395
0.0300739
0.0259263
0.022505
0.0189959
0.0195768
0.099555
0.0984806
0.0886827
0.0879506
0.0886174
0.0930851
0.0911989
0.0813125
0.0704839
0.0623601
0.0383352
0.0279817
0.0202715
0.00941583
1.03276e-05
0.000352388
6.53007e-05
0.000128198
0.00078426
0.000393975
0.000286831
7.49718e-06
1.94407e-05
8.30771e-05
2.75436e-05
4.27629e-05
2.15355e-05
2.66142e-05
4.67824e-05
0.00219295
0.00844744
0.022976
0.0657213
0.0761774
0.108679
0.0304103
0.0230846
0.0155733
0.00888427
0.00764103
0.00436676
0.000404773
0.000629917
0.00143521
0.000802469
0.0161983
0.0361389
0.0509929
0.0571926
0.0541206
0.0475842
0.0418391
0.0365882
0.0316955
0.0273599
0.0237599
0.0209617
0.0180856
0.0188892
0.101106
0.0982428
0.0883133
0.0882348
0.0887013
0.0934335
0.0914787
0.082015
0.072831
0.0606662
0.0351273
0.0243699
0.0160661
0.008868
0.000601367
0.000183067
0.000181117
1.68176e-05
0.000427664
0.000188622
3.58811e-05
9.31399e-06
8.74901e-06
3.19235e-05
6.91298e-06
4.54563e-06
0.000131654
6.53337e-05
0.000154895
0.00313243
0.0101524
1.59552e-05
0.0891625
0.0853162
0.113952
0.0422005
0.022664
0.0178256
0.0106214
0.0087675
0.00625448
0.00125587
0.000313978
0.00112261
0.000866716
0.0163326
0.0365309
0.0518692
0.0588663
0.056567
0.0498034
0.0437612
0.038379
0.0333516
0.0288455
0.0250444
0.0220279
0.0198455
0.0175877
0.0186361
0.103201
0.0990019
0.0872094
0.088413
0.0889633
0.0936485
0.091544
0.0825902
0.0741637
0.0602099
0.0350482
0.0218705
0.0119881
0.00610293
0.000589312
2.59328e-06
9.60383e-05
3.31935e-05
2.37844e-05
1.01262e-05
1.75911e-05
6.55992e-05
1.95191e-05
7.82437e-06
9.58311e-05
6.68625e-05
6.78076e-06
0.000135293
0.000475587
0.00431154
0.0119747
0.00860444
0.0965311
0.0975961
0.114235
0.0657539
0.0228337
0.0194941
0.0127726
0.00994961
0.00798964
0.00274673
6.95115e-05
0.000896056
0.000952226
0.0165879
0.0369143
0.0527636
0.060478
0.0590159
0.0521306
0.0457233
0.0402068
0.035039
0.030373
0.0263764
0.0231408
0.0207243
0.0191252
0.017469
0.0187679
0.10496
0.0995105
0.0862649
0.0885434
0.0892511
0.0935743
0.0915812
0.082859
0.0752146
0.0601369
0.0374991
0.0210873
0.00974098
0.00455311
0.000219141
2.87704e-06
8.31417e-06
1.05424e-05
1.67308e-06
2.27781e-05
0.000110034
7.7119e-05
1.17536e-05
1.87716e-07
0.000114283
2.87647e-05
5.01047e-05
0.000107702
0.00123243
0.0056691
0.0138794
0.0127408
0.0683953
0.11124
0.114091
0.0913679
0.0243707
0.0203261
0.0152087
0.0114344
0.00940746
0.00478963
1.91611e-05
0.000725346
0.00104852
0.0169469
0.0373414
0.0536007
0.0620863
0.0613351
0.0546671
0.0476741
0.0420498
0.0367514
0.0319315
0.0277509
0.024307
0.021659
0.0198125
0.0187686
0.0176949
0.0192745
0.105985
0.0994287
0.0847483
0.0885789
0.0902408
0.0933705
0.0916776
0.082651
0.0750539
0.0601382
0.0408386
0.02348
0.00784825
0.00440653
0.000276156
3.87399e-05
7.06588e-09
0.000125123
5.06036e-05
3.13422e-05
0.000138217
3.00608e-05
5.73223e-07
1.98919e-07
7.61837e-05
7.50969e-06
0.000109331
5.44934e-05
0.00250187
0.00716215
0.0155847
0.0164065
0.0186702
0.120866
0.114188
0.110288
0.0301493
0.0203839
0.0176498
0.0134039
0.0106047
0.00699636
0.00043002
0.000540998
0.00110343
0.0173713
0.0378613
0.0543802
0.0636356
0.0636151
0.0572326
0.0496816
0.0438686
0.0384816
0.0335164
0.0291573
0.0255175
0.0226424
0.0205691
0.0192705
0.0187402
0.0182455
0.0201163
0.107263
0.0997469
0.0831677
0.0886951
0.090967
0.0932217
0.0918341
0.0825896
0.0739918
0.0587052
0.0437036
0.0268818
0.00746827
0.00381061
0.000651482
1.50577e-06
1.77672e-06
0.0001013
6.19348e-05
4.39513e-12
6.1919e-05
1.17899e-07
2.78554e-05
4.11739e-08
6.1533e-05
9.33238e-05
0.000177113
0.000774885
0.00396075
0.00901137
0.0172368
0.0181828
0.00014892
0.119883
0.117739
0.121344
0.0406294
0.0200668
0.0197666
0.0159234
0.0118561
0.00894065
0.001544
0.00028547
0.0010694
0.017862
0.0384561
0.0551768
0.0650425
0.0658491
0.0598295
0.0518184
0.0456497
0.0402213
0.0351308
0.0305961
0.0267617
0.0236785
0.0213815
0.0198433
0.0190754
0.0190285
0.0190869
0.0212571
0.110018
0.100374
0.0827974
0.0888699
0.0915554
0.0931344
0.0921131
0.0827865
0.0717
0.0570802
0.0451881
0.0288878
0.0097444
0.00245176
0.000766829
2.17572e-05
7.28529e-05
1.7341e-06
4.71593e-06
1.34128e-05
4.16065e-06
5.34752e-05
5.44187e-05
1.01483e-07
1.17175e-05
7.84373e-05
8.34879e-05
0.000359852
0.00494323
0.0117377
0.0186223
0.0198144
0.00311008
0.0999509
0.124891
0.126249
0.0581979
0.0202005
0.0212905
0.0188549
0.0134706
0.0104191
0.0032897
3.73031e-05
0.000983179
0.0182991
0.0391288
0.056005
0.0663797
0.0679325
0.0625234
0.0540153
0.0475028
0.0419773
0.0367887
0.0320895
0.0280402
0.024744
0.0222303
0.0204766
0.0194776
0.0191983
0.0196145
0.0202124
0.0227161
0.112791
0.102427
0.0829726
0.0886714
0.0921098
0.0931039
0.0926594
0.0834863
0.0696005
0.056057
0.0455257
0.0299931
0.0111263
0.00289357
0.000285366
3.95968e-05
0.00035141
6.36863e-06
5.06344e-05
6.49771e-05
5.0921e-07
0.000148706
3.2987e-05
5.38886e-06
2.25136e-06
1.17143e-05
2.40833e-06
3.27652e-06
0.00461257
0.0162196
0.0199597
0.0212252
0.00957354
0.0582777
0.131388
0.127703
0.08029
0.0217325
0.0220627
0.0218943
0.0156835
0.0115775
0.00521363
8.5214e-05
0.000969774
0.018448
0.039948
0.0567973
0.0677535
0.0698358
0.0652302
0.0563871
0.0493746
0.0437792
0.0384855
0.0336365
0.0293819
0.0258536
0.0231071
0.0211444
0.0199168
0.0194255
0.0196203
0.0204775
0.0216119
0.0244695
0.115114
0.104358
0.0839426
0.0883186
0.0922679
0.0932587
0.0931692
0.0836403
0.0680086
0.0554912
0.0456846
0.028959
0.0112841
0.00400469
0.000124251
3.93267e-06
0.000408145
0.00012079
1.74119e-05
3.3494e-05
3.2413e-07
0.000187695
1.79772e-06
2.43609e-05
4.17333e-05
5.47037e-06
5.4569e-05
7.60749e-06
1.49495e-05
0.0235899
0.0214878
0.0226707
0.0145209
0.0189831
0.132736
0.126831
0.104512
0.0259715
0.0222037
0.0246636
0.0185498
0.0127863
0.00681574
0.000726363
0.00120779
0.0182004
0.0408471
0.0575866
0.0691182
0.0716764
0.0677215
0.0590395
0.0512235
0.0455222
0.0401205
0.0351735
0.030774
0.0270242
0.0240353
0.0218512
0.0204085
0.019702
0.0196792
0.0203331
0.021643
0.0232702
0.0264864
0.117232
0.10601
0.0846093
0.0880052
0.0921498
0.0939215
0.0930087
0.0835211
0.0662012
0.0567449
0.0465667
0.0278098
0.0105175
0.00436214
0.000488084
5.44082e-05
0.000121537
7.0771e-05
4.03921e-06
7.06439e-06
1.00944e-06
0.00014033
1.79134e-05
2.2221e-05
9.77489e-05
2.77825e-05
0.000155723
1.98134e-05
0.0302292
0.0292638
0.0231484
0.0241294
0.0183599
0.0021822
0.125111
0.12763
0.118952
0.034239
0.0220665
0.0268166
0.0219268
0.0144409
0.00792797
0.00188293
0.00192687
0.0178376
0.0415298
0.0585262
0.0703501
0.0735384
0.0700047
0.0616826
0.0530716
0.0472113
0.0417603
0.0366874
0.0321303
0.0282074
0.025022
0.0225994
0.0209425
0.020011
0.0197941
0.0202332
0.0213251
0.0230792
0.0251799
0.0287753
0.119812
0.107365
0.0853486
0.0876285
0.0920578
0.0947449
0.0929521
0.0830912
0.064535
0.0578789
0.0487575
0.027885
0.0100071
0.00372068
0.00102554
2.84636e-05
7.07839e-07
6.48123e-06
2.98349e-06
1.47178e-06
5.7185e-06
4.57649e-05
8.41263e-05
1.60664e-06
0.000421981
0.000110848
0.000200268
0.000217182
0.0136009
0.0260377
0.0248444
0.0257409
0.0212798
0.000605654
0.103761
0.131292
0.125651
0.0501038
0.0223377
0.0282055
0.0254842
0.0167972
0.0087843
0.00309787
0.00330748
0.017993
0.041719
0.0596039
0.0715417
0.0752504
0.0722632
0.0640648
0.05517
0.0487865
0.0433548
0.0382114
0.0335308
0.0294391
0.0260407
0.0233779
0.0215111
0.0203577
0.0199265
0.0201724
0.0210772
0.0226056
0.0247832
0.0273286
0.0313029
0.122565
0.108835
0.0854831
0.0875618
0.0919279
0.0956073
0.0927466
0.0818927
0.0636375
0.0592395
0.0494528
0.0281315
0.0104773
0.00363301
0.00138166
3.34236e-06
9.0675e-06
8.27911e-07
1.36621e-05
7.02646e-09
2.02015e-05
1.58347e-05
9.33311e-05
2.87162e-05
0.000514884
0.000114322
0.000399816
0.000759157
0.00512252
0.0139487
0.027952
0.0275994
0.0238581
0.00510053
0.0683776
0.13523
0.12745
0.0710035
0.0239441
0.0288757
0.0287779
0.0199492
0.00980519
0.00398408
0.0051968
0.0192276
0.0415491
0.0605253
0.0728088
0.0767754
0.0745143
0.0662288
0.0572817
0.0503999
0.0450434
0.0397879
0.0349541
0.0306882
0.0270969
0.024232
0.0221187
0.0207501
0.0201064
0.0201563
0.0208456
0.0221979
0.0241767
0.0267512
0.0296963
0.0339938
0.125185
0.110301
0.0858782
0.0879837
0.0918692
0.0964134
0.0922348
0.0806466
0.0634251
0.0604245
0.0496824
0.0269614
0.0108935
0.00411342
0.00173626
1.46344e-05
1.59144e-05
1.26076e-06
9.37164e-07
1.17007e-05
2.67897e-05
8.77062e-05
5.1138e-05
0.000285836
0.000384473
1.0024e-05
0.00150297
0.00215015
0.00452202
0.0263176
0.0337835
0.029714
0.0261902
0.0110878
0.034813
0.135481
0.124764
0.0917263
0.0280333
0.0291334
0.0314486
0.0238176
0.0113505
0.00454824
0.00701264
0.021584
0.0416396
0.0609235
0.0741161
0.0782387
0.0764644
0.0685145
0.0591591
0.0521463
0.0467092
0.0414024
0.0364565
0.0320198
0.0282206
0.0251337
0.0227811
0.0211891
0.0203219
0.020167
0.020676
0.0218186
0.0236088
0.026004
0.0289614
0.0322628
0.0368067
0.127391
0.111968
0.0857829
0.0892383
0.0922093
0.0966608
0.0915853
0.0793313
0.0637774
0.0618711
0.0496878
0.0244398
0.0104615
0.00462338
0.00194322
0.000112157
3.37795e-06
1.72368e-05
6.35736e-06
0.000100433
1.72473e-06
9.99642e-05
8.3271e-06
0.000897252
0.000145636
9.09966e-06
0.00123478
0.00585366
0.00565282
0.116682
0.0373134
0.0317256
0.0285079
0.0166646
0.0106613
0.129776
0.12154
0.105974
0.0358495
0.029548
0.0332972
0.0281312
0.0137395
0.00505246
0.00821717
0.0244309
0.0425223
0.0608392
0.0750959
0.0797898
0.0781486
0.0707971
0.0609141
0.0538534
0.0483275
0.0430486
0.0380186
0.0334047
0.029389
0.0260724
0.0235091
0.0216804
0.0205871
0.0202175
0.0205166
0.0214778
0.0230841
0.0252944
0.0280771
0.0314019
0.0349798
0.0397019
0.13158
0.114062
0.0864173
0.0904938
0.092657
0.0963219
0.0909447
0.0779211
0.0638057
0.0632659
0.0508166
0.0220582
0.00847546
0.00507046
0.00194966
0.000168702
3.29172e-08
2.36793e-05
3.80325e-07
7.35058e-05
5.67981e-05
7.76305e-05
6.82717e-06
0.0015802
5.48147e-05
0.000234661
0.00472652
0.0184951
0.00939768
0.0796972
0.0316294
0.0335528
0.0309633
0.0215162
0.000782219
0.115788
0.121277
0.114482
0.0482531
0.0309287
0.0344327
0.0324654
0.0171636
0.00578716
0.00876508
0.0266738
0.0441288
0.0607237
0.075466
0.0813423
0.0796256
0.0728224
0.0627384
0.0553636
0.0498472
0.0446372
0.039562
0.0348321
0.0306231
0.0270795
0.02427
0.0222216
0.0209097
0.0203179
0.0204147
0.0211764
0.0225868
0.0246256
0.0272304
0.0303786
0.034005
0.0377772
0.0425815
0.135184
0.118152
0.0876626
0.0915052
0.0930928
0.0956012
0.0906784
0.0777906
0.0638561
0.0634574
0.0519513
0.0218553
0.00621394
0.00486535
0.00225049
0.000214494
2.33344e-07
3.28647e-06
1.57662e-05
2.14626e-05
6.62159e-05
6.73463e-05
6.95265e-05
0.00130006
7.52319e-05
4.18194e-05
0.0105628
0.0536289
0.0162608
0.0580603
0.00788646
0.0361232
0.0336124
0.0258827
0.00117622
0.0918369
0.122961
0.117926
0.0645601
0.0343336
0.0352708
0.0362447
0.0215607
0.0069183
0.00892656
0.0275169
0.0457642
0.0609866
0.075388
0.0824403
0.0811125
0.0745474
0.0644462
0.056692
0.0512008
0.0461335
0.0410468
0.0362474
0.0319011
0.0281435
0.0251054
0.0228193
0.0212806
0.0204652
0.0203544
0.0209111
0.0221349