/*--------------------------------*- C++ -*----------------------------------*\
| =========                 |                                                 |
| \\      /  F ield         | OpenFOAM: The Open Source CFD Toolbox           |
|  \\    /   O peration     | Version:  v2012                                 |
|   \\  /    A nd           | Website:  www.openfoam.com                      |
|    \\/     M anipulation  |                                                 |
\*---------------------------------------------------------------------------*/
FoamFile
{
    version     2.0;
    format      ascii;
    class       volScalarField;
    location    "12000";
    object      I2_2;
}
// * * * * * * * * * * * * * * * * * * * * * * * * * * * * * * * * * * * * * //

dimensions      [0 0 0 0 0 0 0];


internalField   nonuniform List<scalar> 
27324
(
-0.00985953
-0.000781949
-0.0204292
-0.000823163
-0.020734
-0.000897168
-0.0113308
-0.00127965
-0.0223863
-0.00103679
-0.012153
-0.00132098
-0.0226552
-0.00144345
-0.0236646
-0.00105846
-0.0221648
-0.00134472
-0.0234444
-0.0018261
-0.0217966
-0.00112766
-0.0228229
-0.00132324
-0.0238457
-0.00190766
-0.0203776
-0.00164478
-0.0146913
-0.00123421
-0.0242242
-0.00156234
-0.0236346
-0.00204622
-0.0157197
-4.7287e-06
-0.015517
-0.00131332
-0.0247454
-0.0015376
-0.0242915
-0.00212244
-0.0159987
0.00208553
-0.00444733
-0.00150736
-0.0244497
-0.00136008
-0.0256048
-0.00205897
-0.0218556
-0.000689297
-0.00903473
0.00262366
-0.000679563
-0.00166265
-0.0252055
-0.00149528
-0.0260414
-0.00210744
-0.0226982
-0.00083845
-0.008891
0.00257405
-0.000131209
0.00049592
-0.0191771
-0.00161724
-0.0263352
-0.00184797
-0.0261034
-0.00243505
-0.0176101
0.00257553
-0.00267543
0.000778057
0.00196968
0.000849953
-0.020676
-0.00168472
-0.0272643
-0.00201728
-0.0265953
-0.00248248
-0.0176964
0.00257992
-0.00279811
0.000919186
0.00101278
0.00298988
0.000463599
-0.00203651
-0.0287302
-0.00180106
-0.0284879
-0.00269015
-0.0232767
-0.000557077
-0.00880233
0.00280965
-0.00072434
0.00151949
0.00210328
0.00247545
-1.01192e-05
-0.00188213
-0.0307279
-0.00189079
-0.0298982
-0.0028977
-0.0233689
9.95158e-05
-0.00763226
0.0026284
-0.00068468
0.00152787
0.00226943
0.00231339
0.000761824
0.00059058
-0.0277418
-0.00139449
-0.0323153
-0.00246924
-0.0296112
-0.00249357
-0.0149804
0.00364024
-0.00217134
0.00103427
0.00115759
0.00249242
0.00296788
0.00185505
-0.00037444
0.000768229
-0.0301567
-0.00115083
-0.0351107
-0.00244651
-0.0310527
-0.00253973
-0.0145551
0.00390034
-0.00193953
0.00124708
0.00183018
0.00277213
0.00315615
0.00297023
0.000511258
0.00147538
-0.00134518
-0.00021054
-0.0394845
-0.00132119
-0.0370689
-0.00345481
-0.0249319
0.00133257
-0.00578554
0.00183405
0.000707563
0.00287426
0.00314825
0.00354332
0.00354896
0.00246809
-0.000459709
0.00141982
-0.00384876
0.00772242
-0.0440692
-0.00114334
-0.0400852
-0.00328634
-0.0274604
0.00116284
-0.00584032
0.00179606
0.00101224
0.00338531
0.00380969
0.00399739
0.00404057
0.0034806
0.000915051
0.00112791
-0.00110696
-0.001461
-0.0535358
0.00478947
-0.0466839
-0.00163553
-0.0393123
-0.00378145
-0.0184992
0.0042471
-0.00183327
0.0021414
0.00352307
0.0042912
0.00441423
0.00439292
0.00410763
0.00302258
-0.000400044
0.00117009
-0.00249353
0.0252244
-0.0185376
0.0400345
-0.0562066
-9.96557e-05
-0.0423642
-0.00378021
-0.022626
0.00394168
-0.0021568
0.00223363
0.00370074
0.00463307
0.00464628
0.00466401
0.00449985
0.00404193
0.00138654
0.00138389
-0.000643949
-0.000336367
-0.0474389
0.00506174
-0.0578516
0.0455701
-0.0587186
-0.000242438
-0.0378137
-0.00312845
-0.0120667
0.00299049
0.000613763
0.00395153
0.00477524
0.00504334
0.00451519
0.00484922
0.00450494
0.00356177
-0.000409906
0.00148146
-0.00215015
0.0180138
-0.0581293
0.0261762
-0.0180697
0.0580204
-0.0832343
0.0189353
-0.0457279
-0.00367348
-0.0160064
0.00360226
-0.000495909
0.003361
0.00452541
0.0055081
0.00468923
0.00480887
0.00485468
0.00449634
0.00167555
0.00167675
-0.000863707
0.00200709
-0.0883707
0.0719215
-0.0198312
0.0339736
-0.0184168
0.0524022
-0.08417
0.041014
-0.0453058
-0.00256976
-0.00504386
0.00140392
0.000940427
0.0041253
0.00559176
0.00547418
0.00448306
0.00511005
0.00486809
0.00402901
-0.00037209
0.00179161
-0.00215442
0.0213385
-0.102385
0.065779
-0.0173541
0.00346891
-0.0373946
0.015639
-0.0317648
0.0650729
-0.0907533
0.00803652
-0.0142049
0.0018115
-0.000178406
0.00278397
0.00512371
0.00579238
0.00504611
0.00500713
0.00519435
0.00480509
0.00218719
0.00197165
-0.000884276
-0.00105661
-0.0762071
0.0692848
0.00232136
-0.000602683
-0.0254085
0.00391463
-0.0349883
0.00707581
-0.0128479
0.0448283
-0.0882513
0.0280648
-0.0119503
0.00179572
0.000422874
0.00397423
0.00543557
0.0057034
0.00473126
0.00526729
0.00502252
0.00436296
-0.000924411
0.00208242
-0.00164472
0.0491388
-0.00852019
0.006695
-0.00871953
-0.000724428
-0.0265588
0.000150756
-0.0292919
0.027611
0.000490434
0.00709603
-0.0343346
0.0680946
-0.0748021
0.00163534
-0.00280952
0.00188578
0.00413235
0.00514265
0.00518983
0.00485008
0.00532595
0.00482625
0.00231975
0.00228155
0.00119937
0.00305891
0.00488922
0.00931254
-0.0174839
0.00768285
-0.0209706
-0.000563833
-0.0274533
0.000120583
-0.0280316
0.0104525
0.00298846
0.00551065
-0.0283501
0.0555318
-0.080052
0.027713
-0.00781485
0.00131272
0.00276228
0.00369469
0.00450783
0.00508025
0.00521651
0.00439203
-0.000951932
0.00121584
-0.00623493
0.0076437
0.00446617
0.00994251
-0.0100004
0.000693295
-0.0215063
-0.000595832
-0.0266019
-0.000475844
-0.0261341
0.00746805
0.00374964
0.00382659
-0.000253067
0.0240428
-0.0458831
0.0646829
-0.086156
0.0139988
-0.0101966
0.00286284
-0.000449945
0.00166295
-0.000208085
0.00345865
-0.0252164
0.0273602
-0.0365885
0.0182135
0.000612051
0.00774595
0.00306664
0.00476043
-0.000483536
-0.000640703
-0.0274806
-0.00065824
-0.0253397
-0.000505499
-0.0258905
0.0163941
-0.000914062
0.00519577
9.50506e-05
0.0214812
-0.0337603
0.0462057
-0.0693439
0.0875955
-0.0754837
0.0518247
-0.0579252
0.0538943
-0.0653394
0.0575983
-0.0485752
0.0597539
-0.0377786
0.0085132
0.00967431
0.00458424
-0.00530826
0.00515885
-0.00119454
-0.000593148
-0.0271785
-0.000638576
-0.0249322
-0.000703713
-0.0256038
0.000642755
-0.00870678
0.0167166
-0.00576802
0.00500332
-0.0203442
0.0264909
-0.0347097
0.0483066
-0.0635036
0.0655823
-0.066496
0.0630267
-0.0725179
0.0670111
-0.0610985
0.0578864
-0.0337997
0.00626777
-0.000667892
0.0234232
-0.0184308
0.00486387
-0.00336227
0.000550712
-0.0208451
-0.000462479
-0.0250584
-0.000615207
-0.0256632
-0.000797989
-0.0258397
0.00192177
0.00443839
0.0295114
-0.0307672
0.00453384
-0.0219675
0.026641
-0.0320969
0.0409586
-0.0473154
0.0543243
-0.0570163
0.0631093
-0.0651699
0.0547253
-0.0415287
0.0200799
0.00433089
0.0330146
-0.0518963
0.0290352
-0.00679624
0.00211488
-0.00190233
0.000161482
-0.0202459
-0.000424358
-0.024828
-0.000534506
-0.0261882
-0.000795756
-0.0254099
-0.000850808
-0.0161813
0.0111043
-0.04368
0.0974548
0.000878937
0.0267804
-0.0355262
0.0421997
-0.0472824
0.0497772
-0.0498359
0.0537462
-0.0519061
0.0437288
-0.0286004
0.00779426
0.000592218
0.0518169
-0.0696046
0.0398514
-0.00918854
0.00255672
-0.00135779
0.000845852
-1.59051e-05
-0.000320039
-0.0255913
-0.000465769
-0.0254556
-0.00056409
-0.0271426
-0.00111415
-0.0215888
-0.000718889
-0.00771673
0.0262364
-0.0578764
0.127209
0.00111507
0.0144163
-0.0472971
0.0530694
-0.0685803
0.0573818
-0.0567972
0.0452021
-0.0421157
0.00429194
-0.000331829
0.000133665
-0.0413281
0.0716705
-0.0482586
0.0137947
-0.00306672
0.00168979
-0.000839703
0.000197014
-5.65916e-06
-0.000221968
-0.0254011
-0.000379891
-0.0263096
-0.000463928
-0.02757
-0.00108615
-0.0221942
-0.00137491
-0.0126996
0.00352521
-0.0340825
0.0739059
-0.0745276
0.000322681
0.000424897
0.0014819
-0.00265009
0.00464882
-0.0061822
0.00446999
-0.00271379
0.00111206
0.000201908
1.66545e-06
-0.0211671
0.0670322
-0.0561553
0.0206875
-0.00433492
0.00183137
-0.00123877
0.000328345
-4.72671e-05
7.58237e-06
-0.0201944
-0.000148206
-0.0263999
-0.000311942
-0.0277115
-0.000610881
-0.0258892
-0.00140951
-0.018051
-0.000947105
-0.00428308
0.0204521
-0.0411418
0.0843604
-0.0318765
0.000193155
0.00174161
0.00236804
4.84158e-05
0.00164569
-0.000688639
0.00146101
-0.000394742
0.000601099
1.16629e-05
0.00447226
-0.0566222
0.0626664
-0.0302929
0.0066485
-0.00206052
0.00149694
-0.00065457
-2.8431e-05
-4.32105e-05
5.18251e-05
-0.020972
9.17853e-06
-0.027277
-0.000223003
-0.0277034
-0.000541606
-0.0259706
-0.0013007
-0.0179708
-0.00089883
-0.00609807
0.00078792
-0.0360773
0.0501767
-0.0722675
0.00225745
0.000482462
0.00177439
-0.000478542
0.00226383
-0.000273704
0.00165049
-0.000846759
0.00100397
-7.92317e-05
8.21042e-05
-0.0398477
0.0662332
-0.0411705
0.0106196
-0.00251313
0.00167912
-0.00103671
-8.44526e-05
-7.779e-05
0.000143323
0.000110487
0.00042521
-0.027407
4.80343e-05
-0.0279723
-0.000251375
-0.0275075
-0.00071949
-0.0227856
-0.00136573
-0.0119161
2.34886e-05
-0.00412253
0.00541629
-0.0426784
0.0611565
-0.0337435
8.95748e-05
-0.000422401
0.00189339
-0.00197215
0.0020142
-0.00167237
0.00173423
-0.00154858
0.000592732
-6.6349e-09
0.0193949
-0.0654496
0.0515491
-0.0167178
0.00341831
-0.00180233
0.00148927
-0.000537102
0.000110205
-5.96477e-05
0.000434759
0.000120194
0.000536877
-0.0285415
0.00025553
-0.0280842
-0.000150485
-0.0274922
-0.000607582
-0.0227315
-0.00125742
-0.0120364
1.45414e-05
-0.00480619
-1.72967e-05
-0.031766
0.0491642
-0.080157
0.0216031
-3.21694e-05
0.0011863
-0.00212923
0.00226033
-0.00207144
0.00208025
-0.00207175
0.00123515
-9.49618e-06
0.00441288
-0.0586615
0.0599174
-0.0249892
0.00504104
-0.00201974
0.00181318
-0.000923851
0.000133749
-0.000116174
0.000170116
0.000330275
0.000249257
-0.0247964
0.000447342
-0.0285756
0.000206689
-0.0272636
-0.000176004
-0.0265998
-0.000900706
-0.0181143
-0.000936522
-0.00795397
0.000445412
-0.00157527
0.000240684
-0.0412312
0.0610735
-0.103106
-0.000391015
0.000160654
0.00193044
-0.00218252
0.00230661
-0.00223506
0.00229049
-0.00181788
0.000165473
-0.000191263
0.0448604
-0.0652347
0.0346581
-0.00779827
0.002474
-0.00198488
-0.000260348
-0.000607421
0.000184485
-3.66502e-05
0.000264695
0.000363102
0.000363633
-0.0250062
0.000376506
-0.0277168
0.000297753
-0.0272148
6.12868e-05
-0.0268638
-0.000678168
-0.0186094
-0.000938768
-0.00868234
0.000426943
-0.00189015
7.48e-05
-0.0193317
0.0458498
-0.0709024
0.0720616
-5.84885e-05
0.000945923
-0.00221152
0.00256682
-0.00249587
0.00248043
-0.0021745
0.000643647
-9.47518e-09
0.025778
-0.066593
0.0443783
-0.0122227
0.0033261
-0.00199721
-0.000329109
-0.000980998
0.000271471
-0.000108916
0.000272942
4.12756e-05
0.00115666
0.000404752
5.99842e-07
-0.028349
0.000344472
-0.0265992
0.000318331
-0.0281616
3.0056e-05
-0.0236926
-0.000741084
-0.0132436
-0.000618522
-0.00593305
0.000907318
-0.000478959
-1.55203e-07
-0.0374997
0.0544612
-0.0679855
0.00665487
3.31256e-05
0.00216145
-0.00284215
0.00282219
-0.00264905
0.00240274
-0.0012678
2.91658e-06
-0.00850476
0.0627476
-0.0528386
0.0185869
-0.00485803
0.00178195
-0.00273139
6.15072e-05
-0.000417946
0.000194819
-7.47524e-05
0.00036126
0.000145834
0.0017891
0.000558426
-0.000158596
-0.0277764
0.000129855
-0.0266432
0.000411443
-0.0284946
0.000311322
-0.0243784
-0.00036133
-0.0138596
-0.000708508
-0.00629522
0.000785408
-0.000677262
1.36683e-05
-0.00781157
0.0432304
-0.0693016
0.0561226
8.64603e-06
0.00112948
-0.00305758
0.00313442
-0.00279137
0.00249442
-0.00173241
0.000103177
-0.000925341
0.0525028
-0.0591158
0.0265286
-0.00754641
0.00178801
-0.00319776
-6.15515e-05
-0.000610939
0.000254119
-0.000145495
0.000341341
4.37756e-05
0.000817055
0.00191758
0.000512293
-0.0228119
-0.000189329
-0.0256143
0.000143924
-0.0280966
0.000531652
-0.0275799
0.000628771
-0.0203567
-0.000401809
-0.011437
-0.000366778
-0.00253118
0.000622845
-7.8218e-05
1.43836e-06
-0.0287448
0.0522434
-0.0799076
0.0201968
-2.44796e-05
0.00293993
-0.0033445
0.0029261
-0.00250953
0.00203106
-0.000503958
5.62399e-06
-0.0359097
0.0624855
-0.0351737
0.0119494
-0.002838
-0.000740874
-0.00279959
0.000539529
-0.000341171
0.000276527
-0.000196865
0.000476206
0.000353692
0.00115499
0.0015295
0.000332312
-0.0228499
-0.000256898
-0.0257285
9.99294e-06
-0.0280329
0.000457773
-0.0275546
0.00102753
-0.020267
6.27774e-05
-0.0125388
-0.000417737
-0.00287223
0.000480503
-0.000207858
1.6864e-06
-0.00201905
0.0388566
-0.0636534
0.0562954
-0.000115036
0.00190794
-0.00345638
0.00301067
-0.00254395
0.00217857
-0.00109775
2.22457e-08
-0.017175
0.062
-0.0434806
0.0184103
-0.00400004
-0.000781836
-0.00347682
0.000577956
-0.000452799
0.000317307
-0.000271705
0.000468161
0.000169625
0.00120415
0.000783244
0.000714336
-0.00145694
-9.54794e-05
-0.0270254
-0.000261318
-0.0276396
1.25222e-05
-0.0275721
0.00064352
-0.0257518
0.00106433
-0.0152364
0.00023421
-0.00789666
-0.000137108
-0.00165896
0.000239112
-4.54794e-05
3.1631e-11
-0.0173453
0.051695
-0.0656158
0.00694617
-0.000159482
0.00327893
-0.0030746
0.00261279
-0.00227965
0.00163694
-4.40404e-05
0.00429415
-0.0564199
0.0505809
-0.0266876
0.00441936
-0.0035193
-0.00058134
-0.00158957
0.000580544
-0.000381393
0.000400347
-0.000303322
0.000664954
0.000622577
0.00120179
-0.000247982
0.00146067
-0.0041924
0.000180919
-0.0279366
-0.000204134
-0.0278343
-0.000174678
-0.0270504
0.000309671
-0.0251817
0.00119818
-0.0152845
0.000837588
-0.0081608
-0.000122746
-0.00194601
0.000152978
-0.000147217
6.69526e-06
-7.96082e-05
0.0356806
-0.0660395
0.0489726
1.55656e-05
0.00213499
-0.00311601
0.00273761
-0.0023787
0.00194488
-0.000384565
0.000301738
-0.0447941
0.0558657
-0.0360438
0.0083266
-0.00347668
-0.000710059
-0.0020232
0.000713779
-0.00047931
0.000450042
-0.00040288
0.000629598
0.000444942
0.00116128
-0.000215263
0.00132298
-0.00392172
0.00111106
-0.0274377
0.00017279
-0.0281356
-0.000209875
-0.0268705
-0.000245675
-0.0266619
0.000484259
-0.0175738
0.0012474
-0.0139626
0.000432196
-0.00381673
-6.82343e-05
-0.000337894
0.000134911
-8.5387e-05
2.187e-05
-0.0136453
0.0527647
-0.0703804
0.012141
-0.000291592
0.00306209
-0.00292332
0.00249879
-0.0021599
0.0009184
-1.00328e-07
0.0284065
-0.0587522
0.0455903
-0.0184036
-0.000484611
-0.00486874
0.000611593
-0.00100926
0.000604288
-0.000514429
0.000556115
-0.000306097
0.000926724
0.000678572
0.000604026
-0.00132123
0.0018275
-0.00682269
0.000768981
-0.0284776
0.000333067
-0.0284305
-8.31448e-05
-0.0265348
-0.000335265
-0.0267669
-1.68695e-05
-0.0167235
0.00113822
-0.0133497
0.000493363
-0.00337637
-4.80739e-05
-0.000281311
6.29697e-05
-0.000164804
-9.66148e-07
-5.86007e-05
0.0362984
-0.0653033
0.0438708
-5.47245e-07
0.00255617
-0.00314388
0.00266235
-0.00226413
0.00148609
-8.63249e-06
0.0123684
-0.0584163
0.0543993
-0.0288138
-0.000617857
-0.00474908
0.000589985
-0.00126562
0.000748781
-0.000614972
0.000621597
-0.000447099
0.000863003
0.000565878
0.000643984
-0.00128862
0.00186021
-0.0069631
0.00123057
-0.0081138
0.000365165
-0.030203
0.000330138
-0.0271157
-6.43293e-05
-0.0265252
-0.000479537
-0.023138
-6.89833e-05
-0.0145017
0.0010102
-0.00526419
6.34357e-05
-0.00140787
2.37681e-05
-0.000154088
8.94436e-05
-0.000196868
5.18454e-06
-0.0148228
0.0578981
-0.0655509
0.00287929
-0.00102164
0.00332811
-0.00285729
0.00234756
-0.00184719
0.000222529
-0.002919
0.0539079
-0.061103
0.0385569
-0.00620631
-0.000243023
-0.00377121
0.001078
-0.000904219
0.000739921
-0.00069875
0.000692059
-0.000143515
0.0010694
-0.000176954
0.00128253
-0.00375657
0.00132551
-0.00865546
0.00124431
-0.00754162
-2.87494e-05
-0.0296657
0.000316794
-0.026866
0.000114529
-0.0270325
-0.000477744
-0.0232763
-0.000417624
-0.0144358
0.000745091
-0.00390516
2.577e-05
-0.000856621
4.25555e-05
-9.14806e-05
5.12472e-05
-0.000172681
7.90677e-06
-0.000773354
0.0417219
-0.0722734
0.0360182
-1.67805e-05
0.0032639
-0.00307133
0.00243746
-0.00206502
0.000762023
-0.000184558
0.0447721
-0.065438
0.0515328
-0.00994414
8.39114e-05
-0.00431355
0.00118658
-0.00109412
0.000894722
-0.000813143
0.000762884
-0.000336521
0.00102648
-0.000190062
0.0012734
-0.0037018
0.00130122
-0.00901917
0.000891764
-0.00741502
0.000669982
-0.0272297
-3.4872e-05
-0.0265517
0.000302227
-0.0272332
0.000137267
-0.0280223
-0.000581704
-0.0166904
-0.000250675
-0.0100992
0.000231915
-0.00124462
5.27274e-06
-2.25399e-05
4.5201e-05
-1.77539e-05
7.39809e-05
-4.95583e-05
5.06052e-10
-0.0209995
0.0654041
-0.0601822
0.000410843
-0.00238617
0.00328169
-0.00257023
0.00216875
-0.00146792
-7.81367e-09
-0.0313675
0.0677768
-0.0646641
-0.000623101
-0.00394892
0.000569582
-0.00227888
0.00120215
-0.00105241
0.000951488
-0.000831911
0.000823706
0.000104377
0.000742173
-0.00124707
0.00190231
-0.00712799
0.000702597
-0.00906719
0.000983556
-0.00673262
0.000714172
-0.0276471
-0.000209899
-0.0264557
0.000172721
-0.0273008
0.000350715
-0.0283785
-0.000101547
-0.0174071
-0.000405031
-0.00982899
0.000189275
-0.000958126
4.37407e-06
-2.88716e-06
1.89183e-05
-3.35268e-06
2.29727e-05
-5.01022e-05
5.90826e-07
-0.0035857
0.0510482
-0.0691977
0.0128166
-0.000578519
0.00342386
-0.00274799
0.00224912
-0.00183027
3.11066e-05
-0.0169835
0.0678602
-0.0738839
0.00431535
-0.00419558
0.000636671
-0.00274562
0.00134698
-0.00125754
0.00112552
-0.000962096
0.00087366
-8.17205e-05
0.000773061
-0.00125108
0.00191618
-0.00716164
0.000599737
-0.00955994
0.0008207
-0.00711137
0.00157881
-0.00544093
-0.00035616
-0.029676
-0.00018965
-0.02667
0.000150033
-0.0275286
0.000497257
-0.0244433
-0.000198298
-0.0170639
-0.000237027
-0.00310938
0.000199191
-0.000118748
1.0623e-07
-4.41912e-06
6.51373e-06
-4.35711e-06
3.67079e-05
4.18675e-06
7.65954e-07
-0.0283844
0.0696714
-0.0446865
-1.17183e-07
-0.00323194
0.00296643
-0.00236952
0.00202849
-0.000370392
0.00593956
-0.0651121
0.0792403
-0.0379308
0.000879689
-0.00495216
0.00140593
-0.00175738
0.00144395
-0.001303
0.00110435
-0.000854885
0.000939931
-0.000313118
0.0012885
-0.00358759
0.0012308
-0.0099447
0.000393762
-0.00874593
0.000911504
-0.00639671
0.00165457
-0.00478715
-0.000113647
-0.0305455
-0.000224285
-0.0264526
-3.89848e-05
-0.0273345
0.000562297
-0.0242322
0.000218432
-0.0181997
-0.000252672
-0.00372159
0.000276639
-0.000110555
5.88645e-11
-8.82735e-07
4.55108e-06
-4.06789e-06
2.75899e-05
-1.01539e-05
6.3814e-07
-0.00737934
0.0595269
-0.0634652
0.00214543
-0.00212026
0.00321277
-0.00253566
0.00213692
-0.000922432
0.000133473
-0.0589747
0.0823374
-0.0531716
0.000945367
-0.00481589
0.00144234
-0.00203295
0.00161831
-0.00154091
0.00127595
-0.00101009
0.000948551
-0.000385237
0.0013064
-0.00357474
0.0012038
-0.0102023
0.000210382
-0.00922917
0.000721544
-0.00673449
0.00125638
-0.00491259
0.000756747
-0.0316072
-1.17811e-05
-0.0274257
-0.000205005
-0.0262955
-2.33136e-05
-0.0277886
0.000661011
-0.0192866
0.000397125
-0.0108612
2.91542e-05
-0.00193617
0.000175608
8.2505e-08
3.60469e-08
-1.91806e-06
9.81355e-06
-2.89004e-05
3.52378e-05
-2.39279e-05
7.49374e-05
-0.0395121
0.0710556
-0.0218273
0.000434131
-0.00341101
0.0027527
-0.00220739
0.00126072
-1.36481e-05
0.0445727
-0.0846489
0.0469249
-0.0120885
0.0010423
-0.00439292
0.00181515
-0.00194582
0.00180815
-0.00146298
0.00117957
-0.000655114
0.000863306
-0.00130438
0.00195233
-0.00725621
0.000319321
-0.0111448
0.000258999
-0.00827541
0.000815476
-0.00602658
0.00127475
-0.00442399
0.000707869
-0.031655
0.000124873
-0.0273012
-0.000141032
-0.0261535
-0.000224119
-0.0273875
0.000344534
-0.0193153
0.000590213
-0.00985945
-2.5307e-05
-0.00271822
0.000298255
3.16812e-06
6.02041e-07
-5.45601e-07
1.32719e-05
-4.36511e-05
3.62295e-05
-9.86451e-05
1.3657e-07
-0.0166282
0.0699498
-0.0490776
-3.96152e-07
-0.00327372
0.00301618
-0.00227606
0.00144539
0.000327491
0.0207713
-0.0818996
0.0575305
-0.0210936
0.00130702
-0.00480164
0.0019797
-0.00217634
0.00203242
-0.00170134
0.00133098
-0.000830439
0.000898709
-0.00133717
0.00196754
-0.00730717
0.000234593
-0.0116676
6.09222e-05
-0.00870222
0.000622272
-0.00631724
0.00110985
-0.00459211
0.0015293
-0.00332757
0.000253524
-0.0311438
7.33256e-05
-0.0260848
-0.000138716
-0.0278182
-0.000208257
-0.0230903
0.000519637
-0.0173119
0.000127577
-0.00520791
3.9032e-05
-0.000871858
5.16158e-06
2.56323e-06
1.73759e-06
-7.91814e-06
4.5707e-05
-2.99449e-05
0.000111975
-6.83105e-06
0.00252996
-0.0563361
0.065958
-0.00377151
0.00225185
-0.00332872
0.00233744
-0.00124145
0.000715037
-0.014453
0.0676136
-0.0804969
-0.00133418
-0.00517677
0.00171607
-0.00323625
0.00210694
-0.00241285
0.00203314
-0.00151693
0.00113117
-0.000683737
0.00140699
-0.0035879
0.00109136
-0.0108705
-0.000284378
-0.0109506
0.000156611
-0.00779286
0.000707872
-0.00563421
0.00109201
-0.00412389
0.00138221
-0.00302366
5.60473e-06
-0.030967
9.50249e-05
-0.0261358
-2.28848e-05
-0.0282433
-0.000280584
-0.0228629
0.000181312
-0.0160878
0.000145454
-0.00457369
-0.000108286
-0.000961403
2.44384e-05
6.59785e-06
2.01806e-06
-3.68781e-06
3.16956e-05
-2.57393e-05
6.43359e-05
-2.95548e-05
6.55009e-06
-0.0332305
0.0728817
-0.0253407
0.000610862
-0.00364949
0.0023963
-0.0011014
0.001025
-0.00407924
0.0486169
-0.0833151
0.0062282
-0.00667759
0.0018969
-0.00374327
0.00227801
-0.00269089
0.00231721
-0.0017384
0.00123371
-0.000795995
0.00146075
-0.00360809
0.00104695
-0.0110807
-0.000435135
-0.0115923
-5.0322e-05
-0.00817575
0.000516225
-0.00590871
0.000936305
-0.00430376
0.00102399
-0.00332407
0.000418619
-0.0319275
-1.70187e-05
-0.0262662
7.59095e-05
-0.0264779
-4.35799e-05
-0.0274972
-0.000379322
-0.0195667
0.000164255
-0.00680605
-7.49012e-05
-0.00197
6.80114e-06
-2.08982e-05
2.51381e-06
2.43547e-06
5.43146e-07
-1.91702e-05
2.05538e-05
-2.27367e-05
4.25148e-05
-9.05652e-08
0.0116643
-0.0705492
0.0499301
-1.50947e-06
0.0037513
-0.00244882
0.00146526
0.0009498
0.000326875
-0.0470586
0.0601298
-0.055636
0.00130962
-0.00505939
0.00236824
-0.00308896
0.00258577
-0.00269318
0.00206212
-0.00132159
0.0010538
-0.00149237
0.00202028
-0.00749474
-3.17009e-05
-0.0131646
-0.000555084
-0.0102113
1.05155e-05
-0.00730072
0.000573043
-0.00526167
0.000887453
-0.00387072
0.000870837
-0.00307718
0.000302652
-0.0328737
-7.10428e-05
-0.0257151
-3.34121e-06
-0.0266158
6.37977e-05
-0.0276681
-0.000278085
-0.0200258
-9.85349e-05
-0.00680414
6.65397e-05
-0.00128941
0.000166021
-2.64057e-05
1.33473e-08
5.36821e-07
3.26523e-07
-8.7378e-07
1.33625e-05
-7.11668e-06
2.59302e-05
-8.17162e-06
0.00121659
-0.0546027
0.0657227
-0.00248995
0.00305651
-0.00250649
0.00148249
0.00124302
0.00089967
-0.0318024
0.0482397
-0.0647671
-0.00107395
-0.00518537
0.00248139
-0.00353183
0.00275603
-0.00303892
0.00239293
-0.00151317
0.00112488
-0.00155674
0.0020323
-0.00755801
-0.000126628
-0.0136345
-0.000762519
-0.0108055
-0.000214849
-0.00765818
0.000367673
-0.0055108
0.000741475
-0.00402564
0.00078557
-0.00311787
0.00080746
-0.00261903
-8.29882e-05
-0.0313715
-6.32961e-05
-0.0262791
1.46034e-05
-0.0287252
5.00076e-05
-0.0237798
-0.00018617
-0.0146094
0.000148311
-0.00338726
-1.89831e-05
-0.000409703
4.12607e-05
-2.00951e-08
1.53822e-07
-1.18654e-05
2.19521e-09
-3.20647e-06
5.77374e-06
-8.76072e-06
4.04237e-05
-5.82012e-07
0.0306164
-0.0736006
0.02118
-0.00135104
0.00275884
-0.000348838
0.00191767
0.00143695
-0.0015934
-0.0661251
0.0333419
-0.0259025
0.00241186
-0.0048766
0.00278573
-0.00356463
0.00296813
-0.00271515
0.00174085
-0.00110902
0.0016532
-0.00375415
0.000910494
-0.0117262
-0.000854873
-0.0136702
-0.00071001
-0.00946892
-0.000144828
-0.00680836
0.000403309
-0.00490371
0.000672348
-0.0036334
0.000637645
-0.00291769
0.000609921
-0.00264341
9.51429e-05
-0.031379
-3.84121e-05
-0.0263065
-2.23018e-05
-0.0285376
5.24933e-05
-0.0237983
-3.2698e-05
-0.0145325
0.000149741
-0.0040036
0.000131233
-0.000294958
4.03206e-05
-4.11401e-07
6.77498e-13
-2.99336e-05
4.47116e-08
2.66358e-08
7.78302e-06
-4.76826e-06
5.22305e-05
-1.33502e-06
0.0105324
-0.0712129
0.045332
-2.33979e-05
0.0028921
-7.11319e-05
0.00221161
0.00210137
0.00243
-0.0543645
0.0361424
-0.0364555
0.00250145
-0.00499624
0.00291846
-0.00397248
0.00313143
-0.0031115
0.00203484
-0.00121927
0.00170638
-0.00382937
0.000854117
-0.0119204
-0.000987353
-0.0143709
-0.000930677
-0.00995488
-0.000366109
-0.00713745
0.000200384
-0.00512486
0.000530981
-0.00377129
0.000553707
-0.00298615
0.000378709
-0.00272793
-1.24094e-05
-0.0353029
1.44983e-05
-0.0239882
-2.95971e-05
-0.0274275
-1.30876e-06
-0.027777
8.06596e-05
-0.0200763
-0.000236201
-0.00914264
0.000383917
-0.00098511
4.51298e-05
-2.9563e-05
4.00008e-06
-6.07694e-07
7.34147e-06
-7.09269e-06
5.4252e-12
-6.73797e-06
6.5822e-06
-3.6267e-05
2.57805e-05
-0.0013407
0.0557751
-0.0624997
0.00204465
-0.00177304
0.00196775
0.00223084
0.00245228
-0.0012062
2.16106e-05
-0.0718345
0.00436725
-0.00947946
0.00300688
-0.00501648
0.00323612
-0.003904
0.00317889
-0.00231525
0.00139613
-0.00170795
0.00204721
-0.00783073
-0.00038818
-0.0150156
-0.0013069
-0.012954
-0.000861939
-0.00880938
-0.000289554
-0.00633013
0.000222566
-0.00456064
0.000455363
-0.00342202
0.000418516
-0.00283099
0.000231449
-0.00275311
-9.56173e-05
-0.0364847
5.09994e-05
-0.0238481
1.13895e-05
-0.0276985
4.62218e-06
-0.0278957
5.87636e-05
-0.0191095
-0.000223599
-0.00937591
0.000153288
-0.00126931
0.000244299
-2.46534e-05
2.80819e-06
-1.16018e-05
2.09527e-08
-1.4531e-05
5.03242e-08
-3.54927e-06
1.53819e-05
-1.56438e-05
6.33225e-05
-3.10207e-06
0.0317606
-0.0718623
0.0224721
-0.000662339
0.00242056
0.00251721
0.00279213
-0.000200572
-0.00332223
-0.067087
0.0112454
-0.0140312
0.00320985
-0.00537573
0.00333633
-0.00424245
0.00334186
-0.0026556
0.00155893
-0.00173863
0.00204936
-0.00795497
-0.000479216
-0.0154344
-0.00146693
-0.0137675
-0.00108997
-0.00922642
-0.000522081
-0.00663889
3.10525e-05
-0.00475982
0.000324465
-0.00353868
0.000345067
-0.00287918
0.000203299
-0.00274069
9.32147e-05
-0.00319756
-0.000120812
-0.032819
4.63952e-05
-0.0264423
1.91647e-05
-0.0284667
1.57228e-05
-0.0242019
-8.76076e-05
-0.0130344
-0.000231572
-0.00508084
0.000102473
-0.000357122
2.88949e-05
-2.56117e-07
2.97859e-05
-1.92384e-08
1.89801e-06
-6.32612e-07
6.80969e-08
-2.94152e-05
6.06085e-06
-5.37383e-05
2.39406e-06
-0.0115266
0.0711037
-0.0467284
0.000543683
0.00164395
0.00302384
0.00309214
0.00133175
-0.0142333
0.0124529
-0.0622397
-0.00148002
-0.00562138
0.00325114
-0.00565349
0.00356103
-0.00403354
0.00297721
-0.00178544
0.00181954
-0.00402299
0.000621395
-0.012535
-0.00132778
-0.0163872
-0.00159103
-0.0117049
-0.00106053
-0.0082163
-0.000455984
-0.00588443
4.37712e-05
-0.00423904
0.000254036
-0.00323128
0.000228775
-0.0027695
8.10097e-05
-0.00282933
-4.2371e-05
-0.00355744
4.72169e-06
-0.0337466
6.07544e-05
-0.0263102
8.6232e-06
-0.0285318
0.000104035
-0.0244148
8.58065e-06
-0.0128919
-0.000265722
-0.00474715
-2.17462e-05
-0.000310759
2.06238e-05
-1.17199e-08
1.18696e-05
-3.91823e-06
7.2968e-08
-1.91725e-05
-1.0797e-10
-2.80636e-05
4.15241e-06
-1.84386e-05
5.02363e-05
-0.00186779
0.0600512
-0.0644734
9.31184e-05
0.00336641
0.00334874
0.00341337
0.00204422
-0.00514991
0.00270912
-0.0652136
-0.00304895
-0.00655294
0.00338996
-0.00622174
0.00364546
-0.00429775
0.0031673
-0.00203022
0.00189921
-0.00399003
0.000509069
-0.0127392
-0.00143772
-0.0170165
-0.00177488
-0.0124615
-0.0012863
-0.00858911
-0.000703303
-0.00615282
-0.000148228
-0.00442017
0.00013801
-0.0033275
0.00016408
-0.00280105
5.25599e-05
-0.00279687
-0.000112514
-0.00332062
-0.000265688
-0.0402714
2.72762e-05
-0.0246857
9.83041e-05
-0.0279896
4.03601e-05
-0.028415
0.000244782
-0.017194
3.37588e-05
-0.00989407
-0.000171904
-0.00105274
-1.96184e-06
-2.98874e-05
4.42535e-07
-1.54184e-06
8.48047e-06
-8.20757e-09
1.18128e-05
-1.21543e-06
7.51828e-06
-6.94556e-06
3.30379e-06
-0.000125304
2.06349e-05
-0.0405577
0.0755441
-0.035688
0.00562278
0.00350729
0.00375043
0.0024615
0.00224089
-0.0415595
0.0210341
-0.0416548
0.0033292
-0.00578413
0.00344345
-0.00583231
0.0037331
-0.00349204
0.00231752
-0.00197698
0.00209901
-0.00839555
-0.000768792
-0.0167329
-0.00186735
-0.0162062
-0.0017867
-0.010586
-0.00126338
-0.00760062
-0.000632415
-0.00542984
-0.000129169
-0.00394305
8.0212e-05
-0.00306752
7.02205e-05
-0.00273879
-4.4105e-05
-0.00293582
-0.000192615
-0.00368952
-0.000295515
-0.0416191
3.77029e-05
-0.0249904
0.000112525
-0.0280129
6.65726e-05
-0.0283971
0.0001013
-0.016611
0.000314669
-0.0108572
-9.08061e-05
-0.000979328
1.98341e-06
-3.54133e-05
2.21796e-07
-9.09788e-09
2.05226e-06
-7.00677e-07
6.23906e-07
-1.74494e-05
1.95172e-08
-1.31335e-05
8.53428e-07
-0.000151442
1.54333e-06
-0.0206537
0.0768812
-0.0799883
0.00437231
0.00390297
0.00413072
0.00308908
0.0012534
-0.0293308
0.0163462
-0.0487969
0.00212008
-0.00593007
0.00348999
-0.00649557
0.00380767
-0.00366391
0.00247544
-0.00213106
0.00205243
-0.00839505
-0.000891719
-0.0171463
-0.00196925
-0.0169997
-0.00197706
-0.0111408
-0.00148781
-0.00793884
-0.000843976
-0.00567866
-0.000298857
-0.00409795
-2.17389e-05
-0.00314456
1.66997e-05
-0.00274755
-6.49498e-05
-0.00288064
-0.000191282
-0.00360173
-0.000317139
-0.00520376
9.86218e-05
-0.0359955
3.57854e-05
-0.0259928
0.000111886
-0.0297088
0.000103212
-0.0234111
0.00013036
-0.0148643
0.000453248
-0.00476519
-2.8356e-05
-0.00022091
-1.27351e-06
6.105e-09
3.59642e-08
-1.21706e-08
4.74689e-06
-6.21429e-13
2.50833e-05
6.03343e-08
1.6319e-05
-2.51249e-06
4.97347e-05
-0.00011101
0.0077631
-0.0727625
0.0887034
0.00164494
0.004827
0.0045851
0.00384573
-0.000252055
0.00113543
-0.0586051
0.00954129
-0.0173561
0.00378646
-0.00719255
0.00349942
-0.00556347
0.0034748
-0.00252074
0.00217954
-0.00401761
0.000281065
-0.0135607
-0.00170627
-0.0188979
-0.00221013
-0.0146941
-0.00198735
-0.00971647
-0.00140924
-0.00704001
-0.000742985
-0.00501722
-0.000267457
-0.00367155
-6.30006e-05
-0.00292894
-5.41286e-05
-0.00273196
-0.000137825
-0.00307072
-0.000250962
-0.0040384
-0.00036462
-0.00593313
1.70331e-06
-0.0368222
8.67893e-05
-0.0261522
0.000101123
-0.0301347
0.000211949
-0.0229097
-6.61259e-05
-0.0151369
0.000604312
-0.00465499
-1.43385e-05
-0.000260373
-9.62474e-07
-3.08524e-07
6.50881e-08
1.40761e-09
2.87641e-06
-3.61952e-07
1.9383e-06
-1.55895e-06
4.44055e-06
-1.82326e-05
3.32223e-06
-0.000246884
0.00248559
-0.0620908
0.0987313
-0.00527493
0.00626397
0.005122
0.00438
0.00084105
0.00425423
-0.0510805
0.0161398
-0.0246616
0.00376955
-0.00730332