/*--------------------------------*- C++ -*----------------------------------*\
| =========                 |                                                 |
| \\      /  F ield         | OpenFOAM: The Open Source CFD Toolbox           |
|  \\    /   O peration     | Version:  v2012                                 |
|   \\  /    A nd           | Website:  www.openfoam.com                      |
|    \\/     M anipulation  |                                                 |
\*---------------------------------------------------------------------------*/
FoamFile
{
    version     2.0;
    format      ascii;
    class       volScalarField;
    location    "12000";
    object      I2_3;
}
// * * * * * * * * * * * * * * * * * * * * * * * * * * * * * * * * * * * * * //

dimensions      [0 0 0 0 0 0 0];


internalField   nonuniform List<scalar> 
27324
(
0.049259
0.052195
0.0773523
0.0538883
0.0795028
0.0817105
0.0561271
0.0802769
0.0833508
0.0847252
0.0584281
0.081548
0.0840229
0.0859026
0.0868735
0.0608375
0.082813
0.0851191
0.0866455
0.0875948
0.0854895
0.0632318
0.0841025
0.0862262
0.0877138
0.0884812
0.0861678
0.0813079
0.0658039
0.0853557
0.0873441
0.0888691
0.089673
0.0872854
0.0827424
0.0740381
0.0687734
0.0867323
0.0884788
0.0900873
0.0910625
0.0888142
0.0840019
0.0756424
0.0553379
0.0721478
0.0884094
0.0897402
0.0913962
0.0925713
0.0905618
0.0857212
0.0758821
0.056865
0.0290863
0.0757638
0.0904217
0.0912852
0.0928777
0.0942255
0.0923876
0.0875037
0.0765549
0.0556709
0.033172
0.0138535
0.0795085
0.0927448
0.0931709
0.0947254
0.0960875
0.0942615
0.0890529
0.0772026
0.0555108
0.0317677
0.019047
0.00433738
0.0833667
0.0954124
0.0954548
0.097043
0.0983537
0.0961694
0.0903772
0.0775435
0.055628
0.0320025
0.0166295
0.00852095
0.000103266
0.0874106
0.0985273
0.0982667
0.0998698
0.101089
0.0982475
0.0914062
0.0778838
0.0556748
0.0321678
0.0164488
0.0064051
0.00175973
7.40399e-06
0.0915789
0.102272
0.101752
0.10325
0.104199
0.10051
0.0924668
0.0783033
0.0560592
0.0317793
0.0156664
0.00680425
0.000754206
0.000153071
0.000533313
0.0959869
0.106669
0.106003
0.10718
0.10757
0.10285
0.0937635
0.0792314
0.056662
0.0315404
0.0146182
0.00612968
0.00121502
3.26241e-07
1.14541e-09
0.00175808
0.100264
0.111868
0.110812
0.111629
0.111118
0.105305
0.0954094
0.0807477
0.0576248
0.0310521
0.0140995
0.00586413
0.000987099
5.53026e-06
0.000133689
5.72762e-06
0.00338748
0.10353
0.117928
0.116123
0.11631
0.114987
0.108034
0.0976207
0.0826996
0.058825
0.0306889
0.0134613
0.0061836
0.000756871
1.07998e-06
6.28907e-05
0.000682176
4.60768e-07
0.00587455
0.107591
0.124824
0.122208
0.121228
0.118877
0.111411
0.100334
0.0851053
0.0598009
0.0304766
0.013023
0.00609931
0.000789895
1.9036e-12
0.000133596
0.000363991
0.000793487
5.19221e-06
0.00895675
0.100267
0.134473
0.129386
0.126693
0.122719
0.114822
0.103961
0.0872771
0.0608539
0.0297381
0.0131131
0.00590625
0.000613432
1.09267e-07
0.000250524
0.000438633
0.000376086
0.000801743
0.000495585
0.01471
0.0850446
0.134617
0.137016
0.132767
0.12672
0.117875
0.107275
0.0901736
0.0607125
0.0289834
0.0131047
0.00620407
0.000363848
3.60307e-06
0.000357115
0.000523709
0.000407424
0.000378999
0.000803156
0.00293633
0.0202979
0.0647311
0.125666
0.140511
0.135915
0.130686
0.120773
0.109769
0.0919777
0.061403
0.0268879
0.0130029
0.00650366
0.000240198
3.65181e-05
0.000453081
0.000583872
0.000401932
0.000464242
0.000246229
0.00068727
0.0102356
0.0160169
0.0636837
0.10075
0.133218
0.1463
0.133199
0.122971
0.11179
0.0923372
0.0599183
0.026365
0.0122993
0.00614577
0.000231675
0.000108424
0.000652311
0.000528558
0.000424245
0.000405442
0.000209494
0.000143063
5.94931e-05
0.0218276
0.00882527
0.0659663
0.0867584
0.10896
0.137026
0.14458
0.129359
0.112261
0.0917599
0.0566348
0.0238721
0.0129527
0.0053566
8.6332e-05
7.99537e-05
0.000803675
0.000544855
0.00038819
0.000371899
0.000101744
0.000448397
0.000461377
1.30987e-06
0.0155249
2.34127e-05
0.0668181
0.0860045
0.092834
0.11428
0.131841
0.134427
0.120137
0.0885727
0.053096
0.0217632
0.0118882
0.00507975
1.77693e-05
0.000195992
0.000554963
0.00061067
0.000363785
0.000379691
0.000119964
0.000438085
0.000290422
3.71482e-06
1.1542e-05
0.0327561
7.91259e-05
0.0719026
0.0864194
0.0915737
0.0966286
0.113274
0.11988
0.125139
0.0980927
0.0518323
0.0184794
0.0109419
0.00374942
3.29652e-07
0.000479827
0.000791804
0.000623859
0.000436898
0.00053773
0.000296314
0.00092298
3.59614e-06
3.94678e-05
0.00516571
0.00514864
0.0107792
0.000213909
0.0755202
0.090203
0.0914848
0.0926589
0.0983016
0.105791
0.100949
0.117961
0.065408
0.0148175
0.00703586
0.00219068
6.17952e-06
0.00129127
0.00165064
0.00067496
0.000859751
0.000911856
0.000500159
0.000690379
2.30948e-06
0.000389617
0.0162443
0.0187362
0.00566915
0.0416402
0.00096065
0.0781999
0.0916288
0.0923137
0.0909702
0.0914953
0.0997965
0.0923617
0.0692819
0.106308
0.0713747
0.00456797
0.000361178
9.0637e-05
0.00199567
0.00238711
0.00124953
0.000612796
0.000741539
0.000585917
3.09473e-05
0.00042485
0.0127024
0.0298026
0.0234875
0.000100449
0.0233154
0.033061
0.00841941
0.0793158
0.0925385
0.0906945
0.0898423
0.0889046
0.09236
0.101065
0.0709057
0.0164279
0.0812977
0.0985516
0.0219973
1.19967e-06
0.00339594
0.000921308
0.00050753
0.000767943
3.70943e-07
4.64442e-06
0.00846138
0.0169298
0.0443641
0.0162789
0.00799146
0.0250942
0.0116501
4.52237e-06
2.84753e-06
1.00796e-10
0.0791215
0.0924274
0.0895395
0.0879045
0.0877539
0.0890197
0.0958674
0.093354
0.0435061
0.00421407
0.0343718
0.0955711
0.0586594
0.00983992
0.00124597
0.000266988
0.00177962
0.00321419
0.0104598
0.0336562
0.0339703
0.0185529
0.00800963
0.0612073
0.00501287
1.43255e-05
5.35591e-08
3.33891e-06
1.40532e-07
2.52822e-09
0.0783495
0.09158
0.0881385
0.0869459
0.0881409
0.0887325
0.0903287
0.0936071
0.0802161
0.0221907
0.0351574
0.000311695
0.0387941
0.0770988
0.062875
0.0470658
0.0345268
0.0314962
0.0318899
0.0229196
3.74322e-05
0.0251224
0.0515281
0.0314759
0.000513148
0.00135244
5.55982e-05
5.92194e-05
2.25202e-09
4.99809e-05
3.26947e-08
0.0771733
0.0903945
0.0869782
0.086396
0.0887207
0.090154
0.0900587
0.0840265
0.0923467
0.0603077
0.00744705
0.0315299
0.0356897
0.0290976
0.00125441
0.0250955
0.0162538
0.00490185
0.000479396
0.00910721
0.0281758
0.0363481
0.0189344
0.000269512
0.00111588
0.000749404
3.33961e-06
9.8721e-06
8.38468e-07
1.62676e-08
1.39504e-05
4.99672e-08
0.0754967
0.088966
0.0863492
0.0865761
0.0897375
0.0911111
0.0896917
0.0819003
0.0784837
0.0947941
0.0213727
0.000875052
0.00339786
0.0300275
0.0608839
0.0522617
0.0321932
0.0291129
0.0274879
0.0301131
0.0260865
0.0145153
0.000104443
0.00045338
9.2351e-05
0.0030127
3.75749e-06
0.000216402
7.31718e-06
3.24277e-08
9.22917e-08
8.54592e-07
3.14973e-08
0.0737864
0.0876842
0.0864594
0.0876432
0.0909398
0.0921481
0.0898081
0.0827967
0.0738144
0.0775245
0.0792001
0.00548155
0.000338918
5.29614e-06
0.0102581
0.0240189
0.0291184
0.0303128
0.024992
0.0120378
0.00322263
3.72618e-05
1.67915e-05
0.000168509
9.53788e-08
0.000620803
8.56401e-05
0.000326863
3.27312e-05
1.33565e-09
5.08662e-07
2.47135e-09
4.51381e-10
4.13781e-06
0.073255
0.0870516
0.0875523
0.089402
0.0919842
0.0928316
0.0898864
0.0835795
0.0757965
0.065839
0.0692558
0.0446466
0.00101921
0.00215972
0.000157604
0.000185963
0.000598624
0.00194884
0.00261788
0.00139258
0.000160547
1.83436e-06
4.27082e-07
5.72278e-05
2.09283e-06
9.25374e-08
0.000628999
0.00032035
7.96381e-05
8.16971e-13
2.64717e-07
7.04966e-08
3.61723e-09
3.3391e-06
9.11232e-06
0.0741859
0.0875435
0.0892814
0.0911187
0.0924495
0.0930011
0.0898095
0.0840439
0.0750539
0.0630517
0.0474583
0.0760099
0.000140393
0.000311082
0.00968691
2.11036e-05
1.62774e-06
3.7901e-10
6.71341e-09
1.23345e-07
1.47737e-05
1.73538e-05
9.11478e-06
7.52213e-06
4.20352e-05
1.02394e-05
0.00067815
5.20928e-05
0.000186641
2.46255e-08
1.60545e-07
4.98513e-08
1.45253e-10
5.61879e-06
6.6448e-06
1.0667e-07
0.0755172
0.0885936
0.0908079
0.0921542
0.0922426
0.092642
0.0896686
0.0839552
0.074341
0.0606057
0.0436803
0.0454789
0.0741572
0.0424047
0.000434306
0.00131032
5.86844e-07
1.08739e-07
6.26253e-08
4.55119e-06
4.72596e-07
9.77535e-12
3.4433e-13
3.20923e-08
2.78732e-06
4.47014e-07
7.37238e-05
2.92164e-07
0.000311361
6.90229e-07
5.50638e-08
2.99311e-08
3.24416e-14
4.50637e-06
1.13955e-05
7.59558e-13
5.20809e-08
0.0789713
0.0904599
0.0922692
0.0923121
0.0916841
0.092107
0.0896913
0.0834858
0.0731881
0.0589711
0.0434015
0.0376429
0.0437389
0.0403343
0.0377662
1.03348e-05
1.23917e-08
3.35605e-08
4.30414e-06
1.5085e-05
3.04397e-06
8.01381e-10
1.35954e-09
5.39161e-11
1.06483e-08
2.85609e-07
2.85947e-07
0.000225279
0.00031043
6.0854e-06
8.58471e-09
7.59885e-09
8.1429e-10
2.6076e-06
9.82911e-06
1.86916e-07
1.49344e-06
3.17564e-05
0.0819993
0.0926075
0.093421
0.0921853
0.0912138
0.0917376
0.0898293
0.0828619
0.0724213
0.05814
0.0440201
0.0373348
0.0232581
0.0447191
4.63226e-06
0.00563478
1.65987e-05
1.05818e-08
2.01316e-05
2.00975e-05
1.02011e-05
4.56212e-07
3.65492e-08
5.41554e-08
7.09309e-08
2.90368e-06
4.53258e-05
0.000553836
0.000101484
2.79307e-05
1.42372e-11
1.03291e-09
3.17037e-09
1.74011e-06
1.0046e-05
1.2993e-07
5.80408e-10
3.81032e-09
0.000317883
0.0839486
0.0934775
0.0926015
0.0909539
0.0903969
0.0916158
0.0898976
0.0823173
0.0722313
0.0579856
0.0454085
0.0367645
0.0211963
0.0123312
0.0463256
0.0241984
2.06714e-05
5.28958e-05
5.41689e-05
2.1403e-05
6.04493e-06
1.542e-07
9.22508e-10
1.60965e-08
1.00669e-10
1.88406e-06
1.66469e-05
0.000131984
1.08833e-07
7.39935e-05
5.84132e-09
1.03685e-12
5.08699e-10
5.97169e-07
1.02528e-05
4.18669e-07
2.09611e-08
2.80449e-06
3.73509e-05
0.000493341
0.0848194
0.0932956
0.0906364
0.0891456
0.0899683
0.0915811
0.0898908
0.0821557
0.0724347
0.0580324
0.0467011
0.0367237
0.0192225
0.00684432
0.015823
0.0110947
0.0142424
6.25038e-08
3.56781e-10
3.634e-05
7.1742e-06
2.7013e-07
9.22173e-13
1.13309e-09
7.2404e-09
1.2397e-07
3.40016e-09
1.96122e-08
6.13396e-05
0.000106375
2.35521e-07
2.19414e-09
1.06972e-13
1.07758e-07
1.04206e-05
5.86929e-07
1.25275e-08
5.37447e-07
0.000142563
0.000117606
0.000264583
0.0846164
0.0926013
0.0886481
0.0883458
0.0902151
0.0917667
0.0898958
0.0824413
0.072659
0.0580285
0.0477958
0.0361302
0.0184757
0.00758543
0.00185416
0.0240671
0.00412444
0.00042454
0.000241183
5.8073e-05
1.73839e-05
7.96594e-07
2.17116e-12
2.31129e-11
5.21193e-09
2.72556e-11
2.16678e-06
8.66272e-05
0.000400325
5.76211e-05
1.71538e-06
8.85884e-08
5.48148e-12
1.29678e-09
1.00869e-05
1.08554e-06
1.29412e-08
2.60391e-07
9.55363e-05
0.000356469
5.06887e-05
0.000120426
0.0832568
0.0917998
0.0873855
0.0885954
0.0909963
0.0922074
0.0896576
0.0828628
0.0726568
0.0579187
0.0486617
0.0355424
0.0174695
0.00682688
0.00109228
0.0012211
0.0232291
0.0122619
4.13622e-07
5.48337e-05
4.42741e-05
2.64676e-06
1.58411e-10
1.39594e-11
1.4614e-11
3.3431e-08
1.03211e-06
9.46621e-05
0.000236696
1.54067e-06
5.87286e-06
6.60204e-07
7.08948e-10
2.19637e-09
1.04083e-05
1.8001e-06
1.06733e-08
6.54835e-08
8.47765e-05
0.00031218
0.000215006
1.04235e-05
0.00053659
0.0810514
0.089901
0.0870584
0.0893419
0.0916841
0.0922446
0.0898216
0.0842525
0.0723299
0.0576963
0.0494758
0.0348502
0.0167331
0.00729405
0.00058077
4.51914e-06
0.00956697
0.00159809
0.00222921
1.7038e-05
4.18227e-05
9.91269e-06
1.1206e-08
1.29365e-09
7.70014e-09
1.10635e-07
7.90309e-09
3.21991e-06
7.42005e-07
9.0356e-06
1.01878e-05
2.36664e-06
3.07251e-08
1.17668e-07
1.13068e-05
3.18026e-06
8.89755e-09
1.12602e-08
6.8086e-05
0.00033123
0.000206514
6.55128e-05
9.47535e-05
0.00714952
0.0813583
0.0894248
0.0877015
0.0901676
0.0919941
0.0917502
0.0897299
0.0849784
0.0711165
0.057473
0.0502948
0.0341521
0.0161252
0.00753992
0.000490151
1.13115e-06
8.55757e-05
0.0246636
0.00353944
0.000422951
0.00010131
3.25759e-05
2.51477e-07
6.16992e-09
1.70718e-07
5.4152e-08
1.41252e-07
2.63165e-06
5.71509e-05
0.000235179
5.78122e-06
5.37405e-06
3.31289e-07
4.67678e-07
8.81297e-06
5.8489e-06
7.99414e-09
4.18952e-10
5.49959e-05
0.000328342
0.000248812
5.55884e-05
0.000172168
0.00442737
0.0248505
0.0834744
0.0905901
0.090259
0.091793
0.0920461
0.0910741
0.089675
0.0848396
0.0693074
0.057106
0.0509913
0.0334814
0.0157113
0.00757916
0.000410003
1.02704e-06
6.20173e-08
0.00542535
0.00918432
0.00815488
0.00141703
6.88558e-05
1.13918e-06
2.96851e-09
7.96185e-07
9.21827e-10
1.37753e-06
3.83298e-07
0.000266726
0.000397
4.71665e-08
8.11761e-06
1.60622e-06
7.65264e-07
6.36181e-06
1.06545e-05
9.78202e-09
3.69383e-12
4.35147e-05
0.000325551
0.0002794
6.69816e-05
0.00011024
0.00429743
0.0214422
0.0416163
0.0861063
0.0921894
0.0920444
0.0923527
0.0914061
0.0904394
0.089704
0.0845127
0.067529
0.0574627
0.0527615
0.0329474
0.0154888
0.00755218
0.00033703
4.02832e-06
3.33868e-09
0.000266338
0.0166775
1.72542e-05
0.00270482
0.000430036
1.44142e-06
1.17372e-10
1.72826e-06
1.69746e-09
2.51439e-06
6.38339e-08
9.85917e-05
7.10756e-05
7.09574e-06
7.36374e-06
4.64161e-06
4.12549e-07
3.10374e-06
1.61651e-05
1.98756e-09
2.82622e-09
3.38858e-05
0.00031997
0.000312904
7.64122e-05
8.74766e-05
0.00340709
0.0208987
0.0393589
0.0518065
0.0901164
0.0945886
0.0926091
0.0919559
0.0903603
0.0898846
0.0897793
0.0841351
0.0666743
0.0583139
0.0530565
0.0312053
0.0155901
0.00737659
0.000274231
9.05656e-06
6.61473e-10
3.04307e-05
0.00143504
0.0157978
0.00478205
0.000496614
1.34389e-06
2.07218e-07
1.80022e-06
1.48923e-07
2.35041e-06
9.29653e-07
1.50943e-07
7.04702e-07
0.000201817
2.04392e-06
9.85489e-06
1.97375e-08
1.02341e-06
2.29118e-05
3.47477e-10
2.98803e-08
2.58233e-05
0.00031251
0.00034475
9.07169e-05
6.56688e-05
0.00276327
0.0193815
0.0390432
0.0512222
0.0541193
0.0920711
0.0964126
0.0926295
0.0915367
0.0895499
0.0894558
0.090549
0.0837778
0.066307
0.0597623
0.0535119
0.0300729
0.0153179
0.00714264
0.000227586
1.41839e-05
1.3788e-09
1.06618e-05
7.5515e-06
0.0143125
3.41435e-06
0.00475181
0.00010677
9.71466e-07
5.12527e-07
8.42462e-07
4.58619e-07
1.44527e-05
5.27059e-09
0.000252192
0.000686355
1.91138e-13
2.16915e-05
5.38068e-08
1.65171e-07
2.68965e-05
1.41986e-12
1.1931e-07
1.88768e-05
0.000304345
0.000375479
0.000107696
5.12476e-05
0.00218193
0.0180471
0.0379751
0.0516007
0.0548537
0.0515843
0.0921997
0.0962521
0.0908419
0.089892
0.0894133
0.0896215
0.0909323
0.0828076
0.0664111
0.0611481
0.0533035
0.0288461
0.0152217
0.00675373
0.000185387
2.5707e-05
1.14936e-11
1.00124e-05
1.37349e-06
0.000352022
0.0206836
0.0111005
0.000802607
2.80806e-07
2.85535e-11
2.0234e-06
8.74416e-09
1.90967e-05
7.18941e-08
0.000504305
0.000780412
3.67968e-06
5.75805e-05
4.23859e-06
3.18842e-09
2.69069e-05
4.15636e-09
2.96104e-07
1.27551e-05
0.000295706
0.000404164
0.000128568
4.15874e-05
0.0016946
0.016685
0.0370128
0.05132
0.05629
0.0525305
0.0480768
0.0921268
0.0955039
0.0891628
0.0891104
0.0891029
0.0899419
0.0914876
0.0832462
0.0663079
0.062043
0.0524753
0.027774
0.0150577
0.00644255
0.000140577
4.10609e-05
3.79407e-12
4.68872e-06
5.06028e-06
3.30645e-08
0.0176195
4.83835e-05
0.00351304
8.70043e-07
2.39867e-07
2.06906e-06
6.25108e-09
1.71468e-05
6.27362e-06
0.000126773
0.000235116
5.72219e-05
5.4384e-05
2.53539e-05
2.02438e-09
2.00422e-05
8.09755e-08
5.18128e-07
7.79353e-06
0.000284605
0.000431882
0.000152496
3.52229e-05
0.00128803
0.0153554
0.0359921
0.0510273
0.0571314
0.0543887
0.0488221
0.0446589
0.0912084
0.0951999
0.0887356
0.0891303
0.0898393
0.0902121
0.0919392
0.083101
0.0675584
0.0639901
0.0510942
0.0265693
0.015449
0.0062419
0.000106975
6.15075e-05
1.08205e-09
2.47596e-06
5.03439e-06
2.4055e-08
0.000587583
0.0200742
0.00930208
0.000573345
7.29067e-08
3.83802e-07
2.90383e-07
4.98575e-06
6.23718e-05
5.06877e-07
3.15213e-07
0.0002619
1.16112e-05
4.53606e-05
1.85186e-07
1.40589e-05
4.92335e-07
7.09523e-07
4.14607e-06
0.000270862
0.000460546
0.000180234
3.14783e-05
0.000956682
0.0140468
0.0349569
0.0506333
0.0579432
0.055706
0.0505297
0.0453705
0.0412184
0.0925911
0.0947924
0.0889201
0.0892957
0.0900353
0.0904202
0.0922068
0.0828636
0.0678106
0.065344
0.0497085
0.025414
0.0157869
0.00631509
8.29199e-05
7.88223e-05
1.93956e-08
2.63648e-06
1.59814e-06
1.21993e-09
1.38456e-07
0.0250238
0.00284592
0.00319466
3.38754e-09
1.17995e-10
1.21631e-06
6.22078e-07
0.000121075
9.63074e-14
5.99716e-05
0.000575164
2.57602e-08
4.96144e-05
8.82776e-08
9.25842e-06
1.61408e-06
7.83368e-07
1.85738e-06
0.000251945
0.000489882
0.00021185
2.94603e-05
0.000694772
0.0127703
0.0339018
0.0501644
0.05862
0.0571361
0.0516803
0.0469143
0.0419852
0.0378209
0.0950045
0.0964286
0.0900885
0.0893762
0.0898568
0.0904248
0.0921134
0.0827429
0.0678453
0.0658638
0.048008
0.0255308
0.0153955
0.00620867
8.85189e-05
8.96468e-05
1.24787e-07
2.1588e-06
3.97811e-06
3.03107e-08
2.17088e-06
0.000959903
0.011316
0.00979054
1.98633e-05
2.3636e-07
1.25919e-06
1.2652e-08
6.65807e-05
1.36721e-05
0.000404006
0.000719064
4.36164e-06
3.44647e-05
3.10858e-10
7.18506e-06
3.40513e-06
7.44448e-07
6.86142e-07
0.000228209
0.000518613
0.000248054
2.88048e-05
0.000492456
0.0115277
0.0328321
0.0496289
0.0591546
0.0585517
0.0530193
0.0478926
0.0434088
0.0386986
0.0345628
0.0969581
0.0979579
0.0912005
0.08919
0.0897137
0.0905712
0.0917966
0.0819186
0.069376
0.0664016
0.0457662
0.0253472
0.0158024
0.00573108
9.97042e-05
9.48047e-05
5.65551e-07
2.24301e-06
6.85647e-06
3.70889e-08
3.88691e-06
6.03497e-05
0.0348072
0.00864935
0.00114435
2.18308e-17
4.68049e-08
1.4695e-09
4.37825e-05
0.000116738
0.000267743
0.00057316
0.000100883
1.68912e-05
2.45084e-06
6.85899e-06
4.97251e-06
6.52095e-07
2.07996e-07
0.000201421
0.000543088
0.000290593
2.91091e-05
0.000340947
0.0103374
0.0317528
0.0490505
0.0595229
0.0599536
0.0544345
0.0490189
0.0443474
0.0399606
0.0355735
0.0315477
0.0996314
0.0988277
0.0911904
0.0886373
0.0889788
0.0907628
0.0915256
0.0820847
0.0695509
0.0671089
0.044519
0.0248618
0.0160555
0.00603383
0.000106739
8.48108e-05
2.69986e-06
1.66477e-06
9.65184e-06
2.60858e-08
5.91039e-08
8.41156e-06
0.0106709
4.88212e-05
0.0053973
2.40167e-07
2.74309e-07
1.32109e-07
2.29761e-05
0.000239263
5.88756e-05
0.000280229
0.000331873
4.73553e-08
4.01547e-05
5.91199e-06
5.51964e-06
5.61795e-07
5.25048e-08
0.000174562
0.000559067
0.000341122
3.04533e-05
0.000230396
0.00920707
0.0306638
0.0484288
0.0597801
0.0613226
0.0559562
0.0501746
0.0453959
0.0408385
0.0366424
0.0326903
0.0288698
0.099311
0.0995138
0.090664
0.0881702
0.0886227
0.0917144
0.091287
0.0820347
0.0707568
0.0674079
0.0415768
0.0246522
0.0152907
0.00622416
0.000146107
7.54115e-05
7.83363e-06
9.03437e-07
7.97965e-06
5.57742e-10
4.61014e-11
5.11783e-12
8.36881e-07
0.0322137
0.0109231
0.00016478
2.5931e-06
1.89363e-07
1.18866e-05
0.000265554
0.000341664
8.33318e-05
0.00034915
1.10958e-08
0.00015346
1.92862e-06
5.15059e-06
4.86653e-07
1.05313e-08
0.000150867
0.000560604
0.000398493
3.30261e-05
0.000152272
0.00814456
0.0295748
0.047777
0.0599337
0.0626117
0.057608
0.0513986
0.0464434
0.0418029
0.037452
0.0335474
0.0301127
0.0265862
0.0993447
0.0987327
0.0892477
0.0879181
0.0885231
0.0923948
0.0910748
0.0821926
0.0715866
0.0661654
0.0401087
0.025097
0.0149125
0.00588409
0.000182857
6.14563e-05
1.31364e-05
3.18053e-07
4.71629e-06
2.64268e-14
8.13201e-10
5.40045e-10
0.000123926
0.0328344
0.00316533
0.00205556
1.78936e-10
7.94902e-10
3.34882e-06
0.000244223
0.000868624
2.45568e-05
0.000179168
2.34585e-06
0.000147155
1.24269e-05
5.08664e-06
4.33243e-07
1.2557e-09
0.000132876
0.000550022
0.000459682
3.75398e-05
9.80721e-05
0.00714757
0.0284905
0.0471007
0.0599981
0.0638098
0.0593001
0.0526888
0.0475001
0.0427747
0.038328
0.0342725
0.030753
0.027883
0.0247413
0.0995739
0.098498
0.0886801
0.0878904
0.0885044
0.0929436
0.0911887
0.0819369
0.0721186
0.0650367
0.0393442
0.0248073
0.015139
0.00562904
0.000252133
4.70248e-05
1.19003e-05
1.2298e-07
3.03268e-06
8.52673e-11
2.41308e-11
2.6783e-08
4.91208e-07
0.00223748
0.00663253
0.00762227
3.9734e-07
1.40075e-05
1.73176e-07
0.000211525
0.000193037
1.80018e-06
0.000114289
8.71512e-05
4.38637e-05
8.0307e-06
4.92336e-06
4.02832e-07
1.28236e-11
0.000120167
0.000529234
0.000518202
4.47383e-05
6.16441e-05
0.00622069
0.0274183
0.0464153
0.059992
0.0648786
0.0610215
0.0540984
0.04855
0.0437664
0.0392219
0.0350576
0.0313853
0.0283109
0.0260259
0.0233577
0.101136
0.0982723
0.0883478
0.0882336
0.0886225
0.0932679
0.0912146
0.082005
0.0738832
0.0633102
0.0389927
0.0254185
0.0135566
0.00586844
0.00026974
2.96911e-05
2.11689e-05
7.81321e-12
3.29973e-06
3.32491e-09
3.70115e-11
2.92581e-08
1.49095e-07
0.000346693
0.0421984
0.0111569
0.000176316
0.000109481
2.09038e-11
0.000160642
9.43698e-05
3.72121e-06
0.000118424
0.00034209
3.01027e-06
4.1494e-05
8.91609e-06
4.11741e-07
5.69668e-11
0.000111672
0.000508747
0.000566652
5.52419e-05
3.7832e-05
0.00536294
0.0263631
0.0457295
0.0599417
0.0658101
0.0627473
0.0556354
0.0496682
0.0447755
0.0401381
0.0358583
0.0320741
0.0288496
0.026263
0.0245514
0.0224188
0.103221
0.0990245
0.0872619
0.0884581
0.0889624
0.0935358
0.0912443
0.0820852
0.0741359
0.061884
0.0391893
0.0259967
0.0131421
0.00564358
0.00036582
1.1368e-05
3.5062e-05
6.35309e-08
4.3871e-07
1.33405e-08
1.08647e-09
1.89244e-09
6.40426e-11
0.000216689
0.0302602
0.000916406
0.00380089
7.26166e-05
2.28248e-10
9.88171e-05
3.78682e-05
9.24174e-05
9.93247e-05
0.000529348
9.97655e-08
0.000157533
1.76928e-05
4.82382e-07
5.34688e-09
0.000105255
0.000494922
0.000602206
6.89772e-05
2.30424e-05
0.00457766
0.0253314
0.0450527
0.0598566
0.0666723
0.0644708
0.057326
0.0508496
0.0458099
0.0410662
0.0366833
0.0327743
0.0294267
0.026705
0.0246261
0.0234676
0.021904
0.10494
0.0995033
0.0862968
0.088601
0.0893102
0.0935839
0.0913756
0.082299
0.0743528
0.0601333
0.0400444
0.026145
0.0127394
0.00571387
0.00048048
1.00494e-05
4.36729e-05
2.31717e-07
8.67597e-07
2.25721e-08
2.54296e-09
7.59984e-09
6.89472e-08
4.95097e-07
0.000744118
0.0119164
0.00906759
3.92471e-06
1.40408e-06
4.2173e-05
4.29898e-05
4.49087e-05
5.14953e-05
0.000471737
4.41305e-06
0.000304022
2.65398e-05
6.35307e-07
5.31454e-08
9.92558e-05
0.000491543
0.0006272
8.3157e-05
1.41388e-05
0.00386843
0.0243275
0.0443996
0.0597461
0.0674574
0.066132
0.0592041
0.0520969
0.0468575
0.042014
0.0375247
0.0334978
0.0300206
0.0271653
0.0249583
0.0234026
0.0227721
0.0218251
0.105967
0.0994037
0.0847282
0.0886086
0.0903091
0.0934611
0.0916985
0.0822864
0.0741383
0.0588231
0.0409568
0.0271014
0.0117681
0.0058228
0.000605081
6.36937e-06
5.16813e-05
4.85115e-08
1.19321e-06
4.91948e-08
1.8964e-13
2.36295e-07
2.29114e-07
1.06235e-07
0.000701491
0.0448975
0.00986936
0.000285157
0.000106582
9.12643e-06
2.78102e-05
8.52377e-05
5.27146e-08
0.000315711
3.17798e-05
0.000297197
7.69924e-05
7.39279e-07
2.43626e-07
9.23361e-05
0.000498339
0.000649886
9.62032e-05
9.08308e-06
0.00324298
0.0233547
0.0437758
0.0596242
0.0681743
0.0677113
0.0611161
0.0534221
0.0478894
0.0429746
0.0383839
0.034239
0.0306392
0.0276426
0.0253021
0.0236206
0.0225821
0.0224675
0.0221533
0.107273
0.099723
0.0831249
0.0886733
0.091
0.093311
0.0919852
0.0826242
0.0734471
0.0572715
0.0420957
0.0276279
0.0113583
0.00581756
0.000757327
2.49264e-06
8.21171e-05
9.21219e-08
2.09611e-06
2.15401e-08
9.35584e-09
5.70581e-07
6.68004e-08
2.11787e-08
0.000380546
0.0325456
0.000807483
0.00425309
0.00039305
2.91823e-07
1.33054e-05
6.28216e-05
5.11686e-07
0.000149706
0.000146032
9.84066e-05
0.000103897
5.67313e-07
6.80791e-07
8.42849e-05
0.000508629
0.000679406
0.000105385
5.99499e-06
0.0027065
0.0224172
0.0431843
0.0595
0.0688365
0.0691697
0.063074
0.054863
0.0488932
0.0439433
0.0392581
0.0349995
0.0312784
0.0281525
0.0256749
0.0238427
0.0226936
0.0221664
0.0225351
0.0228567
0.110034
0.100371
0.082757
0.0888274
0.091531
0.0931761
0.0922457
0.0830585
0.0717449
0.0562816
0.04349
0.0277064
0.0113892
0.00562151
0.00079287
1.13857e-06
5.52688e-05
8.94195e-07
1.79346e-06
2.90945e-10
2.04877e-09
3.69382e-07
2.59021e-08
1.85413e-06
3.77039e-07
0.00134963
0.0102818
0.0104096
0.000357839
1.59013e-09
7.0794e-06
5.86364e-05
1.01957e-06
0.000131571
0.000418233
8.20716e-06
0.000224288
1.97257e-07
1.3662e-06
7.54743e-05
0.000516938
0.000720539
0.000112072
3.79377e-06
0.00225594
0.0215051
0.0426261
0.0593837
0.0694721
0.0705182
0.0650575
0.0564434
0.0499831
0.0449256
0.0401637
0.0357942
0.0319376
0.0286769
0.026064
0.0241014
0.022803
0.0221632
0.0221403
0.0229786
0.0239527
0.112796
0.102445
0.0829631
0.0886324
0.0920615
0.0930657
0.0927111
0.0836907
0.0699782
0.0561177
0.044588
0.0283033
0.010845
0.00523561
0.00105137
1.42691e-06
5.24419e-05
2.61859e-07
1.5336e-06
1.75422e-08
5.88304e-09
7.712e-08
3.41445e-09
4.42438e-07
6.13567e-08
0.00099922
0.0404981
0.0118029
0.00112263
7.74408e-07
5.95181e-06
4.79912e-05
3.51657e-06
1.66358e-05
0.000502917
6.54889e-07
0.000450556
9.48816e-09
2.28306e-06
6.63865e-05
0.000517457
0.000770025
0.000118931
2.12791e-06
0.00188533
0.0206405
0.0421125
0.0592817
0.0700817
0.0718237
0.067057
0.0582285
0.0511486
0.0459631
0.0410994
0.0366222
0.0326335
0.0292279
0.026467
0.0243743
0.0229297
0.0221501
0.0220141
0.0224819
0.0237918
0.0254109
0.115101
0.104363
0.0839695
0.0883093
0.0922236
0.093187
0.0931221
0.0836946
0.0682433
0.0558974
0.045815
0.0280004
0.0105149
0.0047759
0.00122942
8.37531e-07
4.68778e-05
1.46877e-07
3.36028e-07
6.12794e-07
2.4204e-09
6.42271e-09
1.87047e-10
1.98075e-10
1.0183e-07
0.00106258
0.0396793
0.00333339
0.00923033
2.63357e-05
3.18931e-06
2.70339e-05
1.08662e-06
2.83432e-07
0.000299126
2.68642e-07
0.000643863
8.41685e-12
3.32541e-06
5.83323e-05
0.000508431
0.000819863
0.000128125
9.81393e-07
0.00157102
0.0198473
0.0416433
0.0592067
0.0706668
0.0730972
0.0689985
0.0601989
0.0523521
0.0469287
0.0419591
0.0374027
0.0333313
0.0298104
0.0269076
0.0246744
0.0230905
0.0221712
0.0218812
0.0222393
0.0232116
0.0249581
0.0271927
0.117231
0.105996
0.0846214
0.0880307
0.0921321
0.0938611
0.0929208
0.0834721
0.06623
0.0568675
0.0468335
0.0278909
0.0102048
0.00446588
0.00141845
2.49562e-06
1.75354e-05
2.90139e-08
1.23675e-07
1.0636e-06
8.59604e-09
1.09636e-08
6.5212e-09
1.11344e-07
3.84714e-06
1.43593e-05
0.00876518
0.00158737
0.00580701
0.000223921
1.21024e-06
1.37539e-05
7.17909e-07
6.10535e-11
0.00023291
1.67468e-05
0.000476073
2.58746e-12
4.04101e-06
5.15409e-05
0.000491368
0.000864141
0.000139916
3.78397e-07
0.00129571
0.0191389
0.0412191
0.0591584
0.0712465
0.0743423
0.070864
0.062165
0.0535444
0.047828
0.0428286
0.0381709
0.0339869
0.030375
0.0273725
0.0250032
0.0232814
0.0222086
0.0217919
0.0219896
0.0228224
0.0242899
0.0264641
0.0292978
0.119826
0.107353
0.0853288
0.0876405
0.0920806
0.0947099
0.0928507
0.0829852
0.064488
0.0578326
0.0484666
0.027666
0.00995186
0.0036629
0.00141104
8.07659e-06
2.16097e-05
3.61968e-08
3.17438e-07
5.48699e-07
6.27447e-08
3.94476e-08
5.89019e-07
1.31318e-06
2.39557e-06
2.63293e-07
5.78766e-05
0.0207132
0.00459985
0.00160487
1.35476e-06
6.76958e-06
1.19003e-07
3.16817e-07
0.000111201
0.000131821
0.000201294
2.18202e-06
4.02483e-06
4.70779e-05
0.000471007
0.000892844
0.00015189
1.31393e-07
0.00104956
0.0185018
0.0408547
0.0591407
0.0718472
0.0755494
0.0726387
0.0641061
0.0548381
0.0486685
0.0437013
0.039025
0.0347491
0.0309944
0.027847
0.0253349
0.0234914
0.0222718
0.0217047
0.0217687
0.02246
0.0237658
0.0257051
0.0282895
0.031684
0.122578
0.10884
0.0854576
0.0875403
0.0919465
0.0956279
0.0926767
0.0816999
0.0635519
0.059311
0.0491658
0.0271224
0.00985407
0.00333057
0.00148964
1.24501e-05
2.5535e-05
1.48487e-07
5.98848e-08
2.3611e-06
1.06676e-06
1.46129e-08
1.92219e-06
1.65439e-06
1.10143e-06
1.05402e-06
0.00311278
0.0331432
0.00615794
0.0142515
2.28016e-06
2.80688e-06
1.03931e-08
1.1035e-07
5.09677e-05
0.000177013
8.80034e-05
2.33219e-05
3.16586e-06
4.37274e-05
0.000452959
0.000902096
0.000162193
4.63677e-08
0.00083955
0.0178893
0.0405775
0.0591654
0.0724362
0.0767391
0.0743035
0.06602
0.0562144
0.0496196
0.0446607
0.0398979
0.0355184
0.0316458
0.0283678
0.0257189
0.0237193
0.0223673
0.0216554
0.0215797
0.0221065
0.0232731
0.0250636
0.0274441
0.0304033
0.034268
0.125197
0.110319
0.0858696
0.0879503
0.0918529
0.0964512
0.0922466
0.0804515
0.0631527
0.0606042
0.0499779
0.0260857
0.00939417
0.00327945
0.0014685
5.09237e-05
1.22593e-05
4.32014e-08
1.54124e-10
1.38929e-07
4.22258e-07
6.21256e-10
6.63734e-07
1.72402e-07
1.61111e-07
4.94433e-05
0.0019571
0.018578
6.18607e-06
0.0118386
1.8905e-07
5.68862e-07
1.13065e-11
1.76327e-07
2.68649e-06
0.000145303
3.521e-05
9.17844e-05
2.59869e-06
4.04022e-05
0.000442757
0.000888728
0.000168721
1.87849e-08
0.000671883
0.0172529
0.0404225
0.0592322
0.0729998
0.0779097
0.0758389
0.0679126
0.0576608
0.0506945
0.0456556
0.0408132
0.0363358
0.0323433
0.0289243
0.0261347
0.0239885
0.0224911
0.0216305
0.0214085
0.0218034
0.0228028
0.0244344
0.0266732
0.0294754
0.0327747
0.0370016
0.127447
0.112003
0.0858079
0.0892182
0.0921648
0.0966587
0.0916432
0.0792888
0.0633105
0.0616549
0.0503456
0.0248539
0.00893268
0.00321983
0.00134112
8.98191e-05
8.71347e-06
1.66378e-08
7.23564e-09
2.58824e-11
3.64664e-07
1.73602e-06
3.35417e-08
7.99315e-09
1.28795e-08
2.31691e-05
0.000313401
0.00165563
0.00604736
0.00682358
4.32249e-06
6.76513e-07
1.38779e-10
1.01269e-07
8.61891e-09
4.58013e-05
2.06824e-06
8.05791e-05
4.27866e-06
3.81954e-05
0.000445295
0.000852952
0.000172783
9.2649e-09
0.0005448
0.0166135
0.0403489
0.0593348
0.0735029
0.0790272
0.0773192
0.0697633
0.0592553
0.0518294
0.0466725
0.0417715
0.0372025
0.0330844
0.029522
0.0265785
0.0242944
0.022648
0.0216398
0.0212669
0.0215023
0.0223615
0.0238437
0.0259204
0.0285754
0.0317782
0.0353451
0.0398387
0.131596
0.114096
0.0865068
0.0905185
0.0926227
0.0962576
0.0909536
0.078053
0.0635809
0.0624469
0.05082
0.0234568
0.00821121
0.00347456
0.00112724
0.000112094
4.97034e-06
6.55323e-07
9.87319e-08
3.14439e-09
9.00722e-07
5.87004e-07
3.10445e-09
9.13693e-07
5.73363e-13
1.83906e-05
0.000439282
1.47255e-05
0.0216078
0.00373647
0.00181803
5.16726e-06
5.65839e-09
2.89509e-08
1.71272e-07
1.70362e-05
4.65609e-07
2.51764e-05
2.29968e-06
4.10261e-05
0.000464995
0.000808905
0.000174351
5.79969e-09
0.000451453
0.0159939
0.040247
0.0594701
0.0739358
0.0800857
0.0787345
0.0714567
0.0609206
0.0530129
0.0476779
0.0427289
0.0380912
0.033865
0.0301668
0.027076
0.0246263
0.022836
0.0216845
0.0211613
0.0212502
0.0219523
0.0232723
0.025205
0.0276993
0.0307448
0.0342772
0.0380341