/*--------------------------------*- C++ -*----------------------------------*\
| =========                 |                                                 |
| \\      /  F ield         | OpenFOAM: The Open Source CFD Toolbox           |
|  \\    /   O peration     | Version:  v2012                                 |
|   \\  /    A nd           | Website:  www.openfoam.com                      |
|    \\/     M anipulation  |                                                 |
\*---------------------------------------------------------------------------*/
FoamFile
{
    version     2.0;
    format      ascii;
    class       volScalarField;
    location    "12000";
    object      I2_4;
}
// * * * * * * * * * * * * * * * * * * * * * * * * * * * * * * * * * * * * * //

dimensions      [0 0 0 0 0 0 0];


internalField   nonuniform List<scalar> 
27324
(
0.923632
0.983887
1.14811
1.07307
1.21919
1.51079
1.14205
1.27959
1.6086
1.82231
1.21511
1.3798
1.61001
1.94919
1.89826
1.2984
1.48912
1.75245
1.87301
1.9684
1.98837
1.39631
1.61716
1.89118
2.02934
1.90847
1.89473
2.33251
1.51806
1.75606
2.04907
2.16437
2.08235
1.93425
1.93194
2.8272
1.66331
1.90785
2.19807
2.3292
2.23504
2.11941
2.06002
1.96255
3.27717
1.82658
2.08454
2.32108
2.485
2.4077
2.30061
2.25809
2.14437
1.86359
3.85266
2.01008
2.27829
2.47009
2.60138
2.58138
2.50776
2.44721
2.31405
2.11411
1.81273
4.47291
2.21181
2.4849
2.66096
2.75919
2.73891
2.73933
2.62733
2.46569
2.28925
2.20412
1.76671
4.74501
2.41234
2.70244
2.89736
2.9785
2.95568
2.94978
2.79855
2.59471
2.47093
2.4019
2.23111
1.65248
4.95571
2.53773
2.93022
3.17382
3.28192
3.23937
3.15589
2.94524
2.74405
2.63446
2.59621
2.41286
2.21254
1.60208
4.96767
2.53502
3.22487
3.49317
3.65988
3.5726
3.36852
3.096
2.93196
2.84143
2.75872
2.58261
2.39158
2.3697
1.51543
5.07933
2.54492
3.62982
3.98908
4.03341
3.88343
3.59326
3.3016
3.1427
3.09896
2.96273
2.72506
2.57566
2.42892
2.56399
1.42174
5.66549
2.80689
4.13687
4.55537
4.52473
4.10423
3.82582
3.58012
3.40885
3.3452
3.21982
2.93113
2.75056
2.65312
2.45584
2.73243
1.28591
8.42271
3.41561
4.31142
4.81614
4.89381
4.43333
4.05271
3.92105
3.75817
3.63198
3.46602
3.203
2.98372
2.8316
2.66196
2.36841
2.93029
1.08039
13.3629
2.96938
9.50171
4.37751
4.82763
4.64516
4.48671
4.28085
4.16894
3.99949
3.71946
3.4838
3.26368
3.0601
2.82525
2.60298
2.38991
3.09841
0.681201
15.4098
2.18096
3.63193
4.32111
4.22502
4.58371
4.82863
4.89134
4.58164
4.41235
4.0609
3.73123
3.5906
3.31651
3.04223
2.79119
2.58671
2.47167
3.3932
0.442881
13.9716
1.10846
2.46799
5.09281
1.35273
4.10096
4.8375
5.35661
5.3185
4.78472
4.45532
4.05741
3.83779
3.66372
3.27891
2.9974
2.77947
2.67235
2.64128
3.9256
0.461397
12.5854
0.469981
1.1319
3.06359
5.59358
1.11606
4.11971
5.27546
5.8332
5.48799
4.78895
4.42608
4.13681
3.91432
3.5928
3.22835
3.00103
2.84248
2.9379
2.79425
3.59338
0.622893
9.12409
0.236831
0.489601
1.17817
3.63892
5.14042
1.31656
3.87197
5.44835
5.71604
5.40026
4.76226
4.51444
4.11884
3.89321
3.53807
3.24045
3.054
2.96056
2.80727
2.73597
3.51171
0.777183
10.8675
0.172983
0.242897
0.544418
1.22223
4.54099
5.70062
1.52879
2.93804
4.84701
5.38831
5.35957
4.83428
4.46134
4.09425
3.86722
3.5285
3.28158
3.07457
2.61564
3.60027
4.5151
2.69666
1.74967
9.22731
18.5705
0.137472
0.239939
0.606191
1.30646
5.81852
6.5949
1.86841
2.49372
4.72348
5.24362
5.19907
4.75624
4.48675
4.05867
3.85856
3.54863
3.28375
2.95547
3.71672
4.86982
1.9282
3.23375
1.72786
7.99245
0.02507
0.119783
0.0921014
0.2219
0.684427
1.30687
6.75647
7.68971
2.35957
2.50145
4.35158
4.82225
4.89006
4.60334
4.38661
4.17422
3.8416
3.55251
3.39714
4.88348
3.1429
1.67957
1.45879
2.5572
11.5419
6.66142
0.110703
1.01908
0.0417005
0.0648851
0.186328
0.831984
1.22091
6.82417
8.68623
3.51675
2.14724
3.57229
4.25041
4.13158
4.1932
4.32897
4.27668
3.70428
3.64396
4.20074
2.10283
1.2132
0.0633931
2.18709
7.16592
1.92199
3.44786
0.138017
1.18572
1.72367
0.0519812
0.0482775
0.166475
1.07644
1.08007
5.86351
9.33053
5.12076
3.06908
3.99522
3.71689
3.69829
3.70738
4.311
3.8986
3.45759
3.64772
0.256718
749.439
183.304
6.23618
3.18018
1.36321
0.650367
8.08134
0.263332
0.579846
0.419479
0.115284
0.0473333
0.0394789
0.17216
1.42592
0.875187
4.36171
8.59765
7.5072
5.21838
4.14146
5.77566
5.31236
4.04105
11.8363
6.36234
62.664
95.1641
54.3511
6.64059
1.70525
1.07286
0.904737
1.43418
1.58854
2.79284
0.293005
0.34891
0.165544
0.0867344
0.0371146
0.0448888
0.0373186
0.215217
1.83822
0.653991
2.74457
6.32197
8.7719
8.32913
7.88556
7.28908
9.70521
12.5435
15.3816
20.4843
10.2908
4.58454
1.53644
0.547887
0.729169
1.14848
1.45247
1.99146
1.49728
4.59667
0.252605
0.165012
0.0933387
0.0615443
0.0452809
0.0681337
0.0319713
0.042231
0.309739
1.87594
0.452989
1.54738
3.23301
5.91248
7.61608
7.94927
7.80386
7.5982
6.76917
4.72057
2.4551
1.11901
0.60799
0.405029
0.736732
1.03752
2.24058
2.27009
1.81257
0.90374
5.01813
0.208261
0.0878406
0.0464621
0.0499077
0.0543644
0.204569
0.101077
0.0267136
0.054643
0.476094
1.46008
0.344526
0.798566
1.25675
2.17002
2.98089
3.13984
2.91803
2.07567
1.51449
0.977165
0.603282
0.459919
0.45563
0.767001
0.750349
1.61918
1.82552
2.3255
2.72303
1.19006
4.40517
0.141353
0.0473623
0.0266201
0.0458277
0.0820902
0.248667
0.181964
0.146354
0.0260061
0.0826132
0.735072
1.06093
0.280941
0.377827
0.494762
0.715317
0.90423
0.903159
0.810022
0.652138
0.500277
0.395928
0.485094
0.845717
0.56204
0.451314
1.16361
2.42381
2.83098
2.53594
2.43043
1.47501
8.09025
0.0474552
0.0250355
0.0227952
0.0704742
0.174905
0.358408
0.213688
0.153498
0.158727
0.0289699
0.146245
1.01023
0.924675
15.3564
0.0851372
0.19539
0.332786
0.412035
0.426515
0.432133
0.448605
0.551508
0.812398
4.68898
2.74986
0.459655
0.920279
2.32299
3.10569
2.68886
2.06354
2.3257
3.51501
5.00737
0.00628045
0.0154456
0.0345145
0.217972
0.821112
0.419295
0.312522
0.333756
0.294431
0.126566
0.0359803
0.288868
1.15214
0.893194
1.13299
3.22453
0.352527
0.521054
0.460454
0.510717
0.680069
0.801502
1.01776
1.44751
0.282077
0.664126
0.684401
1.98484
3.05794
2.74709
2.17618
1.99165
5.09045
4.68291
2.73066
0.00045355
0.0162642
0.127484
1.63313
4.85546
0.322305
0.377782
0.399951
0.491262
0.101575
0.0656851
0.0556308
0.576233
1.13743
0.519793
0.778444
1.89624
1.68119
1.72987
1.51328
1.3043
1.26842
1.07693
0.988989
0.0624221
1.36367
0.558795
1.46422
2.9331
2.84699
2.25172
2.06051
4.37737
5.49669
2.44169
3.25817
30.1355
0.051241
1.31576
7.40404
4.31622
0.179772
0.535186
0.348516
0.378264
0.195262
0.0412593
0.0377869
0.0995698
1.01439
0.946704
0.482695
1.25816
1.50528
1.68118
1.27715
1.21089
1.0046
0.812813
0.561888
1.204
2.65699
0.556036
1.01678
2.6065
2.95172
2.40182
2.10757
4.13262
4.86114
2.58328
2.51829
3.36048
3.45296
0.0485031
0.00161795
0.598525
0.941904
0.145265
0.587275
0.263809
0.255953
0.191266
0.174284
0.102723
0.0382114
0.202772
1.40761
0.72981
0.460267
1.6823
1.58808
1.25799
1.11209
0.993544
0.819447
0.654586
0.559333
4.7358
0.744262
0.711271
2.12616
3.00684
2.55983
2.22404
3.72067
4.3696
2.52668
3.01556
2.49835
3.86544
0.260535
0.0166178
0.00790318
0.0560569
0.393024
0.179054
0.445225
0.191116
0.225818
0.175793
0.193648
0.287362
0.0838962
0.0603682
0.424923
1.50061
0.628637
0.449495
1.36308
1.32253
1.16073
0.969875
0.835704
0.654311
0.658099
4.65304
1.59193
0.545606
1.58376
2.94123
2.71695
2.34605
3.5991
4.07002
2.52383
2.90658
3.1659
2.83855
4.28698
0.109129
0.0178245
0.0293931
0.192107
0.26454
0.195941
0.264002
0.157997
0.241246
0.184214
0.228513
0.353936
0.0599318
0.046464
0.115882
0.783573
1.26105
0.830591
0.888792
1.40976
1.32803
1.08352
0.930313
0.720031
0.592623
1.40903
5.36742
0.503897
1.10941
2.70312
2.86711
2.4904
3.74458
3.66485
2.5527
2.95035
3.12191
3.59451
3.25939
4.67823
0.0498648
0.0224397
0.154077
2.14671
0.697396
0.26226
0.298243
0.175663
0.272541
0.207461
0.24079
0.337124
0.175743
0.143669
0.0492543
0.247236
1.19656
1.1823
0.362364
1.26268
1.46565
1.1685
1.01162
0.790285
0.613404
0.790505
0.0535393
0.629089
0.769598
2.29778
2.96325
2.70215
3.97143
3.31298
2.59217
2.94553
3.24447
3.55222
4.05272
3.63767
5.05917
0.0118403
0.0395662
0.754076
5.07613
1.22244
0.175868
0.317602
0.270869
0.317675
0.228126
0.267394
0.320635
0.221094
0.332194
0.0600292
0.0909407
0.526725
1.46523
2.09759
0.607237
1.51964
1.24724
1.07461
0.855811
0.658136
0.638897
34.602
1.21739
0.566975
1.79564
2.93793
2.93386
4.02283
2.98426
2.62783
2.97128
3.3243
3.71005
4.02815
4.47211
3.96381
5.50495
1.18159
0.00229282
2.85577
1.47561
0.134692
0.11944
0.578763
0.263979
0.332064
0.258901
0.288008
0.329935
0.207555
0.228298
0.06507
0.0523967
0.177935
0.97715
1.40674
0.155686
1.391
1.32101
1.13525
0.931567
0.721337
0.598337
2.22988
4.05862
0.480806
1.30729
2.7758
3.09934
4.03564
2.73826
2.69046
3.00869
3.40046
3.82389
4.21099
4.4904
4.83771
4.33242
5.58225
0.0528337
0.0134859
0.00429908
0.465425
0.053544
0.0979236
0.511656
0.207585
0.323502
0.297922
0.297335
0.314514
0.238232
0.245892
0.172691
0.0272027
0.0914583
0.368988
1.39959
1.09384
1.08697
1.34441
1.18862
1.01673
0.808003
0.614847
0.909837
2.89619
0.515284
0.917945
2.47581
3.14199
4.12179
2.58159
2.76182
3.06886
3.45919
3.95033
4.35028
4.71682
4.90365
5.22262
4.67204
6.12688
0.0118458
0.0173229
0.0236565
0.402344
0.0425048
0.160178
0.280092
0.0971988
0.363348
0.348704
0.302957
0.32445
0.266127
0.277099
0.238502
0.232567
0.0567324
0.157246
0.784024
1.89041
1.27673
1.17019
1.22683
1.10841
0.902167
0.664158
0.637618
136.722
0.77872
0.65531
2.0605
3.04929
4.15688
2.51894
2.77915
3.16954
3.50386
4.07124
4.5146
4.89143
5.18299
5.30977
5.40054
6.01776
6.79275
0.00288391
0.0606004
0.818787
2.22642
0.0776186
0.204724
0.308494
0.0799087
0.418271
0.385127
0.312191
0.330037
0.294079
0.284949
0.267412
0.194986
116.937
0.109164
0.300933
1.55032
4.15944
0.551158
1.26251
1.19442
1.00154
0.739413
0.576418
4.72038
1.89473
0.509113
1.59943
2.8469
4.04851
2.54131
2.76796
3.27557
3.53889
4.18594
4.68955
5.09003
5.41708
5.59046
5.60902
6.1674
8.97758
7.15222
2.24695
2.86925
10.7802
1516.54
0.937386
0.303447
0.274125
0.196781
0.691037
0.351928
0.288384
0.36851
0.299752
0.300277
0.277013
0.247632
0.238637
0.0760323
0.154504
0.681928
2.36955
0.05854
1.31029
1.25499
1.09393
0.823399
0.590852
0.903429
4.8761
0.465715
1.17628
2.55812
3.78459
2.71496
2.71238
3.35161
3.58753
4.29168
4.87518
5.29519
5.66529
5.84507
5.95312
6.43128
7.79846
12.1578
7.32314
0.578214
0.0018662
0.0386305
3.17214
0.192528
0.0828422
0.450919
0.243447
0.42825
0.332206
0.204273
0.383304
0.319132
0.303357
0.278667
0.259303
0.239212
0.432066
0.128317
0.276659
1.46082
3.46936
1.28408
1.27914
1.16529
0.923177
0.627073
0.691392
0.179313
0.550526
0.848733
2.19185
3.4657
3.05249
2.64733
3.42702
3.63706
4.38711
5.06853
5.51199
5.91206
6.12632
6.27179
6.6854
8.39836
9.22662
13.2671
5.82186
0.0363345
0.00788368
0.00280916
1.18689
0.0711164
0.0700527
0.178291
0.363242
0.319806
0.294043
0.0545559
0.292287
0.272415
0.310143
0.292175
0.247241
0.281916
0.194851
0.141071
0.159871
0.704059
3.0278
9.63014
1.29921
1.20054
1.01938
0.710213
0.548944
15.3164
0.96799
0.631774
1.78255
3.23162
3.60451
2.58855
3.43867
3.71612
4.47987
5.26008
5.74456
6.16456
6.40878
6.59665
6.97398
8.62473
10.4586
9.86018
9.49262
4.11593
0.0336868
0.0154507
0.0772797
0.240568
0.153908
0.0868768
0.058661
0.270211
0.320608
0.280306
0.216005
0.349508
0.178283
0.245081
0.307342
0.257633
0.237111
0.240999
0.367325
0.166103
0.282058
1.94201
17.7056
1.42953
1.18679
1.10608
0.811096
0.561538
1.59311
2.61922
0.510598
1.44852
3.13192
4.23998
2.53164
3.40666
3.81681
4.57734
5.44116
5.99457
6.42372
6.70045
6.93355
7.27645
8.98596
10.8913
11.6192
7.72472
5.355
3.17914
0.0149092
0.109301
0.424293
2.06911
0.207195
0.253874
0.137945
0.152825
0.205118
0.360754
0.267501
0.307753
57.4885
0.157128
0.288849
0.248399
0.247612
0.197974
0.358848
0.334818
0.166295
0.786409
4.4293
0.810398
1.15063
1.16556
0.929724
0.602609
0.782494
2.92564
0.480413
1.16873
2.74154
4.57935
2.47024
3.3256
3.9451
4.68763
5.60569
6.25307
6.69985
6.99933
7.28796
7.60112
9.33253
11.5724
12.2281
9.61901
4.38996
3.51375
2.56595
0.0258404
0.0233069
0.94328
0.26398
0.212201
0.278561
0.200524
0.30796
0.0490867
0.461498
0.322014
0.322216
0.343033
1.17857
0.189331
0.240572
0.242396
0.199545
0.309291
2.52794
0.175019
0.314949
2.48424
1251.99
1.20896
1.17485
1.04201
0.702322
0.528417
85.9734
0.579946
0.937659
2.20415
4.27129
2.42619
3.24054
4.08895
4.81627
5.75347
6.5073
6.99628
7.30427
7.65303
7.94002
9.69051
12.1895
13.1721
10.6709
5.39913
2.8153
2.62127
2.14844
0.00665182
0.0180541
0.432977
0.27198
0.28951
0.123734
0.368148
0.227173
0.235314
0.146101
0.280044
0.3971
0.293655
0.282605
0.191155
0.220535
0.259045
0.23028
0.170492
0.239041
0.260765
0.172918
1.13673
14.7682
1.58807
1.12501
1.14057
0.821457
0.499128
11.3602
1.01341
0.765051
1.76174
3.74516
2.58681
3.18954
4.22878
4.96184
5.89333
6.74959
7.3193
7.62282
8.02544
8.29127
10.0622
12.8482
14.0585
12.0821
6.10496
3.29235
2.12108
2.09427
1.86037
0.0178638
0.110021
0.257275
0.459194
0.710048
0.352843
0.112626
0.549585
0.176157
0.344253
0.00674538
0.238681
0.4233
0.248507
0.332579
0.20835
0.262421
0.280913
0.211488
0.185815
0.0966464
0.174212
0.420571
4.38556
0.0152171
1.074
1.19639
0.94211
0.578497
1.06886
2.88302
0.652185
1.41901
3.16255
2.92969
3.20407
4.33826
5.11804
6.03794
6.97182
7.6649
7.96064
8.4064
8.66622
10.4386
13.5275
15.0321
13.4944
7.14917
3.53813
2.41652
1.70727
1.77366
1.65667
0.133158
86.6521
2.68993
0.634389
0.195434
0.513546
0.282307
0.14198
0.505865
0.214214
0.305467
0.000320756
0.240742
0.430521
0.252793
0.254805
0.252888
0.383063
0.234659
0.203697
1.49509
0.332262
0.199511
1.81549
191.016
1.18455
1.17424
1.06375
0.643346
0.602339
6.27912
0.590609
1.15092
2.63758
3.4265
3.29439
4.39194
5.27329
6.206
7.17227
8.01638
8.33172
8.78355
9.06501
10.8356
14.1761
16.0178
14.8895
8.41414
3.91287
2.5137
1.91469
1.46163
1.56777
1.51252
0.0249589
0.0555084
4.00632
0.203488
0.0152095
0.57548
0.368993
1.68079
0.0668664
0.416662
0.307055
0.348213
0.0280667
0.243839
0.35786
0.405683
0.362321
0.396793
0.288901
0.208952
0.222747
1.02117
0.157517
0.693183
11.7097
1.48917
1.08309
1.17206
0.725473
0.50958
2.6563
0.581952
0.969813
2.25953
4.15047
3.41959
4.39051
5.41686
6.40745
7.36712
8.35439
8.74509
9.15879
9.47984
11.2599
14.7851
16.9941
16.2831
9.85713
4.33444
2.6636
1.97674
1.62031
1.30841
1.43143
1.40889
0.00695107
0.013774
8.78236
0.334383
0.031002
0.0638091
0.56295
0.585353
0.206627
0.0889069
0.416219
0.241576
0.276352
0.155093
0.223851
0.533701
1.02155
0.33457
0.273386
0.253122
0.183201
0.555289
0.24057
0.267841
3.83011
2.70487
1.02688
1.22933
0.810554
0.51243
0.52057
0.630927
0.900164
2.04896
4.5189
3.50464
4.35585
5.54836
6.64211
7.57722
8.66481
9.19792
9.54478
9.911
11.6925
15.3701
17.9726
17.712
11.3687
4.88567
2.80898
2.08187
1.6618
1.43839
1.21043
1.33863
1.33438
0.104284
0.232734
1.31071
0.580054
0.38595
0.0331577
0.206933
0.402347
0.386978
0.268264
0.0806077
0.458622
0.228341
0.476654
0.199283
0.331469
1.8893
0.264713
0.228842
0.281896
0.153385
0.414768
0.655008
0.158286
1.38166
231.799
1.23049
1.16926
0.926083
0.538029
0.273696
0.680693
0.893061
1.7455
4.24836
3.62323
4.33053
5.669
6.90173
7.82009
8.93498
9.6645
9.95939
10.3584
12.1378
15.9351
18.9307
19.2239
13.0606
5.60864
3.00055
2.18412
1.73706
1.47009
1.32206
1.14801
1.27565
1.2802
0.199319
11.2499
0.455749
0.346076
1.18102
0.417417
1.27671
0.0885771
0.523515
0.380553
1.18064
0.0813834
0.529969
0.215537
0.255436
0.261934
0.40159
0.240827
0.202687
0.301855
0.172529
0.194098
1.71927
0.16624
0.500237
13.2759
1.74812
0.996282
1.0797
0.585002
0.586791
0.811712
0.876747
1.43892
3.51299
3.75323
4.36227
5.78039
7.165
8.10783
9.18037
10.1195
10.4287
10.8242
12.5943
16.4981
19.8594
20.8127
14.9163
6.53923
3.23181
2.28371
1.80371
1.5267
1.34766
1.24668
1.10947
1.23376
1.24301
0.145694
4.52136
0.01802
0.116501
0.725372
1.15974
1.13413
0.0260046
0.416947
0.559261
0.476596
1.13626
0.167379
0.356656
0.230487
0.263278
0.335858
0.0253951
0.203406
0.328619
0.195759
0.175928
2.55378
0.342
0.212762
3.78371
0.429836
0.834683
1.23488
0.658163
0.713771
1.44988
0.837303
1.23036
2.94583
4.16304
4.53312
5.88217
7.40709
8.43302
9.4403
10.5282
10.9611
11.3159
13.0368
17.0402
20.7778
22.394
16.8151
7.70405
3.48809
2.37133
1.86584
1.57499
1.39316
1.26879
1.19829
1.08793
1.20799
1.21923
0.00657248
0.0680005
0.115021
0.00554219
19.3703
0.732262
1.64905
0.567135
16.3734
0.176364
0.606305
0.357611
0.378993
0.179712
0.464188
0.768465
0.246831
0.188744
0.0316765
0.342709
0.23522
0.193639
0.290006
1.20669
0.144379
1.23511
3711.44
0.799155
1.2886
0.768643
0.847561
1.86694
0.829695
1.11847
2.54865
4.82145
4.82146
5.96408
7.61114
8.78047
9.74518
10.875
11.5238
11.8317
13.4609
17.5818
21.72
24.009
18.7824
8.97328
3.78665
2.45235
1.92576
1.61989
1.43128
1.30748
1.2177
1.16912
1.0789
1.19547
1.20741
0.0685672
0.000614689
0.0227491
0.016984
2.75398
0.151748
0.533929
1.13198
0.792102
0.0056902
0.267839
0.629913
0.282885
0.131978
0.367472
0.492928
0.259516
0.184866
0.530095
0.353183
0.264738
0.306702
0.166814
4.40901
0.175353
0.4468
20.1248
0.952492
1.16635
0.928369
0.881235
1.45363
0.864423
1.08706
2.3615
5.13675
5.1504
6.02562
7.77613
9.1303
10.1163
11.1874
12.0785
12.4165
13.8928
18.1139
22.6673
25.6155
20.8894
10.3392
4.18699
2.54102
1.99098
1.66353
1.46675
1.33877
1.25252
1.18729
1.15383
1.08068
1.19419
1.2048
1.90479
0.0318507
0.56143
0.00184228
1.84452
2.21391
2.02399
0.283719
0.895663
0.625824
0.456652
0.314066
0.569922
0.25823
0.36807
0.524289
0.278863
0.258119
0.227176
0.485925
0.210148
0.547785
0.149039
1.1194
0.395775
0.198022
4.12673
0.0228549
0.917725
1.1439
0.966188
1.26253
1.17132
1.09943
2.10028
4.9976
5.49151
6.10623
7.92169
9.46568
10.552
11.5079
12.5703
13.0761
14.3596
18.6196
23.607
27.2296
23.1258
11.9394
4.71995
2.67288
2.06214
1.71128
1.50192
1.36907
1.28032
1.21864
1.17145
1.15039
1.09093
1.20311
1.21362
0.000526782
3.7205
0.687264
0.0583444
7.89419
1.92892
0.41397
0.000187578
0.638096
0.594903
0.366974
0.186709
0.513121
0.34478
0.381566
0.444489
0.0220378
0.196527
0.244805
30.4465
0.141461
0.653297
0.17714
0.173998
1.44047
0.13798
1.33975
3.69552e+06
0.728357
1.40215
1.06141
1.19904
1.39358
1.11869
1.89105
4.36746
5.58714
6.26309
8.07609
9.78321
11.0288
11.8979
12.9688
13.7727
14.8976
19.0927
24.5115
28.8444
25.5259
13.6569
5.38634
2.82779
2.12639
1.75909
1.54031
1.40022
1.30703
1.24326
1.20069
1.16645
1.15648
1.10954
1.22288
1.23413
0.00143167
0.00421288
0.814316
2.07993
6.75427
3.13381
0.719127
0.647846
0.608377
0.386567
0.665314
0.163668
0.33653
0.436056
2.464
0.405888
0.208366
0.0427033
0.18538
0.955403
0.144245
0.431043
0.193399
0.0960841
1.04631
0.168652
0.488183
31.4041
0.609587
1.55552
1.15641
1.21073
1.54572
1.15219
1.68855
3.75413
6.25584
6.53553
8.25742
10.0743
11.4999
12.3765
13.3084
14.4299
15.5725
19.5167
25.3717
30.4752
28.1162
15.3916
6.14032
2.97867
2.17794
1.79976
1.57698
1.43072
1.3323
1.2679
1.2238
1.19427
1.17207
1.17045
1.13614
1.25322
1.26503
0.102474
0.0521834
0.031267
1.5395
4.00587
0.608034
0.37217
0.408058
0.763975
0.00459707
0.769589
1.14379
0.101099
0.553807
0.8497
0.626188
0.220026
0.793406
0.185094
0.501318
0.159767
0.269232
0.24473
0.127155
1.08788
0.38059
0.223971
5.37816
0.241336
1.47938
1.26057
1.26791
1.58633
1.32953
1.62322
3.45396
6.78035
6.95129
8.46237
10.344
11.9293
12.928
13.667
14.9691
16.3479
19.9965
26.1749
32.304
30.7957
17.1624
6.92883
3.17329
2.2177
1.8312
1.60047
1.45154
1.35457
1.29153
1.24675
1.2169
1.19834
1.18626
1.19377
1.17091
1.29563
1.31143
0.187365
73.5913
19.6626
0.0553817
0.628266
0.12108
4.80013
0.020062
0.184172
0.238837
113.402
0.851356
0.240744
0.969954
0.595471
0.0199618
0.287633
0.267394
0.524902
0.224239
1.62049
0.19023
0.31557
0.231456
0.187899
1.40235
0.143193
1.77978
121.738
1.34154
1.39821
1.33826
1.56581
1.56993
1.66188
3.19233
7.13035
7.42876
8.6915
10.6036
12.2999
13.5191
14.1066
15.3822
17.1285
20.6641
26.8678
34.3497
33.5312
19.1131
7.8641
3.45623
2.22846
1.80944
1.57565
1.4427
1.36612
1.31192
1.26733
1.23836
1.2191
1.21131
1.20837
1.22547
1.21516
1.35136
1.37251
0.00141198
3.99238
2.71227
0.0485421
0.00844003
0.478863
0.44843
0.0277138
0.383938
0.761621
0.340751
56.7354
1.04747
12.0649
0.596996
0.267227
0.0492395
0.343412
0.832994
0.178926
0.603829
0.1741
0.243069
0.758184
0.111242
3.07242
0.151318
0.670459
10.6939
1.29198
1.56011
1.4255
1.59785
1.82637
1.69351
2.85939
6.59847
7.75241
8.97449
10.8727
12.6164
14.104
14.6319
15.7197
17.767
21.6374
27.7482
36.4955
36.6259
21.434
9.09784
3.76161
2.20286
1.81527
1.60742
1.47481
1.38927
1.32748
1.2858
1.25876
1.23917
1.23056
1.2323
1.23884
1.26616
1.26979
1.42324
1.45193
0.00984103
0.00825671
29.5606
0.01772
32.7424
0.00300999
0.157569
2.10469
1.86347
17.6611
0.00238462
2.61507
4.52039
0.257233
1.01693
0.40512
0.198288
0.282533
0.625348
0.200146
0.191824
0.176293
0.123827
4.91934
0.126566
1.70906
0.277155
0.341867
3.23428
1.63712
1.74339
1.53352
1.64817
2.02671
1.80641
2.56957
5.89658
8.41837
9.34475
11.1736
12.9005
14.6311
15.2093
16.1108
18.1925
22.8223
29.4102
38.4966
40.6451
24.637
10.5975
4.03114
2.19904
1.89617
1.67743
1.52541
1.42193
1.34907
1.30415
1.27455
1.2576
1.24993
1.25147
1.2622
1.27915
1.31864
1.33694
1.51379
1.55506
6.64914
0.0625137
0.0345181
0.0451081
0.176588
0.0915856
0.00252004
2.23559
7.68943
15.9329
0.0190296
0.31547
3.37816
2.66759
0.0166994
0.70561
0.22395
2.98589
0.306503
0.0119181
0.113425
0.173977
0.0846617
2.96879
0.132601
0.142463
0.981503
0.204056
2.34524
14.1113
1.90946
1.66225
1.74775
2.15267
1.97562
2.45793
5.44878
9.66506
9.8191
11.4893
13.178
15.0652
15.8058
16.5961
18.4351
23.9219
32.3254
40.7153
45.5659
29.5315
12.1856
4.22065
2.25005
1.97107
1.70011
1.53072
1.42422
1.35858
1.31962
1.29211
1.27529
1.26831
1.2689
1.27972
1.30039
1.3297
1.38429
1.41846
1.62929
1.68729
12.61
1267.01
0.0635653
1.30666
0.0152337
0.0191083
0.0226823
0.124898
1.0353
0.887474
0.191308
0.0407047
0.889656
1.70741
0.522284
1.14657
0.412845
0.23115
0.252345
0.437474
0.200868
0.506984
0.106515
0.555735
0.175598
0.0632211
5.72465
0.177531
1.08197
15.8774
1.96427
1.80405
1.89123
2.31295
2.31393
2.46969
5.11282
10.6988
10.2525
11.7921
13.4924
15.3696
16.3745
17.1918
18.6429
24.6337
36.7407
45.1543
51.8042
36.9448
13.4552
4.24847
2.34823
1.95973
1.67092
1.52972
1.4346
1.36917
1.32654
1.30248
1.2907
1.28571
1.28611
1.29602
1.31682
1.34961
1.39244
1.46489
1.51858
1.7748
1.85166
2.70118e-05
20.5202
5610.18
18.7073
0.00480785
0.0254795
0.0678779
7.32162
0.375577
9.23473
0.0901761
2.2874
0.224179
0.667484
1.34167
0.122816
1.90235
0.691266
0.730076
0.186129
2.1843
0.143472
0.151288
0.185548
0.290861
0.0646319
21.9865
0.215862
0.554615
4.12842
2.02248
2.0156
2.08645
2.47299
2.69288
2.59849
4.60027
10.4755
10.3471
12.1122
13.8906
15.5447
16.9001
17.829
18.9416
24.8269
41.9121
55.8302
61.4275
47.8059
14.9864
4.36434
2.49673
1.89685
1.62216
1.50615
1.42494
1.37039
1.33198
1.30866
1.29815
1.29622
1.30095
1.31205
1.33233
1.36413
1.40998
1.46946
1.56393
1.64108
1.95638
2.05868
0.00117522
0.000180568
1.35705
0.268652
0.00307606
0.201594
0.875998
5.14531
0.167639
0.653958
0.560964
0.755167
0.292851
0.305469
0.836409
0.539017
0.378998
0.377222
0.163548
0.349959
0.207693
0.162301
0.0627358
0.11486
0.74596
0.0181076
0.677551
0.338446
0.338914
2.483
3.09501
2.33349
2.32797
2.64959
3.13152
2.73274
4.07199
9.59394
10.885
12.5666
14.4054
15.6079
17.3912
18.5465
19.3667
24.6659
45.5009
77.8478
82.7794
64.7952
17.227
4.61713
2.55745
1.82626
1.57348
1.46103
1.39342
1.35692
1.33175
1.31304
1.30272
1.30301
1.3107
1.32494
1.34608
1.37733
1.42171
1.48454
1.56416
1.68729
1.79384
2.1869
2.32363
9.7122
0.0372234
0.0174606
0.0820932
0.00669305
0.458963
0.608727
0.541966
0.95013
0.0840124
0.723661
0.0586651
2.68879
0.0148763
0.596752
2.07572
0.318938
21.0957
0.15515
0.64642
0.113551
0.137329
0.16009
0.0700866
0.414563
1.89103
0.225991
0.535207
0.290899
1.57193
7.71794
2.63294
2.60545
2.85028
3.43679
2.8904
3.83795
8.76807
12.3091
13.2328
15.0189
15.6763
17.7922
19.3842
19.9284
24.6074
43.6983
111.527
144.691
94.3808
20.3618
4.94528
2.46828
1.71072
1.51517
1.40833
1.34678
1.3253
1.31648
1.30949
1.30471
1.30597
1.31565
1.33309
1.35751
1.38864
1.43281
1.4933
1.57551
1.68111
1.83968
1.98246
2.47951
2.6541
0.162678
0.595566
3.286
9.77425e-05
0.0263505
0.177146
0.794399
0.634177
0.196885
0.516826
0.377671
1.00798
0.215679
35.1499
0.251136
1.53056
0.0395393
354.624
56.7429
0.16796
0.131817
0.00169989
0.123421
0.0285878
0.16729
0.294352
0.369895
0.774865
0.329436
1.01439
12.8291
2.81113
2.92704
3.11456
3.62764
3.19807
3.73103
7.88505
14.1871
13.9281
15.6298
15.888
18.0596
20.3486
20.5044
24.9089
36.1516
100.454
326.607
170.47
26.7589
5.3893
2.31501
1.57247
1.41597
1.33289
1.29293
1.28007
1.2832
1.29266
1.29987
1.30591
1.31705
1.3358
1.36292
1.39811
1.44193
1.50174
1.58146
1.68705
1.82364
2.02868
2.21613
2.85133
3.07786
0.163726
2.36385
0.00771297
3.73138
0.00216739
0.173964
1.43791
0.21785
1.79262
0.25022
7.06422
0.448948
0.727649
0.629812
0.00197918
0.465469
0.473098
1.7027
0.112351
0.105506
0.317911
0.122879
0.150683
0.114185
0.123699
0.365592
0.845201
1.24
0.405056
0.618424
6.09983
2.90684
3.35086
3.45897
3.87016
3.78399
3.73761
7.00393
14.8688
13.951
16.1987
16.2487
18.0591
21.2216
21.2011
25.3033
30.04
41.7012
341.503
602.218
49.908
5.88876
2.05786
1.39371
1.27065
1.22364
1.21706
1.22415
1.23726
1.2594
1.2815
1.3
1.31629
1.33617
1.36372
1.40135
1.44762
1.50702
1.58523
1.68729
1.82555
2.00255
2.26698
2.50972
3.32856
3.61303
0.361433
0.951693
1.24029
0.000514048
5.17021
0.0686867
0.275031
0.114985
0.494112
1.86892
0.86498
0.0622279
0.402704
0.197258
1.11331
0.282467
0.882531
0.0941927
7.30723
0.426911
96.5397
0.0654013
0.715241
0.22423
0.180918
0.682068
0.962036
1.66545
0.437601
0.46076
3.1967
4.00877
3.90038
3.8731
4.19906
4.44629
3.87508
6.27947
14.7474
14.2301
16.4341
16.2997
17.4447
21.0593
20.5413
21.042
12.2237
4.33321
19.1333
967.518
191.593
6.6916
1.65938
1.16082
1.09431
1.08071
1.10767
1.14451
1.17949
1.21236
1.24793
1.28089
1.30794
1.33284
1.36208
1.39976
1.44935
1.51014
1.58605
1.68652
1.81953
1.99545
2.22485
2.56584
2.87817
3.94121
4.28753
0.00162203
2.27573
0.434452
1.54896
0.0243574
1.21231
0.074635
0.255796
75.4122
0.42408
5.09074
0.937524
0.120621
0.867248
0.202401
0.0206177
0.258808
0.0746768
2.35562
0.0929977
38.6448
0.0783612
0.000484482
0.181182
0.775104
0.951651
0.534608
0.851139
0.454652
0.453603
2.17587
8.15415
4.5201
4.3572
4.59098
5.19456
3.96074
5.73379
14.5141
15.328
16.5565
16.8494
16.5876
20.7928
21.8789
18.0489
4.78041
0.437456
0.176783
29.8503
5236.05
9.1255
1.11387
0.810873
0.876481
0.916175
0.967992
1.03626
1.0988
1.15062
1.19926
1.24529
1.28678
1.32231
1.35607
1.39564
1.44472
1.50713
1.58555
1.68358
1.8108
1.97961
2.20545
2.50312
2.94385
3.34219
4.72455
5.1438
1.11002
0.0624036
0.173169
0.444217
2.01557
0.00209348
1.7053
0.145653
0.265523
8.13674
0.492981
0.431396
0.546305
0.461405
2.0436
0.47455
0.129382
0.553881
0.198733
0.0165254
0.76342
0.0228668
0.0113767
0.65835
0.928295
0.983793
0.410085
0.541268
0.519921
0.510486
1.61682
13.9287
5.1589
4.9259
5.0336
5.8381
3.99648
5.25255
14.2155
16.3187
17.4376
17.432
16.2594
20.9467
20.0854
12.4979
2.21447
0.243039
0.0482685
0.00944296
28773.8
14.6725
0.835316
0.411779
0.565318
0.722419
0.814996
0.902286
0.993573
1.07425
1.13967
1.19652
1.25072
1.29957
1.34315
1.38701
1.43677
1.50003
1.57814
1.67624
1.7995
1.96254
2.17876
2.46884
2.85092
3.41934
3.92554
5.73835
6.22649
2.19396
9.80354
0.0515344
0.105046
0.132922
1.70124
0.0555223
0.315179
0.253085
0.177877
19.1135
0.687387
0.165288
0.0319973
0.459296
0.0615908
1055.41
0.170923
0.00762672
1.50105
0.0488247
0.062411
0.135914
1.69653
0.495159
0.71788
0.333747
0.456037
0.72364
0.601382
1.23881
10.8359
5.80864
5.62353
5.52012
6.24909
3.89718
4.82176
13.2292
16.5354
17.8053
21.9003
20.0026
20.1023
19.7218
7.57655
1.26426
0.207226
0.0763982
0.0133342
0.695718
42.7049
0.430342
0.245544
0.24669
0.448625
0.635882
0.755897
0.864124
0.969352
1.06432
1.13819
1.20059
1.26131
1.31861
1.37085
1.42503
1.48769
1.56629
1.66349
1.78598
1.94388
2.15204
2.42769
2.79908
3.29335
4.02672
4.66049
7.03982
7.58819
0.000329123
1.90026
1.13779
0.114616
0.0285899
0.0349194
0.518051
0.180913
0.00490567
0.174906
0.213013
4.90628
4.9398
0.577554
0.0662457
0.786153
0.401891
0.0944824
1.95839
0.169206
0.0096697
0.880926
0.602847
3.42946
0.386385
0.493533
0.316454
0.432735
0.778881
0.720988
1.02418
6.30465
7.58545
6.44766
6.00429
6.25468
3.74883
4.51571
12.0018
17.1568
18.3182
25.1228
21.0993
21.8898
19.5769
8.4889
1.47257
0.190154
0.103791
0.0492432
0.209035
49.0886
1.1332
0.0868829
0.130564
0.188731
0.388504
0.584538
0.721113
0.844327
0.957722
1.05901
1.14135
1.21065
1.27899
1.3439
1.40599
1.47139
1.54908
1.64629
1.76646
1.92036
2.12045
2.38466
2.7386
3.21703
3.85264
4.80008
5.57783
8.72322
9.28595
0.825265
0.000254411
1.71289
3.00512
0.225159
0.0308237
0.0655366
0.074429
0.755961
0.276009
0.0664997
0.465092
0.108035
0.00685268
1.05108
0.256699
0.0433733
1.10774
0.195775
0.0831096
54844.7
0.921572
0.16593
1.71136
0.323309
0.398111
0.331463
0.444237
0.768351
0.834843
0.967424
4.42428
14.2807
7.43569
6.54774
6.2105
3.63983
4.25342
10.9414
17.7889
16.6973
23.4879
22.7332
19.468
18.0147
9.65145
2.04241
0.202429
0.0947051
0.0710179
0.195902
4.01011
0.600025
0.18922
0.0398273
0.0997591
0.165393
0.360978
0.559754
0.706789
0.834286
0.953389
1.05777
1.15028
1.22533
1.30112
1.3752
1.44859
1.52827
1.62413
1.74336
1.89541
2.08572
2.33802
2.67432
3.12787
3.74394
4.56324
5.78103
6.72698
10.8886
11.405
56.4231
6781.75
0.00287804
1.12233
3.95842
0.480752
0.0543981
0.0626551
0.026718
1.47922
0.165397
0.0133327
0.611714
0.90409
0.420786
0.284684
0.706809
0.153142
0.0598278
1.5215
0.503288
0.154859
0.23932
0.763265
0.298213
0.370653
0.369603
0.490387
0.767482
1.07709
1.05655
3.35699
34.2832
8.60492
7.2794
6.39085
3.56451
4.24523
9.6971
19.4633
18.0859
22.7172
22.0037
18.7939
16.5561
10.9078
3.32376
0.246395
0.0801734
0.049498
0.150235
1.89856
35.6882
0.0896965
0.0761959
0.0316591
0.0902118
0.159026
0.351301
0.550533
0.699922
0.834268
0.956778
1.06687
1.16039
1.24428
1.32854
1.41362
1.50078
1.59669
1.71281
1.86084
2.04947
2.28886
2.6098
3.04118
3.62178