/*--------------------------------*- C++ -*----------------------------------*\
| =========                 |                                                 |
| \\      /  F ield         | OpenFOAM: The Open Source CFD Toolbox           |
|  \\    /   O peration     | Version:  v2012                                 |
|   \\  /    A nd           | Website:  www.openfoam.com                      |
|    \\/     M anipulation  |                                                 |
\*---------------------------------------------------------------------------*/
FoamFile
{
    version     2.0;
    format      ascii;
    class       volScalarField;
    location    "12000";
    object      k;
}
// * * * * * * * * * * * * * * * * * * * * * * * * * * * * * * * * * * * * * //

dimensions      [0 2 -2 0 0 0 0];


internalField   nonuniform List<scalar> 
27324
(
1.83935
1.75767
6.56047
1.67936
6.49922
7.11625
1.59767
6.43691
6.86916
4.18708
1.51464
6.34999
6.61609
3.92018
1.5731
1.42981
6.23406
6.33632
3.64779
1.44495
0.464155
1.34443
6.0796
6.03336
3.36903
1.3081
0.423618
0.126153
1.26038
5.88576
5.70537
3.09426
1.17211
0.376855
0.114882
0.0342547
1.17974
5.65944
5.35827
2.82742
1.0442
0.330694
0.101073
0.0311844
0.00989331
1.10286
5.41208
5.00021
2.57314
0.927573
0.28823
0.0874852
0.0273151
0.00906447
0.0032792
1.02909
5.14397
4.63795
2.33138
0.823566
0.250875
0.0751798
0.0235337
0.00800543
0.00305053
0.00132461
0.95783
4.84851
4.27138
2.09656
0.729388
0.218879
0.0646173
0.0201649
0.00697415
0.00275582
0.00125611
0.000642191
0.888721
4.51937
3.89725
1.8658
0.63879
0.19077
0.0558209
0.0173327
0.00606573
0.00246681
0.00116741
0.000618453
0.000351827
0.821338
4.15291
3.51253
1.63917
0.550179
0.163901
0.0482813
0.0150258
0.00531018
0.00221225
0.0010783
0.000587541
0.000341811
0.000205123
0.754125
3.74535
3.114
1.41803
0.465105
0.137875
0.0411747
0.0130864
0.00470025
0.00199959
0.000998601
0.000555149
0.000328753
0.000200002
0.000123034
0.686056
3.28276
2.69819
1.20317
0.38579
0.113585
0.034404
0.0112797
0.00419098
0.00182678
0.00093047
0.000525199
0.000314462
0.000193413
0.000120103
7.49931e-05
0.616756
2.76721
2.26654
0.996012
0.313438
0.0919674
0.028245
0.00957413
0.00371815
0.00168157
0.000873633
0.000498527
0.000300722
0.000185976
0.000116435
7.32477e-05
4.64374e-05
0.546905
2.22106
1.83413
0.807776
0.248871
0.0733367
0.0229386
0.00803956
0.00327188
0.00154587
0.000824663
0.000475243
0.000287979
0.000178567
0.000112227
7.11383e-05
4.53852e-05
2.92693e-05
0.478129
1.67782
1.42239
0.646176
0.197241
0.0576846
0.018519
0.00673369
0.00286921
0.0014161
0.000777871
0.000454327
0.000276329
0.000171457
0.000107921
6.87068e-05
4.41553e-05
2.86149e-05
1.90321e-05
0.388337
1.16796
1.04949
0.509324
0.159323
0.0461992
0.0149207
0.00565898
0.00252478
0.00129621
0.000731665
0.00043374
0.000265444
0.000164721
0.000103683
6.61572e-05
4.27585e-05
2.78691e-05
1.85998e-05
1.30754e-05
0.267649
0.69077
0.731351
0.393037
0.130941
0.0385673
0.0123729
0.0047914
0.00223903
0.00119047
0.000686905
0.000412701
0.000254555
0.000158218
9.95699e-05
6.36015e-05
4.12465e-05
2.70697e-05
1.81254e-05
1.27389e-05
9.74834e-06
0.136074
0.410266
0.465761
0.302635
0.108237
0.0332966
0.0107355
0.00417891
0.00200597
0.00109941
0.000645177
0.000391341
0.000243279
0.000151671
9.55282e-05
6.10733e-05
3.96986e-05
2.61743e-05
1.76764e-05
1.23962e-05
9.37744e-06
8.07312e-06
0.0491985
0.244425
0.310784
0.229398
0.0939895
0.0291982
0.00963339
0.00378617
0.00183788
0.00102248
0.000607079
0.00037042
0.000231591
0.000144897
9.14753e-05
5.8567e-05
3.81439e-05
2.52254e-05
1.71702e-05
1.21331e-05
9.04817e-06
7.71457e-06
7.43402e-06
0.0377807
0.153808
0.216498
0.183372
0.0805866
0.0272498
0.00877056
0.00352747
0.00172821
0.000964045
0.000573378
0.000350467
0.000219901
0.000137842
8.73522e-05
5.60695e-05
3.6592e-05
2.42582e-05
1.66156e-05
1.1858e-05
8.85863e-06
7.29011e-06
7.09774e-06
7.07636e-06
0.0358002
0.137625
0.147861
0.174391
0.0786482
0.0247116
0.00842792
0.00332894
0.00165722
0.0009239
0.0005459
0.000332406
0.000208623
0.000130715
8.31322e-05
5.35773e-05
3.50526e-05
2.32911e-05
1.60364e-05
1.15518e-05
8.6946e-06
7.09226e-06
6.69477e-06
6.75571e-06
9.52472e-06
0.0350022
0.133905
0.128714
0.162756
0.0940285
0.0270413
0.00791804
0.00325001
0.00160489
0.000896904
0.000525498
0.000316947
0.000198492
0.000123779
7.8895e-05
5.10887e-05
3.35366e-05
2.23333e-05
1.54589e-05
1.12116e-05
8.54105e-06
6.97377e-06
6.3627e-06
6.3592e-06
8.6831e-06
2.32258e-05
0.0342774
0.131668
0.123029
0.153071
0.111581
0.0366005
0.00903784
0.00313619
0.00156948
0.000878444
0.000510716
0.000304868
0.000189672
0.000117512
7.47943e-05
4.86147e-05
3.2054e-05
2.13929e-05
1.48946e-05
1.08681e-05
8.37088e-06
6.89753e-06
6.12529e-06
6.00177e-06
7.521e-06
1.79928e-05
5.93255e-05
0.0334301
0.128772
0.119017
0.14731
0.111867
0.0510573
0.0125692
0.00358225
0.00153841
0.000849062
0.00050061
0.000295998
0.000182512
0.000111924
7.10948e-05
4.62152e-05
3.06072e-05
2.04813e-05
1.4348e-05
1.05483e-05
8.18754e-06
6.82542e-06
5.98813e-06
5.58946e-06
6.38971e-06
1.31263e-05
4.1629e-05
0.000152195
0.0324435
0.125106
0.114848
0.142192
0.108481
0.053886
0.0184618
0.00482251
0.00175477
0.00084671
0.000476858
0.000287702
0.000177195
0.000107173
6.78444e-05
4.39955e-05
2.9195e-05
1.96202e-05
1.38306e-05
1.02444e-05
7.99109e-06
6.73307e-06
5.73988e-06
5.08788e-06
5.37065e-06
9.71865e-06
2.83805e-05
0.000106572
0.000433806
0.031372
0.120736
0.110926
0.137651
0.1047
0.0530063
0.0197428
0.00689923
0.00228541
0.000975431
0.000485245
0.000275298
0.00016677
0.000102791
6.47731e-05
4.19679e-05
2.78188e-05
1.87583e-05
1.33209e-05
9.92535e-06
7.69146e-06
6.33332e-06
5.31558e-06
4.52649e-06
4.53303e-06
7.28469e-06
1.9792e-05
7.48747e-05
0.000313428
0.00128432
0.0302746
0.116059
0.10726
0.133744
0.101188
0.0515443
0.0197199
0.00707285
0.00313195
0.00125981
0.000563935
0.00028688
0.000161714
9.68076e-05
5.99385e-05
3.86606e-05
2.58136e-05
1.74006e-05
1.23916e-05
9.1989e-06
7.07227e-06
5.70437e-06
4.72997e-06
4.0353e-06
3.93381e-06
5.66095e-06
1.41613e-05
5.2638e-05
0.000224732
0.000950776
0.00379298
0.0292087
0.111459
0.104031
0.130286
0.0978441
0.0499784
0.0194044
0.00710594
0.00328123
0.00170451
0.000721535
0.000336642
0.000173118
9.62336e-05
5.70108e-05
3.54547e-05
2.29578e-05
1.5395e-05
1.09256e-05
8.08049e-06
6.18646e-06
5.02077e-06
4.2636e-06
3.73494e-06
3.56961e-06
4.61176e-06
1.03811e-05
3.69558e-05
0.000159818
0.00069684
0.00288028
0.010989
0.0282172
0.107323
0.10131
0.127247
0.094642
0.0484376
0.0189368
0.00706741
0.00324484
0.00185951
0.000956147
0.000426249
0.000205524
0.000105939
5.85456e-05
3.46103e-05
2.16517e-05
1.42608e-05
9.90545e-06
7.26673e-06
5.64784e-06
4.62404e-06
4.00475e-06
3.57164e-06
3.38673e-06
3.94972e-06
7.76159e-06
2.59644e-05
0.000112705
0.000505546
0.00216308
0.00856168
0.0308664
0.0273459
0.103933
0.0990665
0.124464
0.0915699
0.0469681
0.018474
0.00695838
0.00323203
0.00176837
0.00108315
0.000550205
0.00025787
0.00012645
6.59682e-05
3.6847e-05
2.19727e-05
1.39803e-05
9.5157e-06
6.92245e-06
5.39792e-06
4.44033e-06
3.87968e-06
3.54828e-06
3.35028e-06
3.54294e-06
5.94102e-06
1.83089e-05
7.88095e-05
0.000362885
0.00160723
0.00659992
0.0246482
0.0835642
0.0266131
0.101364
0.0971175
0.121683
0.0885614
0.0455921
0.0180325
0.00682585
0.00319981
0.00175907
0.00103987
0.000640434
0.000324466
0.000158547
7.92572e-05
4.23012e-05
2.39336e-05
1.46629e-05
9.69793e-06
6.92835e-06
5.35455e-06
4.44571e-06
3.90746e-06
3.57487e-06
3.35657e-06
3.33149e-06
4.73106e-06
1.29984e-05
5.4709e-05
0.000257702
0.00118105
0.00503456
0.0194991
0.0682925
0.219063
0.0259982
0.0994106
0.0951635
0.118573
0.0855419
0.0442975
0.0176262
0.00668763
0.003156
0.00174724
0.00102811
0.000628152
0.000381622
0.000195208
9.64977e-05
4.99206e-05
2.72582e-05
1.61245e-05
1.03675e-05
7.24182e-06
5.50941e-06
4.53297e-06
3.96401e-06
3.61249e-06
3.37743e-06
3.24491e-06
3.95409e-06
9.33298e-06
3.7751e-05
0.000181104
0.000858166
0.00379819
0.0152742
0.0553919
0.182943
0.552162
0.0254213
0.097712
0.0929098
0.114926
0.082509
0.0430544
0.0172551
0.00655173
0.00311054
0.00173242
0.00102305
0.000604695
0.000386955
0.000229715
0.000116763
5.91745e-05
3.13415e-05
1.79194e-05
1.11809e-05
7.62947e-06
5.70017e-06
4.63453e-06
4.02693e-06
3.65448e-06
3.403e-06
3.22317e-06
3.47744e-06
6.82394e-06
2.59556e-05
0.000125915
0.000616627
0.00283262
0.0118441
0.0445265
0.151857
0.470857
1.342
0.024788
0.0959157
0.0902068
0.110801
0.0795507
0.0418565
0.0168983
0.00642632
0.00306741
0.00171786
0.00101685
0.000600875
0.000368917
0.00024392
0.000135754
7.03617e-05
3.62434e-05
2.00745e-05
1.21311e-05
8.06779e-06
5.91377e-06
4.7452e-06
4.09131e-06
3.69708e-06
3.4298e-06
3.22897e-06
3.23256e-06
5.1633e-06
1.78273e-05
8.66445e-05
0.000437917
0.00208833
0.00908407
0.0354688
0.125056
0.399892
1.16692
3.14927
0.0240482
0.0936875
0.0870103
0.106438
0.0767294
0.0407197
0.0165452
0.00630923
0.00303024
0.00170461
0.00101062
0.000597367
0.000364574
0.000234592
0.000148892
8.10261e-05
4.19844e-05
2.2626e-05
1.32569e-05
8.56454e-06
6.14602e-06
4.8618e-06
4.15735e-06
3.74102e-06
3.45965e-06
3.24515e-06
3.12658e-06
4.12196e-06
1.22864e-05
5.90158e-05
0.000307329
0.00152138
0.00688834
0.0279853
0.102213
0.337278
1.0125
2.78738
7.147
0.0232002
0.0907836
0.0833249
0.101985
0.074051
0.0396444
0.0162009
0.00620098
0.002998
0.00169377
0.00100451
0.000593844
0.00036305
0.000225848
0.000147275
9.04333e-05
4.85458e-05
2.56182e-05
1.45989e-05
9.14375e-06
6.40612e-06
4.98842e-06
4.22679e-06
3.78643e-06
3.49291e-06
3.26635e-06
3.0934e-06
3.49876e-06
8.56393e-06
3.98252e-05
0.000212986
0.00109511
0.00516136
0.021861
0.0828572
0.282754
0.873345
2.46587
6.42444
15.7165
0.0222946
0.0874637
0.0795905
0.0978151
0.0715925
0.0386266
0.0158753
0.00610457
0.00296994
0.00168465
0.000999202
0.000590371
0.000361599
0.000224535
0.000140393
9.34675e-05
5.43939e-05
2.91351e-05
1.61677e-05
9.8302e-06
6.70204e-06
5.12795e-06
4.30125e-06
3.83377e-06
3.52826e-06
3.29127e-06
3.09305e-06
3.17116e-06
6.12252e-06
2.66689e-05
0.000145718
0.000778276
0.00382173
0.0168931
0.0665998
0.235449
0.749955
2.17061
5.7805
14.3102
33.6278
0.0214074
0.0841451
0.0762306
0.0942328
0.0693926
0.0376819
0.0155805
0.00602208
0.00294582
0.00167685
0.000994558
0.000587421
0.00036021
0.000223652
0.000138103
8.95053e-05
5.81434e-05
3.26253e-05
1.79796e-05
1.06336e-05
7.04413e-06
5.28172e-06
4.38104e-06
3.88314e-06
3.56555e-06
3.3197e-06
3.10608e-06
3.02021e-06
4.59912e-06
1.7769e-05
9.83925e-05
0.000545846
0.00279506
0.0129063
0.0530473
0.194692
0.640703
1.9049
5.17965
13.0571
30.9283
70.4737
0.0206168
0.0811075
0.0734256
0.0911522
0.0673912
0.0368048
0.0153244
0.00595568
0.00292611
0.00167036
0.000990461
0.000585056
0.000359057
0.00022281
0.000137409
8.57087e-05
5.75921e-05
3.52571e-05
1.99723e-05
1.15511e-05
7.44392e-06
5.45276e-06
4.46637e-06
3.9347e-06
3.60408e-06
3.35134e-06
3.12525e-06
2.96339e-06
3.69491e-06
1.18586e-05
6.55275e-05
0.000377606
0.00201806
0.00974133
0.0418574
0.159781
0.544482
1.6657
4.63285
11.8735
28.5249
65.3517
144.964
0.0199068
0.078492
0.0711076
0.0883305
0.065458
0.0359672
0.0150923
0.00590646
0.00291191
0.00166548
0.000986987
0.000583186
0.000358229
0.000222056
0.000136811
8.49243e-05
5.48299e-05
3.63068e-05
2.16437e-05
1.25793e-05
7.90605e-06
5.64701e-06
4.55801e-06
3.98875e-06
3.6439e-06
3.38533e-06
3.14884e-06
2.951e-06
3.20384e-06
8.02769e-06
4.30599e-05
0.000257364
0.00143781
0.00726165
0.0326955
0.13011
0.460052
1.4513
4.1342
10.7887
26.2325
60.7786
135.554
290.66
0.0192976
0.0764982
0.0690869
0.0855666
0.0635048
0.03514
0.0148694
0.00585963
0.00290408
0.00166279
0.000984319
0.000581836
0.000357663
0.000221485
0.000136269
8.45276e-05
5.26889e-05
3.5131e-05
2.27703e-05
1.37067e-05
8.42593e-06
5.87164e-06
4.65749e-06
4.0457e-06
3.68508e-06
3.42106e-06
3.17624e-06
2.95753e-06
2.96199e-06
5.63638e-06
2.79458e-05
0.000172687
0.00100996
0.0053443
0.0252673
0.105067
0.386384
1.25956
3.68118
9.79085
24.1227
56.3688
127.083
274.541
555.029
0.0187171
0.0748252
0.0671352
0.0827596
0.0614789
0.0343047
0.0146453
0.00581538
0.00290029
0.00166258
0.000982788
0.000581097
0.000357361
0.000221069
0.000135854
8.41643e-05
5.23443e-05
3.34511e-05
2.28371e-05
1.44587e-05
9.00742e-06
6.12745e-06
4.76848e-06
4.10578e-06
3.72778e-06
3.45799e-06
3.20687e-06
2.97214e-06
2.85698e-06
4.21668e-06
1.79903e-05
0.000113896
0.000699024
0.00388
0.0193083
0.0841055
0.322411
1.08877
3.27018
8.87611
22.1726
52.289
118.773
259.87
531.29
968.902
0.0180899
0.0730165
0.0648648
0.0797508
0.0593946
0.0334257
0.0144084
0.0057744
0.00290106
0.00166415
0.000982611
0.000581161
0.00035737
0.000220823
0.00013557
8.38786e-05
5.21318e-05
3.24639e-05
2.18603e-05
1.48439e-05
9.59461e-06
6.41004e-06
4.89601e-06
4.16963e-06
3.77198e-06
3.49587e-06
3.23994e-06
2.99205e-06
2.81998e-06
3.42656e-06
1.15947e-05
7.37819e-05
0.000476022
0.00277824
0.0145745
0.0667138
0.267212
0.937026
2.89839
8.03812
20.3765
48.4988
111.001
245.1
509.7
941.828
1499.26
0.0173608
0.0707756
0.0622638
0.0766307
0.0573386
0.0325055
0.0141428
0.00573516
0.00290566
0.00166728
0.000983258
0.000582079
0.000357791
0.000220782
0.000135428
8.36853e-05
5.19578e-05
3.22739e-05
2.08499e-05
1.46368e-05
9.92548e-06
6.71408e-06
5.04117e-06
4.23904e-06
3.81753e-06
3.53465e-06
3.27446e-06
3.01634e-06
2.81354e-06
3.01766e-06
7.62648e-06
4.69135e-05
0.000318511
0.00196053
0.0108593
0.052402
0.219911
0.802751
2.56257
7.27224
18.723
44.9945
103.704
231.072
486.996
918.114
1476.81
2051.54
0.0165095
0.0679383
0.0595323
0.073565
0.0553785
0.0315518
0.0138499
0.00569262
0.00291201
0.00167127
0.00098477
0.000583612
0.000358651
0.000221009
0.000135439
8.35941e-05
5.18412e-05
3.21622e-05
2.03073e-05
1.39188e-05
1.00308e-05
7.03382e-06
5.19848e-06
4.31723e-06
3.86424e-06
3.57425e-06
3.3102e-06
3.04411e-06
2.82005e-06
2.82321e-06
5.26984e-06
2.93339e-05
0.000208911
0.00136295
0.00797773
0.0407388
0.179641
0.684449
2.25998
6.57292
17.204
41.7585
96.8971
217.689
464.885
891.351
1459.9
2046.27
2495.88
0.0155983
0.0646518
0.0567624
0.0705961
0.0535172
0.0306026
0.0135151
0.00564502
0.00291687
0.00167512
0.000986771
0.00058563
0.000359815
0.000221505
0.000135622
8.36065e-05
5.17985e-05
3.20838e-05
2.02161e-05
1.32618e-05
9.76422e-06
7.18754e-06
5.36683e-06
4.40533e-06
3.91256e-06
3.61454e-06
3.34681e-06
3.07454e-06
2.83328e-06
2.74012e-06
3.94748e-06
1.81193e-05
0.000134118
0.000932221
0.00577398
0.0313178
0.145633
0.580624
1.98799
5.93556
15.8097
38.7787
90.5639
204.992
443.206
864.575
1437.9
2048.11
2516.11
2774.71
0.0147414
0.0614182
0.0542585
0.0679323
0.051722
0.0296607
0.0131687
0.00558584
0.00291842
0.00167721
0.000988814
0.000587939
0.000361225
0.000222194
0.000135972
8.37201e-05
5.18294e-05
3.20511e-05
2.01788e-05
1.28684e-05
9.24098e-06
7.1506e-06
5.5329e-06
4.49934e-06
3.96441e-06
3.65534e-06
3.38439e-06
3.10679e-06
2.85133e-06
2.71062e-06
3.24942e-06
1.12113e-05
8.4262e-05
0.000626225
0.00411232
0.0237894
0.117111
0.490029
1.7439
5.35567
14.5321
36.0384
84.6965
192.982
422.117
837.479
1415.41
2043.18
2546.65
2813.05
2914.68
0.0139905
0.0584906
0.05212
0.0655376
0.0500324
0.0287675
0.0128251
0.00552114
0.00291479
0.00167698
0.000990158
0.000590236
0.000362754
0.000223026
0.000136428
8.39358e-05
5.19203e-05
3.20702e-05
2.01674e-05
1.28206e-05
8.77427e-06
6.89182e-06
5.63421e-06
4.59556e-06
4.02224e-06
3.69667e-06
3.42292e-06
3.1404e-06
2.87331e-06
2.70511e-06
2.90353e-06
7.14586e-06
5.16425e-05
0.000411489
0.0028801
0.0178349
0.093386
0.411363
1.52559
4.82838
13.3634
33.5239
79.2762
181.685
401.675
810.309
1391.94
2036.94
2571.14
2865.57
2963.92
2954.6
0.0133202
0.055861
0.0502268
0.0632659
0.0483555
0.0279351
0.0125282
0.00545815
0.00290752
0.00167355
0.000990438
0.000592124
0.000364224
0.000223927
0.000136954
8.41887e-05
5.20622e-05
3.21242e-05
2.01813e-05
1.28073e-05
8.47416e-06
6.46175e-06
5.55724e-06
4.6925e-06
4.08451e-06
3.73939e-06
3.46236e-06
3.17511e-06
2.89828e-06
2.70951e-06
2.74454e-06
4.87777e-06
3.08774e-05
0.000264127
0.00198161
0.0131844
0.0737841
0.343497
1.33084
4.34978
12.295
31.2215
74.2874
171.102
381.963
783.153
1367.79
2028.82
2594.54
2914.17
3029.05
3009.55
2928.28
0.0126884
0.0535043
0.0484697
0.0610184
0.0466963
0.0271528
0.0122712
0.0054182
0.00289871
0.00166804
0.000989428
0.000593335
0.000365417
0.000224799
0.000137505
8.44761e-05
5.22265e-05
3.22013e-05
2.02131e-05
1.28044e-05
8.43352e-06
6.07262e-06
5.32498e-06
4.76227e-06
4.14625e-06
3.78569e-06
3.50262e-06
3.21086e-06
2.92522e-06
2.72064e-06
2.67908e-06
3.68741e-06
1.81269e-05
0.000165149
0.00133831
0.00959686
0.0577211
0.285248
1.15791
3.91564
11.3202
29.1161
69.7124
161.241
363.038
756.147
1343.07
2019.11
2615.97
2963.43
3091.42
3080.99
2985.6
2860.6
0.0120487
0.0510832
0.046684
0.0587991
0.04505
0.0264145
0.0120447
0.00539188
0.00289673
0.00166146
0.000987783
0.000593611
0.000366237
0.000225535
0.000138032
8.47761e-05
5.23952e-05
3.22901e-05
2.02551e-05
1.28132e-05
8.43011e-06
5.82334e-06
4.96103e-06
4.68115e-06
4.20719e-06
3.8369e-06
3.5438e-06
3.24776e-06
2.95311e-06
2.73697e-06
2.65723e-06
3.09953e-06
1.06681e-05
0.000100097
0.000885931
0.00686935
0.0446535
0.23556
1.00495
3.52273
10.431
27.1956
65.5277
152.103
344.975
729.381
1317.95
2007.86
2635.36
3012.46
3155.5
3150.47
3059.32
2918.28
2768.42
0.011399
0.0484909
0.0447929
0.0566569
0.0434307
0.0256835
0.0118446
0.00537492
0.00289751
0.00165816
0.000986159
0.000593446
0.000366462
0.000226086
0.000138502
8.50678e-05
5.25624e-05
3.23841e-05
2.02998e-05
1.28273e-05
8.42927e-06
5.74388e-06
4.5955e-06
4.49386e-06
4.25987e-06
3.88992e-06
3.5869e-06
3.28573e-06
2.98186e-06
2.75612e-06
2.65399e-06
2.82749e-06
6.55296e-06
5.85512e-05
0.000573435
0.00482847
0.034121
0.193364
0.870399
3.16774
9.62083
25.446
61.7152
143.672
327.84
703.017
1292.56
1995.3
2652.3
3061.2
3220.68
3222.08
3131.52
2991.85
2825.29
2662.77
0.0107293
0.0458336
0.0428938
0.0546239
0.0419241
0.0249588
0.0116518
0.00536175
0.00290024
0.00165676
0.000986532
0.000593191
0.000366448
0.000226292
0.000138869
8.53418e-05
5.27271e-05
3.24785e-05
2.03438e-05
1.28451e-05
8.43045e-06
5.73457e-06
4.34914e-06
4.18333e-06
4.26246e-06
3.94047e-06
3.63406e-06
3.32474e-06
3.01144e-06
2.77733e-06
2.66154e-06
2.71149e-06
4.42844e-06
3.305e-05
0.000361693
0.0033262
0.0257214
0.157714
0.752542
2.84831
8.88275
23.856
58.2518
135.941
311.675
677.226
1266.95
1981.66
2667.07
3109.31
3287.14
3295.33
3206.02
3064.12
2897.33
2718.14
2550.65
0.0101008
0.0431979
0.0410432
0.0526794
0.0405243
0.0242317
0.0114619
0.00534475
0.00290293
0.00165673
0.000988798
0.000593956
0.000366404
0.000226392
0.000139091
8.55712e-05
5.28879e-05
3.25652e-05
2.03895e-05
1.28642e-05
8.43714e-06
5.73273e-06
4.20423e-06
3.82305e-06
4.12296e-06
3.9898e-06
3.68621e-06
3.36495e-06
3.04191e-06
2.79966e-06
2.67667e-06
2.66776e-06
3.40763e-06
1.82638e-05
0.000220378
0.00224165
0.0190978
0.127742
0.649789
2.56194
8.21155
22.4121
55.1196
128.884
296.533
652.134
1241.22
1967.08
2679.76
3156.77
3354.95
3370.35
3282.39
3138.74
2968.15
2787.88
2604.13
2436.5
0.00954223
0.0408304
0.0393376
0.0508222
0.0392332
0.0235224
0.0112676
0.00531919
0.0029014
0.00165798
0.000992315
0.00059553
0.000366895
0.000226507
0.000139218
8.57619e-05
5.30325e-05
3.26563e-05
2.04414e-05
1.28859e-05
8.44917e-06
5.73533e-06
4.18435e-06
3.5352e-06
3.8874e-06
4.02549e-06
3.74016e-06
3.40722e-06
3.07326e-06
2.82269e-06
2.69549e-06
2.65498e-06
2.95333e-06
1.00818e-05
0.000128463
0.00147361
0.0139489
0.102652
0.560556
2.30661
7.60221
21.1032
52.2967
122.485
282.439
627.901
1215.44
1951.7
2690.53
3203.39
3423.78
3447.14
3360.74
3215.29
3041.28
2856.4
2671.18
2487.87
2323.13
0.00903217
0.038691
0.0377471
0.0490677
0.0380477
0.0228649
0.0110776
0.0052815
0.00289473
0.00165857
0.000996536
0.000597672
0.00036783
0.00022691
0.000139364
8.59406e-05
5.31653e-05
3.27479e-05
2.04943e-05
1.29132e-05
8.46467e-06
5.74334e-06
4.18601e-06
3.36289e-06
3.56009e-06
3.99986e-06
3.79201e-06
3.45347e-06
3.10548e-06
2.84634e-06
2.71582e-06
2.65417e-06
2.76506e-06
5.88766e-06
7.13759e-05
0.000942324
0.0100033
0.0817785
0.48325
2.08024
7.05152
19.9168
49.7649
116.714
269.432
604.659
1189.76
1935.71
2699.61
3248.9
3493.35
3525.59
3441.07
3293.91
3116.36
2927.17
2736.95
2552.02
2372.23
2212.27
0.00853632
0.0367628
0.0362653
0.0473754
0.0369599
0.0222659
0.010916
0.00523847
0.00288098
0.00165793
0.00100037
0.00060003
0.000369095
0.000227557
0.000139646
8.60972e-05
5.32963e-05
3.28404e-05
2.05518e-05
1.29464e-05
8.48294e-06
5.75516e-06
4.19027e-06
3.28143e-06
3.22583e-06
3.84327e-06
3.8429e-06
3.50513e-06
3.13879e-06
2.87039e-06
2.73619e-06
2.66597e-06
2.69282e-06
3.92532e-06
3.76321e-05
0.000582953
0.00702916
0.0645118
0.416517
1.88042
6.55705
18.8437
47.5013
111.557
257.524
582.551
1164.38
1919.3
2707.36
3292.98
3563.35
3605.62
3523.29
3374.57
3193.49
2999.85
2804.9
2614.83
2433.41
2259.04
2105.03
0.00803323
0.0349187
0.0349336
0.0457548
0.0359431
0.021715
0.0107772
0.00520182
0.00286365
0.00165539
0.00100323
0.0006021
0.000370454
0.000228359
0.000140054
8.62824e-05
5.34142e-05
3.29345e-05
2.06121e-05
1.29832e-05
8.50431e-06
5.76923e-06
4.19709e-06
3.27349e-06
2.98093e-06
3.59733e-06
3.88043e-06
3.56032e-06
3.17416e-06
2.89486e-06
2.75652e-06
2.68586e-06
2.66642e-06
3.09323e-06
1.89828e-05
0.000345935
0.00482234
0.0503433
0.359084
1.70495
6.11632
17.8772
45.4846
106.987
246.732
561.677
1139.57
1902.72
2714.03
3336
3633.5
3687.14
3607.33
3457.19
3272.66
3074.54
2874.7
2679.74
2493.18
2317.23
2149.42
2002.12
0.00752163
0.0331327
0.0337497
0.0442325
0.0349691
0.021208
0.0106476
0.0051702
0.00284849
0.00165255
0.00100494
0.000603682
0.000371695
0.000229197
0.000140516
8.65224e-05
5.35262e-05
3.30188e-05
2.06727e-05
1.30227e-05
8.52788e-06
5.78367e-06
4.20635e-06
3.2759e-06
2.83949e-06
3.27582e-06
3.86024e-06
3.61604e-06
3.21374e-06
2.91965e-06
2.7769e-06
2.70609e-06
2.66061e-06
2.77482e-06
9.54462e-06
0.00019431
0.00321568
0.0388046
0.309933
1.55143
5.72733
17.0123
43.6939
102.981
237.046
542.161
1115.53
1886.28
2719.79
3377.92
3703.87
3770.13
3693.09
3541.76
3353.81
3151.23
2946.44
2746.44
2554.97
2373.94
2204.62
2044.07
1903.96
0.00700949
0.0314458
0.0327531
0.0428347
0.0340015
0.0207201
0.0105172
0.00513792
0.00283633
0.00165191
0.00100629
0.000604443
0.000372665
0.000229988
0.000140992
8.67995e-05
5.36351e-05
3.30908e-05
2.0728e-05
1.30624e-05
8.55216e-06
5.79787e-06
4.21648e-06
3.28045e-06
2.77854e-06
2.95806e-06
3.71401e-06
3.67334e-06
3.25946e-06
2.94469e-06
2.79695e-06
2.72753e-06
2.66813e-06
2.65708e-06
5.22188e-06
0.000101144
0.00206948
0.029495
0.268135
1.41784
5.38704
16.248
42.111
99.5026
228.475
524.1
1092.51
1870.28
2724.87
3418.64
3774.11
3854.28
3780.44
3628.16
3436.94
3229.87
3020.13
2815
2618.48
2432.61
2258.32
2096.32
1943.44
1810.85
0.00649763
0.0298336
0.0319648
0.0415592
0.0330468
0.020251
0.0103726
0.00510269
0.00282551
0.00165406
0.00100838
0.000605025
0.000373173
0.000230642
0.000141459
8.70748e-05
5.37491e-05
3.3148e-05
2.07725e-05
1.31001e-05
8.57591e-06
5.81208e-06
4.22641e-06
3.28733e-06
2.77299e-06
2.72295e-06
3.48797e-06
3.72386e-06
3.31089e-06
2.97007e-06
2.81651e-06
2.7483e-06
2.68333e-06
2.60834e-06
3.48801e-06
4.81749e-05
0.00127307
0.0220414
0.232937
1.30235
5.09255
15.583
40.7264
96.5119
221.025
507.607
1070.73
1855.05
2729.59
3458.12
3843.61
3939.11
3869.32
3716.28
3521.96
3310.49
3095.74
2885.45
2683.78
2492.92
2313.89
2147.03
1992.77
1847.82
1723
0.00598913
0.0282668
0.0313299
0.0404115
0.0321146
0.0197888
0.010212
0.00506038
0.00281638
0.00165752
0.00101159
0.000606027
0.000373632
0.00023111
0.000141872
8.73443e-05
5.38794e-05
3.32036e-05
2.08022e-05
1.31328e-05
8.59931e-06
5.82731e-06
4.23593e-06
3.29594e-06
2.77671e-06
2.58307e-06
3.19131e-06
3.73395e-06
3.36475e-06
2.9968e-06
2.83532e-06
2.76821e-06
2.70195e-06
2.58404e-06
2.89495e-06
2.10682e-05
0.000737928
0.0161202
0.203628
1.20362
4.84046
15.0168
39.5367
93.9715
214.676
492.797
1050.4
1840.87
2734.35
3495.59
3911.39
4024.29
3959.57
3806.19
3608.81
3393
3173.27
2957.74
2750.89
2554.96
2371.04
2199.56
2040.55
1894.26
1757.41
1640.56
0.00548782
0.0266658
0.0308138
0.0394208
0.0311997
0.0193387
0.0100365
0.00501051
0.00280754
0.00166148
0.00101508
0.000607631
0.000374263
0.0002315
0.00014224
8.76059e-05
5.40289e-05
3.32626e-05
2.08201e-05
1.3161e-05
8.62215e-06
5.84334e-06
4.2455e-06
3.30541e-06
2.78208e-06
2.50957e-06
2.88901e-06
3.61974e-06
3.41979e-06
3.0272e-06
2.85329e-06
2.78692e-06
2.72183e-06
2.57461e-06
2.71351e-06
9.04225e-06
0.000392954
0.0114504
0.179603
1.12058
4.62818
14.5465
38.5461
91.8515
209.386
479.791
1031.66
1828.16
2738.6
3530.3
3978.04
4109.84
4051.18
3897.68
3697.51
3477.4
3252.68
3031.92
2819.78
2618.73
2429.84
2253.6
2090.09
1939.16
1800.99
1672.35
1563.67
0.00500349
0.0250412
0.0303675
0.0385857
0.0303029
0.0188839
0.00985433
0.00495813
0.0027992
0.00166515
0.00101848
0.000609451
0.00037518
0.000231997
0.000142543
8.7856e-05
5.41818e-05
3.3342e-05
2.08422e-05
1.31857e-05
8.64444e-06
5.85948e-06
4.256e-06
3.31468e-06
2.78911e-06
2.49813e-06
2.64697e-06
3.43844e-06
3.4777e-06
3.06439e-06
2.8704e-06
2.80429e-06
2.74139e-06
2.57565e-06
2.64649e-06
4.60903e-06
0.00018407
0.00779573
0.16032
1.05253
4.45361
14.1691
37.7589
90.1432
205.081
468.706
1014.67
1817.33
2740.77
3562.5
4043.97
4196.04
4144.23
3990.67
3787.8
3563.55
3333.91
3107.93
2890.5
2684.21
2490.31
2309.24
2141.08
1985.74
1843.02
1713.07
1592.75
1492.45
0.00454134
0.0234411
0.0299853
0.0378756
0.0294276
0.0183949
0.0096695
0.00490956
0.0027931
0.00166805
0.00102136
0.000611222
0.000376319
0.000232595
0.000142832
8.80848e-05
5.43368e-05
3.34365e-05
2.08752e-05
1.32053e-05
8.66356e-06
5.87556e-06
4.26834e-06
3.3234e-06
2.79751e-06
2.50052e-06
2.48847e-06
3.19645e-06
3.50806e-06
3.10745e-06
2.88669e-06
2.82009e-06
2.75991e-06
2.58248e-06
2.60876e-06
3.37251e-06
7.14601e-05
0.00498082
0.145292
0.998985
4.31579
13.8809
37.1785
88.8525
201.69
459.548
999.779
1806.51
2740.37
3593.52
4109.65
4282.75
4238.64
4085.02
3879.72
3651.4
3416.93
3185.73
2963
2751.45
2552.43
2366.47
2193.61
2033.74
1886.7
1752.26
1630.62
1518.73
1427.02
0.0041039
0.0219189
0.0296473
0.0372614
0.028557
0.0178615
0.00948038
0.00486458
0.00279168
0.00167084
0.00102353
0.00061282
0.000377426
0.000233323
0.000143159
8.82706e-05
5.44878e-05
3.35381e-05
2.09235e-05
1.32286e-05
8.67843e-06
5.891e-06
4.282e-06
3.33152e-06
2.80567e-06
2.505e-06
2.39296e-06
2.93265e-06
3.45442e-06
3.15179e-06
2.90263e-06
2.83427e-06
2.77681e-06
2.59315e-06
2.58385e-06
3.12194e-06
2.27093e-05
0.00287347
0.134131
0.959581
4.21463
13.6794
36.8037
87.9951
199.166
452.22
986.843
1794.42
2739.33
3623.79
4175.2
4370.16
4333.81
4180.89
3973.3
3740.99
3501.64
3265.25
3037.21
2820.43
2616.23
2425.28
2247.67
2083.22
1931.75
1793.06
1666.97
1553.73
1450.39
1367.51
0.00369426
0.0204866
0.0293627
0.0366965
0.0276947
0.0172865
0.00928877
0.00482377
0.00279254
0.0016746
0.00102555
0.000614234
0.000378471
0.000234086
0.000143517
8.84599e-05
5.46189e-05
3.36368e-05
2.09816e-05
1.32558e-05
8.68945e-06
5.90495e-06
4.29591e-06
3.33936e-06
2.81271e-06
2.51245e-06
2.36439e-06
2.6954e-06
3.33129e-06
3.19803e-06
2.92032e-06
2.84685e-06
2.79199e-06
2.60545e-06
2.56892e-06
3.05463e-06
8.70922e-06
0.00138001
0.126519
0.934129
4.15076
13.5639
36.6307
87.5795
197.501
446.599
973.842
1781.23
2738.53
3653.9
4240.7
4458.31
4429.46
4277.98
4068.26
3832.08
3587.97
3346.37
3113.07
2891.03
2681.72
2485.72
2303.25
2134.18
1978.23
1835.2
1704.91
1587.22
1482.5
1387.84
1314.03
0.00332494
0.0191535
0.0290897
0.0361144
0.0268288
0.0166868
0.00910113
0.00478678
0.00279416
0.00167829
0.00102788
0.00061574
0.000379496
0.000234837
0.000143912
8.86578e-05
5.47157e-05
3.37276e-05
2.10363e-05
1.3286e-05
8.69897e-06
5.91668e-06
4.30916e-06
3.34767e-06
2.81887e-06
2.52229e-06
2.36305e-06
2.51835e-06
3.15869e-06
3.23106e-06
2.94291e-06
2.85779e-06
2.80539e-06
2.61877e-06
2.56212e-06
3.00213e-06
7.00187e-06
0.000425625
0.122277
0.922534
4.12551
13.535
36.6535
87.6001
196.646
441.178
960.4
1769.3
2738.01
3683.95
4306.49
4546.86
4525.66
4375.81
4164.16
3924.42
3675.7
3429.01
3190.42
2963.17
2748.74
2547.78
2360.4
2186.61
2026.15
1878.72
1744.15
1622.3
1513.11
1417.01
1331.18
1266.67
0.00300545
0.0179147
0.0288067
0.0354208
0.0259444
0.0160811
0.00892381
0.00475413
0.00279558
0.00168123
0.0010302
0.000617503
0.000380594
0.000235595
0.000144317
8.88736e-05
5.48143e-05
3.38076e-05
2.10875e-05
1.33234e-05
8.71183e-06
5.92606e-06
4.32153e-06
3.3565e-06
2.82491e-06
2.53112e-06
2.36911e-06
2.40245e-06
2.95719e-06
3.21032e-06
2.97017e-06
2.86714e-06
2.8171e-06
2.63242e-06
2.56203e-06
2.96466e-06
6.86103e-06
8.62171e-05
0.121404
0.924876
4.13434
13.5659
36.7509
87.69
195.799
435.723
947.663
1758.6
2738.24
3713.59
4372.6
4635.59
4623.03
4474.13
4260.69
4017.57
3764.54
3512.93
3269.19
3036.71
2817.2
2611.28
2419.1
2240.54
2075.48
1923.64
1784.75
1658.65
1545.29
1444.69
1357.37
1280.49
1225.48
0.00270247
0.0167666
0.0284769
0.0345929
0.0250439
0.0155002
0.00875625
0.00472629
0.00279663
0.00168335
0.00103226
0.000619376
0.000381804
0.000236395
0.000144738
8.91157e-05
5.49308e-05
3.38808e-05
2.11338e-05
1.33626e-05
8.72809e-06
5.93356e-06
4.33189e-06
3.36537e-06
2.83151e-06
2.5387e-06
2.38131e-06
2.33655e-06
2.75828e-06
3.11422e-06
3.00245e-06
2.87554e-06
2.82742e-06
2.64604e-06
2.56743e-06
2.94098e-06
6.74535e-06
8.52058e-05
0.121588
0.927332
4.14331
13.5994
36.8683
87.8909
195.32
431.111
935.583
1748.63
2739.72
3742.61
4438.63
4724.64
4721.29
4573.05
4357.62
4111.25
3854.08
3597.86
3349.14
3111.58
2886.98
2676.13
2479.17
2295.95
2126.26
1969.94
1826.7
1696.33
1578.73
1473.95
1382.06
1303.66
1235.84
1190.44
0.00238641
0.015551
0.0280774
0.03361
0.0241395
0.0149639
0.008593
0.00469829
0.00279726
0.00168502
0.00103416
0.000621284
0.000383043
0.00023724
0.000145184
8.93651e-05
5.50622e-05
3.39646e-05
2.11751e-05
1.34012e-05
8.74956e-06
5.94189e-06
4.33946e-06
3.37402e-06
2.84023e-06
2.54542e-06
2.39796e-06
2.31891e-06
2.59096e-06
2.9961e-06
3.02941e-06
2.88527e-06
2.8366e-06
2.6595e-06
2.57685e-06
2.92881e-06
6.66407e-06
8.4487e-05
0.12195
0.932193
4.16707
13.673
37.0695
88.2684
195.242
427.363
924.104
1738.6