/*--------------------------------*- C++ -*----------------------------------*\
| =========                 |                                                 |
| \\      /  F ield         | OpenFOAM: The Open Source CFD Toolbox           |
|  \\    /   O peration     | Version:  v2012                                 |
|   \\  /    A nd           | Website:  www.openfoam.com                      |
|    \\/     M anipulation  |                                                 |
\*---------------------------------------------------------------------------*/
FoamFile
{
    version     2.0;
    format      ascii;
    class       volScalarField;
    location    "12000";
    object      lambda2;
}
// * * * * * * * * * * * * * * * * * * * * * * * * * * * * * * * * * * * * * //

dimensions      [0 0 0 0 0 0 0];


internalField   nonuniform List<scalar> 
27324
(
-0.443887
-0.456925
-0.556246
-0.464277
-0.563925
-0.571701
-0.473823
-0.566664
-0.577411
-0.582152
-0.483438
-0.571132
-0.579734
-0.586183
-0.589486
-0.493305
-0.575545
-0.583503
-0.588712
-0.591929
-0.584772
-0.502919
-0.580008
-0.587286
-0.59233
-0.594916
-0.587087
-0.570291
-0.513045
-0.584314
-0.591081
-0.596219
-0.598909
-0.590882
-0.575299
-0.544199
-0.524494
-0.589007
-0.594908
-0.600291
-0.603531
-0.596034
-0.579662
-0.550063
-0.47048
-0.537207
-0.594674
-0.599133
-0.604636
-0.608511
-0.60187
-0.585564
-0.550934
-0.476928
-0.341094
-0.550504
-0.601404
-0.604269
-0.609517
-0.613923
-0.607907
-0.591621
-0.553371
-0.471893
-0.364264
-0.235402
-0.563945
-0.609081
-0.610478
-0.61555
-0.61996
-0.614041
-0.596835
-0.555707
-0.471215
-0.35647
-0.276022
-0.131718
-0.577466
-0.617778
-0.617915
-0.623034
-0.627228
-0.620224
-0.601256
-0.556933
-0.471712
-0.357785
-0.257911
-0.184618
-0.020324
-0.591306
-0.627781
-0.62695
-0.632044
-0.635889
-0.626889
-0.604669
-0.558154
-0.47191
-0.358708
-0.256506
-0.160064
-0.0838983
-0.00544206
-0.60524
-0.639601
-0.637972
-0.642651
-0.645598
-0.634065
-0.608167
-0.559655
-0.473536
-0.356535
-0.250331
-0.164976
-0.0549256
-0.0247444
-0.0461871
-0.619635
-0.653205
-0.651161
-0.654766
-0.655958
-0.641404
-0.612417
-0.562961
-0.476076
-0.355192
-0.241811
-0.156585
-0.0697143
-0.00114235
-6.76877e-05
-0.0838589
-0.633291
-0.668934
-0.665769
-0.66822
-0.666686
-0.649013
-0.617768
-0.568323
-0.480103
-0.352432
-0.237483
-0.153155
-0.0628363
-0.0047033
-0.0231248
-0.00478649
-0.116404
-0.64352
-0.686812
-0.681536
-0.682086
-0.678194
-0.65737
-0.624886
-0.575151
-0.485077
-0.350365
-0.232045
-0.157272
-0.0550226
-0.00207845
-0.0158607
-0.052237
-0.0013576
-0.153291
-0.656021
-0.70661
-0.699165
-0.696356
-0.68957
-0.667567
-0.63351
-0.583456
-0.489085
-0.349151
-0.228237
-0.156196
-0.0562102
-2.75942e-06
-0.0231167
-0.0381571
-0.0563378
-0.00455728
-0.18928
-0.633299
-0.733412
-0.719404
-0.711878
-0.700626
-0.677709
-0.64486
-0.590854
-0.493372
-0.344895
-0.229025
-0.153704
-0.0495351
-0.000661112
-0.0316559
-0.0418871
-0.0387859
-0.0566301
-0.0445235
-0.24257
-0.583248
-0.733804
-0.740313
-0.728743
-0.711956
-0.686658
-0.655057
-0.600578
-0.492798
-0.34049
-0.228952
-0.157532
-0.0381496
-0.00379635
-0.037795
-0.0457694
-0.0403695
-0.0389358
-0.05668
-0.108376
-0.284941
-0.508846
-0.708988
-0.749697
-0.737333
-0.72301
-0.695049
-0.662629
-0.606557
-0.495593
-0.327951
-0.22806
-0.161291
-0.0309966
-0.012086
-0.0425714
-0.0483269
-0.0400965
-0.0430925
-0.0313834
-0.0524317
-0.202342
-0.253116
-0.504713
-0.634822
-0.729982
-0.764984
-0.729927
-0.701345
-0.668702
-0.607741
-0.489564
-0.324746
-0.221805
-0.15679
-0.0304417
-0.0208254
-0.0510808
-0.0459808
-0.0411944
-0.0402712
-0.0289478
-0.0239218
-0.0154263
-0.295484
-0.187886
-0.513678
-0.589096
-0.660181
-0.740339
-0.760475
-0.71933
-0.670107
-0.605838
-0.475961
-0.309012
-0.227619
-0.146378
-0.018583
-0.0178834
-0.0566983
-0.0466843
-0.0394051
-0.0385694
-0.0201736
-0.0423508
-0.0429594
-0.00228899
-0.249198
-0.00967733
-0.516984
-0.58653
-0.609374
-0.676106
-0.726197
-0.733286
-0.693215
-0.595223
-0.460851
-0.295047
-0.218066
-0.142545
-0.00843072
-0.0279994
-0.0471153
-0.0494235
-0.0381463
-0.0389713
-0.0219056
-0.041861
-0.0340836
-0.00385477
-0.00679471
-0.361973
-0.0177905
-0.536293
-0.587943
-0.605223
-0.621703
-0.673124
-0.692474
-0.707499
-0.626395
-0.455334
-0.271878
-0.209207
-0.122465
-0.00114831
-0.0438099
-0.056278
-0.0499543
-0.0418042
-0.046378
-0.0344276
-0.0607612
-0.0037927
-0.0125647
-0.143746
-0.143508
-0.207646
-0.0292513
-0.549619
-0.600676
-0.604929
-0.608798
-0.627062
-0.650512
-0.635449
-0.686909
-0.5115
-0.243454
-0.16776
-0.0936094
-0.00497173
-0.0718684
-0.0812561
-0.05196
-0.058643
-0.0603939
-0.0447285
-0.0525501
-0.0030394
-0.0394774
-0.254906
-0.27376
-0.150588
-0.408119
-0.0619887
-0.559285
-0.605405
-0.607663
-0.603225
-0.604964
-0.631812
-0.607821
-0.526429
-0.652099
-0.534321
-0.135174
-0.0380094
-0.0190407
-0.0893459
-0.0977161
-0.0706974
-0.0495095
-0.0544624
-0.0484115
-0.0111261
-0.0412238
-0.22541
-0.345268
-0.306513
-0.0200448
-0.305388
-0.363654
-0.183515
-0.563261
-0.608403
-0.602311
-0.599474
-0.596338
-0.607816
-0.635813
-0.532562
-0.256343
-0.570255
-0.627859
-0.29663
-0.00219059
-0.116549
-0.0607061
-0.0450569
-0.0554236
-0.0012181
-0.00431018
-0.183972
-0.260229
-0.421256
-0.255177
-0.17879
-0.316823
-0.215871
-0.00425317
-0.00337493
-2.00794e-05
-0.562571
-0.608038
-0.598463
-0.592974
-0.592466
-0.596724
-0.619249
-0.611078
-0.417162
-0.129832
-0.370793
-0.618291
-0.484394
-0.198393
-0.0705965
-0.0326795
-0.0843711
-0.113388
-0.204546
-0.366912
-0.368621
-0.272418
-0.178993
-0.494802
-0.141603
-0.0075698
-0.000462857
-0.00365454
-0.000749753
-0.000100563
-0.55982
-0.605244
-0.593763
-0.589732
-0.593771
-0.59576
-0.601095
-0.611905
-0.566449
-0.297931
-0.375006
-0.0353098
-0.393925
-0.555334
-0.501498
-0.433893
-0.371628
-0.354943
-0.357155
-0.302784
-0.0122364
-0.317001
-0.453996
-0.354829
-0.0453055
-0.0735512
-0.0149128
-0.0153908
-9.49108e-05
-0.0141394
-0.000361634
-0.555602
-0.601314
-0.589841
-0.587864
-0.59572
-0.600513
-0.600196
-0.579747
-0.607772
-0.491152
-0.172593
-0.355133
-0.377835
-0.341161
-0.0708354
-0.316831
-0.254981
-0.140026
-0.0437902
-0.190863
-0.335713
-0.381303
-0.275205
-0.0328337
-0.0668096
-0.0547505
-0.00365492
-0.00628398
-0.00183136
-0.000255089
-0.00747005
-0.000447067
-0.549533
-0.596543
-0.587705
-0.588476
-0.599124
-0.603692
-0.598972
-0.572364
-0.560299
-0.615773
-0.292388
-0.0591625
-0.116582
-0.346569
-0.493493
-0.457216
-0.358849
-0.34125
-0.331589
-0.347062
-0.323026
-0.240959
-0.0204394
-0.0425855
-0.0192199
-0.109776
-0.00387685
-0.0294212
-0.00541006
-0.000360154
-0.000607591
-0.00184888
-0.00035495
-0.543273
-0.59223
-0.58808
-0.592092
-0.603125
-0.607118
-0.59936
-0.575488
-0.543376
-0.556865
-0.56285
-0.148075
-0.0368195
-0.00460267
-0.202564
-0.309961
-0.341283
-0.348212
-0.316177
-0.219434
-0.113536
-0.0122085
-0.00819549
-0.0259622
-0.000617669
-0.0498318
-0.0185084
-0.0361587
-0.0114422
-7.30932e-05
-0.00142641
-9.94254e-05
-4.24915e-05
-0.00406832
-0.541313
-0.59009
-0.591785
-0.598003
-0.606578
-0.609366
-0.599621
-0.578202
-0.550623
-0.513182
-0.52633
-0.422595
-0.06385
-0.0929455
-0.0251081
-0.0272737
-0.0489336
-0.0882914
-0.10233
-0.0746345
-0.0253415
-0.00270877
-0.00130703
-0.0151298
-0.00289332
-0.000608399
-0.0501597
-0.0357967
-0.017848
-1.80773e-06
-0.00102901
-0.000531024
-0.000120287
-0.00365464
-0.00603733
-0.544742
-0.591755
-0.5976
-0.603717
-0.60811
-0.609922
-0.599365
-0.579806
-0.547919
-0.502202
-0.435698
-0.551398
-0.0236975
-0.035275
-0.196844
-0.00918772
-0.00255166
-3.89364e-05
-0.000163871
-0.000702409
-0.00768731
-0.00833159
-0.00603814
-0.0054853
-0.0129669
-0.0063998
-0.0520826
-0.0144351
-0.0273233
-0.000313851
-0.000801362
-0.000446548
-2.41042e-05
-0.0047408
-0.0051555
-0.000653206
-0.549608
-0.595293
-0.602687
-0.607138
-0.607429
-0.608743
-0.598894
-0.5795
-0.545311
-0.492365
-0.417997
-0.426515
-0.544636
-0.411848
-0.04168
-0.0723966
-0.00153211
-0.000659513
-0.000500501
-0.0042667
-0.00137491
-6.25311e-06
-1.17359e-06
-0.000358287
-0.00333905
-0.00133718
-0.0171725
-0.00108104
-0.0352908
-0.0016616
-0.000469313
-0.000346012
-3.60231e-07
-0.00424564
-0.00675145
-1.74305e-06
-0.000456425
-0.562037
-0.601531
-0.607517
-0.607658
-0.605588
-0.606983
-0.59897
-0.577878
-0.541066
-0.485679
-0.416661
-0.388035
-0.418277
-0.401668
-0.388671
-0.00642955
-0.000222636
-0.000366391
-0.00414929
-0.00776788
-0.00348939
-5.66174e-05
-7.3744e-05
-1.46855e-05
-0.000206382
-0.00106885
-0.00106948
-0.0300186
-0.0352381
-0.00493372
-0.000185307
-0.000174343
-5.70715e-05
-0.00322961
-0.00627028
-0.000864675
-0.00244413
-0.0112706
-0.57271
-0.60863
-0.611297
-0.607241
-0.604032
-0.605764
-0.599431
-0.575715
-0.538224
-0.482245
-0.419619
-0.386444
-0.305012
-0.422938
-0.00430454
-0.15013
-0.00814829
-0.000205735
-0.00897366
-0.00896605
-0.00638784
-0.00135087
-0.000382357
-0.000465426
-0.000532657
-0.00340803
-0.0134649
-0.0470674
-0.0201479
-0.0105699
-7.54643e-06
-6.42777e-05
-0.000112612
-0.00263826
-0.00633908
-0.000720915
-4.81833e-05
-0.000123456
-0.0356586
-0.579478
-0.611482
-0.60861
-0.603171
-0.601321
-0.605362
-0.599659
-0.57382
-0.537518
-0.481604
-0.426185
-0.383482
-0.291179
-0.222092
-0.430468
-0.311117
-0.00909317
-0.0145459
-0.0147199
-0.00925268
-0.00491729
-0.000785367
-6.07456e-05
-0.000253744
-2.00668e-05
-0.00274522
-0.00816012
-0.0229768
-0.000659797
-0.0172039
-0.000152857
-2.03652e-06
-4.51087e-05
-0.00154553
-0.00640398
-0.00129409
-0.000289559
-0.00334932
-0.0122231
-0.0444226
-0.582475
-0.610887
-0.602118
-0.597145
-0.599894
-0.605247
-0.599636
-0.573256
-0.538274
-0.481798
-0.432209
-0.383268
-0.277291
-0.165461
-0.251579
-0.210663
-0.238683
-0.000500015
-3.77773e-05
-0.0120565
-0.00535694
-0.00103948
-1.9206e-06
-6.73229e-05
-0.000170181
-0.000704187
-0.000116622
-0.000280087
-0.0156639
-0.0206276
-0.000970609
-9.36833e-05
-6.5413e-07
-0.00065653
-0.00645619
-0.00153223
-0.000223853
-0.00146621
-0.02388
-0.0216893
-0.032532
-0.581778
-0.608609
-0.595477
-0.59446
-0.600717
-0.60586
-0.599653
-0.574252
-0.539107
-0.481782
-0.437245
-0.380159
-0.27185
-0.174189
-0.08612
-0.310272
-0.128444
-0.0412087
-0.0310601
-0.0152411
-0.0083388
-0.00178504
-2.94697e-06
-9.61518e-06
-0.000144387
-1.04414e-05
-0.002944
-0.0186147
-0.0400163
-0.0151817
-0.00261945
-0.000595276
-4.68251e-06
-7.20215e-05
-0.00635196
-0.00208378
-0.000227519
-0.00102057
-0.0195485
-0.0377608
-0.0142392
-0.0219478
-0.577085
-0.60597
-0.591221
-0.595299
-0.603312
-0.607313
-0.598858
-0.575718
-0.539098
-0.481326
-0.441188
-0.377054
-0.264344
-0.16525
-0.0660992
-0.0698885
-0.304822
-0.221467
-0.00128627
-0.01481
-0.0133078
-0.00325377
-2.51723e-05
-7.47245e-06
-7.64564e-06
-0.000365683
-0.00203186
-0.0194589
-0.0307698
-0.00248248
-0.0048468
-0.00162506
-5.32521e-05
-9.37309e-05
-0.00645238
-0.00268335
-0.000206623
-0.000511795
-0.0184148
-0.0353372
-0.0293262
-0.00645708
-0.0463288
-0.569391
-0.59967
-0.590113
-0.597802
-0.605588
-0.607436
-0.599405
-0.580525
-0.537884
-0.480401
-0.444863
-0.373364
-0.258713
-0.17081
-0.0481984
-0.00425166
-0.195622
-0.0799523
-0.094429
-0.00825542
-0.0129341
-0.00629688
-0.000211717
-7.19346e-05
-0.000175501
-0.000665238
-0.000177799
-0.00358882
-0.00172279
-0.00601186
-0.00638368
-0.00307678
-0.000350572
-0.000686055
-0.00672511
-0.00356665
-0.000188654
-0.000212228
-0.0165029
-0.0363995
-0.0287412
-0.016188
-0.0194683
-0.16911
-0.570468
-0.59808
-0.592289
-0.600558
-0.606611
-0.605806
-0.599099
-0.583021
-0.533353
-0.479471
-0.44853
-0.369606
-0.25397
-0.173665
-0.0442787
-0.00212711
-0.0185014
-0.314093
-0.118986
-0.0411315
-0.0201306
-0.0114151
-0.00100295
-0.000157098
-0.000826361
-0.000465411
-0.000751671
-0.00324447
-0.0151196
-0.0306711
-0.00480883
-0.0046364
-0.00115115
-0.00136774
-0.00593733
-0.0048369
-0.00017882
-4.09366e-05
-0.0148318
-0.0362404
-0.0315475
-0.0149115
-0.0262426
-0.133077
-0.315281
-0.577839
-0.601964
-0.600863
-0.605947
-0.606782
-0.60357
-0.598916
-0.582545
-0.526526
-0.477937
-0.451625
-0.365958
-0.250689
-0.174117
-0.040497
-0.00202686
-0.000498066
-0.147314
-0.19167
-0.180609
-0.075287
-0.0165959
-0.00213465
-0.000108968
-0.00178458
-6.07232e-05
-0.00234736
-0.00123822
-0.0326635
-0.0398497
-0.000434357
-0.00569828
-0.00253474
-0.00174959
-0.00504453
-0.00652826
-0.000197808
-3.84387e-06
-0.0131931
-0.0360861
-0.0334305
-0.0163685
-0.020999
-0.13111
-0.292863
-0.408001
-0.586877
-0.607254
-0.606776
-0.607792
-0.604669
-0.601463
-0.599013
-0.581421
-0.519727
-0.479428
-0.459397
-0.363028
-0.248908
-0.173807
-0.0367168
-0.00401414
-0.000115563
-0.0326397
-0.258283
-0.00830764
-0.104016
-0.0414746
-0.00240118
-2.16676e-05
-0.00262927
-8.24006e-05
-0.00317136
-0.000505308
-0.0198587
-0.0168613
-0.00532757
-0.00542724
-0.00430888
-0.0012846
-0.00352349
-0.00804117
-8.91641e-05
-0.000106324
-0.0116423
-0.0357754
-0.0353782
-0.0174828
-0.0187058
-0.116741
-0.289128
-0.396781
-0.455221
-0.600388
-0.615105
-0.608635
-0.606485
-0.6012
-0.599615
-0.599264
-0.580121
-0.516427
-0.482965
-0.46068
-0.3533
-0.249721
-0.171774
-0.0331199
-0.00601882
-5.14382e-05
-0.0110328
-0.0757639
-0.251379
-0.138305
-0.0445697
-0.00231853
-0.000910423
-0.00268344
-0.000771811
-0.00306621
-0.00192837
-0.000777029
-0.00167893
-0.0284124
-0.00285932
-0.0062785
-0.000280981
-0.00202327
-0.00957325
-3.72815e-05
-0.000345718
-0.0101633
-0.0353559
-0.0371349
-0.0190491
-0.0162073
-0.105134
-0.278435
-0.395187
-0.452646
-0.465271
-0.606864
-0.621007
-0.608702
-0.605101
-0.598498
-0.598183
-0.601827
-0.578888
-0.515003
-0.488926
-0.462653
-0.346831
-0.247531
-0.169028
-0.0301719
-0.00753231
-7.42643e-05
-0.00653048
-0.005496
-0.23927
-0.00369559
-0.137867
-0.0206659
-0.00197126
-0.00143182
-0.00183571
-0.00135443
-0.00760334
-0.000145198
-0.0317611
-0.0523968
-8.74387e-07
-0.00931483
-0.000463926
-0.000812826
-0.0103724
-2.38316e-06
-0.000690826
-0.00868949
-0.034891
-0.0387546
-0.0207553
-0.0143175
-0.0934223
-0.268679
-0.389744
-0.454316
-0.468417
-0.454244
-0.607288
-0.620491
-0.6028
-0.59964
-0.598041
-0.598737
-0.6031
-0.575526
-0.515407
-0.494563
-0.461751
-0.339683
-0.246753
-0.164362
-0.0272314
-0.0101404
-6.78045e-06
-0.00632847
-0.00234392
-0.0375245
-0.287636
-0.210718
-0.0566606
-0.00105982
-1.06871e-05
-0.00284492
-0.00018702
-0.00873994
-0.000536262
-0.0449135
-0.0558717
-0.0038365
-0.0151764
-0.00411757
-0.000112932
-0.0103744
-0.00012894
-0.00108831
-0.00714285
-0.0343922
-0.0402077
-0.0226775
-0.0128977
-0.0823311
-0.258341
-0.384774
-0.453078
-0.47451
-0.458391
-0.438529
-0.607048
-0.618074
-0.597203
-0.597027
-0.597002
-0.599806
-0.604938
-0.577048
-0.515006
-0.498169
-0.45815
-0.333311
-0.24542
-0.160531
-0.0237131
-0.0128158
-3.89567e-06
-0.00433069
-0.00449901
-0.000363673
-0.265477
-0.0139117
-0.118542
-0.00186552
-0.000979524
-0.00287684
-0.000158128
-0.00828174
-0.00500944
-0.0225187
-0.030667
-0.015129
-0.0147491
-0.0100705
-8.99862e-05
-0.00895371
-0.000569124
-0.00143962
-0.00558338
-0.0337405
-0.0415636
-0.0246978
-0.0118698
-0.0717782
-0.247833
-0.379432
-0.451784
-0.478044
-0.466428
-0.441914
-0.422653
-0.604015
-0.61709
-0.59577
-0.597094
-0.599464
-0.600707
-0.60643
-0.576545
-0.51984
-0.505925
-0.45208
-0.326002
-0.248588
-0.158011
-0.0206858
-0.0156853
-6.57891e-05
-0.00314704
-0.00448749
-0.000310194
-0.0484802
-0.283367
-0.192895
-0.0478893
-0.000540025
-0.00123903
-0.00107774
-0.00446576
-0.0157952
-0.00142391
-0.00112288
-0.0323666
-0.00681504
-0.0134701
-0.000860666
-0.00749903
-0.00140333
-0.00168466
-0.00407238
-0.0329158
-0.0429207
-0.0268503
-0.0112211
-0.0618606
-0.237038
-0.373935
-0.450037
-0.481428
-0.472042
-0.449576
-0.426007
-0.406046
-0.608576
-0.615767
-0.59639
-0.597648
-0.600118
-0.601399
-0.607311
-0.575721
-0.520809
-0.511249
-0.445908
-0.318836
-0.251292
-0.158935
-0.0182121
-0.0177564
-0.000278536
-0.00324745
-0.00252835
-6.98549e-05
-0.000744193
-0.316378
-0.106694
-0.113043
-0.000116405
-2.17251e-05
-0.00220573
-0.00157744
-0.0220068
-6.20669e-07
-0.0154883
-0.0479651
-0.000321
-0.0140875
-0.000594231
-0.00608553
-0.00254093
-0.00177016
-0.00272571
-0.0317455
-0.0442665
-0.0291101
-0.0108555
-0.0527171
-0.226012
-0.368249
-0.447948
-0.484231
-0.478063
-0.454666
-0.433194
-0.409806
-0.388952
-0.616456
-0.621059
-0.600295
-0.597917
-0.599522
-0.601414
-0.607004
-0.575301
-0.520943
-0.513279
-0.438215
-0.319567
-0.248157
-0.15759
-0.0188169
-0.0189364
-0.000706504
-0.00293857
-0.00398904
-0.0003482
-0.00294678
-0.0619646
-0.212754
-0.197894
-0.00891364
-0.000972337
-0.00224427
-0.000224962
-0.0163194
-0.00739517
-0.0401998
-0.0536308
-0.00417691
-0.0117413
-3.52623e-05
-0.00536099
-0.0036906
-0.00172563
-0.00165667
-0.0302131
-0.0455462
-0.0314994
-0.010734
-0.0443827
-0.214734
-0.362393
-0.445551
-0.486434
-0.483949
-0.460518
-0.437688
-0.416696
-0.393439
-0.371822
-0.622762
-0.625964
-0.603988
-0.597294
-0.599045
-0.601901
-0.605959
-0.572429
-0.526787
-0.51537
-0.427861
-0.318416
-0.251415
-0.151408
-0.0199704
-0.0194735
-0.00150406
-0.00299533
-0.00523697
-0.000385169
-0.00394305
-0.015537
-0.373134
-0.186004
-0.0676563
-9.34468e-09
-0.000432689
-7.66682e-05
-0.0132337
-0.0216091
-0.0327257
-0.0478815
-0.0200881
-0.00821978
-0.00313103
-0.00523794
-0.00445982
-0.00161505
-0.000912131
-0.0283846
-0.0466085
-0.0340936
-0.0107906
-0.0369295
-0.203346
-0.356386
-0.442947
-0.487946
-0.489708
-0.466624
-0.442804
-0.421177
-0.399803
-0.377219
-0.355233
-0.631289
-0.628738
-0.603955
-0.59544
-0.596586
-0.602537
-0.605064
-0.573008
-0.52745
-0.518108
-0.42199
-0.315352
-0.25342
-0.155355
-0.0206629
-0.0184186
-0.00328625
-0.00258052
-0.00621348
-0.000323022
-0.000486226
-0.00580054
-0.2066
-0.0139744
-0.146933
-0.000980137
-0.00104749
-0.000726935
-0.00958668
-0.0309363
-0.0153461
-0.0334801
-0.0364347
-0.000435225
-0.0126735
-0.00486292
-0.00469878
-0.00149906
-0.000458278
-0.0264244
-0.0472892
-0.036939
-0.0110369
-0.0303576
-0.191907
-0.350221
-0.440131
-0.489
-0.495268
-0.473101
-0.447994
-0.426126
-0.404171
-0.382844
-0.361609
-0.339822
-0.630273
-0.630916
-0.602209
-0.593869
-0.595391
-0.605688
-0.604275
-0.572834
-0.532003
-0.519261
-0.407808
-0.31402
-0.247311
-0.157787
-0.0241749
-0.017368
-0.00559773
-0.00190099
-0.00564965
-4.72331e-05
-1.35796e-05
-4.52453e-06
-0.00182962
-0.358964
-0.209027
-0.0256733
-0.00322062
-0.000870318
-0.00689538
-0.0325916
-0.0369683
-0.0182572
-0.0373711
-0.000210673
-0.0247758
-0.00277749
-0.00453898
-0.00139521
-0.000205244
-0.0245656
-0.0473542
-0.0399246
-0.0114937
-0.0246797
-0.180494
-0.343946
-0.437159
-0.489627
-0.500447
-0.480033
-0.453425
-0.431015
-0.408915
-0.38705
-0.366319
-0.34706
-0.326105
-0.63038
-0.628435
-0.597487
-0.59302
-0.595057
-0.60793
-0.603572
-0.573385
-0.535114
-0.514453
-0.400543
-0.316841
-0.244234
-0.153416
-0.0270449
-0.0156788
-0.00724884
-0.00112792
-0.0043434
-3.25127e-07
-5.70334e-05
-4.64777e-05
-0.0222644
-0.362406
-0.112522
-0.0906766
-2.67534e-05
-5.6388e-05
-0.00365996
-0.0312553
-0.0589449
-0.00991097
-0.0267707
-0.00306323
-0.0242615
-0.00705037
-0.00451072
-0.00131642
-7.08718e-05
-0.0230544
-0.0469051
-0.0428804
-0.012254
-0.0198063
-0.169087
-0.337583
-0.434054
-0.48989
-0.505212
-0.487032
-0.459081
-0.43589
-0.413641
-0.391551
-0.370257
-0.350731
-0.333964
-0.314587
-0.631107
-0.627688
-0.595584
-0.592926
-0.594994
-0.609733
-0.603949
-0.572492
-0.537098
-0.510046
-0.396707
-0.315006
-0.246082
-0.150054
-0.0317574
-0.0137149
-0.00689937
-0.000701371
-0.00348292
-1.84681e-05
-9.82463e-06
-0.00032731
-0.00140172
-0.094604
-0.162881
-0.174611
-0.0012607
-0.00748532
-0.00083229
-0.0290878
-0.0277875
-0.00268341
-0.0213812
-0.018671
-0.0132459
-0.0056677
-0.00443773
-0.00126938
-7.162e-06
-0.0219242
-0.0460102
-0.0455281
-0.0133773
-0.0157027
-0.157743
-0.331169
-0.430884
-0.489865
-0.509426
-0.494051
-0.465181
-0.440681
-0.418409
-0.396091
-0.374473
-0.354318
-0.336517
-0.322651
-0.305665
-0.636037
-0.626968
-0.594467
-0.594083
-0.595391
-0.610796
-0.604035
-0.57273
-0.543629
-0.50323
-0.394931
-0.318863
-0.232865
-0.153211
-0.0328475
-0.0108979
-0.00920194
-5.59042e-06
-0.00363303
-0.000115324
-1.21674e-05
-0.0003421
-0.000772256
-0.0372394
-0.410845
-0.211252
-0.0265568
-0.0209266
-9.14413e-06
-0.025349
-0.0194288
-0.00385809
-0.0217645
-0.0369913
-0.00347002
-0.0128832
-0.00597196
-0.00128334
-1.50953e-05
-0.021135
-0.0451109
-0.0476089
-0.014865
-0.0123015
-0.146464
-0.324735
-0.427689
-0.48966
-0.51307
-0.500988
-0.471743
-0.445727
-0.423204
-0.40069
-0.378726
-0.358185
-0.339704
-0.324117
-0.313378
-0.299458
-0.642561
-0.629363
-0.590803
-0.594838
-0.596531
-0.611672
-0.604133
-0.57301
-0.544558
-0.49753
-0.395926
-0.32247
-0.229278
-0.150248
-0.0382528
-0.00674329
-0.0118426
-0.000504107
-0.0013247
-0.000231002
-6.59231e-05
-8.70043e-05
-1.60053e-05
-0.0294407
-0.347909
-0.0605444
-0.123303
-0.0170431
-3.02158e-05
-0.0198814
-0.0123074
-0.0192268
-0.0199324
-0.0460151
-0.000631713
-0.0251024
-0.00841256
-0.00138908
-0.000146245
-0.0205188
-0.0444937
-0.0490798
-0.0166105
-0.00960049
-0.135317
-0.318317
-0.424513
-0.489312
-0.51642
-0.507822
-0.478857
-0.450997
-0.428065
-0.405296
-0.383058
-0.362073
-0.343084
-0.326833
-0.313854
-0.306383
-0.296
-0.647889
-0.630883
-0.587526
-0.595318
-0.597696
-0.61183
-0.604568
-0.573756
-0.545354
-0.490442
-0.400222
-0.323388
-0.225738
-0.15118
-0.0438397
-0.00634014
-0.0132171
-0.00096274
-0.0018629
-0.00030048
-0.000100856
-0.000174354
-0.000525156
-0.00140726
-0.054557
-0.218325
-0.190448
-0.00396218
-0.00236987
-0.0129881
-0.0131133
-0.0134028
-0.0143521
-0.043439
-0.00420145
-0.0348724
-0.0103034
-0.00159412
-0.000461066
-0.0199254
-0.0443416
-0.0500879
-0.0182381
-0.00752032
-0.124393
-0.311946
-0.421424
-0.48886
-0.519451
-0.514323
-0.486638
-0.456495
-0.432932
-0.409947
-0.387426
-0.366048
-0.346529
-0.329638
-0.315964
-0.305958
-0.301809
-0.295466
-0.651053
-0.630567
-0.582162
-0.595344
-0.601029
-0.611428
-0.605635
-0.573712
-0.544567
-0.485069
-0.404756
-0.32925
-0.216962
-0.152614
-0.0491968
-0.00504752
-0.0143779
-0.000440506
-0.00218468
-0.000443598
-8.70953e-07
-0.000972204
-0.000957318
-0.000651874
-0.0529714
-0.423781
-0.198689
-0.0337732
-0.0206477
-0.006042
-0.0105471
-0.0184649
-0.000459193
-0.0355365
-0.0112747
-0.0344788
-0.0175491
-0.00171963
-0.000987171
-0.0192183
-0.044647
-0.0509857
-0.0196166
-0.00602763
-0.113894
-0.305645
-0.418453
-0.488361
-0.522204
-0.520428
-0.494433
-0.462264
-0.437673
-0.414607
-0.391836
-0.370076
-0.350081
-0.332521
-0.318133
-0.30738
-0.300547
-0.299783
-0.29768
-0.655052
-0.631579
-0.576628
-0.595561
-0.603324
-0.610937
-0.606581
-0.574889
-0.542023
-0.478629
-0.410345
-0.332433
-0.213151
-0.152546
-0.0550391
-0.00315762
-0.0181237
-0.000607032
-0.00289559
-0.000293531
-0.000193451
-0.00151074
-0.000516915
-0.000291058
-0.0390152
-0.360808
-0.0568325
-0.130431
-0.039651
-0.00108041
-0.0072953
-0.015852
-0.00143065
-0.0244708
-0.0241688
-0.01984
-0.020386
-0.0015064
-0.0016502
-0.0183614
-0.0451056
-0.0521308
-0.0205315
-0.00489693
-0.104048
-0.299448
-0.415617
-0.487853
-0.524734
-0.526003
-0.502291
-0.468457
-0.442236
-0.419253
-0.396273
-0.374163
-0.353714
-0.335574
-0.320468
-0.308821
-0.301288
-0.297767
-0.300234
-0.302369
-0.663427
-0.633629
-0.57535
-0.596078
-0.605082
-0.610495
-0.60744
-0.576398
-0.535705
-0.474475
-0.417085
-0.332905
-0.21344
-0.149953
-0.0563159
-0.00213408
-0.0148686
-0.00189124
-0.0026784
-3.41142e-05
-9.05267e-05
-0.00121554
-0.000321883
-0.00272333
-0.00122807
-0.0734745
-0.202799
-0.204055
-0.0378333
-7.9753e-05
-0.00532143
-0.0153149
-0.00201947
-0.0229409
-0.0409015
-0.00572963
-0.0299525
-0.000888273
-0.00233769
-0.0173752
-0.0454725
-0.0536857
-0.0211729
-0.00389552
-0.0949934
-0.293292
-0.412922
-0.487376
-0.527151
-0.531105
-0.510127
-0.475157
-0.447138
-0.423913
-0.400818
-0.378387
-0.357422
-0.338685
-0.322887
-0.310493
-0.302013
-0.297746
-0.297592
-0.303174
-0.309533
-0.671702
-0.640141
-0.576066
-0.595424
-0.606833
-0.610133
-0.60897
-0.578587
-0.529068
-0.473783
-0.422317
-0.336472
-0.208278
-0.144715
-0.0648497
-0.00238906
-0.0144834
-0.00102344
-0.00247677
-0.000264894
-0.000153402
-0.00055541
-0.000116867
-0.00133032
-0.000495406
-0.0632209
-0.402483
-0.217283
-0.0670114
-0.00176001
-0.00487926
-0.0138551
-0.0037505
-0.0081574
-0.0448516
-0.0016185
-0.0424526
-0.000194814
-0.00302196
-0.0162956
-0.0454954
-0.0554986
-0.0218111
-0.00291747
-0.0868409
-0.287336
-0.410427
-0.486957
-0.529459
-0.535999
-0.517907
-0.482612
-0.452321
-0.42878
-0.40546
-0.382739
-0.361295
-0.341924
-0.325374
-0.312245
-0.302851
-0.297658
-0.296743
-0.299879
-0.308492
-0.318816
-0.678532
-0.646106
-0.57955
-0.594338
-0.607367
-0.610531
-0.610318
-0.5786
-0.522468
-0.472853
-0.428089
-0.334666
-0.205084
-0.138216
-0.0701261
-0.00183033
-0.0136935
-0.000766491
-0.00115936
-0.00156562
-9.83951e-05
-0.000160284
-2.7353e-05
-2.81478e-05
-0.000638215
-0.0651945
-0.398393
-0.115471
-0.192149
-0.0102637
-0.00357173
-0.0103988
-0.00208482
-0.00106477
-0.0345905
-0.00103661
-0.0507489
-5.80236e-06
-0.00364714
-0.0152751
-0.0450968
-0.0572665
-0.0226385
-0.00198131
-0.0792722
-0.281761
-0.408134
-0.486649
-0.531664
-0.54073
-0.525351
-0.490709
-0.457612
-0.433261
-0.409678
-0.386795
-0.365137
-0.345314
-0.32807
-0.314162
-0.303911
-0.2978
-0.295846
-0.298257
-0.304707
-0.315963
-0.329804
-0.68478
-0.651139
-0.581795
-0.5934
-0.607065
-0.612735
-0.609658
-0.577831
-0.514704
-0.476938
-0.432821
-0.334011
-0.202038
-0.133654
-0.0753245
-0.00315951
-0.00837505
-0.000340669
-0.000703349
-0.00206262
-0.00018543
-0.000209414
-0.000161508
-0.000667366
-0.00392282
-0.00757874
-0.187245
-0.0796837
-0.152407
-0.029928
-0.00220022
-0.00741724
-0.00169459
-1.56274e-05
-0.0305228
-0.00818456
-0.0436382
-3.21711e-06
-0.00402045
-0.0143584
-0.0443336
-0.0587925
-0.0236572
-0.00123028
-0.0719918
-0.276687
-0.40605
-0.48645
-0.533841
-0.545316
-0.532406
-0.498658
-0.462793
-0.437392
-0.413902
-0.390747
-0.368711
-0.348568
-0.330893
-0.316248
-0.305165
-0.298051
-0.295242
-0.296578
-0.302142
-0.311704
-0.325356
-0.342332
-0.692318
-0.655295
-0.584222
-0.592083
-0.606896
-0.6155
-0.609428
-0.576143
-0.50789
-0.480968
-0.440303
-0.332662
-0.199518
-0.121044
-0.0751277
-0.00568387
-0.00929725
-0.000380509
-0.00112683
-0.00148148
-0.000500978
-0.000397228
-0.00153495
-0.00229188
-0.00309553
-0.00102624
-0.0152153
-0.287842
-0.135644
-0.0801216
-0.00232788
-0.00520368
-0.000689937
-0.00112573
-0.0210904
-0.0229627
-0.0283757
-0.00295433
-0.0040124
-0.0137227
-0.0434054
-0.059761
-0.0246487
-0.000724962
-0.0647937
-0.272043
-0.404251
-0.486377
-0.536087
-0.549725
-0.539031
-0.506384
-0.468351
-0.441219
-0.418097
-0.395095
-0.372822
-0.352105
-0.333749
-0.318339
-0.306538
-0.298475
-0.29465
-0.295085
-0.299733
-0.308323
-0.320656
-0.336389
-0.356
-0.700224
-0.659818
-0.584663
-0.591744
-0.606453
-0.618475
-0.608857
-0.571664
-0.50419
-0.487077
-0.443467
-0.329378
-0.198535
-0.115422
-0.0771917
-0.00705695
-0.0101064
-0.00077068
-0.000489427
-0.00307318
-0.00206568
-0.000241768
-0.00277286
-0.00257246
-0.00209898
-0.00205331
-0.111585
-0.364106
-0.156945
-0.238759
-0.00302004
-0.00335075
-0.000203893
-0.000664379
-0.0142783
-0.0266092
-0.018762
-0.00965855
-0.00355857
-0.0132253
-0.0425656
-0.0600698
-0.025471
-0.000430663
-0.05795
-0.267501
-0.402877
-0.486479
-0.53828
-0.554037
-0.545173
-0.513887
-0.474192
-0.445509
-0.422662
-0.399489
-0.376927
-0.355785
-0.336855
-0.320742
-0.308021
-0.299114
-0.294316
-0.293801
-0.297365
-0.30511
-0.31663
-0.331325
-0.348731
-0.370232
-0.707665
-0.664285
-0.58607
-0.593128
-0.606145
-0.621132
-0.607442
-0.56728
-0.502604
-0.492358
-0.447115
-0.323022
-0.193847
-0.114533
-0.0766421
-0.0142722
-0.00700265
-0.000415699
-2.48294e-05
-0.000745463
-0.00129963
-4.985e-05
-0.0016294
-0.000830427
-0.000802773
-0.0140632
-0.0884783
-0.272603
-0.00497436
-0.217611
-0.000869598
-0.00150846
-6.72502e-06
-0.000839826
-0.0032781
-0.0241083
-0.0118676
-0.0191608
-0.00322409
-0.0127125
-0.0420836
-0.0596231
-0.0259785
-0.000274116
-0.0518414
-0.262701
-0.402107
-0.486753
-0.540369
-0.558246
-0.550777
-0.521201
-0.480253
-0.450309
-0.427343
-0.404045
-0.381239
-0.359685
-0.340143
-0.323325
-0.309765
-0.299941
-0.294146
-0.292633
-0.295319
-0.302012
-0.31263
-0.326639
-0.343368
-0.362076
-0.384716
-0.713995
-0.669338
-0.58586
-0.597388
-0.607173
-0.6218
-0.605453
-0.563165
-0.503231
-0.496608
-0.448757
-0.315302
-0.189026
-0.113487
-0.0732425
-0.0189546
-0.00590372
-0.000257975
-0.000170125
-1.01749e-05
-0.00120775
-0.00263516
-0.000366288
-0.000178809
-0.000226976
-0.00962686
-0.0354063
-0.0813788
-0.15553
-0.16521
-0.00415812
-0.00164501
-2.35609e-05
-0.000636457
-0.000185676
-0.0135353
-0.00287628
-0.0179532
-0.00413698
-0.0123605
-0.042204
-0.0584107
-0.0262894
-0.000192509
-0.0466819
-0.257787
-0.401741
-0.487175
-0.542228
-0.562235
-0.556126
-0.528255
-0.486848
-0.455322
-0.432077
-0.408761
-0.385759
-0.363782
-0.34364
-0.326058
-0.311733
-0.300985
-0.29421
-0.291664
-0.293273
-0.299075
-0.308828
-0.321996
-0.338085
-0.356529
-0.376006
-0.399193
-0.725523
-0.675561
-0.588241
-0.601726
-0.60868
-0.620508
-0.60317
-0.55876
-0.504305
-0.499787
-0.450866
-0.306312
-0.181231
-0.117891
-0.0671487
-0.0211749
-0.00445885
-0.00161904
-0.000628433
-0.00011215
-0.00189813
-0.00153232
-0.000111435
-0.00191175
-1.51441e-06
-0.00857686
-0.0419181
-0.00767476
-0.293992
-0.122253
-0.0852767
-0.00454632
-0.000150444
-0.000340299
-0.000827701
-0.008255
-0.00136471
-0.0100352
-0.00303294
-0.0128103
-0.0431275
-0.0568825
-0.0264084
-0.000152311
-0.0424949
-0.252934
-0.401233
-0.48773
-0.543823
-0.565988
-0.561193
-0.534628
-0.493642
-0.460491
-0.436705
-0.413419
-0.390339
-0.368049
-0.347372
-0.329096
-0.313855
-0.302231
-0.294513
-0.290938
-0.291549
-0.296326
-0.305106
-0.317522
-0.332862
-0.350684
-0.370282
-0.390047
-0.413165
-0.735522
-0.68736
-0.592393
-0.605378
-0.610323
-0.618155
-0.601846
-0.558127
-0.506537
-0.501442
-0.450288
-0.300354
-0.175242
-0.123095
-0.0677284
-0.0224715
-0.00538426
-0.000283081
-0.00159909
-0.000435218