/*--------------------------------*- C++ -*----------------------------------*\
| =========                 |                                                 |
| \\      /  F ield         | OpenFOAM: The Open Source CFD Toolbox           |
|  \\    /   O peration     | Version:  v2012                                 |
|   \\  /    A nd           | Website:  www.openfoam.com                      |
|    \\/     M anipulation  |                                                 |
\*---------------------------------------------------------------------------*/
FoamFile
{
    version     2.0;
    format      ascii;
    class       volScalarField;
    location    "12000";
    object      lambda1;
}
// * * * * * * * * * * * * * * * * * * * * * * * * * * * * * * * * * * * * * //

dimensions      [0 0 0 0 0 0 0];


internalField   nonuniform List<scalar> 
27324
(
0.445079
0.459316
0.556342
0.466911
0.564237
0.571658
0.476411
0.56717
0.577528
0.581981
0.485684
0.571688
0.580156
0.586199
0.589144
0.495132
0.576068
0.584033
0.589258
0.591962
0.584295
0.504465
0.580439
0.587831
0.593086
0.596038
0.587796
0.570465
0.514674
0.584629
0.591541
0.597047
0.600496
0.594185
0.579379
0.548734
0.526324
0.589293
0.595208
0.601014
0.605302
0.600456
0.589963
0.566432
0.497853
0.539127
0.595017
0.599365
0.60509
0.610091
0.606711
0.598483
0.581903
0.53859
0.453392
0.552351
0.601807
0.60457
0.609837
0.614968
0.612303
0.605437
0.590777
0.565299
0.533236
0.465336
0.565665
0.6095
0.61088
0.615991
0.620751
0.617245
0.609707
0.595746
0.578034
0.571375
0.55376
0.491871
0.579088
0.618182
0.61837
0.62367
0.628311
0.623003
0.6117
0.595932
0.583852
0.588962
0.593377
0.569759
0.521416
0.592481
0.628224
0.627408
0.632793
0.637434
0.630576
0.614825
0.593137
0.583253
0.596749
0.613167
0.606448
0.578837
0.544506
0.605888
0.640017
0.638535
0.643429
0.647451
0.639102
0.621329
0.595592
0.579107
0.597444
0.622346
0.631742
0.607073
0.581985
0.558673
0.619974
0.65349
0.651769
0.655772
0.657938
0.647482
0.629655
0.606397
0.584257
0.593957
0.626676
0.645012
0.641599
0.598404
0.583725
0.557461
0.633586
0.669091
0.666226
0.669376
0.669227
0.655657
0.638122
0.620717
0.600896
0.599013
0.626876
0.654211
0.658932
0.641025
0.58496
0.585585
0.535773
0.643831
0.687029
0.681804
0.683003
0.681087
0.665442
0.646693
0.633598
0.62103
0.615602
0.630436
0.658725
0.672849
0.668222
0.630349
0.572615
0.588742
0.500407
0.658498
0.707043
0.69958
0.696903
0.691898
0.676144
0.657759
0.643928
0.636131
0.637288
0.642654
0.660257
0.682494
0.686393
0.669843
0.614887
0.566904
0.585745
0.524652
0.6759
0.735492
0.720303
0.712756
0.702038
0.6845
0.668657
0.65367
0.645333
0.6526
0.662334
0.666164
0.682985
0.700049
0.695159
0.661471
0.599238
0.575296
0.567464
0.661917
0.754138
0.748055
0.744513
0.730678
0.714135
0.690817
0.673773
0.660506
0.647624
0.659946
0.677058
0.681387
0.682844
0.701043
0.710114
0.695695
0.646139
0.594905
0.591227
0.593723
0.77247
0.79859
0.772855
0.769221
0.746658
0.727927
0.70077
0.674354
0.656388
0.645837
0.653197
0.682817
0.694677
0.691127
0.696841
0.712929
0.712932
0.687122
0.628026
0.603457
0.57936
0.698246
0.820314
0.602874
0.777905
0.795528
0.795133
0.752252
0.714447
0.682728
0.641939
0.628626
0.645868
0.670211
0.698675
0.701458
0.696136
0.707324
0.717445
0.708222
0.668113
0.608004
0.600928
0.564031
0.798987
0.809431
0.513863
0.609801
0.79036
0.820991
0.820748
0.770445
0.703413
0.640693
0.589453
0.624253
0.664945
0.681835
0.703729
0.70143
0.6963
0.712286
0.713815
0.693868
0.629394
0.597342
0.596787
0.692678
0.831506
0.75065
0.516497
0.582289
0.616678
0.804203
0.851365
0.855941
0.803383
0.684331
0.554306
0.577097
0.645594
0.680159
0.684202
0.703714
0.692445
0.694947
0.711015
0.702537
0.661728
0.612424
0.626934
0.592688
0.791682
0.834622
0.736263
0.536289
0.587082
0.597108
0.615998
0.82953
0.88751
0.89726
0.847129
0.685978
0.48645
0.597595
0.664366
0.681413
0.689023
0.696591
0.679205
0.699278
0.703368
0.686382
0.636626
0.609552
0.552988
0.758984
0.845365
0.874772
0.881905
0.549775
0.600499
0.603353
0.596247
0.615798
0.865653
0.917632
0.927722
0.892792
0.747558
0.542531
0.583732
0.671505
0.677649
0.697998
0.683205
0.67058
0.704685
0.690069
0.651333
0.53333
0.449205
0.697375
0.876936
0.910011
0.910352
0.883954
0.559491
0.605415
0.607308
0.600815
0.584697
0.642594
0.900598
0.935882
0.946136
0.93023
0.848532
0.660468
0.541891
0.641637
0.649013
0.688607
0.639851
0.66387
0.658546
0.648626
0.289607
0.419938
0.794262
0.90989
0.926777
0.91037
0.860159
0.731216
0.563464
0.608469
0.602313
0.598902
0.592517
0.572114
0.733511
0.923621
0.943865
0.956368
0.953315
0.918829
0.815439
0.662612
0.602631
0.562912
0.612691
0.493712
0.59291
0.483043
0.645111
0.824312
0.898193
0.931122
0.93428
0.906904
0.807986
0.525024
0.291981
0.562736
0.608141
0.598559
0.592939
0.591583
0.589961
0.552353
0.839671
0.93359
0.943418
0.960135
0.965114
0.954067
0.922059
0.867498
0.810527
0.769685
0.751066
0.775917
0.833895
0.890478
0.921861
0.935007
0.93842
0.929095
0.888986
0.751593
0.452199
0.300763
0.212885
0.559971
0.605331
0.593946
0.589841
0.593664
0.594251
0.587138
0.524213
0.902298
0.933125
0.93289
0.956631
0.968503
0.968541
0.9609
0.948858
0.937635
0.932305
0.933354
0.937124
0.94328
0.945772
0.942654
0.928395
0.900514
0.864228
0.740781
0.480878
0.308454
0.266969
0.180044
0.555739
0.601382
0.590012
0.588097
0.595848
0.600294
0.597225
0.543771
0.668957
0.933074
0.923279
0.907336
0.938811
0.960532
0.968149
0.968517
0.965841
0.962336
0.959231
0.956162
0.952118
0.943893
0.924212
0.876557
0.812877
0.84426
0.778397
0.551739
0.340392
0.254527
0.248371
0.137976
0.549669
0.596618
0.587831
0.588693
0.599411
0.603875
0.598492
0.565174
0.473343
0.816864
0.948645
0.897485
0.823901
0.870266
0.921199
0.944796
0.95321
0.954336
0.951123
0.943281
0.929456
0.901648
0.839989
0.685829
0.572826
0.818888
0.807238
0.628067
0.398162
0.276421
0.243117
0.201397
0.0461061
0.543369
0.59233
0.588207
0.592236
0.603396
0.607544
0.599759
0.57434
0.526501
0.399155
0.900458
0.953487
0.851371
0.257064
0.500123
0.712393
0.815245
0.854413
0.861791
0.846157
0.800507
0.705295
0.503343
0.138705
0.145238
0.766297
0.826593
0.701908
0.466681
0.300274
0.257587
0.209861
0.102105
0.08795
0.541387
0.590189
0.59193
0.598153
0.606745
0.609806
0.600518
0.579268
0.548092
0.473731
0.562084
0.939824
0.949695
0.798129
0.621033
0.577094
0.620495
0.678752
0.649362
0.604126
0.582938
0.567734
0.510814
0.308925
0.0503093
0.652904
0.829177
0.758163
0.543443
0.336098
0.266108
0.230577
0.122166
0.10585
0.234771
0.544828
0.591855
0.597772
0.603884
0.608307
0.610243
0.600327
0.581934
0.550423
0.496205
0.320659
0.791494
0.9571
0.934537
0.700872
0.664769
0.598156
0.683417
0.706754
0.677267
0.643493
0.622203
0.575786
0.426762
0.111501
0.441472
0.810781
0.79673
0.618942
0.385345
0.278549
0.242459
0.152276
0.120826
0.257966
0.37649
0.549708
0.595414
0.602871
0.607354
0.607696
0.609074
0.599628
0.581818
0.550167
0.497907
0.400755
0.185322
0.899305
0.961937
0.899595
0.385365
0.425632
0.568823
0.687274
0.682978
0.651688
0.629001
0.5961
0.483086
0.161462
0.172643
0.761668
0.818332
0.686873
0.44724
0.2982
0.249726
0.176004
0.145507
0.271776
0.398493
0.475943
0.562122
0.601629
0.607708
0.60791
0.605903
0.607414
0.599701
0.579716
0.546527
0.496319
0.427707
0.343626
0.520691
0.943707
0.957049
0.826355
0.23905
0.290199
0.619133
0.679057
0.655259
0.623777
0.600609
0.529725
0.29721
0.0213525
0.659971
0.823328
0.74179
0.517882
0.328794
0.254268
0.196794
0.170461
0.291289
0.4058
0.491588
0.533044
0.57277
0.608687
0.611472
0.607517
0.60443
0.606323
0.60031
0.577507
0.542684
0.494522
0.440646
0.397271
0.172028
0.804941
0.960426
0.936212
0.629228
0.0727498
0.466676
0.662106
0.668882
0.63269
0.604422
0.562294
0.398234
0.0564062
0.474822
0.809424
0.781595
0.590562
0.371624
0.261226
0.20933
0.198075
0.310714
0.418084
0.493431
0.544267
0.563767
0.579498
0.611498
0.608741
0.603464
0.601802
0.606059
0.600754
0.575925
0.541617
0.491724
0.450701
0.414204
0.293259
0.149991
0.914204
0.962413
0.876822
0.286938
0.258804
0.599486
0.676264
0.648141
0.611751
0.582194
0.482229
0.170968
0.214227
0.769485
0.806281
0.658152
0.426099
0.275423
0.214221
0.226084
0.330715
0.429692
0.500105
0.543461
0.57281
0.574055
0.582429
0.610852
0.602159
0.597376
0.600346
0.606026
0.601021
0.575823
0.542757
0.490855
0.452566
0.424675
0.327202
0.130433
0.635061
0.95196
0.951152
0.723847
0.191442
0.43827
0.659028
0.66304
0.621534
0.593311
0.535109
0.306573
0.0132063
0.686744
0.816158
0.715088
0.489692
0.299427
0.214978
0.253354
0.350846
0.441457
0.505737
0.547498
0.570367
0.582763
0.567665
0.58172
0.608498
0.59537
0.594517
0.601016
0.60657
0.601189
0.577399
0.54443
0.491251
0.454627
0.418041
0.347996
0.231606
0.0187634
0.86798
0.9617
0.914202
0.409763
0.165598
0.58844
0.669481
0.636196
0.60142
0.567573
0.417535
0.0560929
0.535244
0.809863
0.758676
0.55731
0.334686
0.218368
0.278068
0.370825
0.453366
0.511487
0.550607
0.572854
0.57929
0.576936
0.546346
0.577078
0.605865
0.590987
0.595105
0.603358
0.607778
0.600254
0.579111
0.545433
0.492244
0.458272
0.410149
0.341191
0.279129
0.105368
0.443631
0.939734
0.955064
0.800233
0.0703069
0.408572
0.65338
0.653442
0.612091
0.586076
0.496056
0.180268
0.302237
0.783007
0.788458
0.622573
0.382533
0.227959
0.298848
0.390469
0.465081
0.517271
0.553857
0.574488
0.581029
0.572894
0.557118
0.504955
0.569393
0.599639
0.589895
0.597476
0.605291
0.607502
0.600346
0.58347
0.544696
0.493012
0.463688
0.405114
0.325886
0.289815
0.180371
0.0344232
0.815119
0.958659
0.923119
0.477648
0.106864
0.588044
0.665805
0.627572
0.598118
0.545716
0.311435
0.0554932
0.725125
0.804765
0.680189
0.441166
0.246077
0.316566
0.409351
0.476563
0.523259
0.556928
0.576341
0.581811
0.574569
0.553291
0.515727
0.466461
0.570517
0.59806
0.592182
0.600248
0.60612
0.605309
0.599256
0.584987
0.539587
0.492857
0.469493
0.403764
0.314503
0.27934
0.206406
0.0725461
0.316301
0.928142
0.955382
0.820279
0.0923056
0.419578
0.659952
0.646907
0.608962
0.574175
0.427531
0.0358197
0.618064
0.807315
0.727018
0.505795
0.27598
0.333371
0.426117
0.488004
0.529602
0.559864
0.578072
0.582818
0.575183
0.555294
0.512298
0.472649
0.467465
0.57791
0.602019
0.600826
0.605748
0.606315
0.602737
0.597954
0.582911
0.530959
0.489977
0.473032
0.403499
0.311901
0.266053
0.197072
0.130262
0.000984637
0.778491
0.955395
0.925161
0.546091
0.125526
0.61376
0.664377
0.622236
0.591265
0.499046
0.168197
0.441297
0.793924
0.761895
0.570274
0.319731
0.349029
0.442084
0.499655
0.536247
0.562664
0.579672
0.583767
0.575982
0.55596
0.51523
0.469561
0.468763
0.490574
0.586939
0.607373
0.60686
0.607749
0.604361
0.600666
0.597385
0.579414
0.52075
0.487454
0.47739
0.401041
0.313367
0.261515
0.17183
0.153269
0.0598599
0.300189
0.922215
0.952818
0.816655
0.135475
0.486791
0.669313
0.639512
0.601822
0.548065
0.303842
0.208227
0.759092
0.784731
0.629398
0.376436
0.364478
0.456726
0.511364
0.543539
0.565394
0.581065
0.584745
0.576701
0.556708
0.517089
0.471847
0.464677
0.491386
0.508202
0.600442
0.615188
0.608865
0.606608
0.601132
0.599077
0.597724
0.576605
0.512053
0.484518
0.471994
0.386183
0.312252
0.260374
0.149772
0.157466
0.106406
0.0715035
0.774065
0.953023
0.917642
0.460677
0.237223
0.644569
0.658043
0.612171
0.575766
0.416
0.00913023
0.692402
0.795387
0.67997
0.441558
0.380073
0.470314
0.523398
0.550805
0.568125
0.582222
0.585713
0.577469
0.557331
0.519039
0.473435
0.463404
0.487149
0.512932
0.505784
0.606898
0.621065
0.60892
0.605433
0.598747
0.598041
0.600795
0.575552
0.507026
0.481299
0.464185
0.367199
0.297718
0.252121
0.13702
0.136926
0.140033
0.0964339
0.321669
0.923287
0.94832
0.786699
0.0235423
0.559672
0.67057
0.626118
0.59199
0.4946
0.10592
0.57867
0.792787
0.720657
0.507736
0.397302
0.483145
0.535633
0.558123
0.570883
0.583168
0.586638
0.578294
0.557911
0.520706
0.474939
0.461504
0.484908
0.51077
0.515074
0.488922
0.607235
0.620486
0.602938
0.600012
0.598581
0.599186
0.602791
0.57325
0.507881
0.481177
0.449608
0.341747
0.274856
0.22863
0.12215
0.120253
0.137661
0.136215
0.0409425
0.799571
0.951182
0.901013
0.371876
0.363288
0.664854
0.644438
0.601994
0.546362
0.257164
0.403878
0.774683
0.750294
0.568673
0.41832
0.496433
0.547912
0.565132
0.573741
0.58399
0.58747
0.579175
0.558467
0.522143
0.476126
0.459626
0.482294
0.510494
0.515726
0.499767
0.469688
0.606978
0.617966
0.597164
0.597223
0.597531
0.600715
0.605831
0.576335
0.509916
0.485573
0.435998
0.310209
0.245534
0.196333
0.10329
0.112817
0.119226
0.178369
0.0572524
0.376695
0.92912
0.940142
0.710976
0.0718116
0.620983
0.662752
0.613286
0.575413
0.38065
0.158513
0.735812
0.767843
0.624775
0.448918
0.511025
0.559551
0.571714
0.576702
0.584838
0.588171
0.580073
0.559022
0.52333
0.477119
0.457787
0.479743
0.509567
0.519036
0.501446
0.481024
0.451481
0.603983
0.616973
0.59554
0.597013
0.599736
0.601547
0.608113
0.578598
0.518171
0.497636
0.429779
0.283649
0.214712
0.160281
0.0829769
0.119105
0.118892
0.178929
0.153178
0.00307571
0.840639
0.948829
0.868534
0.191042
0.503335
0.672767
0.628956
0.589323
0.480587
0.0244593
0.666599
0.773785
0.673005
0.490861
0.527062
0.570264
0.577782
0.579775
0.585864
0.588737
0.580921
0.55962
0.52429
0.477882
0.455974
0.477164
0.508452
0.521653
0.506772
0.482301
0.464111
0.433167
0.608597
0.61569
0.596137
0.597324
0.599987
0.601871
0.608799
0.579444
0.525305
0.508456
0.430996
0.274744
0.194669
0.123263
0.0632415
0.121995
0.135095
0.173037
0.199942
0.0768778
0.518209
0.936492
0.92559
0.58913
0.2726
0.661544
0.647979
0.600101
0.537086
0.201607
0.551787
0.767331
0.70898
0.540521
0.54248
0.578999
0.583469
0.583
0.587152
0.589182
0.581611
0.560256
0.525036
0.478424
0.454162
0.474545
0.507066
0.524
0.511644
0.487267
0.464747
0.447592
0.414525
0.616517
0.621058
0.600121
0.597564
0.59904
0.601182
0.607884
0.578555
0.528878
0.519936
0.433219
0.29022
0.191612
0.0980897
0.0362153
0.102179
0.144888
0.160061
0.208791
0.162314
0.0304387
0.884778
0.94356
0.807392
0.0116382
0.608802
0.666177
0.61157
0.567936
0.361162
0.374088
0.74623
0.732992
0.593865
0.55448
0.585294
0.589069
0.586413
0.588697
0.589574
0.582053
0.560912
0.525591
0.478679
0.45234
0.471924
0.505456
0.525896
0.516463
0.491853
0.468973
0.447778
0.430944
0.395789
0.622817
0.626031
0.604003
0.597055
0.598533
0.601121
0.605527
0.574473
0.53329
0.527574
0.4397
0.308923
0.21423
0.0982475
0.00140238
0.0541225
0.123528
0.145448
0.174137
0.188772
0.0505316
0.709097
0.941281
0.897663
0.362098
0.482633
0.675504
0.626784
0.585883
0.467426
0.154653
0.70623
0.746051
0.644695
0.565028
0.590344
0.595008
0.590032
0.590385
0.589997
0.582203
0.561523
0.526006
0.478613
0.450546
0.469374
0.503743
0.527236
0.521065
0.496674
0.472772
0.451824
0.430637
0.414208
0.377425
0.631343
0.628825
0.6041
0.595465
0.596249
0.60173
0.603622
0.572114
0.531455
0.528223
0.445272
0.335464
0.243296
0.132701
0.0269381
0.00894829
0.0633061
0.121437
0.133056
0.171207
0.0954409
0.272956
0.914957
0.931774
0.684291
0.256577
0.664061
0.645211
0.598644
0.535991
0.243031
0.642539
0.749376
0.680865
0.577436
0.59485
0.601526
0.593793
0.592051
0.590481
0.582097
0.56199
0.526313
0.478226
0.448815
0.466936
0.50201
0.528217
0.525651
0.501875
0.476929
0.455496
0.434548
0.413388
0.397626
0.360035
0.630312
0.630998
0.602396
0.594096
0.595425
0.605156
0.602766
0.569679
0.530229
0.525306
0.428876
0.352315
0.273118
0.162386
0.0977043
0.0402815
0.0168183
0.083938
0.109441
0.124064
0.14436
0.0116388
0.829797
0.940435
0.839837
0.0307995
0.614169
0.663662
0.611566
0.569495
0.420267
0.558283
0.741333
0.708066
0.597951
0.598957
0.608329
0.597527
0.593534
0.591013
0.581832
0.562192
0.526494
0.477566
0.447217
0.464646
0.500291
0.528935
0.530132
0.507902
0.481644
0.459565
0.438205
0.417177
0.39626
0.381515
0.344155
0.630352
0.628461
0.597659
0.593287
0.595385
0.607988
0.60258
0.570147
0.529065
0.511742
0.413016
0.350212
0.289993
0.19016
0.116314
0.107258
0.0404672
0.0439878
0.101294
0.0911689
0.153922
0.0614325
0.569896
0.931244
0.905323
0.437869
0.499212
0.675705
0.626678
0.594104
0.534064
0.472802
0.720003
0.727486
0.626748
0.608837
0.615015
0.601056
0.594755
0.591542
0.581591
0.56207
0.526494
0.476743
0.445778
0.462518
0.49857
0.52943
0.534378
0.514128
0.486811
0.463937
0.442319
0.420781
0.399861
0.379571
0.366223
0.330345
0.631047
0.627637
0.595609
0.593135
0.595374
0.610221
0.604083
0.570423
0.531021
0.500179
0.391919
0.335148
0.288281
0.195295
0.0953081
0.142087
0.0843668
0.0314521
0.0890621
0.0838142
0.132467
0.135377
0.0925174
0.89405
0.930634
0.714839
0.289933
0.671507
0.644349
0.614899
0.600835
0.457358
0.688121
0.73965
0.661645
0.618254
0.620261
0.604232
0.595768
0.591987
0.581444
0.561624
0.526206
0.475943
0.444567
0.460552
0.496885
0.529735
0.538252
0.5202
0.492176
0.468263
0.44663
0.424856
0.403369
0.382925
0.363679
0.352122
0.319076
0.635988
0.626874
0.594353
0.594098
0.59566
0.611339
0.604946
0.57297
0.539777
0.49272
0.375715
0.31269
0.263767
0.197829
0.0542132
0.0947334
0.114854
0.0350411
0.0631182
0.0935004
0.108058
0.179212
0.0448146
0.786285
0.935272
0.845834
0.0441566
0.637606
0.664052
0.634508
0.639628
0.521026
0.651516
0.742588
0.693742
0.628144
0.623439
0.606999
0.596716
0.59231
0.58137
0.560998
0.525573
0.475311
0.443553
0.45872
0.495219
0.529948
0.541626
0.526084
0.497656
0.472569
0.45085
0.429028
0.407288
0.386263
0.366744
0.349036
0.33959
0.310573
0.642582
0.629299
0.590625
0.594688
0.596543
0.612045
0.605127
0.574879
0.544754
0.49077
0.375421
0.296022
0.229752
0.19663
0.0717189
0.0112234
0.0978707
0.0393326
0.0254285
0.104382
0.103133
0.17606
0.118127
0.496279
0.922863
0.903399
0.452695
0.556389
0.681429
0.652284
0.668468
0.597955
0.621434
0.7375
0.716952
0.637594
0.624386
0.609659
0.59775
0.592474
0.581222
0.560405
0.524554
0.474809
0.442613
0.456966
0.493541
0.530089
0.54474
0.531983
0.503651
0.477056
0.454972
0.433088
0.411261
0.389949
0.369781
0.351746
0.336074
0.329033
0.30497
0.647959
0.630908
0.587422
0.595126
0.597499
0.611809
0.60525
0.575711
0.548617
0.490488
0.387673
0.294528
0.197776
0.173025
0.122957
0.0207998
0.037699
0.0665422
0.00558802
0.0962803
0.115453
0.144744
0.167872
0.0575821
0.882327
0.925908
0.71395
0.401829
0.689134
0.670954
0.690739
0.651147
0.601533
0.725131
0.733369
0.6526
0.625384
0.612484
0.598909
0.592458
0.580849
0.559954
0.523117
0.474082
0.441548
0.455267
0.491923
0.530105
0.547658
0.537762
0.510609
0.482071
0.459277
0.43716
0.415181
0.393675
0.373151
0.354375
0.338293
0.325183
0.320807
0.30251
0.651114
0.630646
0.582233
0.595246
0.600802
0.611132
0.605571
0.574982
0.547928
0.490595
0.404469
0.311163
0.183968
0.138889
0.117943
0.0718458
0.000202674
0.0765608
0.0162347
0.0587382
0.125198
0.112288
0.174568
0.0583267
0.775102
0.930025
0.837864
0.0821112
0.679554
0.690566
0.708056
0.68903
0.609683
0.709017
0.742208
0.672885
0.630547
0.615366
0.599945
0.592236
0.580186
0.559618
0.521563
0.472899
0.440367
0.453684
0.490449
0.530019
0.550378
0.543332
0.51767
0.48752
0.463837
0.441492
0.419196
0.397401
0.376581
0.35732
0.340432
0.326816
0.316684
0.315236
0.303067
0.655062
0.631655
0.576776
0.595635
0.603215
0.610645
0.606083
0.57477
0.54404
0.484773
0.418111
0.33114
0.195626
0.129002
0.0722342
0.0946638
0.0267554
0.046657
0.0569755
0.00618707
0.11217
0.0941809
0.139209
0.137882
0.510625
0.918203
0.894821
0.361434
0.644692
0.709639
0.723014
0.715379
0.640937
0.693963
0.745267
0.697073
0.636978
0.61743
0.600485
0.591826
0.579257
0.559223
0.520223
0.471008
0.439067
0.452298
0.489117
0.529912
0.552834
0.548589
0.524612
0.493106
0.468252
0.446069
0.4235
0.401288
0.380072
0.360384
0.342935
0.328354
0.317704
0.310903
0.312426
0.306388
0.663382
0.633643
0.575492
0.596221
0.605162
0.610359
0.607004
0.575454
0.535559
0.478031
0.425772
0.340462
0.211794
0.150156
0.057876
0.0526008
0.0742688
0.00664418
0.10803
0.0170864
0.0684671
0.0978304
0.0943682
0.186505
0.0886457
0.88263
0.918637
0.674071
0.579303
0.724778
0.736387
0.734991
0.676189
0.680647
0.743939
0.718993
0.646396
0.617844
0.600299
0.591325
0.57824
0.558647
0.519284
0.468316
0.43738
0.450864
0.48784
0.529801
0.55513
0.553372
0.531485
0.498861
0.472701
0.450565
0.428085
0.405557
0.383765
0.36351
0.345491
0.330282
0.318611
0.311206
0.307966
0.312507
0.312462
0.671693
0.640086
0.576105
0.595557
0.606992
0.61026
0.608801
0.577882
0.527649
0.473782
0.427426
0.347002
0.213501
0.14579
0.0790196
0.0130508
0.0936522
0.00590417
0.0865685
0.073873
0.0159295
0.10855
0.0679692
0.182658
0.0619235
0.798554
0.924492
0.814113
0.458262
0.732254
0.749136
0.750316
0.707955
0.677739
0.738153
0.734808
0.657
0.616692
0.599484
0.590821
0.577309
0.557851
0.51855
0.465059
0.434997
0.448957
0.486582
0.529558
0.557342
0.557742
0.538418
0.505427
0.477451
0.455066
0.432614
0.410014
0.3878
0.366879
0.348131
0.332268
0.319776
0.311351
0.307455
0.30784
0.315432
0.320905
0.678569
0.646091
0.579464
0.594374
0.607513
0.610767
0.610484
0.578459
0.521578
0.471248
0.428445
0.342756
0.212858
0.133513
0.0852885
0.0101564
0.066357
0.0419572
0.0380287
0.115171
0.00155817
0.100581
0.0713288
0.147304
0.151636
0.606976
0.916121
0.879601
0.217085
0.730136
0.761224
0.762926
0.732521
0.685105
0.729039
0.742774
0.67151
0.615849
0.598249
0.590315
0.57657
0.556828
0.517533
0.461444
0.431397
0.446064
0.485168
0.529154
0.559342
0.561801
0.545052
0.513044
0.482487
0.459193
0.436431
0.413902
0.391765
0.37052
0.351085
0.334443
0.32114
0.311843
0.306816
0.306541
0.310645
0.320985
0.331267
0.684808
0.651186
0.581761
0.593323
0.607125
0.612933
0.609947
0.57806
0.514715
0.47645
0.431874
0.336295
0.211746
0.132109
0.0698379
0.0462702
0.0239963
0.0695407
0.00403736
0.0960636
0.0467645
0.0618464
0.0998893
0.0926745
0.19551
0.228264
0.890851
0.905476
0.567679
0.719448
0.771956
0.773872
0.751297
0.698864
0.715956
0.747198
0.691019
0.61712
0.59676
0.589602
0.575979
0.555606
0.515715
0.457213
0.426103
0.441835
0.48312
0.528673
0.560918
0.565684
0.551247
0.520591
0.487426
0.463219
0.440448
0.417688
0.395389
0.374048
0.354277
0.336885
0.322727
0.312442
0.30656
0.305115
0.308375
0.316018
0.328899
0.34334
0.692305
0.655334
0.584294
0.592052
0.606829
0.615617
0.609762
0.576521
0.508265
0.481628
0.441661
0.334604
0.206719
0.126471
0.0663053
0.041218
0.00591907
0.0582451
0.0409399
0.0299681
0.10658
0.0150707
0.12876
0.0564485
0.188687
0.0438911
0.834168
0.91528
0.768656
0.701109
0.780002
0.783543
0.766101
0.717602
0.705728
0.748822
0.710494
0.623682
0.594431
0.588474
0.575326
0.554061
0.51252
0.451322
0.418637
0.43616
0.479818
0.528057
0.56212
0.5692
0.557223
0.527456
0.492651
0.467077
0.444932
0.422271
0.399673
0.377859
0.357547
0.339443
0.324519
0.313244
0.306324
0.303952
0.306195
0.31289
0.323716
0.338833
0.356686
0.700195
0.659813
0.584755
0.591823
0.606403
0.618425
0.609093
0.572339
0.504604
0.487502
0.445781
0.335477
0.206904
0.125832
0.0746686
0.0170671
0.0247303
0.0177324
0.0932132
0.000239979
0.137138
0.0198049
0.12551
0.0545472
0.115473
0.202024
0.715165
0.912153
0.846687
0.627131
0.785191
0.792329
0.777853
0.734923
0.700136
0.746775
0.725218
0.629678
0.591115
0.58681
0.574246
0.551929
0.507257
0.442256
0.408197
0.428943
0.475023
0.526813
0.563019
0.572278
0.562693
0.5333
0.497714
0.471098
0.449728
0.427077
0.404153
0.381864
0.361041
0.34235
0.326531
0.314337
0.306378
0.303002
0.304124
0.309877
0.319894
0.333447
0.350382
0.370696
0.70763
0.664259
0.58612
0.593245
0.606205
0.621036
0.607439
0.567968
0.503695
0.491897
0.447381
0.329847
0.208949
0.129801
0.0835838
0.0179315
0.0417301
0.00443207
0.0613702
0.0218398
0.0957958
0.0842191
0.0826288
0.0802006
0.048575
0.274396
0.45305
0.89543
0.884354
0.588097
0.789203
0.800386
0.787327
0.7501
0.700597
0.737291
0.73497
0.639038
0.589191
0.5847
0.572162
0.548607
0.498944
0.428333
0.393271
0.419894
0.469238
0.524231
0.563602
0.575067
0.567211
0.53871
0.502064
0.475156
0.454142
0.431781
0.408879
0.386215
0.364772
0.345425
0.328839
0.315719
0.30667
0.302208
0.302377
0.307027
0.31606
0.328921
0.34481
0.363172
0.385027
0.714
0.669246
0.585838
0.597474
0.607323
0.62182
0.605335
0.563438
0.505086
0.497479
0.446665
0.316523
0.204814
0.13668
0.0881669
0.0307255
0.0360277
0.0362448
0.0140612
0.0593995
0.0463882
0.134127
0.0235995
0.112204
0.024253
0.284692
0.127165
0.858905
0.900005
0.708262
0.790576
0.806703
0.795056
0.762603
0.705663
0.723808
0.74218
0.655768
0.592185
0.581872
0.568189
0.543016
0.486303
0.407812
0.37201
0.408671
0.463098
0.52011
0.563374
0.577691
0.570841
0.544047
0.506747
0.479225
0.458067
0.436197
0.413631
0.390853
0.368857
0.348702
0.331357
0.31735
0.307276
0.301675
0.300669
0.304348
0.312457
0.324409
0.339649
0.357491
0.376723
0.399402
0.725594
0.675502
0.587969
0.601686
0.608818
0.62072
0.603172
0.558532
0.505494
0.503066
0.450967
0.301778
0.1883
0.143635
0.0895805
0.0324784
0.0337193
0.0428625
0.00330486
0.0459984
0.0150852
0.123488
0.0249844
0.124575
0.0206815
0.251127
0.4015
0.786645
0.902281
0.805148
0.773413
0.810379
0.801307
0.7727
0.713295
0.707751
0.745881
0.677032
0.597412
0.576838
0.561163
0.533666
0.467971
0.379253
0.343438
0.394299
0.456868
0.515213
0.561872
0.580004
0.573719
0.548681
0.51173
0.483263
0.461817
0.440226
0.418024
0.395444
0.373221
0.352421
0.334104
0.319177
0.308154
0.301455
0.299335
0.301887
0.308946
0.320088
0.334525
0.351736
0.370913
0.390511
0.413306
0.735481
0.687504
0.592186
0.605018
0.610274
0.618417
0.602267
0.557929
0.506073
0.504085
0.455934
0.297318
0.173227
0.139916
0.103721
0.0294703
0.0249793
0.0356024
0.0193298
0.0123668
0.0442405
0.0701673
0.11868
0.0988167
0.0884654
0.236552
0.527641
0.662591
0.893013
0.857148
0.746389
0.811566
0.806859
0.780963
0.722111
0.692083
0.745153
0.695907
0.599532
0.567775
0.550014
0.518694
0.44302
0.341758
0.307309
0.376055
0.450663
0.510705
0.559428
0.581346
0.576348
0.552562
0.51616
0.486473
0.465079
0.444165
0.422074
0.3997
0.377572
0.3564
0.337342
0.32138
0.309276
0.301471
0.298252
0.299644
0.305674
0.31581
0.329525
0.346214
0.36487
0.38479
0.404288
0.426477
0.745449
0.696246
0.600079
0.60685
0.609844
0.614388
0.602147
0.558955
0.506624
0.501341
0.454423
0.310819
0.162377
0.133992
0.102506
0.0526391
0.0157256
0.033747
0.0226734
0.0039242
0.0605319
0.016036
0.171476
0.0444801
0.2154
0.281024
0.584016
0.543494
0.86842
0.882602
0.725967
0.812358
0.811869
0.787719
0.731162
0.683894
0.738949
0.711645
0.600675
0.557512
0.534011
0.49608
0.411619
0.296617
0.265817
0.35531
0.444402
0.507553
0.556731
0.581216
0.578575
0.556229
0.520189
0.489119
0.467736
0.447693
0.426071
0.403759
0.381617
0.360416
0.340849
0.323924
0.310737
0.301816
0.297407
0.297706
0.302538
0.311666
0.324598
0.340635
0.358963
0.37858
0.398702
0.417598
0.438625
0.763085
0.705889
0.603072
0.60888
0.60927
0.610483
0.602135
0.559639
0.506742
0.497027
0.445584
0.315794
0.179951
0.139845
0.0871102
0.0851691
0.00981172
0.0466844
0.030585
0.00924081
0.0231528
0.0273193
0.170082
0.00846663
0.315343
0.343068
0.609932
0.601853
0.827127
0.893492
0.769162
0.80967
0.815087
0.79291
0.73952
0.679511
0.726448
0.724787
0.607712
0.55006
0.512392
0.464812
0.376346
0.249379
0.224293
0.335842
0.438749
0.505412
0.554334
0.58026
0.579743
0.559952
0.524353
0.491411
0.469874
0.450637
0.42978
0.407777
0.385548
0.364218
0.344326
0.326776
0.312522
0.302407
0.296851
0.295997
0.29967
0.30775
0.319828
0.335117
0.352954
0.372353
0.392425
0.412211
0.430107
0.449494
0.780012
0.722906
0.607224
0.607864
0.608718
0.608389
0.600472
0.558291
0.504289
0.499056
0.438572
0.308813
0.197984
0.141173
0.100152
0.067577
0.0514876
0.0571176
0.0478811
0.00476061
0.006468
0.0527731
0.0696798
0.094119
0.384853
0.42249
0.628909
0.690883
0.776657
0.892589
0.827229
0.80066
0.815398
0.796621
0.746881
0.679632
0.708585
0.730573
0.621287
0.543685
0.48429
0.427396
0.342384
0.210756
0.18055
0.309304
0.425836
0.502652
0.55296
0.578993
0.58031
0.562496
0.528772
0.493837
0.471608
0.452983
0.432861
0.411529
0.389543
0.367905
0.347736
0.329718
0.314673
0.303396
0.296606
0.294453
0.297082
0.304076
0.315153
0.329688
0.346955
0.366082
0.386128
0.406054
0.425051
0.441643
0.459139
0.768249
0.729553
0.614402
0.603084
0.603822
0.608637
0.599886
0.550805
0.496665
0.500834
0.44518
0.30556
0.192074
0.16481
0.105293
0.0568408
0.109549
0.018241
0.0846472
0.00642737
0.0117183
0.0158678
0.0140114
0.165175
0.440537
0.511129
0.667819
0.749907
0.758071
0.882376
0.863417
0.777684
0.811746
0.799307
0.753501
0.682018
0.685899
0.731255
0.640347
0.533435
0.452855
0.388951
0.315207
0.187487
0.150734
0.288287
0.415547
0.496086
0.551542
0.578311
0.581036
0.563375
0.53134
0.496697
0.473294
0.454912
0.435406
0.414685
0.393224
0.371696
0.351132
0.332606
0.316942
0.304776
0.296701
0.293344
0.294729
0.30064
0.310658
0.324384
0.340992
0.359818
0.379735
0.39984
0.419161
0.437019
0.452014
0.467407
0.96904
0.716388
0.602352
0.603806
0.591554
0.606568
0.602641
0.546416
0.485968
0.499767
0.449503
0.319241
0.180337
0.171346
0.0950731
0.127396
0.0799284
0.0562543
0.112943
0.0390906
0.0479809
0.02358
0.109539
0.18831
0.476833
0.602117
0.71197
0.784583
0.774208
0.863034
0.882978
0.756263
0.806327
0.801181
0.759467
0.685545
0.659626
0.725854
0.659282
0.527187
0.426603
0.345488
0.276377
0.172568
0.130014
0.267602
0.406251
0.492357
0.551201
0.580403
0.579844
0.565822
0.531636
0.498113
0.475245
0.456584
0.437507
0.417331
0.396379
0.375191
0.354564
0.335529
0.319227
0.306282
0.297154
0.292578
0.292574
0.297384
0.306367
0.319217
0.335127
0.353456
0.373235
0.393509
0.413199
0.431476
0.447854
0.461061
0.474361
0.867329
0.821505
0.53571
0.601219
0.591231
0.598477
0.603544
0.551472
0.484302
0.497328
0.444616
0.329264
0.181202
0.138062
0.147281
0.087312
0.0750601
0.166651
0.053619
0.158794
0.114328
0.0481163
0.174483
0.293526
0.551225
0.679669
0.755123
0.80863
0.801185
0.839338
0.891168
0.772528
0.797897
0.801932
0.764654
0.688646
0.630662
0.712287
0.678555
0.532462
0.408327
0.308298
0.246172
0.17841
0.129854
0.252775
0.396834
0.487314
0.548652
0.581064
0.584447
0.565801
0.53437
0.497998
0.475956
0.458115
0.439113
0.419466
0.399002
0.37823
0.357815
0.33859
0.321617
0.307844
0.297882
0.292111
0.290948
0.294352
0.302232
0.314112
0.329322
0.347078
0.3666
0.386876
0.406948
0.425864
0.442786
0.45742
0.468829
0.480072
0.546294
0.729857
0.868241
0.563836
0.578527
0.604214
0.595295
0.552669
0.494964