/*--------------------------------*- C++ -*----------------------------------*\
| =========                 |                                                 |
| \\      /  F ield         | OpenFOAM: The Open Source CFD Toolbox           |
|  \\    /   O peration     | Version:  v2012                                 |
|   \\  /    A nd           | Website:  www.openfoam.com                      |
|    \\/     M anipulation  |                                                 |
\*---------------------------------------------------------------------------*/
FoamFile
{
    version     2.0;
    format      ascii;
    class       volScalarField;
    location    "12000";
    object      Mg;
}
// * * * * * * * * * * * * * * * * * * * * * * * * * * * * * * * * * * * * * //

dimensions      [0 0 0 0 0 0 0];


internalField   nonuniform List<scalar> 
27324
(
0.00135876
0.00138444
0.00378924
0.00138383
0.00386173
0.00420938
0.00138876
0.00387167
0.0042073
0.00339234
0.00139116
0.00389451
0.00415662
0.00332042
0.00215931
0.00139182
0.00390702
0.00411217
0.00323013
0.00208163
0.0011613
0.00138911
0.0039072
0.00405613
0.00313844
0.00200465
0.00111601
0.000576393
0.00138769
0.0038911
0.00398654
0.00304308
0.00192292
0.00107367
0.000560446
0.000274672
0.00139157
0.00386811
0.00390457
0.00294375
0.00184234
0.00102551
0.000543606
0.000270858
0.00011764
0.00140035
0.00384847
0.0038184
0.00284333
0.00176299
0.000977135
0.000519425
0.00026602
0.000121514
5.14378e-05
0.0014106
0.00383167
0.00373612
0.0027466
0.00168728
0.000928577
0.000492824
0.000253237
0.000124992
6.08767e-05
3.13131e-05
0.00142022
0.00381196
0.003657
0.00265646
0.00161767
0.000881155
0.000463284
0.000238052
0.000121113
6.76439e-05
3.94739e-05
2.33863e-05
0.00142905
0.00378604
0.00357888
0.00257046
0.00155226
0.000837279
0.000432405
0.000220293
0.000115168
6.80653e-05
4.52608e-05
2.885e-05
1.96077e-05
0.00143709
0.00375431
0.00350241
0.0024855
0.00148617
0.000794784
0.000404033
0.000201804
0.0001071
6.6416e-05
4.67556e-05
3.29373e-05
2.25845e-05
1.66411e-05
0.00144281
0.00371662
0.00342863
0.00240009
0.00141528
0.000749348
0.000378871
0.000187402
9.80882e-05
6.28547e-05
4.65733e-05
3.51873e-05
2.46094e-05
1.79889e-05
1.38153e-05
0.00144744
0.00365757
0.00334974
0.00231262
0.00133841
0.000699165
0.000354182
0.000178158
9.23674e-05
5.81954e-05
4.52937e-05
3.60276e-05
2.72624e-05
1.84968e-05
1.44475e-05
1.08993e-05
0.00144301
0.00356823
0.00324474
0.00221574
0.00125783
0.000646656
0.000328906
0.000170769
9.07168e-05
5.5537e-05
4.31448e-05
3.61651e-05
2.84919e-05
2.09267e-05
1.40217e-05
1.15248e-05
8.19447e-06
0.00141286
0.0034393
0.00310636
0.00210607
0.00117374
0.00059806
0.000304594
0.000162712
9.04732e-05
5.57769e-05
4.17479e-05
3.55172e-05
2.93568e-05
2.27231e-05
1.57504e-05
1.08045e-05
9.1818e-06
6.31355e-06
0.00139659
0.00325712
0.00294686
0.00199485
0.00109182
0.000553576
0.000285065
0.000154108
8.88722e-05
5.74946e-05
4.2097e-05
3.45039e-05
2.96981e-05
2.38773e-05
1.78237e-05
1.1891e-05
8.46588e-06
7.31757e-06
6.08704e-06
0.00126598
0.00309676
0.00277448
0.00189663
0.00102382
0.000513377
0.000268656
0.000147125
8.59488e-05
5.80034e-05
4.39778e-05
3.42468e-05
2.89079e-05
2.47034e-05
1.92968e-05
1.35889e-05
9.15744e-06
6.86963e-06
5.96335e-06
7.9209e-06
0.00133295
0.00250538
0.00259757
0.00180823
0.000978258
0.000482041
0.000251704
0.000141227
8.23063e-05
5.70155e-05
4.51105e-05
3.54319e-05
2.81064e-05
2.41685e-05
2.00912e-05
1.51862e-05
1.0288e-05
7.38764e-06
5.80474e-06
6.19238e-06
1.07556e-05
0.00123271
0.00207125
0.00231461
0.00171085
0.000947276
0.000467604
0.000236549
0.000132023
7.92347e-05
5.36669e-05
4.47288e-05
3.63963e-05
2.82895e-05
2.31358e-05
1.98172e-05
1.59365e-05
1.1636e-05
7.94424e-06
6.12583e-06
4.84003e-06
8.13258e-06
1.25725e-05
0.000352349
0.0015909
0.00207141
0.00187861
0.000986206
0.00046584
0.000233179
0.000120947
7.25415e-05
5.14436e-05
4.13885e-05
3.60036e-05
2.86719e-05
2.24079e-05
1.88394e-05
1.58186e-05
1.23441e-05
8.72732e-06
6.18427e-06
4.92479e-06
4.57413e-06
1.14028e-05
1.12648e-05
0.000270894
0.000714643
0.00162989
0.00184963
0.00126866
0.00057954
0.000244225
0.000118717
6.27746e-05
4.67833e-05
4.02891e-05
3.26757e-05
2.80909e-05
2.21421e-05
1.74409e-05
1.5029e-05
1.2283e-05
9.27752e-06
6.30879e-06
4.95563e-06
4.3713e-06
6.84861e-06
1.30719e-05
8.09961e-06
0.000268077
0.000664512
0.000721471
0.00159933
0.00144647
0.000853105
0.000376807
0.000138728
5.89304e-05
4.02202e-05
3.71627e-05
3.22425e-05
2.50452e-05
2.16148e-05
1.65543e-05
1.35246e-05
1.17758e-05
9.31708e-06
6.68298e-06
5.24296e-06
4.52771e-06
4.58384e-06
1.00269e-05
1.21005e-05
6.90566e-06
0.000283677
0.000668857
0.000682843
0.000758705
0.00135641
0.00111367
0.000675982
0.000296951
9.56375e-05
3.47527e-05
3.25697e-05
3.01897e-05
2.44793e-05
1.9655e-05
1.6263e-05
1.22669e-05
1.08657e-05
9.08235e-06
7.09268e-06
5.39971e-06
4.3399e-06
3.25941e-06
7.99702e-06
1.1507e-05
1.55518e-05
2.91122e-05
0.000294075
0.000696514
0.000685141
0.000748431
0.000611342
0.00107963
0.000885633
0.000614584
0.000292176
8.89693e-05
3.19374e-05
2.44281e-05
2.38238e-05
1.84071e-05
1.59738e-05
1.20778e-05
9.35835e-06
8.88061e-06
7.00458e-06
5.2264e-06
3.34654e-06
1.98382e-06
5.26503e-06
1.36183e-05
2.09053e-05
3.49285e-05
4.99751e-05
0.000300364
0.000701099
0.000683735
0.000748901
0.000619024
0.000417581
0.000868901
0.000724833
0.000588368
0.000337173
0.000115075
3.69033e-05
1.80886e-05
1.68386e-05
1.29034e-05
1.22589e-05
8.01149e-06
7.22791e-06
5.92449e-06
4.93362e-06
1.44947e-06
2.36606e-06
8.38332e-06
1.85576e-05
2.47509e-05
3.00104e-05
3.31549e-05
2.99702e-05
0.000299919
0.000698566
0.000658838
0.000730483
0.000629829
0.000413162
0.000338823
0.000713482
0.000585098
0.000547773
0.00038604
0.000168134
5.69154e-05
2.28076e-05
1.38079e-05
8.70946e-06
7.75954e-06
3.88931e-06
4.92394e-06
3.46323e-06
5.31843e-06
1.10717e-05
1.86065e-05
2.51048e-05
2.63952e-05
2.43013e-05
1.86881e-05
9.78212e-06
9.9219e-06
0.000293998
0.000684994
0.00063817
0.000702578
0.00061658
0.000441027
0.000229476
0.000396054
0.000572637
0.000434458
0.000461372
0.00039812
0.000231246
0.000106317
5.01135e-05
2.73519e-05
1.83344e-05
1.32843e-05
1.26489e-05
1.52972e-05
2.05779e-05
2.60135e-05
2.94988e-05
2.85128e-05
2.28692e-05
1.72234e-05
1.13233e-05
7.46401e-06
9.94451e-06
1.37903e-05
0.000285837
0.000664243
0.000616606
0.000684364
0.000610316
0.000441702
0.000268795
0.000104303
0.000482972
0.000425843
0.000276831
0.000330161
0.000342794
0.000263148
0.000165656
0.000102077
6.78168e-05
5.12934e-05
4.37597e-05
4.04659e-05
3.95898e-05
3.7361e-05
3.27228e-05
2.38872e-05
1.50448e-05
1.2651e-05
9.84912e-06
7.53175e-06
8.73538e-06
1.48949e-05
1.94226e-05
0.000276455
0.000641174
0.000598285
0.000670813
0.000604696
0.000444447
0.000276647
0.000139087
0.000107211
0.000543267
0.000285594
0.000152267
0.000182282
0.000213642
0.00020413
0.000162967
0.000120327
8.9475e-05
6.95926e-05
5.61177e-05
4.57007e-05
3.51233e-05
2.37907e-05
1.3017e-05
7.11789e-06
1.04929e-05
1.0718e-05
8.13161e-06
8.17562e-06
1.17315e-05
2.24751e-05
2.55368e-05
0.000265874
0.00061793
0.000585472
0.000664095
0.000602272
0.000443179
0.000274333
0.000149702
7.32329e-05
0.000181115
0.000541181
0.000171167
5.7929e-05
6.49148e-05
8.33733e-05
9.36436e-05
8.81546e-05
7.33143e-05
5.69889e-05
4.23109e-05
3.0144e-05
1.92405e-05
1.04541e-05
4.23878e-06
2.40104e-06
8.63867e-06
1.11807e-05
8.83239e-06
8.09511e-06
1.07322e-05
1.89544e-05
3.11291e-05
2.21183e-05
0.00025595
0.000598392
0.000579499
0.000665109
0.000600956
0.000442184
0.000272108
0.000153244
8.87647e-05
3.68401e-05
0.000285073
0.000454176
0.000100043
3.96636e-06
1.0247e-05
1.68863e-05
2.24127e-05
2.30785e-05
1.98902e-05
1.51201e-05
1.01411e-05
5.91589e-06
2.66777e-06
6.2755e-07
5.0896e-07
6.14556e-06
1.1067e-05
9.85998e-06
8.42204e-06
9.904e-06
1.73563e-05
2.87027e-05
3.3896e-05
5.64313e-05
0.000250689
0.000586167
0.000581453
0.000671874
0.000598218
0.000439191
0.000269482
0.000154431
9.49494e-05
5.48809e-05
4.10929e-05
0.000377896
0.000319518
5.79584e-05
1.51179e-05
8.5882e-06
7.59358e-06
8.05235e-06
6.21935e-06
4.62564e-06
3.70812e-06
3.01906e-06
2.17716e-06
9.79671e-07
2.41536e-07
3.58551e-06
1.00797e-05
1.07722e-05
9.09007e-06
9.54147e-06
1.54341e-05
2.75573e-05
3.4686e-05
6.23335e-05
0.000187597
0.00025076
0.000583966
0.000587927
0.000677314
0.000591191
0.000433481
0.000266169
0.000154278
9.49993e-05
5.86676e-05
2.48935e-05
9.44533e-05
0.00041389
0.00018594
2.72423e-05
1.3752e-05
7.12795e-06
7.84386e-06
7.14688e-06
5.3451e-06
4.10974e-06
3.44534e-06
2.70179e-06
1.51581e-06
3.79548e-07
1.66659e-06
8.22673e-06
1.12977e-05
9.94815e-06
9.5369e-06
1.38359e-05
2.52475e-05
3.66415e-05
6.39504e-05
0.000191421
0.000483349
0.000252256
0.000586564
0.000591925
0.000675351
0.000579146
0.000425356
0.000262617
0.000152616
9.4173e-05
5.86264e-05
3.24032e-05
9.22312e-06
0.00017277
0.000359519
8.87154e-05
6.85732e-06
4.23512e-06
5.24889e-06
6.8224e-06
5.55324e-06
4.23045e-06
3.53658e-06
2.96809e-06
1.94673e-06
5.72657e-07
5.85597e-07
5.87576e-06
1.11022e-05
1.08607e-05
9.85544e-06
1.2656e-05
2.25291e-05
3.66625e-05
6.77156e-05
0.000189466
0.000477094
0.00104375
0.00026029
0.000594659
0.000593777
0.000664351
0.000564755
0.000416694
0.000259903
0.000149985
9.23428e-05
5.80005e-05
3.51399e-05
2.05048e-05
2.27195e-05
0.000254663
0.000240413
3.57282e-05
2.32162e-06
2.24438e-06
5.56217e-06
5.82029e-06
4.54851e-06
3.62658e-06
3.12363e-06
2.34187e-06
1.05151e-06
1.36233e-07
3.58115e-06
1.00693e-05
1.15941e-05
1.04318e-05
1.19536e-05
1.97833e-05
3.57356e-05
6.94703e-05
0.000190104
0.000465338
0.00100471
0.00194128
0.000266384
0.000603495
0.000591495
0.000650157
0.00055154
0.000409266
0.000257706
0.00014741
9.05812e-05
5.7463e-05
3.6554e-05
2.41386e-05
8.04198e-06
6.49246e-05
0.000284206
0.000122349
1.06515e-05
8.90731e-07
3.36317e-06
5.59116e-06
4.91788e-06
3.82838e-06
3.22734e-06
2.67157e-06
1.49546e-06
2.84234e-07
1.79985e-06
8.31785e-06
1.18896e-05
1.11691e-05
1.16809e-05
1.74601e-05
3.33152e-05
7.06892e-05
0.000188428
0.00045228
0.000967022
0.00185358
0.00324209
0.000268154
0.00060059
0.000573078
0.000626961
0.000536563
0.000403399
0.000255399
0.000145297
8.97912e-05
5.68288e-05
3.77808e-05
2.54237e-05
1.27657e-05
4.38562e-06
0.000128268
0.00023008
4.77156e-05
3.18549e-06
1.56279e-06
4.45984e-06
5.14939e-06
4.10666e-06
3.34197e-06
2.88554e-06
1.99336e-06
6.15007e-07
6.95008e-07
6.15512e-06
1.15332e-05
1.19199e-05
1.1764e-05
1.57596e-05
2.99093e-05
7.07831e-05
0.000184955
0.000438231
0.000925064
0.00177862
0.0030935
0.00491935
0.000265729
0.000588282
0.000546698
0.000600399
0.000524795
0.000398137
0.000253046
0.000144112
8.97552e-05
5.65918e-05
3.80902e-05
2.62608e-05
1.42674e-05
4.64554e-06
2.29756e-05
0.000186189
0.000133316
1.45881e-05
1.38702e-06
2.56516e-06
4.89042e-06
4.42206e-06
3.50503e-06
3.02478e-06
2.38882e-06
1.06262e-06
1.00477e-07
3.99015e-06
1.04597e-05
1.24758e-05
1.21283e-05
1.46368e-05
2.62737e-05
6.96374e-05
0.000180544
0.000422655
0.000883039
0.00169696
0.00297639
0.00469568
0.0069034
0.000259717
0.000572094
0.000521925
0.000583265
0.000518004
0.000394094
0.000250838
0.000143955
8.99461e-05
5.66095e-05
3.84224e-05
2.57795e-05
1.52743e-05
7.51425e-06
1.11367e-06
6.31993e-05
0.000182101
5.57803e-05
3.25347e-06
8.83832e-07
3.82348e-06
4.61891e-06
3.75434e-06
3.13854e-06
2.68349e-06
1.55473e-06
2.60243e-07
2.20131e-06
8.79899e-06
1.26106e-05
1.266e-05
1.4012e-05
2.32147e-05
6.70079e-05
0.000174553
0.000405955
0.000841377
0.00161665
0.00284896
0.00454345
0.00657836
0.00912505
0.000250606
0.000556232
0.000504189
0.000575078
0.000515068
0.000391311
0.000247909
0.000144045
8.99843e-05
5.67541e-05
3.89461e-05
2.52402e-05
1.50397e-05
8.97856e-06
2.77412e-06
9.44299e-06
0.000116174
0.000117837
1.69819e-05
4.56974e-07
2.09772e-06
4.40679e-06
4.06212e-06
3.28202e-06
2.87098e-06
2.02398e-06
6.06936e-07
9.83031e-07
6.80281e-06
1.21601e-05
1.31882e-05
1.38439e-05
2.08707e-05
6.28347e-05
0.000167558
0.000387433
0.000800321
0.00153762
0.00272443
0.00436985
0.0064045
0.00869082
0.0113467
0.000239488
0.000534672
0.000494276
0.000571221
0.000511467
0.000386546
0.000246124
0.000145725
8.95376e-05
5.68626e-05
3.96902e-05
2.4943e-05
1.44794e-05
9.53447e-06
4.29222e-06
1.12923e-06
3.37608e-05
0.000133831
5.1942e-05
3.92369e-06
5.59122e-07
3.51e-06
4.30863e-06
3.48941e-06
3.00082e-06
2.40278e-06
1.03627e-06
2.53186e-07
4.76214e-06
1.10871e-05
1.35215e-05
1.40141e-05
1.91857e-05
5.76678e-05
0.000159314
0.000367194
0.00075984
0.00145995
0.00260209
0.00420235
0.00618628
0.00851225
0.0107788
0.0148495
0.000236655
0.000524623
0.000491188
0.000568054
0.00050545
0.000379076
0.000243368
0.000145952
8.78256e-05
5.67948e-05
4.04762e-05
2.49172e-05
1.41424e-05
9.43522e-06
5.05e-06
1.57563e-06
4.70439e-06
7.55089e-05
9.52003e-05
1.59457e-05
6.69348e-07
2.03618e-06
4.24167e-06
3.76502e-06
3.12414e-06
2.66099e-06
1.55216e-06
1.81385e-07
2.95274e-06
9.51625e-06
1.34683e-05
1.43544e-05
1.81673e-05
5.2233e-05
0.000149028
0.000346896
0.000719979
0.00138394
0.00248163
0.00403865
0.00598157
0.00824418
0.010573
0.0140947
0.0223103
0.000239295
0.000526398
0.000499755
0.000570161
0.000497741
0.000371063
0.000240436
0.00014433
8.5155e-05
5.62126e-05
4.09406e-05
2.49373e-05
1.41609e-05
9.23531e-06
5.01512e-06
2.62738e-06
1.10406e-07
2.10381e-05
9.82861e-05
4.30906e-05
3.55384e-06
6.81206e-07
3.56993e-06
4.03828e-06
3.28602e-06
2.83769e-06
1.98672e-06
5.48997e-07
1.57347e-06
7.66858e-06
1.28996e-05
1.4666e-05
1.77456e-05
4.66625e-05
0.000137954
0.000325976
0.000680176
0.00130985
0.00236313
0.00387863
0.00578304
0.00799263
0.0102702
0.0137257
0.0214316
0.0332059
0.000243088
0.000530393
0.000502307
0.000563825
0.000485688
0.000363508
0.000238048
0.000142055
8.22079e-05
5.57328e-05
4.15284e-05
2.47401e-05
1.42967e-05
9.2165e-06
4.67451e-06
3.16004e-06
1.30122e-06
3.19575e-06
5.46856e-05
7.27622e-05
1.29207e-05
5.93553e-07
2.28529e-06
4.12104e-06
3.51702e-06
2.95939e-06
2.36217e-06
9.77975e-07
6.70659e-07
5.76385e-06
1.17902e-05
1.47626e-05
1.77428e-05
4.13402e-05
0.00012612
0.000304312
0.000641408
0.00123771
0.00224681
0.0037223
0.00559167
0.00774785
0.0100005
0.0133063
0.0207548
0.032519
0.044109
0.000250234
0.000537774
0.000495706
0.000550261
0.000471459
0.00035632
0.000236166
0.0001402
7.98756e-05
5.52269e-05
4.07747e-05
2.35204e-05
1.42574e-05
9.21437e-06
4.31439e-06
3.36605e-06
1.97669e-06
1.13194e-06
1.61291e-05
7.45167e-05
3.24338e-05
2.5613e-06
9.27599e-07
3.73793e-06
3.79417e-06
3.08735e-06
2.61688e-06
1.44574e-06
9.82024e-08
3.98213e-06
1.0248e-05
1.44938e-05
1.79026e-05
3.64926e-05
0.000113804
0.000283173
0.000601808
0.00116728
0.00213343
0.00356939
0.00540768
0.00751591
0.00973717
0.012918
0.0200767
0.0316753
0.044251
0.0507066
0.000250008
0.000538841
0.000484902
0.000536704
0.000459196
0.00034964
0.000236365
0.000139171
7.865e-05
5.47132e-05
3.97403e-05
2.2053e-05
1.35304e-05
8.92944e-06
4.04689e-06
3.10014e-06
2.40702e-06
1.52629e-06
2.71712e-06
4.43045e-05
5.40403e-05
9.31026e-06
1.81723e-07
2.74141e-06
4.0058e-06
3.26747e-06
2.7849e-06
1.89841e-06
3.69003e-07
2.48048e-06
8.47616e-06
1.37822e-05
1.79054e-05
3.23761e-05
0.000101348
0.000262064
0.0005621
0.00109831
0.00202356
0.00342029
0.00523044
0.00729585
0.00948152
0.012539
0.0193943
0.0309057
0.0437306
0.0519852
0.0521406
0.00024337
0.000524685
0.000463152
0.000515349
0.000451112
0.000345737
0.000235167
0.000137436
7.89693e-05
5.4799e-05
3.78824e-05
2.0212e-05
1.24378e-05
8.11416e-06
3.66869e-06
2.80772e-06
2.35268e-06
1.89491e-06
5.97169e-07
1.49187e-05
5.8339e-05
2.2533e-05
1.58369e-06
1.41126e-06
3.92714e-06
3.51955e-06
2.89843e-06
2.27856e-06
7.98019e-07
1.34945e-06
6.7057e-06
1.25593e-05
1.75099e-05
2.90757e-05
8.95399e-05
0.000241041
0.000522095
0.0010305
0.00191783
0.00327577
0.0050586
0.00708849
0.00923401
0.0121699
0.0187196
0.0301137
0.0433441
0.0522355
0.0539049
0.0508923
0.000236366
0.000506666
0.000443358
0.000500382
0.000441777
0.000342276
0.00023473
0.000138203
7.95174e-05
5.56891e-05
3.62377e-05
1.80975e-05
1.11091e-05
7.03903e-06
3.11221e-06
2.58184e-06
2.01952e-06
2.18773e-06
7.87797e-07
2.74265e-06
3.92911e-05
3.91355e-05
5.71608e-06
3.43042e-07
3.31975e-06
3.79545e-06
3.03156e-06
2.53622e-06
1.25464e-06
5.21987e-07
5.05477e-06
1.08905e-05
1.68693e-05
2.67885e-05
7.87869e-05
0.000219571
0.000482179
0.000963724
0.00181663
0.0031365
0.00489164
0.00689237
0.00899594
0.0118122
0.0180658
0.0293293
0.0428512
0.0527886
0.0546644
0.0527233
0.0485291
0.000227692
0.000492648
0.000432061
0.000491203
0.000438105
0.000338129
0.000233612
0.000138506
8.17255e-05
5.8014e-05
3.55422e-05
1.64277e-05
9.7876e-06
5.89581e-06
2.4933e-06
2.50353e-06
1.87214e-06
2.06668e-06
1.42785e-06
1.24697e-07
1.597e-05
4.63689e-05
1.46221e-05
7.83587e-07
2.19892e-06
3.96016e-06
3.22559e-06
2.67675e-06
1.76688e-06
1.50976e-07
3.56975e-06
9.06538e-06
1.58938e-05
2.52145e-05
6.91537e-05
0.000197787
0.000442751
0.000898166
0.00171978
0.00300323
0.00472878
0.00670684
0.00876855
0.0114649
0.017436
0.028548
0.0423165
0.0531969
0.0559463
0.0535557
0.0504552
0.0455143
0.000225936
0.0004791
0.000425135
0.000483275
0.000431188
0.000333653
0.000231478
0.000138144
8.36439e-05
6.01302e-05
3.56919e-05
1.59118e-05
8.95655e-06
4.78966e-06
1.91751e-06
2.40628e-06
1.96295e-06
1.92789e-06
1.74254e-06
6.35618e-07
3.69943e-06
3.67648e-05
2.70961e-05
3.17791e-06
9.99965e-07
3.78665e-06
3.48191e-06
2.79431e-06
2.14554e-06
5.94308e-07
2.29782e-06
7.33655e-06
1.4333e-05
2.39696e-05
6.03784e-05
0.000175401
0.000404254
0.000834457
0.00162653
0.00287659
0.00456991
0.00652983
0.00855268
0.0111295
0.0168302
0.027772
0.0417334
0.0535291
0.0571555
0.0549187
0.0512352
0.0475486
0.0422154
0.00022712
0.0004784
0.000423767
0.000475061
0.000422316
0.000328186
0.000228318
0.000137198
8.45724e-05
6.24479e-05
3.59373e-05
1.69101e-05
8.78112e-06
4.07263e-06
1.27592e-06
2.04186e-06
2.04474e-06
1.76928e-06
1.7897e-06
1.10782e-06
3.52224e-07
1.90521e-05
3.63124e-05
8.64785e-06
1.32652e-07
3.09219e-06
3.75356e-06
2.92756e-06
2.39996e-06
1.11549e-06
1.28765e-06
5.8394e-06
1.23196e-05
2.27847e-05
5.19672e-05
0.000152794
0.000367171
0.000773277
0.00153596
0.00275647
0.00441638
0.00635919
0.00834886
0.0108061
0.0162463
0.0270104
0.0411116
0.0537583
0.0583547
0.056245
0.0524974
0.04827
0.0443479
0.0389027
0.000226654
0.000476365
0.000421862
0.000465466
0.000414064
0.00032369
0.000224252
0.00013487
8.58458e-05
6.4001e-05
3.66992e-05
1.81236e-05
9.7381e-06
3.93708e-06
1.91102e-07
1.32031e-06
1.80855e-06
1.64535e-06
1.52729e-06
1.28984e-06
3.89876e-07
6.27381e-06
3.4542e-05
1.75505e-05
1.39228e-06
1.99438e-06
3.90725e-06
3.11346e-06
2.56808e-06
1.62144e-06
5.93865e-07
4.57026e-06
1.01566e-05
2.13068e-05
4.43295e-05
0.000131247
0.00033182
0.000715159
0.00144734
0.00264192
0.00426957
0.00619412
0.00815588
0.0104958
0.0156884
0.0262684
0.0404744
0.053859
0.0595167
0.0576372
0.0537126
0.0494753
0.0449891
0.0411093
0.0357588
0.000227751
0.000469079
0.000413328
0.000454192
0.000403081
0.000319935
0.000220856
0.000133538
8.52994e-05
6.40908e-05
3.73685e-05
1.99336e-05
1.10325e-05
4.80482e-06
1.02976e-06
5.57832e-07
1.15939e-06
1.47523e-06
1.26679e-06
1.22854e-06
6.71336e-07
1.2517e-06
2.29008e-05
2.69159e-05
4.40946e-06
9.10724e-07
3.73383e-06
3.35736e-06
2.69755e-06
2.03725e-06
7.1676e-07
3.49802e-06
8.196e-06
1.87104e-05
3.84494e-05
0.000111484
0.000298256
0.000660072
0.00136058
0.00253108
0.00413164
0.00603446
0.00797213
0.0101994
0.0151598
0.0255491
0.0398377
0.0538699
0.0606691
0.0591249
0.055013
0.0506427
0.0461142
0.0416627
0.0380017
0.0329023
0.00022009
0.000459926
0.00040191
0.000443715
0.000394766
0.000319388
0.000218376
0.000132248
8.49845e-05
6.34175e-05
3.53643e-05
2.11459e-05
1.24359e-05
5.77024e-06
2.40321e-06
1.10684e-06
6.32923e-07
1.20609e-06
1.16156e-06
9.95523e-07
9.37127e-07
1.62743e-07
1.04154e-05
3.07437e-05
1.01238e-05
2.09904e-07
3.08013e-06
3.62708e-06
2.83556e-06
2.29063e-06
1.26852e-06
2.64487e-06
6.57877e-06
1.57301e-05
3.37273e-05
9.35318e-05
0.000266046
0.000607614
0.00127605
0.00242231
0.0040036
0.00588173
0.0077945
0.00991991
0.0146651
0.0248573
0.0392056
0.0538159
0.0617827
0.060806
0.0564346
0.0518958
0.0472201
0.0426972
0.0384641
0.035125
0.0303907
0.000213589
0.000442208
0.000386339
0.000434478
0.000388028
0.000317989
0.000216437
0.000132273
8.47118e-05
6.05225e-05
3.35516e-05
2.09975e-05
1.32997e-05
6.752e-06
2.80548e-06
2.04109e-06
9.19332e-07
8.7497e-07
1.15269e-06
8.33589e-07
9.8493e-07
4.14771e-07
3.08863e-06
2.59346e-05
1.79436e-05
1.76747e-06
2.05837e-06
3.82335e-06
3.00588e-06
2.4944e-06
1.88325e-06
2.02297e-06
5.33084e-06
1.27542e-05
2.96392e-05
7.98782e-05
0.00023495
0.000557146
0.00119488
0.00231467
0.00388512
0.00573932
0.00762082
0.00965892
0.0142076
0.0241943
0.0385759
0.0537076
0.0628371
0.0625616
0.0579721
0.0532227
0.048416
0.0437236
0.0393967
0.0354955
0.0325319
0.0282539
0.000208166
0.000428617
0.000375409
0.000426531
0.000381774
0.00031589
0.000215777
0.000132057
8.52901e-05
5.82033e-05
3.12834e-05
1.99393e-05
1.31974e-05
7.09787e-06
2.6094e-06
2.542e-06
1.38028e-06
6.99468e-07
1.07411e-06
7.92663e-07
8.61617e-07
6.87159e-07
4.46998e-07
1.5923e-05
2.47203e-05
4.9182e-06
1.01237e-06
3.77233e-06
3.21904e-06
2.68352e-06
2.39614e-06
1.80511e-06
4.44085e-06
1.00904e-05
2.60208e-05
6.77207e-05
0.000204308
0.000508043
0.00111822
0.0022087
0.00377265
0.0056114
0.00745069
0.00941946
0.0137919
0.0235626
0.0379542
0.0535518
0.0638054
0.0643201
0.0595939
0.0545696
0.0496666
0.0448364
0.040335
0.0363229
0.0328114
0.0302472
0.0264958
0.00020643
0.000416048
0.000366069
0.000420604
0.000376365
0.000312729
0.000214627
0.000132774
8.78349e-05
5.67661e-05
2.96499e-05
1.84309e-05
1.19783e-05
7.1367e-06
2.10342e-06
1.85917e-06
1.71042e-06
6.03026e-07
8.52498e-07
8.25876e-07
7.13799e-07
8.50917e-07
2.59319e-07
7.02564e-06
2.61358e-05
1.02472e-05
2.58776e-07
3.31225e-06
3.47652e-06
2.87779e-06
2.77303e-06
1.93509e-06
3.81719e-06
7.90588e-06
2.21297e-05
5.7148e-05
0.00017468
0.000460098
0.00104684
0.00210624
0.00366272
0.00550015
0.00728988
0.0092007
0.0134143
0.0229637
0.0373378
0.0533713
0.0646546
0.066077
0.0612792
0.0559474
0.0509325
0.0459873
0.0413454
0.0371673
0.0335373
0.0304452
0.0282776
0.0250908
0.000205913
0.000409353
0.000353911
0.000414176
0.00037218
0.00030941
0.000213195
0.00013313
8.91669e-05
5.63793e-05
2.96753e-05
1.73745e-05
1.04466e-05
6.91428e-06
2.436e-06
4.95784e-07
1.53591e-06
6.37824e-07
4.57316e-07
8.49227e-07
6.58001e-07
8.26076e-07
5.13581e-07
2.11394e-06
2.11711e-05
1.695e-05
1.78886e-06
2.475e-06
3.71773e-06
3.06923e-06
3.10405e-06
2.34723e-06
3.40162e-06
6.38607e-06
1.77549e-05
4.78728e-05
0.000146815
0.00041372
0.000980924
0.00200945
0.00355177
0.00540442
0.00714731
0.00899655
0.0130673
0.0223997
0.0367253
0.0531725
0.0654382
0.0678659
0.0631104
0.0573876
0.0522107
0.0471473
0.0423853
0.0380701
0.0342786
0.0310726
0.028408
0.0266239
0.0240083
0.000204035
0.000401479
0.000343305
0.000407596
0.000368341
0.0003053
0.000211938
0.000133059
9.01152e-05
5.62761e-05
3.10017e-05
1.72717e-05
9.17342e-06
6.17458e-06
3.29474e-06
7.30957e-07
8.24527e-07
9.95069e-07
1.56616e-07
7.69676e-07
6.97593e-07
6.96903e-07
6.87033e-07
2.77844e-07
1.30647e-05
2.21843e-05
4.76163e-06
1.47246e-06
3.8105e-06
3.29332e-06
3.39606e-06
2.84951e-06
3.07303e-06
5.42873e-06
1.35902e-05
3.99672e-05
0.000122288
0.000369441
0.000919804
0.00192016
0.00343967
0.00531796
0.00703015
0.00879915
0.0127408
0.0218688
0.0361326
0.0529442
0.066176
0.0696481
0.0651966
0.0589497
0.0535438
0.0483328
0.0434403
0.0389975
0.0350724
0.0317097
0.0289339
0.026697
0.0252776
0.0232344
0.000199905
0.000390738
0.000331127
0.000400882
0.000367753
0.000300947
0.000210912
0.000132308
8.96651e-05
5.62414e-05
3.28561e-05
1.8382e-05
8.56652e-06
5.31988e-06
3.22505e-06
1.58579e-06
3.93877e-08
1.14631e-06
3.87781e-07
5.34649e-07
7.4182e-07
5.76116e-07
7.19797e-07
2.82444e-07
6.08702e-06
2.30768e-05
9.45274e-06
3.24041e-07
3.62299e-06
3.55913e-06
3.6516e-06
3.30758e-06
2.92208e-06
4.835e-06
1.00599e-05
3.28674e-05
0.000102766
0.000327329
0.000862072
0.00183887
0.00333004
0.00523195
0.00694557
0.00861477
0.0124261
0.0213746
0.035575
0.0526945
0.0668629
0.0714102
0.0673637
0.0606307
0.0549422
0.0495808
0.0445294
0.0399442
0.0358901
0.0323921
0.0294697
0.0271247
0.0252997
0.0242289
0.0227303
0.000196032
0.000382154
0.00031983
0.000395026
0.000365881
0.000296906
0.000210012
0.000131812
8.82624e-05
5.51217e-05
3.44391e-05
1.9782e-05
8.93636e-06
5.02851e-06
2.47198e-06
2.00336e-06
7.15013e-07
8.51321e-07
7.41711e-07
1.50254e-07
6.91863e-07
5.20464e-07
6.07381e-07
5.21809e-07
2.05416e-06
1.90146e-05
1.51354e-05
1.33337e-06
3.11418e-06
3.84711e-06
3.89551e-06
3.71004e-06
3.00207e-06
4.44539e-06
7.58436e-06
2.63538e-05
8.57523e-05
0.00028688
0.000806439
0.00176549
0.0032278
0.00514072
0.00688974
0.00845494
0.0121166
0.0209242
0.0350541
0.052447
0.0674789
0.0731233
0.0695659
0.0623884
0.0563381
0.0508905
0.0456806
0.0409301
0.0367316
0.0331028
0.0300522
0.0275598
0.0256392
0.0242067
0.0234524
0.0224566
0.000195151
0.000375126
0.000314514
0.000389925
0.00036332
0.000293196
0.000209252
0.000131694
8.55206e-05
5.39044e-05
3.53698e-05
2.04855e-05
9.69563e-06
5.39131e-06
2.23043e-06
1.41091e-06
1.41292e-06
2.7248e-07
1.07607e-06
2.3489e-07
4.97937e-07
5.54213e-07
4.61648e-07
6.71939e-07
3.51504e-07
1.24911e-05
1.96891e-05
3.99546e-06
2.41485e-06
4.08585e-06
4.13742e-06
4.05645e-06
3.28515e-06
4.11495e-06
6.20191e-06
2.00428e-05
7.11816e-05
0.000248053
0.000752758
0.00169953
0.00313843
0.00504504
0.00684988
0.00833133
0.0118109
0.0204959
0.0345634
0.0522102
0.0680539
0.0747333
0.0718164
0.0642224
0.0577729
0.0522137
0.0468969
0.0419869
0.0376134
0.0338341
0.0306522
0.0280405
0.025983
0.024459
0.0233954
0.022933
0.0224025
0.000193837
0.000374403
0.000312064
0.000383562
0.000360591
0.000289716
0.000209018
0.000132309
8.30647e-05
5.31843e-05
3.56226e-05
2.09796e-05
9.86788e-06
5.34704e-06
2.49844e-06
7.14471e-07
1.72747e-06
2.79169e-07
8.87584e-07
6.21689e-07
2.01622e-07
6.09384e-07
3.68601e-07
6.56716e-07
2.72924e-07
6.5975e-06
2.08869e-05
7.98245e-06
1.57381e-06
4.17108e-06
4.39056e-06
4.36146e-06
3.65057e-06
3.89326e-06
5.53136e-06
1.4253e-05
5.76545e-05
0.000211635
0.000701991
0.00164038
0.00306504
0.00495159
0.00680679
0.00824885
0.0115233
0.020052
0.034107
0.0519627
0.068618
0.0762347
0.0741305
0.066278
0.0592895
0.0535675
0.0481319
0.0430925
0.0385559
0.0346066
0.031272
0.0285368
0.0263557
0.02471
0.0235613
0.0228366
0.0226479
0.022533
0.000190916
0.000372335
0.000313246
0.000377194
0.000356074
0.00028696
0.000208524
0.000131945
8.12028e-05
5.2791e-05
3.58025e-05
2.06778e-05
9.8654e-06
5.17696e-06
2.5476e-06
4.58187e-07
1.41888e-06
8.13092e-07
5.08277e-07
8.84636e-07
6.86718e-08
5.82832e-07
3.69542e-07
5.42821e-07
5.30509e-07
2.72327e-06
1.81972e-05
1.29222e-05
7.08906e-07
4.039e-06
4.65027e-06
4.63555e-06
4.02301e-06
3.76521e-06
5.14688e-06
9.69536e-06
4.53735e-05
0.000179115
0.000655643
0.00158733
0.0030079
0.00486843
0.00674526
0.00819152
0.0112675
0.0195608
0.0336645
0.0517081
0.069131
0.077648
0.076408
0.068636
0.0608859
0.0548781
0.0492786
0.0441418
0.0395115
0.0354268
0.0319368
0.0290609
0.0267553
0.0249958
0.0237271
0.0229262
0.0225227
0.022569
0.0228146
0.000187134
0.000368176
0.000313565
0.000371761
0.000350354
0.000285881
0.000206221
0.000131077
7.91788e-05
5.37866e-05
3.62885e-05
2.02376e-05
9.78071e-06
5.18475e-06
2.39636e-06
1.14683e-06
7.9393e-07
1.06661e-06
1.84765e-07
7.83554e-07
3.99305e-07
4.25898e-07
4.54831e-07
3.78415e-07
6.62459e-07
6.98228e-07
1.33283e-05
1.66827e-05
2.88764e-06
3.78078e-06
4.89743e-06
4.89241e-06
4.36236e-06
3.75691e-06
4.77731e-06
7.08187e-06
3.39282e-05
0.000150478
0.00061507
0.00153919
0.00296446
0.00480233
0.00666056
0.00812196
0.0110453
0.0190267
0.0331738
0.0514778
0.0695142
0.0790146
0.0786116
0.0710515
0.0624965
0.0561881
0.0504743
0.0451924
0.040438
0.0362491
0.032641
0.0296207
0.0271833
0.0252969
0.0239285
0.023014
0.0225258
0.0224127
0.0226719
0.0232372
0.000184053
0.000362165
0.000314462
0.00036664
0.000344831
0.000285018
0.000204172
0.000129722
7.73552e-05
5.47785e-05
3.75651e-05
2.01671e-05
9.57914e-06
4.9878e-06
2.4584e-06
1.08642e-06
3.19811e-07
9.15303e-07
5.52759e-07
3.78145e-07
6.871e-07
1.98813e-07
5.43123e-07
2.73762e-07
6.60129e-07
2.27989e-07
8.17159e-06
1.84917e-05
6.36149e-06
3.50933e-06
5.08859e-06
5.1329e-06
4.66988e-06
3.87837e-06
4.47325e-06
6.12717e-06
2.30325e-05
0.00012588
0.000580191
0.00149562
0.00293041
0.00475364
0.00655433
0.007993
0.0108259
0.018489
0.0325655
0.0512363
0.0697779
0.0802826
0.0808116
0.0733613
0.0642216
0.0574793
0.0517581
0.0463714
0.0414657
0.037121
0.0333674
0.0302024
0.0276379
0.0256216
0.0241357
0.0231254
0.0225441
0.022342
0.0224831
0.0229318
0.0237755
0.000181052
0.000356541
0.000313194
0.000363383
0.000339128
0.00028387
0.000201683
0.000127198
7.63745e-05
5.59265e-05
3.81205e-05
2.02631e-05
9.63559e-06
4.97012e-06
2.68149e-06
6.49796e-07
6.28772e-07
4.44257e-07
9.59913e-07
3.23948e-08
8.30191e-07
1.73032e-07
5.31459e-07
2.84057e-07
4.60151e-07
6.47796e-07
4.20103e-06
1.74584e-05
9.98594e-06
2.6747e-06
5.18858e-06
5.3616e-06
4.9367e-06
4.05842e-06
4.21312e-06
5.85806e-06
1.38641e-05
9.99837e-05
0.000552098
0.00145714
0.00290049
0.00471755
0.00642711
0.00776819
0.010544
0.0179776
0.0318304
0.0508676
0.0699726
0.0814291
0.0829314
0.075475
0.0659516
0.058825
0.0531248
0.0476097
0.0425388
0.038031
0.0341314
0.0308329
0.0281215
0.0259783
0.024372
0.0232581
0.022572
0.0222875
0.0223529
0.0227123
0.0233236
0.0243907
0.000177509
0.000350976
0.000313187
0.000362486
0.000333741
0.00028208
0.000198427
0.000124688
7.61504e-05
5.68459e-05
3.83612e-05
1.98715e-05
9.75217e-06
5.12571e-06
2.90453e-06
7.80227e-07
8.7897e-07
1.74086e-07
7.40595e-07
3.30885e-07
6.26316e-07
4.56151e-07
3.89264e-07
3.87126e-07
2.74068e-07
8.56181e-07
1.61355e-06
1.42145e-05
1.35137e-05
2.91632e-06
5.22597e-06
5.57928e-06
5.16561e-06
4.25568e-06
4.03514e-06
5.54839e-06
8.96038e-06
7.30546e-05
0.000536271
0.00142579
0.00286874
0.00468238
0.00626959
0.00742976
0.0101177
0.017475
0.0310309
0.0502417
0.0701065
0.0825071
0.0848106
0.077551
0.0675448