/*--------------------------------*- C++ -*----------------------------------*\
| =========                 |                                                 |
| \\      /  F ield         | OpenFOAM: The Open Source CFD Toolbox           |
|  \\    /   O peration     | Version:  v2012                                 |
|   \\  /    A nd           | Website:  www.openfoam.com                      |
|    \\/     M anipulation  |                                                 |
\*---------------------------------------------------------------------------*/
FoamFile
{
    version     2.0;
    format      ascii;
    class       volScalarField;
    location    "12000";
    object      nk;
}
// * * * * * * * * * * * * * * * * * * * * * * * * * * * * * * * * * * * * * //

dimensions      [0 0 0 0 0 0 0];


internalField   nonuniform List<scalar> 
27324
(
1.40739e-05
1.35878e-05
4.9355e-05
1.30892e-05
4.93462e-05
5.22593e-05
1.25728e-05
4.92365e-05
5.08462e-05
2.98987e-05
1.20353e-05
4.89942e-05
4.92904e-05
2.81885e-05
1.09439e-05
1.14699e-05
4.85189e-05
4.75628e-05
2.63808e-05
1.01199e-05
3.16796e-06
1.08855e-05
4.772e-05
4.56309e-05
2.45289e-05
9.21212e-06
2.91101e-06
8.503e-07
1.03035e-05
4.65806e-05
4.3469e-05
2.26808e-05
8.30801e-06
2.60401e-06
7.79614e-07
2.28952e-07
9.7499e-06
4.51715e-05
4.11176e-05
2.08627e-05
7.44963e-06
2.29992e-06
6.89682e-07
2.09838e-07
6.57704e-08
9.2271e-06
4.36144e-05
3.86551e-05
1.91096e-05
6.66011e-06
2.01767e-06
6.0083e-07
1.84805e-07
6.06687e-08
2.17382e-08
8.72556e-06
4.19042e-05
3.61582e-05
1.74307e-05
5.95051e-06
1.76748e-06
5.19675e-07
1.60254e-07
5.3874e-08
2.03585e-08
8.76811e-09
8.23661e-06
3.99638e-05
3.36188e-05
1.57952e-05
5.30438e-06
1.55176e-06
4.49546e-07
1.38213e-07
4.72411e-08
1.84898e-08
8.36904e-09
4.24703e-09
7.7551e-06
3.7716e-05
3.09935e-05
1.41786e-05
4.67981e-06
1.36124e-06
3.90822e-07
1.19584e-07
4.13597e-08
1.66574e-08
7.81784e-09
4.11641e-09
2.3269e-09
7.27325e-06
3.51075e-05
2.82408e-05
1.25738e-05
4.06406e-06
1.17806e-06
3.40271e-07
1.04349e-07
3.64505e-08
1.50362e-08
7.26674e-09
3.92968e-09
2.27487e-09
1.35763e-09
6.76306e-06
3.20722e-05
2.53209e-05
1.09853e-05
3.46659e-06
9.9916e-07
2.92353e-07
9.15006e-08
3.24803e-08
1.3682e-08
6.77335e-09
3.7358e-09
2.19767e-09
1.33186e-09
8.15401e-10
6.21341e-06
2.84174e-05
2.21858e-05
9.41557e-06
2.90276e-06
8.30588e-07
2.46336e-07
7.94664e-08
2.91616e-08
1.25847e-08
6.35408e-09
3.55697e-09
2.11428e-09
1.29321e-09
8.00773e-10
4.98004e-10
5.62728e-06
2.41486e-05
1.88107e-05
7.87286e-06
2.38167e-06
6.79009e-07
2.04106e-07
6.80213e-08
2.60674e-08
1.16659e-08
6.00781e-09
3.39937e-09
2.03469e-09
1.25008e-09
7.79226e-10
4.89304e-10
3.09159e-10
5.01221e-06
1.94969e-05
1.53283e-05
6.43939e-06
1.9098e-06
5.469e-07
1.67385e-07
5.76463e-08
2.31309e-08
1.08059e-08
5.71223e-09
3.26383e-09
1.96173e-09
1.20764e-09
7.54705e-10
4.76936e-10
3.03849e-10
1.95561e-10
4.37869e-06
1.47825e-05
1.19495e-05
5.18483e-06
1.52655e-06
4.34483e-07
1.36493e-07
4.87535e-08
2.04698e-08
9.98137e-09
5.42948e-09
3.14341e-09
1.8961e-09
1.16753e-09
7.30022e-10
4.62648e-10
2.96729e-10
1.92035e-10
1.2784e-10
3.3829e-06
1.02737e-05
8.84589e-06
4.10687e-06
1.24124e-06
3.50978e-07
1.11056e-07
4.1379e-08
1.81866e-08
9.21985e-09
5.14943e-09
3.02414e-09
1.83539e-09
1.13006e-09
7.06195e-10
4.4794e-10
2.88502e-10
1.87814e-10
1.25168e-10
8.85768e-11
2.0777e-06
5.81501e-06
6.14877e-06
3.17887e-06
1.02508e-06
2.94948e-07
9.28765e-08
3.5372e-08
1.62867e-08
8.54956e-09
4.87837e-09
2.90102e-09
1.77392e-09
1.09412e-09
6.83394e-10
4.33556e-10
2.79694e-10
1.83179e-10
1.2253e-10
8.60878e-11
6.69952e-11
9.29056e-07
3.10877e-06
3.7751e-06
2.44475e-06
8.49826e-07
2.55842e-07
8.11182e-08
3.11096e-08
1.4729e-08
7.97297e-09
4.62604e-09
2.77538e-09
1.70911e-09
1.05736e-09
6.61066e-10
4.19554e-10
2.70925e-10
1.77931e-10
1.20064e-10
8.41275e-11
6.3912e-11
5.67972e-11
3.1106e-07
1.6451e-06
2.28916e-06
1.78672e-06
7.37483e-07
2.24959e-07
7.31193e-08
2.83731e-08
1.36088e-08
7.48399e-09
4.39504e-09
2.6517e-09
1.64119e-09
1.01841e-09
6.38336e-10
4.05695e-10
2.62292e-10
1.72472e-10
1.1717e-10
8.27407e-11
6.17919e-11
5.33868e-11
5.3949e-11
2.3608e-07
9.62402e-07
1.43321e-06
1.30808e-06
6.06999e-07
2.09403e-07
6.67304e-08
2.65503e-08
1.2885e-08
7.11663e-09
4.18862e-09
2.53246e-09
1.57271e-09
9.77045e-10
6.14617e-10
3.91716e-10
2.53693e-10
1.67043e-10
1.1395e-10
8.1277e-11
6.06538e-11
5.02721e-11
5.04559e-11
5.30665e-11
2.23422e-07
8.51252e-07
9.15068e-07
1.1307e-06
5.45691e-07
1.81849e-07
6.37654e-08
2.5105e-08
1.24105e-08
6.86895e-09
4.02183e-09
2.42276e-09
1.50583e-09
9.34765e-10
5.89694e-10
3.77447e-10
2.4508e-10
1.61653e-10
1.1064e-10
7.9528e-11
5.99149e-11
4.8965e-11
4.71835e-11
4.98355e-11
7.27936e-11
2.1866e-07
8.27088e-07
7.87538e-07
9.93009e-07
5.97044e-07
1.83752e-07
5.72401e-08
2.42899e-08
1.20337e-08
6.69675e-09
3.89852e-09
2.32943e-09
1.44482e-09
8.93052e-10
5.6432e-10
3.62745e-10
2.36466e-10
1.56272e-10
1.07427e-10
7.75605e-11
5.92129e-11
4.82958e-11
4.44675e-11
4.63092e-11
6.52341e-11
1.73474e-10
2.14383e-07
8.13436e-07
7.5154e-07
9.23508e-07
6.69888e-07
2.28633e-07
6.04686e-08
2.22976e-08
1.16034e-08
6.55172e-09
3.80397e-09
2.25571e-09
1.39195e-09
8.54786e-10
5.39615e-10
3.47845e-10
2.27824e-10
1.50942e-10
1.04336e-10
7.56598e-11
5.83341e-11
4.79827e-11
4.25904e-11
4.30189e-11
5.47378e-11
1.28027e-10
4.13797e-10
2.09308e-07
7.95984e-07
7.2688e-07
8.87389e-07
6.64103e-07
3.0209e-07
7.77271e-08
2.36578e-08
1.07443e-08
6.20195e-09
3.7143e-09
2.1972e-09
1.34765e-09
8.20276e-10
5.17112e-10
3.33355e-10
2.19096e-10
1.45744e-10
1.01298e-10
7.39906e-11
5.7245e-11
4.76029e-11
4.15099e-11
3.90234e-11
4.45802e-11
9.03422e-11
2.79715e-10
1.02271e-09
2.03309e-07
7.73791e-07
7.01887e-07
8.56531e-07
6.43088e-07
3.1494e-07
1.08147e-07
2.9663e-08
1.14557e-08
5.79666e-09
3.41602e-09
2.11272e-09
1.30947e-09
7.89262e-10
4.96293e-10
3.1954e-10
2.10339e-10
1.40514e-10
9.8342e-11
7.23053e-11
5.59271e-11
4.69914e-11
3.94134e-11
3.42524e-11
3.57504e-11
6.45804e-11
1.88129e-10
7.09635e-10
2.91271e-09
1.96736e-07
7.47262e-07
6.78444e-07
8.30096e-07
6.20781e-07
3.09321e-07
1.13907e-07
4.02472e-08
1.40393e-08
6.30208e-09
3.24971e-09
1.91955e-09
1.20218e-09
7.51546e-10
4.74266e-10
3.05352e-10
2.01219e-10
1.34667e-10
9.50516e-11
7.01433e-11
5.35055e-11
4.34278e-11
3.54378e-11
2.91609e-11
2.88309e-11
4.69651e-11
1.29795e-10
4.97692e-10
2.09877e-09
8.65357e-09
1.89973e-07
7.18843e-07
6.56628e-07
8.0734e-07
6.00758e-07
3.00868e-07
1.13537e-07
4.04603e-08
1.83115e-08
7.75053e-09
3.61214e-09
1.87879e-09
1.08974e-09
6.74315e-10
4.26652e-10
2.76749e-10
1.84715e-10
1.23543e-10
8.73031e-11
6.39648e-11
4.79625e-11
3.75707e-11
3.01256e-11
2.50074e-11
2.42479e-11
3.57816e-11
9.22656e-11
3.48682e-10
1.50299e-09
6.39306e-09
2.56311e-08
1.8339e-07
6.90865e-07
6.37499e-07
7.87338e-07
5.8152e-07
2.91966e-07
1.11716e-07
4.05331e-08
1.86979e-08
1.00265e-08
4.45808e-09
2.14272e-09
1.11283e-09
6.27069e-10
3.78666e-10
2.39334e-10
1.56024e-10
1.04403e-10
7.33713e-11
5.33194e-11
3.98006e-11
3.15543e-11
2.62288e-11
2.26854e-11
2.16756e-11
2.86772e-11
6.7031e-11
2.44089e-10
1.06687e-09
4.67896e-09
1.94225e-08
7.44017e-08
1.77257e-07
6.65735e-07
6.21446e-07
7.69792e-07
5.63057e-07
2.83153e-07
1.09107e-07
4.03088e-08
1.84061e-08
1.0573e-08
5.68957e-09
2.65051e-09
1.30219e-09
6.73422e-10
3.73395e-10
2.21589e-10
1.38856e-10
9.12828e-11
6.30253e-11
4.57367e-11
3.50692e-11
2.83189e-11
2.42854e-11
2.15656e-11
2.04628e-11
2.42489e-11
4.96115e-11
1.70685e-10
7.50696e-10
3.38856e-09
1.45647e-08
5.78671e-08
2.09251e-07
1.71865e-07
6.45201e-07
6.08285e-07
7.53606e-07
5.45213e-07
2.74728e-07
1.06515e-07
3.97212e-08
1.83255e-08
9.98236e-09
6.17131e-09
3.3239e-09
1.61674e-09
8.00094e-10
4.17922e-10
2.33199e-10
1.3847e-10
8.75676e-11
5.92382e-11
4.28133e-11
3.31234e-11
2.70262e-11
2.34649e-11
2.14079e-11
2.02162e-11
2.15585e-11
3.74945e-11
1.19598e-10
5.23367e-10
2.42779e-09
1.08038e-08
4.45526e-08
1.66925e-07
5.6755e-07
1.67341e-07
6.29702e-07
5.96803e-07
7.37216e-07
5.27542e-07
2.66814e-07
1.04035e-07
3.89883e-08
1.81502e-08
9.92232e-09
5.85565e-09
3.67611e-09
1.99247e-09
1.00241e-09
5.02202e-10
2.68117e-10
1.51351e-10
9.21484e-11
6.04934e-11
4.29187e-11
3.29304e-11
2.71371e-11
2.36884e-11
2.15849e-11
2.02535e-11
2.01648e-11
2.94497e-11
8.41713e-11
3.61955e-10
1.72061e-09
7.92577e-09
3.3935e-08
1.31943e-07
4.63803e-07
1.49395e-06
1.6354e-07
6.17893e-07
5.85097e-07
7.18594e-07
5.09656e-07
2.59345e-07
1.01747e-07
3.82209e-08
1.79108e-08
9.85919e-09
5.7813e-09
3.53561e-09
2.22129e-09
1.21748e-09
6.1356e-10
3.17211e-10
1.73041e-10
1.01904e-10
6.49892e-11
4.50179e-11
3.39946e-11
2.77685e-11
2.41137e-11
2.18597e-11
2.03927e-11
1.9595e-11
2.43041e-11
5.97742e-11
2.48549e-10
1.20641e-09
5.74913e-09
2.55617e-08
1.03241e-07
3.76103e-07
1.2487e-06
3.78623e-06
1.59939e-07
6.0746e-07
5.71343e-07
6.96548e-07
4.91625e-07
2.52176e-07
9.96454e-08
3.74645e-08
1.76625e-08
9.78203e-09
5.75467e-09
3.39307e-09
2.1829e-09
1.36632e-09
7.36342e-10
3.772e-10
1.99616e-10
1.13802e-10
7.05396e-11
4.77257e-11
3.53643e-11
2.8526e-11
2.45908e-11
2.21625e-11
2.0558e-11
1.94519e-11
2.11707e-11
4.31435e-11
1.69819e-10
8.36504e-10
4.12363e-09
1.90324e-08
7.99608e-08
3.02192e-07
1.03697e-06
3.23688e-06
9.26509e-06
1.55951e-07
5.9624e-07
5.54688e-07
6.71556e-07
4.74047e-07
2.45266e-07
9.76165e-08
3.67652e-08
1.74281e-08
9.70638e-09
5.72346e-09
3.37133e-09
2.06683e-09
1.38822e-09
8.27114e-10
4.46339e-10
2.31076e-10
1.27788e-10
7.6904e-11
5.0732e-11
3.68577e-11
2.93295e-11
2.50775e-11
2.24805e-11
2.07333e-11
1.94842e-11
1.95662e-11
3.22007e-11
1.157e-10
5.73696e-10
2.92291e-09
1.40082e-08
6.12452e-08
2.40577e-07
8.54351e-07
2.75292e-06
8.08798e-06
2.19464e-05
1.51239e-07
5.82032e-07
5.34757e-07
6.44951e-07
4.57305e-07
2.38685e-07
9.56017e-08
3.61122e-08
1.72264e-08
9.63842e-09
5.69218e-09
3.35315e-09
2.04116e-09
1.31528e-09
8.63124e-10
5.03978e-10
2.66858e-10
1.44107e-10
8.431e-11
5.41345e-11
3.84877e-11
3.01729e-11
2.55756e-11
2.28156e-11
2.0945e-11
1.95805e-11
1.88746e-11
2.53821e-11
7.89398e-11
3.89108e-10
2.04686e-09
1.01881e-08
4.63753e-08
1.89685e-07
6.98423e-07
2.32541e-06
7.03353e-06
1.95185e-05
5.04104e-05
1.45827e-07
5.63488e-07
5.11744e-07
6.17756e-07
4.41378e-07
2.32432e-07
9.36343e-08
3.55081e-08
1.70511e-08
9.58309e-09
5.66149e-09
3.33507e-09
2.03331e-09
1.26352e-09
8.29451e-10
5.39437e-10
3.06269e-10
1.63154e-10
9.29993e-11
5.80648e-11
4.03248e-11
3.10971e-11
2.61022e-11
2.31695e-11
2.11883e-11
1.97163e-11
1.86579e-11
2.13304e-11
5.43718e-11
2.61157e-10
1.41494e-09
7.32087e-09
3.46985e-08
1.4805e-07
5.66308e-07
1.95223e-06
6.08215e-06
1.73154e-05
4.55686e-05
0.00011233
1.40071e-07
5.42418e-07
4.88523e-07
5.92392e-07
4.26746e-07
2.26482e-07
9.17715e-08
3.49684e-08
1.68978e-08
9.53631e-09
5.63477e-09
3.31728e-09
2.02635e-09
1.25615e-09
7.8539e-10
5.33629e-10
3.34478e-10
1.85303e-10
1.03072e-10
6.263e-11
4.24116e-11
3.2124e-11
2.66692e-11
2.35427e-11
2.14597e-11
1.98823e-11
1.86526e-11
1.92091e-11
3.83706e-11
1.73672e-10
9.65122e-10
5.19325e-09
2.56568e-08
1.14296e-07
4.55235e-07
1.62779e-06
5.23552e-06
1.52903e-05
4.11342e-05
0.000102951
0.000243248
1.34466e-07
5.21543e-07
4.67723e-07
5.70623e-07
4.13637e-07
2.20898e-07
9.0078e-08
3.4504e-08
1.67648e-08
9.49599e-09
5.61111e-09
3.30235e-09
2.01974e-09
1.25172e-09
7.72076e-10
5.02063e-10
3.41243e-10
2.04848e-10
1.14716e-10
6.78432e-11
4.4782e-11
3.32618e-11
2.72796e-11
2.3934e-11
2.17533e-11
2.00854e-11
1.87309e-11
1.82352e-11
2.84597e-11
1.14713e-10
6.49235e-10
3.6349e-09
1.87395e-08
8.72284e-08
3.62624e-07
1.34769e-06
4.48356e-06
1.346e-05
3.6993e-05
9.4294e-05
0.000225415
0.000514796
1.29494e-07
5.02634e-07
4.50448e-07
5.51873e-07
4.0158e-07
2.15687e-07
8.8601e-08
3.41262e-08
1.66548e-08
9.46217e-09
5.58986e-09
3.29033e-09
2.01452e-09
1.24753e-09
7.68256e-10
4.79293e-10
3.26372e-10
2.14336e-10
1.26633e-10
7.37183e-11
4.74655e-11
3.45222e-11
2.79392e-11
2.4345e-11
2.20634e-11
2.03214e-11
1.88518e-11
1.78709e-11
2.26177e-11
7.57603e-11
4.30351e-10
2.50868e-09
1.35126e-08
6.57674e-08
2.86131e-07
1.10732e-06
3.81913e-06
1.18065e-05
3.32054e-05
8.61117e-05
0.00020882
0.000481387
0.0010677
1.25079e-07
4.86527e-07
4.36246e-07
5.34689e-07
3.89853e-07
2.10681e-07
8.72502e-08
3.38386e-08
1.65744e-08
9.43656e-09
5.57144e-09
3.28077e-09
2.01089e-09
1.24394e-09
7.65261e-10
4.74854e-10
3.07151e-10
2.11037e-10
1.35432e-10
8.01427e-11
5.04735e-11
3.59198e-11
2.86556e-11
2.47806e-11
2.23883e-11
2.05858e-11
1.90111e-11
1.77916e-11
1.94588e-11
5.06838e-11
2.81134e-10
1.7051e-09
9.61472e-09
4.89798e-08
2.23476e-07
9.02691e-07
3.23425e-06
1.0319e-05
2.97376e-05
7.85672e-05
0.000192987
0.000449947
0.0010071
0.00216439
1.21327e-07
4.74509e-07
4.24057e-07
5.17897e-07
3.78037e-07
2.05749e-07
8.59361e-08
3.35567e-08
1.6526e-08
9.42237e-09
5.55692e-09
3.27378e-09
2.00845e-09
1.24127e-09
7.62544e-10
4.72743e-10
2.94637e-10
1.98417e-10
1.37505e-10
8.7049e-11
5.38062e-11
3.74636e-11
2.94358e-11
2.52474e-11
2.27284e-11
2.08715e-11
1.9206e-11
1.78302e-11
1.79073e-11
3.51516e-11
1.8113e-10
1.14024e-09
6.74427e-09
3.60193e-08
1.72658e-07
7.29741e-07
2.72233e-06
8.98357e-06
2.65742e-05
7.15953e-05
0.000178315
0.000419631
0.000949217
0.00206029
0.00423149
1.17755e-07
4.64385e-07
4.12216e-07
5.00851e-07
3.65861e-07
2.00804e-07
8.46136e-08
3.32883e-08
1.65011e-08
9.42146e-09
5.54831e-09
3.26993e-09
2.0072e-09
1.2393e-09
7.60534e-10
4.7084e-10
2.92693e-10
1.87322e-10
1.32132e-10
9.02219e-11
5.74715e-11
3.91358e-11
3.02869e-11
2.57508e-11
2.3086e-11
2.11724e-11
1.94363e-11
1.79221e-11
1.72369e-11
2.59971e-11
1.15583e-10
7.4894e-10
4.66054e-09
2.61353e-08
1.31902e-07
5.84656e-07
2.27646e-06
7.78954e-06
2.36924e-05
6.51737e-05
0.000164684
0.00039138
0.000892427
0.00195997
0.00407549
0.00769294
1.13828e-07
4.53286e-07
3.98319e-07
4.82587e-07
3.53419e-07
1.95644e-07
8.3226e-08
3.30403e-08
1.65019e-08
9.42896e-09
5.54608e-09
3.27039e-09
2.00746e-09
1.23812e-09
7.59185e-10
4.69401e-10
2.91502e-10
1.81551e-10
1.23236e-10
8.95684e-11
6.08196e-11
4.09366e-11
3.12128e-11
2.62953e-11
2.34636e-11
2.14856e-11
1.96926e-11
1.80549e-11
1.7003e-11
2.09273e-11
7.374e-11
4.82717e-10
3.16766e-09
1.87074e-08
9.9525e-08
4.64185e-07
1.89065e-06
6.72447e-06
2.10748e-05
5.92633e-05
0.000152062
0.000364995
0.000838912
0.00185904
0.00392621
0.00751404
0.0125539
1.09242e-07
4.39246e-07
3.82371e-07
4.63713e-07
3.41252e-07
1.90302e-07
8.16852e-08
3.28067e-08
1.65247e-08
9.44494e-09
5.54854e-09
3.27525e-09
2.00991e-09
1.23797e-09
7.58534e-10
4.6845e-10
2.90552e-10
1.80459e-10
1.16625e-10
8.47821e-11
6.20252e-11
4.282e-11
3.21974e-11
2.68827e-11
2.38638e-11
2.18101e-11
1.99684e-11
1.82277e-11
1.69618e-11
1.83079e-11
4.79684e-11
3.05065e-10
2.11437e-09
1.3199e-08
7.41264e-08
3.64904e-07
1.55917e-06
5.7783e-06
1.87006e-05
5.38373e-05
0.000140382
0.000340465
0.000788393
0.00176267
0.00376877
0.00734983
0.0124249
0.0182069
1.03828e-07
4.21355e-07
3.65368e-07
4.45242e-07
3.29701e-07
1.84782e-07
8.00003e-08
3.25602e-08
1.65586e-08
9.46512e-09
5.55562e-09
3.28356e-09
2.0147e-09
1.23926e-09
7.5868e-10
4.68037e-10
2.89938e-10
1.79834e-10
1.13434e-10
7.85624e-11
6.07119e-11
4.47302e-11
3.3215e-11
2.75077e-11
2.42873e-11
2.21471e-11
2.02586e-11
1.84359e-11
1.7001e-11
1.70621e-11
3.27774e-11
1.89379e-10
1.3825e-09
9.17463e-09
5.44383e-08
2.83914e-07
1.27625e-06
4.94144e-06
1.65519e-05
4.8861e-05
0.000129598
0.000317692
0.000741011
0.00167034
0.00361465
0.00716214
0.0123248
0.0182754
0.0234244
9.80454e-08
4.00638e-07
3.48205e-07
4.27217e-07
3.18712e-07
1.79285e-07
7.80953e-08
3.22886e-08
1.65855e-08
9.4847e-09
5.56539e-09
3.29454e-09
2.02121e-09
1.24206e-09
7.59789e-10
4.68172e-10
2.89755e-10
1.79416e-10
1.12892e-10
7.42256e-11
5.68108e-11
4.50868e-11
3.42944e-11
2.81468e-11
2.47335e-11
2.24987e-11
2.05598e-11
1.86725e-11
1.70905e-11
1.653e-11
2.43035e-11
1.16007e-10
8.841e-10
6.27336e-09
3.93978e-08
2.18426e-07
1.03676e-06
4.20415e-06
1.4612e-05
4.43058e-05
0.000119652
0.000296612
0.000696695
0.00158229
0.00346289
0.00697344
0.0121825
0.0183739
0.0238216
0.0273831
9.26405e-08
3.80427e-07
3.32732e-07
4.1111e-07
3.08039e-07
1.73808e-07
7.61164e-08
3.1958e-08
1.65985e-08
9.49481e-09
5.57555e-09
3.30726e-09
2.0291e-09
1.246e-09
7.61875e-10
4.68874e-10
2.89979e-10
1.79276e-10
1.12676e-10
7.19164e-11
5.2274e-11
4.371e-11
3.52273e-11
2.87719e-11
2.51998e-11
2.28679e-11
2.08723e-11
1.89312e-11
1.72175e-11
1.63415e-11
1.98402e-11
7.11189e-11
5.52843e-10
4.211e-09
2.80631e-08
1.66049e-07
8.35416e-07
3.55847e-06
1.28631e-05
4.0143e-05
0.000110496
0.000277129
0.000655435
0.00149856
0.00331466
0.00678144
0.0120353
0.0184123
0.0242675
0.0280659
0.0300585
8.79281e-08
3.62257e-07
3.19562e-07
3.96517e-07
2.97928e-07
1.68576e-07
7.4145e-08
3.15938e-08
1.65818e-08
9.49267e-09
5.58215e-09
3.32003e-09
2.03766e-09
1.25075e-09
7.64593e-10
4.70183e-10
2.90549e-10
1.79449e-10
1.12642e-10
7.1638e-11
4.91067e-11
4.05811e-11
3.55887e-11
2.939e-11
2.56741e-11
2.32564e-11
2.11987e-11
1.92043e-11
1.7384e-11
1.63058e-11
1.76234e-11
4.48959e-11
3.36871e-10
2.76271e-09
1.96647e-08
1.2459e-07
6.67528e-07
2.99583e-06
1.12919e-05
3.63407e-05
0.000102085
0.000259165
0.000617136
0.00141941
0.00317039
0.006588
0.0118792
0.0184372
0.024663
0.0288344
0.0309613
0.0316481
8.37686e-08
3.46077e-07
3.0794e-07
3.82661e-07
2.87855e-07
1.63663e-07
7.24296e-08
3.12378e-08
1.65447e-08
9.47287e-09
5.58354e-09
3.33046e-09
2.04587e-09
1.25591e-09
7.67705e-10
4.71738e-10
2.91427e-10
1.7982e-10
1.12774e-10
7.15622e-11
4.73258e-11
3.68532e-11
3.43744e-11
2.99818e-11
2.61233e-11
2.36655e-11
2.15419e-11
1.94893e-11
1.75827e-11
1.63319e-11
1.65991e-11
3.03604e-11
2.00057e-10
1.76967e-09
1.3543e-08
9.21859e-08
5.2847e-07
2.50882e-06
9.88411e-06
3.28734e-05
9.43645e-05
0.000242643
0.00058173
0.00134492
0.00303069
0.00639375
0.0117168
0.0184442
0.0250495
0.029582
0.0319689
0.0327093
0.0324019
7.98338e-08
3.31621e-07
2.97229e-07
3.69019e-07
2.7793e-07
1.59037e-07
7.0931e-08
3.10088e-08
1.64979e-08
9.44156e-09
5.57787e-09
3.33711e-09
2.0524e-09
1.26087e-09
7.70936e-10
4.73497e-10
2.9245e-10
1.8032e-10
1.13007e-10
7.15734e-11
4.70929e-11
3.40979e-11
3.18747e-11
3.02609e-11
2.65286e-11
2.4092e-11
2.1905e-11
1.9786e-11
1.78022e-11
1.6418e-11
1.61754e-11
2.27595e-11
1.16568e-10
1.10328e-09
9.15748e-09
6.71688e-08
4.14226e-07
2.08949e-06
8.62892e-06
2.9713e-05
8.72915e-05
0.000227473
0.000549127
0.00127521
0.002896
0.00619963
0.0115487
0.0184356
0.0254185
0.0303481
0.0329749
0.0338843
0.0335714
0.032547
7.58185e-08
3.16645e-07
2.86314e-07
3.55589e-07
2.68126e-07
1.54686e-07
6.9604e-08
3.08542e-08
1.64871e-08
9.40457e-09
5.56893e-09
3.3387e-09
2.05666e-09
1.265e-09
7.73969e-10
4.753e-10
2.93502e-10
1.80879e-10
1.13298e-10
7.16531e-11
4.70842e-11
3.25568e-11
2.86695e-11
2.93519e-11
2.69189e-11
2.45158e-11
2.22905e-11
2.00972e-11
1.80336e-11
1.65424e-11
1.60314e-11
1.90013e-11
6.80683e-11
6.66056e-10
6.07036e-09
4.81319e-08
3.21059e-07
1.73064e-06
7.51445e-06
2.68387e-05
8.08129e-05
0.000213588
0.000519196
0.00121035
0.00276694
0.00600624
0.0113765
0.0184121
0.0257681
0.0311245
0.0340217
0.0350736
0.0348548
0.033787
0.0322643
7.17292e-08
3.0053e-07
2.74736e-07
3.42695e-07
2.5858e-07
1.50399e-07
6.84339e-08
3.07538e-08
1.64913e-08
9.38339e-09
5.56002e-09
3.33781e-09
2.05763e-09
1.26783e-09
7.76612e-10
4.76998e-10
2.94523e-10
1.81457e-10
1.13592e-10
7.17623e-11
4.70879e-11
3.20898e-11
2.59474e-11
2.74696e-11
2.71919e-11
2.48989e-11
2.27006e-11
2.04252e-11
1.82749e-11
1.67008e-11
1.60085e-11
1.72527e-11
4.14867e-11
3.87648e-10
3.93584e-09
3.38745e-08
2.45793e-07
1.42491e-06
6.53064e-06
2.42294e-05
7.48845e-05
0.0002009
0.000491845
0.0011503
0.00264407
0.0058149
0.0112012
0.0183763
0.0260919
0.0319097
0.0351055
0.0363187
0.036164
0.0351338
0.0335468
0.0316899
6.74901e-08
2.83945e-07
2.63089e-07
3.30464e-07
2.49699e-07
1.46194e-07
6.73145e-08
3.06767e-08
1.65021e-08
9.37396e-09
5.56214e-09
3.33642e-09
2.05728e-09
1.26876e-09
7.7843e-10
4.78542e-10
2.95489e-10
1.8202e-10
1.13871e-10
7.18829e-11
4.7106e-11
3.20337e-11
2.43347e-11
2.47079e-11
2.70207e-11
2.52322e-11
2.31328e-11
2.07731e-11
1.85262e-11
1.68817e-11
1.60729e-11
1.65031e-11
2.78312e-11
2.17616e-10
2.47916e-09
2.3368e-08
1.85645e-07
1.16575e-06
5.666e-06
2.1871e-05
6.94586e-05
0.00018934
0.000466946
0.00109509
0.0025278
0.00562701
0.0110229
0.0183304
0.0263947
0.0327006
0.0362305
0.0376183
0.0375399
0.0365146
0.0349242
0.0329941
0.0309222
6.35259e-08
2.67574e-07
2.5174e-07
3.18735e-07
2.41423e-07
1.41977e-07
6.62172e-08
3.05805e-08
1.65139e-08
9.37196e-09
5.57503e-09
3.34082e-09
2.05685e-09
1.26913e-09
7.79395e-10
4.79684e-10
2.96396e-10
1.8252e-10
1.14154e-10
7.2001e-11
4.71594e-11
3.20223e-11
2.34744e-11
2.18967e-11
2.57065e-11
2.55484e-11
2.35657e-11
2.11447e-11
1.87891e-11
1.70773e-11
1.61959e-11
1.622e-11
2.12786e-11
1.19545e-10
1.50895e-09
1.57785e-08
1.38124e-07
9.47108e-07
4.90969e-06
1.97482e-05
6.45003e-05
0.000178815
0.000444405
0.00104459
0.00241863
0.00544363
0.0108426
0.0182756
0.0266782
0.0334958
0.0374021
0.0389778
0.0389832
0.0379697
0.0363413
0.0343784
0.0322324
0.0300319
6.00129e-08
2.52903e-07
2.41303e-07
3.0753e-07
2.33755e-07
1.3785e-07
6.51007e-08
3.04447e-08
1.65021e-08
9.37786e-09
5.59488e-09
3.34984e-09
2.05957e-09
1.26966e-09
7.79849e-10
4.80589e-10
2.97134e-10
1.83031e-10
1.14468e-10
7.21292e-11
4.72419e-11
3.20444e-11
2.3358e-11
1.98948e-11
2.35843e-11
2.57087e-11
2.3961e-11
2.15439e-11
1.90654e-11
1.72835e-11
1.63582e-11
1.61372e-11
1.83502e-11
6.55735e-11
8.77e-10
1.03942e-08
1.01114e-07
7.63414e-07
4.25066e-06
1.78492e-05
5.99783e-05
0.000169251
0.000424099
0.000998752
0.00231685
0.00526611
0.0106608
0.0182128
0.0269435
0.034292
0.0386145
0.0404013
0.0404999
0.0395014
0.0378375
0.0358061
0.0336069
0.0313362
0.0290698
5.68131e-08
2.39675e-07
2.3157e-07
2.96943e-07
2.26696e-07
1.3401e-07
6.40064e-08
3.02364e-08
1.64629e-08
9.3807e-09
5.61877e-09
3.36196e-09
2.06513e-09
1.27197e-09
7.80507e-10
4.81408e-10
2.97808e-10
1.83501e-10
1.14784e-10
7.229e-11
4.73415e-11
3.2102e-11
2.33694e-11
1.88071e-11
2.08871e-11
2.53486e-11
2.4306e-11
2.19702e-11
1.93578e-11
1.75004e-11
1.654e-11
1.61352e-11
1.71271e-11
3.80606e-11
4.85608e-10
6.66245e-09
7.26946e-08
6.10039e-07
3.67771e-06
1.61609e-05
5.58751e-05
0.000160555
0.000405918
0.000957439
0.00222288
0.00509559
0.0104789
0.018144
0.0271927
0.0350838
0.0398648
0.0418897
0.0420952
0.0411166
0.039417
0.0373163
0.035027
0.0326884
0.0303581
0.0280717
5.36942e-08
2.27729e-07
2.22537e-07
2.86749e-07
2.20212e-07
1.30503e-07
6.30731e-08
2.99959e-08
1.6384e-08
9.37755e-09
5.64039e-09
3.37528e-09
2.07252e-09
1.27599e-09
7.82052e-10
4.8219e-10
2.98457e-10
1.83988e-10
1.15119e-10
7.24902e-11
4.74561e-11
3.21823e-11
2.33967e-11
1.83263e-11
1.84071e-11
2.39423e-11
2.46334e-11
2.24088e-11
1.96724e-11
1.77262e-11
1.67325e-11
1.62598e-11
1.66575e-11
2.52373e-11
2.54952e-10
4.13066e-09
5.12188e-08
4.82715e-07
3.18132e-06
1.46671e-05
5.21802e-05
0.000152664
0.00038971
0.000920659
0.00213695
0.00493325
0.0102985
0.0180707
0.0274302
0.0358645
0.0411495
0.0434437
0.0437708
0.0428202
0.0410863
0.0389135
0.0365314
0.0340881
0.0316799
0.0293365
0.0270641
5.05195e-08
2.16254e-07
2.14386e-07
2.77077e-07
2.14158e-07
1.27265e-07
6.22675e-08
2.97886e-08
1.62846e-08
9.36454e-09
5.65653e-09
3.38662e-09
2.08037e-09
1.28082e-09
7.84518e-10
4.83214e-10
2.99064e-10
1.84477e-10
1.15468e-10
7.27147e-11
4.75901e-11
3.22735e-11
2.34446e-11
1.82793e-11
1.67501e-11
2.18133e-11
2.48016e-11
2.28237e-11
2.0019e-11
1.79624e-11
1.69374e-11
1.64386e-11
1.64885e-11
1.9801e-11
1.28037e-10
2.45097e-09
3.52384e-08
3.77892e-07
2.75257e-06
1.33525e-05
4.88825e-05
0.000145536
0.000375318
0.000888301
0.00205931
0.00477991
0.0101223
0.017995
0.0276585
0.0366431
0.0424676
0.0450677
0.0455297
0.0446154
0.0428511
0.040605
0.0381253
0.0355726
0.0330499
0.0306217
0.0282988
0.026066
4.72993e-08
2.05124e-07
2.07136e-07
2.67945e-07
2.08388e-07
1.24291e-07
6.15191e-08
2.96073e-08
1.61972e-08
9.34963e-09
5.66636e-09
3.39506e-09
2.08737e-09
1.28577e-09
7.87315e-10
4.84672e-10
2.9967e-10
1.84902e-10
1.15816e-10
7.29516e-11
4.77391e-11
3.2364e-11
2.3507e-11
1.82925e-11
1.5867e-11
1.92404e-11
2.44856e-11
2.32037e-11
2.04088e-11
1.82104e-11
1.71528e-11
1.66414e-11
1.64585e-11
1.77149e-11
6.40874e-11
1.37607e-09
2.35687e-08
2.92254e-07
2.38438e-06
1.21999e-05
4.59729e-05
0.000139149
0.000362578
0.000860255
0.00198996
0.00463671
0.00995191
0.0179205
0.0278785
0.0374189
0.0438187
0.0467696
0.0473768
0.0465075
0.0447158
0.0423965
0.0398154
0.0371476
0.0345046
0.0319553
0.0295432
0.0272652
0.0250919
4.40834e-08
1.94675e-07
2.01033e-07
2.59532e-07
2.0263e-07
1.21436e-07
6.07707e-08
2.94168e-08
1.61269e-08
9.34727e-09
5.67392e-09
3.39905e-09
2.09248e-09
1.29027e-09
7.90132e-10
4.86325e-10
3.00321e-10
1.85268e-10
1.16129e-10
7.3183e-11
4.78928e-11
3.24507e-11
2.35726e-11
1.83228e-11
1.55066e-11
1.69155e-11
2.31758e-11
2.35758e-11
2.08372e-11
1.84727e-11
1.7377e-11
1.68643e-11
1.65646e-11
1.69382e-11
3.49024e-11
7.14683e-10
1.52149e-08
2.22937e-07
2.07029e-06
1.11948e-05
4.34322e-05
0.000133515
0.000351356
0.000836282
0.00192923
0.00450464
0.00978958
0.01785
0.0280933
0.0381903
0.0451981
0.0485423
0.0493186
0.0485025
0.0466873
0.0442936
0.0416084
0.0388199
0.0360495
0.0333729
0.030836
0.0284659
0.0262514
0.024153
4.0886e-08
1.84715e-07
1.96203e-07
2.51818e-07
1.96937e-07
1.18686e-07
5.99494e-08
2.92109e-08
1.6065e-08
9.3607e-09
5.68605e-09
3.40203e-09
2.095e-09
1.29376e-09
7.92805e-10
4.87957e-10
3.01007e-10
1.85574e-10
1.16354e-10
7.33854e-11
4.80406e-11
3.25364e-11
2.36341e-11
1.83691e-11
1.54733e-11
1.53282e-11
2.12262e-11
2.38576e-11
2.1276e-11
1.87534e-11
1.76088e-11
1.7098e-11
1.67234e-11
1.66186e-11
2.32226e-11
3.39465e-10
9.38763e-09
1.6724e-07
1.8051e-06
1.03244e-05
4.12408e-05
0.000128645
0.000341597
0.00081606
0.00187736
0.00438479
0.00963736
0.0177867
0.0283074
0.0389569
0.046594
0.0503818
0.0513567
0.0506077
0.0487731
0.0463044
0.0435108
0.0405966
0.037692
0.0348802
0.0322112
0.0297144
0.0274062
0.0252689
0.0232584
3.76973e-08
1.75063e-07
1.92327e-07
2.44867e-07
1.91372e-07
1.1597e-07
5.90262e-08
2.8966e-08
1.60135e-08
9.38113e-09
5.70436e-09
3.40754e-09
2.09737e-09
1.29612e-09
7.95016e-10
4.89497e-10
3.01805e-10
1.85879e-10
1.16489e-10
7.35565e-11
4.81798e-11
3.26281e-11
2.36911e-11
1.84267e-11
1.5495e-11
1.44468e-11
1.88471e-11
2.37604e-11
2.16855e-11
1.90614e-11
1.78468e-11
1.73397e-11
1.69311e-11
1.64671e-11
1.92228e-11
1.48e-10
5.45441e-09
1.22808e-07
1.58384e-06
9.5797e-06
3.93744e-05
0.000124552
0.000333317
0.000799277
0.00183435
0.00427839
0.00949699
0.0177332
0.0285251
0.0397138
0.0479927
0.0522865
0.0534941
0.052829
0.0509816
0.0484381
0.045532
0.0424843
0.0394387
0.0364841
0.033675
0.0310439
0.0286082
0.0263765
0.0243277
0.0224158
3.45456e-08
1.65159e-07
1.8918e-07
2.38857e-07
1.85929e-07
1.13308e-07
5.80128e-08
2.86755e-08
1.59653e-08
9.40471e-09
5.72408e-09
3.41672e-09
2.10086e-09
1.29817e-09
7.96969e-10
4.90891e-10
3.02692e-10
1.86205e-10
1.1657e-10
7.36903e-11
4.83109e-11
3.27255e-11
2.3748e-11
1.84875e-11
1.55286e-11
1.40084e-11
1.66127e-11
2.27097e-11
2.20617e-11
1.94115e-11
1.80924e-11
1.75883e-11
1.71639e-11
1.64602e-11
1.79941e-11
6.33153e-11
2.90945e-09
8.7593e-08
1.40232e-06
8.95395e-06
3.78145e-05
0.000121226
0.000326602
0.000785686
0.0017999
0.0041869
0.00936939
0.0176936
0.0287399
0.0404546
0.0494059
0.0542603
0.0557427
0.0551711
0.0533203
0.0507039
0.0476811
0.0444935
0.0412973
0.0381915
0.035234
0.03246
0.029889
0.0275303
0.0253871
0.0234357
0.0216321
3.15022e-08
1.55097e-07
1.8643e-07
2.33774e-07
1.80612e-07
1.10632e-07
5.69554e-08
2.83702e-08
1.59196e-08
9.42657e-09
5.7434e-09
3.42695e-09
2.10618e-09
1.30092e-09
7.98592e-10
4.922e-10
3.03565e-10
1.86675e-10
1.16686e-10
7.38044e-11
4.84374e-11
3.28213e-11
2.3812e-11
1.85449e-11
1.55755e-11
1.39389e-11
1.49482e-11
2.11001e-11
2.2439e-11
1.98208e-11
1.83474e-11
1.78432e-11
1.74145e-11
1.65321e-11
1.7541e-11
3.21658e-11
1.3611e-09
5.98851e-08
1.25674e-06
8.4434e-06
3.65474e-05
0.000118649
0.000321538
0.000775264
0.00177329
0.00411166
0.00925587
0.0176715
0.0289353
0.0411786
0.050841
0.0563043
0.0581134
0.0576395
0.0557865
0.0531009
0.0499634
0.0466327
0.0432788
0.0400106
0.0368954
0.0339698
0.0312548
0.0287606
0.0264912
0.0244461
0.0226
0.0209136
2.8606e-08
1.45206e-07
1.84063e-07
2.29416e-07
1.75415e-07
1.07762e-07
5.58763e-08
2.80882e-08
1.58864e-08
9.44352e-09
5.75941e-09
3.43696e-09
2.1127e-09
1.30438e-09
8.002e-10
4.93365e-10
3.04438e-10
1.87235e-10
1.16885e-10
7.3901e-11
4.85333e-11
3.29127e-11
2.38899e-11
1.85971e-11
1.56308e-11
1.39514e-11
1.39244e-11
1.91253e-11
2.24886e-11
2.0256e-11
1.86127e-11
1.8104e-11
1.76764e-11
1.66706e-11
1.729e-11
2.34681e-11
5.27821e-10
3.8417e-08
1.14366e-06
8.04589e-06
3.55685e-05
0.000116795
0.000318194
0.000768143
0.00175377
0.00405271
0.00916001
0.0176474
0.0291063
0.0418959
0.0523047
0.0584187
0.0605945
0.0602369
0.0583971
0.0556435
0.0523884
0.0489094
0.0453909
0.0419521
0.0386674
0.0355802
0.032712
0.0300739
0.0276697
0.0254993
0.0235608
0.0218272
0.0202667
2.58571e-08
1.35826e-07
1.82001e-07
2.25618e-07
1.70216e-07
1.04624e-07
5.47767e-08
2.783e-08
1.58788e-08
9.45932e-09
5.77132e-09
3.4456e-09
2.11898e-09
1.30851e-09
8.02196e-10
4.94349e-10
3.05257e-10
1.87816e-10
1.17182e-10
7.40294e-11
4.86014e-11
3.29951e-11
2.39778e-11
1.86444e-11
1.56814e-11
1.39765e-11
1.33435e-11
1.7107e-11
2.19152e-11
2.06654e-11
1.88899e-11
1.83717e-11
1.79466e-11
1.68514e-11
1.71629e-11
2.16825e-11
1.67488e-10
2.22385e-08
1.06032e-06
7.76013e-06
3.48816e-05
0.000115647
0.000316581
0.000764552
0.00174084
0.00400866
0.00908109
0.0176068
0.0292692
0.0426119
0.0537925
0.0606085
0.0631743
0.0629766
0.061164
0.0583446
0.0549662
0.0513326
0.0476424
0.0440249
0.0405602
0.0372993
0.0342677
0.0314762
0.0289289
0.026625
0.0245623
0.0227379
0.0211235
0.0196976
2.32765e-08
1.26967e-07
1.80317e-07
2.22183e-07
1.65034e-07
1.01232e-07
5.36621e-08
2.75984e-08
1.58843e-08
9.47997e-09
5.78203e-09
3.45342e-09
2.12479e-09
1.31278e-09
8.04283e-10
4.95393e-10
3.05949e-10
1.88357e-10
1.17539e-10
7.41811e-11
4.86492e-11
3.30672e-11
2.40655e-11
1.86894e-11