/*--------------------------------*- C++ -*----------------------------------*\
| =========                 |                                                 |
| \\      /  F ield         | OpenFOAM: The Open Source CFD Toolbox           |
|  \\    /   O peration     | Version:  v2012                                 |
|   \\  /    A nd           | Website:  www.openfoam.com                      |
|    \\/     M anipulation  |                                                 |
\*---------------------------------------------------------------------------*/
FoamFile
{
    version     2.0;
    format      ascii;
    class       volScalarField;
    location    "12000";
    object      nut;
}
// * * * * * * * * * * * * * * * * * * * * * * * * * * * * * * * * * * * * * //

dimensions      [0 2 -1 0 0 0 0];


internalField   nonuniform List<scalar> 
27324
(
2.3373e-05
2.20528e-05
5.48727e-05
2.07847e-05
5.30542e-05
5.67428e-05
1.95241e-05
5.12186e-05
5.37846e-05
3.82696e-05
1.82885e-05
4.92697e-05
5.08536e-05
3.56423e-05
2.02562e-05
1.70776e-05
4.71996e-05
4.78761e-05
3.30174e-05
1.87492e-05
9.65324e-06
1.59041e-05
4.49825e-05
4.48802e-05
3.04271e-05
1.71514e-05
8.9362e-06
4.3458e-06
1.47833e-05
4.26353e-05
4.18696e-05
2.79352e-05
1.55773e-05
8.10795e-06
4.02168e-06
1.876e-06
1.37313e-05
4.02046e-05
3.88812e-05
2.55694e-05
1.40928e-05
7.28405e-06
3.62122e-06
1.7336e-06
7.93567e-07
1.2749e-05
3.77532e-05
3.59556e-05
2.33559e-05
1.27326e-05
6.51233e-06
3.22064e-06
1.55188e-06
7.35005e-07
3.48916e-07
1.18305e-05
3.52918e-05
3.31228e-05
2.1285e-05
1.15112e-05
5.81975e-06
2.84831e-06
1.37099e-06
6.59652e-07
3.26655e-07
1.71308e-07
1.09698e-05
3.28037e-05
3.03791e-05
1.93085e-05
1.03984e-05
5.21384e-06
2.51985e-06
1.20543e-06
5.85509e-07
2.98029e-07
1.62964e-07
9.48764e-08
1.01618e-05
3.02728e-05
2.77074e-05
1.74001e-05
9.32366e-06
4.67049e-06
2.23849e-06
1.06242e-06
5.1892e-07
2.69982e-07
1.52242e-07
9.14595e-08
5.67407e-08
9.40089e-06
2.76902e-05
2.509e-05
1.55559e-05
8.2644e-06
4.13998e-06
1.99046e-06
9.4269e-07
4.62473e-07
2.45024e-07
1.41582e-07
8.70504e-08
5.50947e-08
3.50283e-08
8.67236e-06
2.50429e-05
2.25027e-05
1.37786e-05
7.2321e-06
3.61156e-06
1.7498e-06
8.39393e-07
4.16016e-07
2.23963e-07
1.31998e-07
8.25129e-08
5.29638e-08
3.41023e-08
2.17572e-08
7.96561e-06
2.22676e-05
1.99146e-05
1.20619e-05
6.24654e-06
3.10006e-06
1.51264e-06
7.4087e-07
3.76538e-07
2.06646e-07
1.23756e-07
7.82986e-08
5.06869e-08
3.29143e-08
2.11912e-08
1.34912e-08
7.27349e-06
1.93494e-05
1.7308e-05
1.04001e-05
5.31703e-06
2.62442e-06
1.28842e-06
6.45535e-07
3.3942e-07
1.91937e-07
1.16816e-07
7.45259e-08
4.84885e-08
3.16116e-08
2.04819e-08
1.31385e-08
8.39306e-09
6.59534e-06
1.6331e-05
1.47175e-05
8.86762e-06
4.45094e-06
2.19384e-06
1.08711e-06
5.57463e-07
3.03991e-07
1.78136e-07
1.10782e-07
7.12022e-08
4.64397e-08
3.0311e-08
1.96945e-08
1.27103e-08
8.17471e-09
5.27025e-09
5.93496e-06
1.32861e-05
1.22021e-05
7.51899e-06
3.72579e-06
1.81288e-06
9.1238e-07
4.805e-07
2.71653e-07
1.64918e-07
1.0501e-07
6.81907e-08
4.45539e-08
2.90605e-08
1.88885e-08
1.22347e-08
7.91752e-09
5.13504e-09
3.38499e-09
5.09128e-06
1.02642e-05
9.81121e-06
6.33369e-06
3.17172e-06
1.52001e-06
7.64555e-07
4.15596e-07
2.43677e-07
1.52687e-07
9.93245e-08
6.52253e-08
4.27823e-08
2.7873e-08
1.80959e-08
1.17374e-08
7.63597e-09
4.97816e-09
3.30105e-09
2.27471e-09
3.91505e-06
7.10557e-06
7.61574e-06
5.27664e-06
2.74279e-06
1.31863e-06
6.56572e-07
3.62155e-07
2.20254e-07
1.41865e-07
9.3824e-08
6.22051e-08
4.10105e-08
2.67271e-08
1.73278e-08
1.12394e-08
7.33472e-09
4.81301e-09
3.20347e-09
2.21935e-09
1.63902e-09
2.39886e-06
4.94465e-06
5.56701e-06
4.41898e-06
2.38916e-06
1.17641e-06
5.85694e-07
3.23886e-07
2.01043e-07
1.32512e-07
8.86834e-08
5.9148e-08
3.91837e-08
2.55765e-08
1.6576e-08
1.07489e-08
7.02678e-09
4.63276e-09
3.10759e-09
2.15594e-09
1.59232e-09
1.2912e-09
1.11327e-06
3.39853e-06
4.19041e-06
3.65524e-06
2.17144e-06
1.06466e-06
5.3741e-07
2.99079e-07
1.87121e-07
1.24572e-07
8.39658e-08
5.615e-08
3.72991e-08
2.43928e-08
1.58251e-08
1.02653e-08
6.7188e-09
4.44329e-09
3.00324e-09
2.09911e-09
1.54382e-09
1.25573e-09
1.11873e-09
9.08131e-07
2.41746e-06
3.19087e-06
3.07319e-06
1.95042e-06
1.01444e-06
4.99681e-07
2.8259e-07
1.77931e-07
1.18479e-07
7.97479e-08
5.32782e-08
3.54155e-08
2.31681e-08
1.50653e-08
9.78579e-09
6.41333e-09
4.25052e-09
2.89121e-09
2.03996e-09
1.50685e-09
1.20667e-09
1.08976e-09
1.0319e-09
8.62526e-07
2.22491e-06
2.41955e-06
2.81285e-06
1.84827e-06
9.46306e-07
4.8585e-07
2.70025e-07
1.71864e-07
1.14184e-07
7.62608e-08
5.06467e-08
3.35927e-08
2.19349e-08
1.42914e-08
9.30946e-09
6.11192e-09
4.05842e-09
2.77479e-09
1.97643e-09
1.47154e-09
1.17746e-09
1.04944e-09
9.97355e-10
1.3731e-09
8.37823e-07
2.15606e-06
2.19248e-06
2.60564e-06
1.90632e-06
9.63493e-07
4.65156e-07
2.6557e-07
1.67392e-07
1.11201e-07
7.36008e-08
4.83736e-08
3.19338e-08
2.07353e-08
1.35174e-08
8.83534e-09
5.81638e-09
3.86921e-09
2.65845e-09
1.90823e-09
1.43698e-09
1.15433e-09
1.01358e-09
9.59833e-10
1.26161e-09
3.35191e-09
8.15115e-07
2.10242e-06
2.1069e-06
2.50137e-06
1.97205e-06
1.06432e-06
4.91177e-07
2.59644e-07
1.64963e-07
1.09137e-07
7.16261e-08
4.65636e-08
3.04804e-08
1.96437e-08
1.27695e-08
8.36623e-09
5.52851e-09
3.68452e-09
2.54488e-09
1.83915e-09
1.40029e-09
1.13498e-09
9.84976e-10
9.25663e-10
1.12588e-09
2.66539e-09
9.1258e-09
7.91233e-07
2.04385e-06
2.04045e-06
2.41997e-06
1.94844e-06
1.17655e-06
5.59977e-07
2.78254e-07
1.63787e-07
1.06953e-07
7.03423e-08
4.52058e-08
2.92935e-08
1.86688e-08
1.20943e-08
7.9134e-09
5.24857e-09
3.50653e-09
2.4352e-09
1.77293e-09
1.36173e-09
1.11566e-09
9.64741e-10
8.85008e-10
9.93017e-10
2.01635e-09
6.52517e-09
2.5015e-08
7.66e-07
1.97921e-06
1.97388e-06
2.3411e-06
1.88923e-06
1.18125e-06
6.39125e-07
3.19415e-07
1.78651e-07
1.08399e-07
6.8566e-08
4.41938e-08
2.84102e-08
1.7842e-08
1.14971e-08
7.49847e-09
4.97698e-09
3.33794e-09
2.33063e-09
1.70971e-09
1.32134e-09
1.09442e-09
9.34059e-10
8.32902e-10
8.72523e-10
1.54187e-09
4.55325e-09
1.75888e-08
7.25676e-08
7.4015e-07
1.90925e-06
1.91078e-06
2.26846e-06
1.82466e-06
1.15414e-06
6.43452e-07
3.6785e-07
2.06857e-07
1.21606e-07
7.13508e-08
4.35115e-08
2.72898e-08
1.71796e-08
1.09616e-08
7.12335e-09
4.71871e-09
3.1722e-09
2.23019e-09
1.64604e-09
1.27142e-09
1.04458e-09
8.86386e-10
7.72664e-10
7.72371e-10
1.19377e-09
3.2182e-09
1.23585e-08
5.22697e-08
2.1637e-07
7.14436e-07
1.83762e-06
1.8512e-06
2.20216e-06
1.76212e-06
1.12224e-06
6.3565e-07
3.63076e-07
2.39414e-07
1.44397e-07
8.21126e-08
4.67442e-08
2.74585e-08
1.66614e-08
1.03545e-08
6.66335e-09
4.4209e-09
2.96401e-09
2.09366e-09
1.54612e-09
1.19259e-09
9.70783e-10
8.2054e-10
7.19531e-10
6.99946e-10
9.57161e-10
2.31918e-09
8.66999e-09
3.73768e-08
1.5966e-07
6.43029e-07
6.89583e-07
1.76785e-06
1.79679e-06
2.14042e-06
1.7016e-06
1.08805e-06
6.25206e-07
3.61083e-07
2.40403e-07
1.71655e-07
9.95886e-08
5.49117e-08
3.0428e-08
1.73514e-08
1.0281e-08
6.34134e-09
4.06528e-09
2.70507e-09
1.90654e-09
1.40756e-09
1.08543e-09
8.93228e-10
7.70454e-10
6.87678e-10
6.56571e-10
8.03025e-10
1.71247e-09
6.07637e-09
2.65014e-08
1.16709e-07
4.86836e-07
1.87279e-06
6.66106e-07
1.70355e-06
1.74809e-06
2.08284e-06
1.64318e-06
1.05456e-06
6.11029e-07
3.58396e-07
2.3737e-07
1.78204e-07
1.21154e-07
6.7356e-08
3.62659e-08
1.96904e-08
1.10559e-08
6.50959e-09
4.03105e-09
2.62859e-09
1.81277e-09
1.32704e-09
1.03381e-09
8.5383e-10
7.44567e-10
6.71002e-10
6.35008e-10
7.06662e-10
1.29681e-09
4.26691e-09
1.86399e-08
8.44296e-08
3.64728e-07
1.45511e-06
5.27659e-06
6.44601e-07
1.64734e-06
1.70468e-06
2.02787e-06
1.58705e-06
1.0227e-06
5.9695e-07
3.53234e-07
2.36115e-07
1.72317e-07
1.31284e-07
8.28347e-08
4.45899e-08
2.35505e-08
1.26987e-08
7.1546e-09
4.2458e-09
2.68043e-09
1.80897e-09
1.30812e-09
1.0163e-09
8.38589e-10
7.33181e-10
6.6916e-10
6.3033e-10
6.49239e-10
1.01275e-09
3.01426e-09
1.30061e-08
6.04415e-08
2.70288e-07
1.11912e-06
4.20235e-06
1.4287e-05
6.25325e-07
1.59989e-06
1.66463e-06
1.97325e-06
1.53275e-06
9.92921e-07
5.83528e-07
3.47299e-07
2.33986e-07
1.714e-07
1.28197e-07
9.37737e-08
5.47523e-08
2.8977e-08
1.51713e-08
8.24745e-09
4.68914e-09
2.85917e-09
1.87678e-09
1.33137e-09
1.02214e-09
8.43721e-10
7.38059e-10
6.72724e-10
6.30745e-10
6.19706e-10
8.2581e-10
2.15207e-09
9.01649e-09
4.28118e-08
1.98106e-07
8.51637e-07
3.31647e-06
1.16419e-05
3.73819e-05
6.08058e-07
1.55916e-06
1.62487e-06
1.91599e-06
1.47954e-06
9.65089e-07
5.71091e-07
3.41246e-07
2.31312e-07
1.70359e-07
1.27163e-07
9.36732e-08
6.39433e-08
3.52321e-08
1.82816e-08
9.68391e-09
5.3314e-09
3.14427e-09
2.00678e-09
1.39143e-09
1.05062e-09
8.58251e-10
7.46271e-10
6.77607e-10
6.32947e-10
6.07295e-10
7.07661e-10
1.56281e-09
6.22073e-09
3.00148e-08
1.43574e-07
6.41024e-07
2.59171e-06
9.41454e-06
3.11176e-05
9.3967e-05
5.91637e-07
1.52176e-06
1.58245e-06
1.85421e-06
1.42731e-06
9.38649e-07
5.59643e-07
3.35337e-07
2.28568e-07
1.69116e-07
1.26548e-07
9.16407e-08
6.64178e-08
4.17073e-08
2.19445e-08
1.14119e-08
6.11208e-09
3.48952e-09
2.16163e-09
1.46308e-09
1.08439e-09
8.74837e-10
7.55286e-10
6.82978e-10
6.35711e-10
6.03708e-10
6.37034e-10
1.16361e-09
4.28474e-09
2.08256e-08
1.02897e-07
4.76986e-07
2.00517e-06
7.54682e-06
2.57397e-05
7.98508e-05
0.000227285
5.74559e-07
1.48433e-06
1.53586e-06
1.78849e-06
1.37693e-06
9.13352e-07
5.48685e-07
3.29826e-07
2.25933e-07
1.67875e-07
1.25828e-07
9.11256e-08
6.49158e-08
4.55785e-08
2.58646e-08
1.34839e-08
7.04759e-09
3.90341e-09
2.3433e-09
1.54473e-09
1.1223e-09
8.93057e-10
7.64691e-10
6.88459e-10
6.38683e-10
6.03666e-10
6.00823e-10
9.01113e-10
2.95744e-09
1.43097e-08
7.28901e-08
3.50867e-07
1.53459e-06
5.99587e-06
2.1128e-05
6.75394e-05
0.000196981
0.000528315
5.56287e-07
1.44383e-06
1.48457e-06
1.72109e-06
1.32898e-06
8.89358e-07
5.37953e-07
3.24615e-07
2.23569e-07
1.66707e-07
1.25092e-07
9.06069e-08
6.43535e-08
4.52897e-08
2.93307e-08
1.57169e-08
8.15433e-09
4.39592e-09
2.55894e-09
1.63849e-09
1.16442e-09
9.12755e-10
7.74595e-10
6.9414e-10
6.4211e-10
6.05041e-10
5.84774e-10
7.37223e-10
2.05768e-09
9.74205e-09
5.10313e-08
2.55035e-07
1.16127e-06
4.71886e-06
1.7213e-05
5.67515e-05
0.000170198
0.000466351
0.00117819
5.36881e-07
1.39803e-06
1.42858e-06
1.65342e-06
1.28352e-06
8.66628e-07
5.27526e-07
3.19705e-07
2.2143e-07
1.65677e-07
1.24364e-07
9.00701e-08
6.40362e-08
4.43248e-08
3.02556e-08
1.80665e-08
9.45226e-09
4.97704e-09
2.81583e-09
1.74816e-09
1.21216e-09
9.345e-10
7.85241e-10
7.00071e-10
6.45955e-10
6.07036e-10
5.79177e-10
6.40392e-10
1.45647e-09
6.58132e-09
3.52902e-08
1.8316e-07
8.68386e-07
3.67734e-06
1.39097e-05
4.73978e-05
0.000146258
0.000410975
0.00105725
0.00251502
5.17034e-07
1.3491e-06
1.37215e-06
1.58926e-06
1.24129e-06
8.45081e-07
5.17588e-07
3.15194e-07
2.19481e-07
1.64746e-07
1.23697e-07
8.95375e-08
6.37118e-08
4.40609e-08
2.96248e-08
1.95585e-08
1.0808e-08
5.662e-09
3.11677e-09
1.87778e-09
1.26689e-09
9.58758e-10
7.96854e-10
7.06347e-10
6.50014e-10
6.09494e-10
5.78104e-10
5.89582e-10
1.06345e-09
4.42272e-09
2.41035e-08
1.29874e-07
6.41701e-07
2.83526e-06
1.11463e-05
3.93213e-05
0.000125111
0.000360586
0.000948277
0.0022899
0.00510721
4.97806e-07
1.30067e-06
1.31957e-06
1.53157e-06
1.20248e-06
8.24855e-07
5.08379e-07
3.11156e-07
2.17714e-07
1.6389e-07
1.23082e-07
8.90587e-08
6.33929e-08
4.38302e-08
2.92702e-08
1.95109e-08
1.20308e-08
6.40254e-09
3.46582e-09
2.0294e-09
1.3304e-09
9.85911e-10
8.09535e-10
7.13023e-10
6.54287e-10
6.12436e-10
5.78882e-10
5.65863e-10
8.17972e-10
2.96786e-09
1.62597e-08
9.08881e-08
4.68341e-07
2.16157e-06
8.85175e-06
3.23955e-05
0.000106473
0.00031536
0.000847578
0.00208568
0.00471266
0.00971429
4.80329e-07
1.25524e-06
1.27284e-06
1.4796e-06
1.16649e-06
8.05549e-07
5.0002e-07
3.07669e-07
2.16146e-07
1.6311e-07
1.22511e-07
8.86415e-08
6.31063e-08
4.3601e-08
2.90941e-08
1.90489e-08
1.25384e-08
7.13603e-09
3.86014e-09
2.20416e-09
1.40457e-09
1.01657e-09
8.23388e-10
7.2015e-10
6.58726e-10
6.1575e-10
5.80465e-10
5.56369e-10
6.72671e-10
2.00442e-09
1.0831e-08
6.27466e-08
3.37429e-07
1.62824e-06
6.9645e-06
2.64907e-05
9.01342e-05
0.000274804
0.000756022
0.00189437
0.0043516
0.00908684
0.0169244
4.64033e-07
1.214e-06
1.23143e-06
1.43104e-06
1.13197e-06
7.86813e-07
4.91982e-07
3.04752e-07
2.14825e-07
1.6242e-07
1.2199e-07
8.82782e-08
6.28649e-08
4.33867e-08
2.89243e-08
1.88878e-08
1.23573e-08
7.70928e-09
4.25757e-09
2.40244e-09
1.49057e-09
1.0517e-09
8.38608e-10
7.27796e-10
6.63371e-10
6.19276e-10
5.82598e-10
5.53466e-10
5.93873e-10
1.38034e-09
7.13172e-09
4.26916e-08
2.3989e-07
1.2114e-06
5.42515e-06
2.14953e-05
7.58651e-05
0.000238589
0.000672749
0.0017186
0.00400844
0.00850534
0.0160534
0.0268449
4.49134e-07
1.17851e-06
1.19347e-06
1.38387e-06
1.09799e-06
7.68308e-07
4.84023e-07
3.01846e-07
2.13776e-07
1.61853e-07
1.21534e-07
8.79716e-08
6.26627e-08
4.32039e-08
2.87627e-08
1.87717e-08
1.2052e-08
7.84746e-09
4.63689e-09
2.62537e-09
1.58846e-09
1.09239e-09
8.55498e-10
7.36039e-10
6.68253e-10
6.22966e-10
5.85242e-10
5.53236e-10
5.55008e-10
9.89927e-10
4.64992e-09
2.861e-08
1.68142e-07
8.8978e-07
4.1817e-06
1.72981e-05
6.34741e-05
0.000206331
0.000597283
0.00155691
0.00368982
0.00794162
0.0152373
0.0257493
0.0399802
4.34656e-07
1.14598e-06
1.15668e-06
1.33718e-06
1.06392e-06
7.49857e-07
4.7601e-07
2.98974e-07
2.12861e-07
1.61422e-07
1.21167e-07
8.77312e-08
6.25006e-08
4.30504e-08
2.86244e-08
1.86589e-08
1.19656e-08
7.69927e-09
4.89517e-09
2.82685e-09
1.6989e-09
1.13922e-09
8.74617e-10
7.4495e-10
6.73413e-10
6.2678e-10
5.88251e-10
5.54191e-10
5.37774e-10
7.57415e-10
3.01803e-09
1.8862e-08
1.16132e-07
6.44659e-07
3.18766e-06
1.38006e-05
5.27654e-05
0.000177713
0.000529008
0.00140867
0.0033936
0.00741044
0.0144276
0.0247213
0.0385935
0.0578985
4.19595e-07
1.11229e-06
1.11724e-06
1.28963e-06
1.02975e-06
7.31074e-07
4.67818e-07
2.96186e-07
2.12108e-07
1.61071e-07
1.20905e-07
8.75764e-08
6.23843e-08
4.29291e-08
2.85121e-08
1.8561e-08
1.18957e-08
7.54574e-09
4.9224e-09
3.01171e-09
1.81734e-09
1.19194e-09
8.96666e-10
7.54661e-10
6.78862e-10
6.30717e-10
5.91478e-10
5.55806e-10
5.31147e-10
6.2791e-10
1.96967e-09
1.22291e-08
7.89316e-08
4.60601e-07
2.40065e-06
1.09113e-05
4.35693e-05
0.000152396
0.000467427
0.00127294
0.00311929
0.00690944
0.0136515
0.0236848
0.0373023
0.0561925
0.0782364
4.03085e-07
1.07484e-06
1.07503e-06
1.24192e-06
9.96061e-07
7.11921e-07
4.59254e-07
2.93481e-07
2.11504e-07
1.60795e-07
1.20701e-07
8.7511e-08
6.2326e-08
4.28448e-08
2.84288e-08
1.84821e-08
1.18333e-08
7.49556e-09
4.82782e-09
3.12398e-09
1.91881e-09
1.25005e-09
9.22005e-10
7.6543e-10
6.84608e-10
6.34787e-10
5.94823e-10
5.58011e-10
5.29111e-10
5.6111e-10
1.31734e-09
7.79623e-09
5.27314e-08
3.24283e-07
1.7849e-06
8.54359e-06
3.5726e-05
0.00013009
0.000411978
0.00114898
0.00286561
0.00643933
0.0129061
0.0226841
0.035986
0.0546041
0.0752733
0.0994162
3.84915e-07
1.03217e-06
1.03194e-06
1.19551e-06
9.6353e-07
6.92221e-07
4.50314e-07
2.90765e-07
2.10985e-07
1.60562e-07
1.20559e-07
8.75064e-08
6.23278e-08
4.28055e-08
2.83756e-08
1.84251e-08
1.17828e-08
7.45658e-09
4.74439e-09
3.12099e-09
2.0065e-09
1.3132e-09
9.50298e-10
7.77683e-10
6.90657e-10
6.38995e-10
5.98277e-10
5.60625e-10
5.29006e-10
5.29399e-10
9.2799e-10
4.89951e-09
3.45531e-08
2.24896e-07
1.30862e-06
6.62201e-06
2.90789e-05
0.000110524
0.000362182
0.00103592
0.0026317
0.00599926
0.0121944
0.0217138
0.0347139
0.0529523
0.074234
0.0950725
0.116206
3.65957e-07
9.85674e-07
9.89002e-07
1.15073e-06
9.32252e-07
6.72558e-07
4.40512e-07
2.87971e-07
2.10446e-07
1.60335e-07
1.20452e-07
8.75494e-08
6.23694e-08
4.28095e-08
2.83549e-08
1.83903e-08
1.17479e-08
7.42464e-09
4.71817e-09
3.06111e-09
2.05112e-09
1.36401e-09
9.81155e-10
7.91653e-10
6.97094e-10
6.43339e-10
6.01819e-10
5.63497e-10
5.29798e-10
5.15646e-10
7.08706e-10
3.0513e-09
2.21804e-08
1.5345e-07
9.45268e-07
5.076e-06
2.34906e-05
9.34287e-05
0.000317579
0.000933024
0.00241629
0.0055889
0.0115168
0.0207765
0.0334775
0.0513397
0.0725925
0.0937289
0.115524
0.126536
3.47973e-07
9.39908e-07
9.49352e-07
1.10957e-06
9.0198e-07
6.53061e-07
4.30492e-07
2.84811e-07
2.0981e-07
1.60034e-07
1.20357e-07
8.76199e-08
6.2441e-08
4.2843e-08
2.83637e-08
1.83764e-08
1.17287e-08
7.40172e-09
4.70025e-09
3.00471e-09
2.04072e-09
1.39985e-09
1.01363e-09
8.07195e-10
7.0416e-10
6.47813e-10
6.05469e-10
5.66517e-10
5.31257e-10
5.10346e-10
5.93147e-10
1.91019e-09
1.39499e-08
1.02856e-07
6.71888e-07
3.84534e-06
1.88243e-05
7.8577e-05
0.000277702
0.000839571
0.0022184
0.00520715
0.0108749
0.0198725
0.032282
0.0497562
0.0711224
0.0913958
0.114972
0.126306
0.132147
3.31864e-07
8.9743e-07
9.14106e-07
1.07169e-06
8.73088e-07
6.34393e-07
4.20591e-07
2.81503e-07
2.08965e-07
1.5963e-07
1.20221e-07
8.76925e-08
6.25273e-08
4.2897e-08
2.83901e-08
1.83821e-08
1.17224e-08
7.38899e-09
4.68678e-09
2.99085e-09
2.00172e-09
1.41128e-09
1.04165e-09
8.23577e-10
7.12155e-10
6.52431e-10
6.09232e-10
5.69652e-10
5.33219e-10
5.08609e-10
5.36394e-10
1.23519e-09
8.57356e-09
6.74768e-08
4.69571e-07
2.87548e-06
1.49596e-05
6.57361e-05
0.000242172
0.00075477
0.002037
0.00485317
0.0102686
0.0190047
0.031128
0.0482104
0.0696925
0.0892756
0.112647
0.126282
0.132303
0.133481
3.17101e-07
8.58349e-07
8.82101e-07
1.03556e-06
8.4452e-07
6.1662e-07
4.11738e-07
2.78277e-07
2.07981e-07
1.59057e-07
1.20017e-07
8.77293e-08
6.26073e-08
4.29608e-08
2.84279e-08
1.83938e-08
1.17264e-08
7.38369e-09
4.67846e-09
2.9815e-09
1.96207e-09
1.39341e-09
1.05373e-09
8.40958e-10
7.21034e-10
6.57303e-10
6.13108e-10
5.72885e-10
5.35507e-10
5.08373e-10
5.10553e-10
8.56462e-10
5.15276e-09
4.32734e-08
3.22346e-07
2.12057e-06
1.17803e-05
5.47041e-05
0.000210599
0.000677985
0.00187093
0.00452597
0.00969857
0.0181745
0.0300181
0.0467043
0.0683283
0.0872211
0.110051
0.126148
0.1327
0.133968
0.131046
3.03139e-07
8.2243e-07
8.52175e-07
1.00004e-06
8.16348e-07
5.99515e-07
4.03698e-07
2.75787e-07
2.0694e-07
1.58375e-07
1.19715e-07
8.7702e-08
6.2652e-08
4.302e-08
2.84696e-08
1.84115e-08
1.17344e-08
7.38332e-09
4.674e-09
2.97365e-09
1.95228e-09
1.36101e-09
1.04998e-09
8.56481e-10
7.30401e-10
6.6267e-10
6.17098e-10
5.76214e-10
5.37954e-10
5.0903e-10
4.99825e-10
6.57294e-10
3.04902e-09
2.70589e-08
2.17183e-07
1.54003e-06
9.18623e-06
4.52735e-05
0.000182671
0.000608523
0.00171923
0.00422418
0.00916494
0.0173836
0.0289532
0.0452425
0.0670169
0.0852882
0.107467
0.125974
0.133001
0.134717
0.131801
0.125485
2.89349e-07
7.86713e-07
8.22581e-07
9.65068e-07
7.88571e-07
5.83134e-07
3.96221e-07
2.73694e-07
2.06179e-07
1.57638e-07
1.19364e-07
8.75789e-08
6.26522e-08
4.30596e-08
2.85079e-08
1.84318e-08
1.17429e-08
7.38557e-09
4.67184e-09
2.96807e-09
1.94712e-09
1.33113e-09
1.02784e-09
8.58083e-10
7.39984e-10
6.68701e-10
6.21216e-10
5.79653e-10
5.40473e-10
5.10383e-10
4.95907e-10
5.59564e-10
1.81329e-09
1.64259e-08
1.43431e-07
1.09991e-06
7.08479e-06
3.72612e-05
0.000158057
0.000545846
0.00158076
0.00394676
0.0086671
0.0166334
0.0279358
0.043827
0.0657399
0.083503
0.104951
0.125743
0.133274
0.135388
0.132829
0.12644
0.117537
2.75666e-07
7.50215e-07
7.92434e-07
9.31205e-07
7.61321e-07
5.67182e-07
3.8933e-07
2.71841e-07
2.05512e-07
1.57083e-07
1.19016e-07
8.74092e-08
6.25797e-08
4.30738e-08
2.85377e-08
1.84518e-08
1.17516e-08
7.38926e-09
4.6706e-09
2.96376e-09
1.94224e-09
1.31782e-09
9.96533e-10
8.49577e-10
7.49317e-10
6.7519e-10
6.25574e-10
5.83197e-10
5.43061e-10
5.12038e-10
4.94696e-10
5.15073e-10
1.12724e-09
9.64278e-09
9.26368e-08
7.71445e-07
5.39796e-06
3.04842e-05
0.000136482
0.000489399
0.00145461
0.00369225
0.0082049
0.0159247
0.0269681
0.0424635
0.0642544
0.0818044
0.102432
0.125452
0.133509
0.136038
0.133792
0.127669
0.118623
0.107962
2.61939e-07
7.13894e-07
7.62555e-07
8.98706e-07
7.35397e-07
5.51641e-07
3.82798e-07
2.70118e-07
2.049e-07
1.56626e-07
1.18817e-07
8.72319e-08
6.24756e-08
4.30377e-08
2.85533e-08
1.84702e-08
1.17613e-08
7.39362e-09
4.66953e-09
2.96044e-09
1.93778e-09
1.31368e-09
9.70698e-10
8.25973e-10
7.54122e-10
6.81703e-10
6.30395e-10
5.86847e-10
5.45723e-10
5.13877e-10
4.9494e-10
4.96399e-10
7.71288e-10
5.47398e-09
5.83353e-08
5.30255e-07
4.05793e-06
2.47816e-05
0.000117645
0.000438764
0.00133974
0.00345949
0.00777738
0.0152586
0.0260513
0.0411576
0.062623
0.0801665
0.0999539
0.122835
0.133709
0.136661
0.134743
0.128844
0.119977
0.109117
0.0974685
2.49012e-07
6.78488e-07
7.33527e-07
8.67378e-07
7.10839e-07
5.36249e-07
3.76523e-07
2.68376e-07
2.04296e-07
1.56235e-07
1.18751e-07
8.71563e-08
6.23678e-08
4.29839e-08
2.85464e-08
1.84834e-08
1.17718e-08
7.39688e-09
4.66912e-09
2.95766e-09
1.93458e-09
1.31045e-09
9.51492e-10
7.93114e-10
7.45413e-10
6.88203e-10
6.35792e-10
5.90625e-10
5.48464e-10
5.1581e-10
4.96123e-10
4.89197e-10
6.00332e-10
3.04902e-09
3.55353e-08
3.56537e-07
3.00504e-06
2.00072e-05
0.000101273
0.000393504
0.00123539
0.00324693
0.00738401
0.0146353
0.0251878
0.0399123
0.0610346
0.0785882
0.0975741
0.11984
0.133877
0.137256
0.135675
0.130014
0.121285
0.110526
0.0986388
0.086663
2.3743e-07
6.46269e-07
7.06329e-07
8.37238e-07
6.87804e-07
5.21319e-07
3.70243e-07
2.66478e-07
2.03573e-07
1.55916e-07
1.18769e-07
8.71574e-08
6.23279e-08
4.29311e-08
2.85227e-08
1.84917e-08
1.17812e-08
7.40162e-09
4.6704e-09
2.95568e-09
1.9326e-09
1.30791e-09
9.47161e-10
7.63181e-10
7.26842e-10
6.93761e-10
6.41526e-10
5.94618e-10
5.51283e-10
5.17795e-10
4.97674e-10
4.86674e-10
5.25082e-10
1.69945e-09
2.07477e-08
2.33844e-07
2.18926e-06
1.60271e-05
8.70991e-05
0.000353255
0.00114079
0.0030533
0.00702353
0.0140556
0.0243786
0.0387322
0.0594938
0.0770677
0.0953304
0.116919
0.134001
0.137821
0.136586
0.131172
0.122595
0.111897
0.100046
0.0878066
0.0760257
2.26794e-07
6.1691e-07
6.80668e-07
8.08502e-07
6.66251e-07
5.07346e-07
3.64138e-07
2.64266e-07
2.02693e-07
1.55585e-07
1.18835e-07
8.72101e-08
6.23394e-08
4.29204e-08
2.85008e-08
1.84982e-08
1.17899e-08
7.40741e-09
4.67206e-09
2.95507e-09
1.93143e-09
1.30632e-09
9.45448e-10
7.4293e-10
6.96008e-10
6.93557e-10
6.47253e-10
5.99025e-10
5.54184e-10
5.19829e-10
4.9932e-10
4.85975e-10
4.94633e-10
1.00329e-09
1.15679e-08
1.4921e-07
1.56605e-06
1.27294e-05
7.48584e-05
0.00031765
0.00105541
0.00287712
0.00669497
0.0135195
0.0236259
0.0376205
0.0580078
0.0755905
0.0932713
0.114075
0.134073
0.138353
0.137475
0.132318
0.1239
0.113275
0.10142
0.0891666
0.0771122
0.0659069
2.16546e-07
5.90128e-07
6.56478e-07
7.80759e-07
6.46033e-07
4.94392e-07
3.58666e-07
2.61927e-07
2.01548e-07
1.55206e-07
1.18879e-07
8.72817e-08
6.23875e-08
4.29411e-08
2.85001e-08
1.84988e-08
1.17986e-08
7.41406e-09
4.67507e-09
2.9556e-09
1.93091e-09
1.30555e-09
9.44137e-10
7.31691e-10
6.61391e-10
6.80818e-10
6.52863e-10
6.03995e-10
5.57193e-10
5.21893e-10
5.00929e-10
4.86734e-10
4.83217e-10
6.76209e-10
6.13352e-09
9.21506e-08
1.09763e-06
1.00123e-05
6.43263e-05
0.000286279
0.000978827
0.00271726
0.00639661
0.0130276
0.0229309
0.0365812
0.0565834
0.0741623
0.0913156
0.111239
0.133594
0.138848
0.138338
0.133449
0.1252
0.114654
0.102805
0.0904987
0.0783937
0.0669166
0.0565382
2.06303e-07
5.64612e-07
6.34194e-07
7.54053e-07
6.26901e-07
4.82234e-07
3.53692e-07
2.59772e-07
2.00263e-07
1.54726e-07
1.18859e-07
8.73277e-08
6.24457e-08
4.2981e-08
2.85165e-08
1.8502e-08
1.18042e-08
7.42116e-09
4.67897e-09
2.95676e-09
1.93105e-09
1.30527e-09
9.43191e-10
7.29497e-10
6.34123e-10
6.58771e-10
6.5748e-10
6.09373e-10
5.60407e-10
5.23993e-10
5.02508e-10
4.88259e-10
4.78944e-10
5.38102e-10
3.11857e-09
5.46459e-08
7.51074e-07
7.79098e-06
5.52915e-05
0.000258777
0.000910578
0.00257287
0.00612682
0.0125799
0.0222951
0.0356165
0.0552293
0.0728033
0.0894417
0.108478
0.130401
0.139307
0.139172
0.13456
0.126491
0.116034
0.104197
0.0918446
0.0796508
0.068099
0.0574597
0.0480522
1.95998e-07
5.39989e-07
6.13809e-07
7.28689e-07
6.08585e-07
4.70853e-07
3.4891e-07
2.57757e-07
1.99055e-07
1.54226e-07
1.18751e-07
8.73282e-08
6.24904e-08
4.30261e-08
2.85381e-08
1.8512e-08
1.18071e-08
7.42662e-09
4.68305e-09
2.95849e-09
1.93161e-09
1.30511e-09
9.42708e-10
7.28425e-10
6.17001e-10
6.26339e-10
6.56681e-10
6.14971e-10
5.64036e-10
5.26124e-10
5.04078e-10
4.89758e-10
4.77524e-10
4.86419e-10
1.58267e-09
3.07125e-08
4.9953e-07
5.98827e-06
4.75845e-05
0.000234752
0.00085029
0.00244332
0.00588392
0.0121761
0.0217189
0.0347296
0.0539515
0.0715177
0.0876565
0.105829
0.127175
0.139728
0.139973
0.135651
0.127771
0.117412
0.105594
0.0932002
0.0809235
0.0692605
0.0585323
0.0488808
0.0405037
1.85652e-07
5.16558e-07
5.95674e-07
7.04952e-07
5.90662e-07
4.59978e-07
3.44166e-07
2.55712e-07
1.97955e-07
1.53835e-07
1.18611e-07
8.72449e-08
6.25044e-08
4.30656e-08
2.85627e-08
1.85266e-08
1.18077e-08
7.42947e-09
4.68613e-09
2.96052e-09
1.93227e-09
1.30497e-09
9.42442e-10
7.27659e-10
6.08648e-10
5.91994e-10
6.4393e-10
6.2061e-10
5.68271e-10
5.28277e-10
5.05608e-10
4.91334e-10
4.77684e-10
4.68242e-10
8.74552e-10
1.6032e-08
3.20685e-07
4.53861e-06
4.10498e-05
0.000213881
0.000797452
0.00232836
0.00566634
0.0118153
0.0212038
0.033923
0.0527575
0.0702906
0.0859745
0.103332
0.124026
0.140103
0.140739
0.136715
0.129037
0.118784
0.106994
0.0945647
0.0822081
0.0704382
0.059587
0.0498401
0.0412396
0.0338903
1.7522e-07
4.93996e-07
5.80021e-07
6.82835e-07
5.73179e-07
4.49497e-07
3.39264e-07
2.53597e-07
1.96894e-07
1.5358e-07
1.18519e-07
8.71396e-08
6.24593e-08
4.3088e-08
2.85882e-08
1.85407e-08
1.18081e-08
7.4281e-09
4.68766e-09
2.96257e-09
1.93287e-09
1.30493e-09
9.42193e-10
7.27216e-10
6.0707e-10
5.65207e-10
6.23045e-10
6.2582e-10
5.73067e-10
5.30467e-10
5.07081e-10
4.92811e-10
4.78635e-10
4.61214e-10
5.89984e-10
7.67534e-09
1.9686e-07
3.38174e-06
3.55609e-05
0.000195861
0.000751588
0.00222771
0.00547343
0.0114954
0.0207512
0.0332
0.0516532
0.0691284
0.084368
0.101044
0.120914
0.140419
0.141463
0.137748
0.130284
0.12015
0.108395
0.0959365
0.0835039
0.0716289
0.0606579
0.0507842
0.0420871
0.0345368
0.0281712
1.64777e-07
4.7194e-07
5.66297e-07
6.62415e-07
5.56265e-07
4.39221e-07
3.341e-07
2.5132e-07
1.959e-07
1.53383e-07
1.18498e-07
8.70698e-08
6.24037e-08
4.30842e-08
2.86079e-08
1.8555e-08
1.1811e-08
7.42554e-09
4.68696e-09
2.96396e-09
1.93365e-09
1.30513e-09
9.41967e-10
7.27111e-10
6.06468e-10
5.48374e-10
5.92881e-10
6.27248e-10
5.7811e-10
5.32794e-10
5.08478e-10
4.94177e-10
4.79856e-10
4.57702e-10
4.94049e-10
3.37993e-09
1.1396e-07
2.46583e-06
3.0999e-05
0.000180471
0.000712169
0.00214115
0.005305
0.0112148
0.020361
0.0325639
0.0506442
0.068067
0.0828191
0.0989185
0.117778
0.139308
0.142149
0.138758
0.131512
0.121504
0.109795
0.0973132
0.0848097
0.0728322
0.0617422
0.0517441
0.0429223
0.0352777
0.0287335
0.0232808
1.54362e-07
4.49602e-07
5.54118e-07
6.43918e-07
5.39829e-07
4.292e-07
3.28668e-07
2.48833e-07
1.9493e-07
1.53203e-07
1.18489e-07
8.70519e-08
6.23657e-08
4.30655e-08
2.86217e-08
1.85699e-08
1.18178e-08
7.42326e-09
4.68329e-09
2.96492e-09
1.93461e-09
1.30546e-09
9.41825e-10
7.27176e-10
6.061e-10
5.38809e-10
5.60295e-10
6.16988e-10
5.83396e-10
5.3549e-10
5.09792e-10
4.95404e-10
4.81134e-10
4.55897e-10
4.66427e-10
1.46313e-09
6.06822e-08
1.74616e-06
2.72633e-05
0.000167524
0.000678793
0.00206819
0.0051616
0.0109722
0.0200319
0.0320181
0.0497342
0.0671253
0.0813503
0.096902
0.114791
0.135896
0.142798
0.139741
0.132726
0.122851
0.11119
0.0986939
0.0861235
0.0740471
0.0628395
0.0527172
0.0437723
0.0360089
0.0293751
0.0237654
0.0191406
1.44136e-07
4.27069e-07
5.42936e-07
6.27271e-07
5.23836e-07
4.19184e-07
3.23103e-07
2.46261e-07
1.93971e-07
1.53005e-07
1.18467e-07
8.70501e-08
6.23572e-08
4.30583e-08
2.86238e-08
1.85839e-08
1.18262e-08
7.42512e-09
4.67968e-09
2.96543e-09
1.93556e-09
1.30583e-09
9.41858e-10
7.27233e-10
6.05971e-10
5.36644e-10
5.32953e-10
6.00146e-10
5.88982e-10
5.3885e-10
5.11023e-10
4.9648e-10
4.82324e-10
4.55188e-10
4.57365e-10
7.52531e-10
2.84686e-08
1.18523e-06
2.42642e-05
0.000156889
0.000651119
0.00200833
0.00504365
0.0107681
0.0197605
0.0315652
0.0489256
0.0662894
0.0799882
0.0949526
0.11202
0.132556
0.143419
0.140696
0.133919
0.124187
0.112584
0.100076
0.0874449
0.075272
0.0639492
0.0537032
0.0446351
0.036754
0.0300093
0.024316
0.0195542
0.0156664
1.34183e-07
4.04882e-07
5.32659e-07
6.12103e-07
5.08271e-07
4.08803e-07
3.17476e-07
2.43767e-07
1.93083e-07
1.52756e-07
1.18404e-07
8.70403e-08
6.23716e-08
4.30623e-08
2.86207e-08
1.85946e-08
1.18359e-08
7.42984e-09
4.67801e-09
2.9645e-09
1.93607e-09
1.30637e-09
9.42168e-10
7.27268e-10
6.06086e-10
5.36098e-10
5.14441e-10
5.76191e-10
5.9185e-10
5.42777e-10
5.12176e-10
4.97387e-10
4.83362e-10
4.55053e-10
4.52474e-10
5.55647e-10
1.10917e-08
7.55135e-07
2.19222e-05
0.000148471
0.000628972
0.00196102
0.00495141
0.010604
0.0195431
0.0312037
0.0482265
0.0655226
0.0787021
0.0931537
0.109381
0.129563
0.14401
0.141623
0.135091
0.125509
0.113972
0.101459
0.0887713
0.0765067
0.0650699
0.0547016
0.0455103
0.0375111
0.0306565
0.0248614
0.0200225
0.0160161
0.0127744
1.2457e-07
3.83657e-07
5.23043e-07
5.98065e-07
4.92917e-07
3.97905e-07
3.11778e-07
2.41356e-07
1.92348e-07
1.52486e-07
1.18284e-07
8.70108e-08
6.23813e-08
4.30819e-08
2.86221e-08
1.85962e-08
1.18452e-08
7.43579e-09
4.67867e-09
2.96368e-09
1.93617e-09
1.30696e-09
9.42636e-10
7.27246e-10
6.06197e-10
5.3577e-10
5.02578e-10
5.48527e-10
5.86787e-10
5.46848e-10
5.13302e-10
4.98122e-10
4.842e-10
4.55292e-10
4.4903e-10
5.18734e-10
3.54376e-09
4.34688e-07
2.01734e-05
0.000142187
0.000612289
0.00192589
0.00488454
0.0104817
0.0193776
0.0309275
0.0476247
0.0649019
0.0775047
0.0915344
0.106982
0.127052
0.144567
0.142523
0.13624
0.126816
0.115351
0.10284
0.0901008
0.0777493
0.0662016
0.0557113
0.0463975
0.0382799
0.0313148
0.0254187
0.0204876
0.0164107
0.0130668
0.0103845
1.15358e-07
3.63583e-07
5.14111e-07
5.84631e-07
4.77767e-07
3.86486e-07
3.06035e-07
2.39058e-07
1.9168e-07
1.52245e-07
1.18146e-07
8.69616e-08
6.23827e-08
4.31059e-08
2.86269e-08
1.85968e-08
1.18509e-08
7.44172e-09
4.68118e-09
2.96343e-09
1.93554e-09
1.30738e-09
9.43136e-10
7.27199e-10
6.06143e-10
5.35873e-10
4.9849e-10
5.22647e-10
5.75059e-10
5.51245e-10
5.14611e-10
4.98688e-10
4.84832e-10
4.55669e-10
4.466e-10
5.1115e-10
1.3683e-09
2.0851e-07
1.8966e-05
0.000137986
0.000601093
0.00190274
0.00484245
0.0104025
0.0192637
0.0307297
0.0470438
0.0645827
0.0764193
0.0900437
0.104988