/*--------------------------------*- C++ -*----------------------------------*\
| =========                 |                                                 |
| \\      /  F ield         | OpenFOAM: The Open Source CFD Toolbox           |
|  \\    /   O peration     | Version:  v2012                                 |
|   \\  /    A nd           | Website:  www.openfoam.com                      |
|    \\/     M anipulation  |                                                 |
\*---------------------------------------------------------------------------*/
FoamFile
{
    version     2.0;
    format      ascii;
    class       volScalarField;
    location    "12000";
    object      omega;
}
// * * * * * * * * * * * * * * * * * * * * * * * * * * * * * * * * * * * * * //

dimensions      [0 0 -1 0 0 0 0];


internalField   nonuniform List<scalar> 
27324
(
78695.6
79702.7
119558
80797.6
122501
125412
81830.4
125675
127716
109410
82819.4
128882
130101
109987
77660.1
83724.3
132079
132348
110481
77067.2
48082.8
84533.8
135155
134432
110725
76268.1
47404.7
29028.7
85257
138049
136265
110766
75244.9
46479.6
28565.8
18259.5
85916.1
140766
137812
110578
74094.7
45399.7
27911.3
17988.3
12466.9
86505.1
143354
139066
110171
72850.1
44259.1
27164
17601.3
12332.5
9398.26
86986.5
145755
140023
109531
71545
43107.5
26394.5
17165.5
12135.8
9338.68
7732.31
87315
147804
140603
108582
70144.6
41980.4
25643.3
16728.3
11911.3
9246.82
7707.88
6768.71
87456.7
149288
140657
107229
68512.8
40845.8
24936.9
16314.3
11689.1
9136.95
7668.14
6762.05
6200.61
87368
149978
139997
105373
66572.1
39589.7
24256.4
15939.2
11482.1
9028.71
7616.07
6749.44
6204.06
5855.91
86957.3
149558
138383
102916
64311.2
38176.1
23531.2
15590.3
11298.2
8928.2
7565.29
6728.03
6207.13
5864.75
5654.88
86127.4
147423
135488
99750.2
61760.5
36639.7
22744.4
15225
11130.3
8840.14
7518.59
6707.65
6204.01
5876.25
5667.6
5558.66
84795.1
143012
130953
95769.2
58949.9
35043
21922.1
14831.3
10954.4
8761.04
7478.74
6689.31
6201.91
5883.17
5684.79
5575.04
5532.83
82922.9
136003
124623
91092.7
55914.2
33428.5
21100.6
14421.7
10763.1
8678.05
7444.05
6674.56
6201.14
5891.18
5698.4
5596.89
5551.91
5553.69
80561.5
126284
116569
85939.1
52939.4
31819.4
20297.4
14013.9
10562.1
8586.67
7407.56
6662.59
6202.13
5899.99
5713.6
5615.73
5576.91
5572.48
5622.49
76275
113789
106968
80415
50232.2
30394.1
19515.5
13616.5
10361.2
8489.34
7366.41
6649.86
6204.53
5909.71
5729.62
5636.44
5599.62
5598.27
5634.53
5748.14
68364.1
97215.3
96031.5
74486.2
47740
29247.9
18844.7
13230.3
10165.7
8391.59
7321.21
6634.52
6207.07
5919.77
5746.24
5658.78
5623.47
5624.27
5658.04
5739.94
5947.67
56724.3
82971.7
83664.6
68485.4
45303.1
28303.6
18329.6
12902.4
9977.81
8296.67
7275.07
6616.29
6208.69
5930.11
5763.06
5681.81
5649.61
5649.83
5688.15
5749.78
5889.17
6252.44
44192.7
71920.8
74165.4
62758.6
43284.4
27425
17925.6
12659.4
9821.87
8207.89
7230.08
6596.97
6209.03
5940.14
5780.39
5705.35
5677.18
5677.19
5717.23
5780.14
5860.91
6143.5
6645.05
41602.7
63623.9
67849.2
59668.2
41317.5
26861.9
17552.3
12482.6
9712.78
8136.86
7189.88
6578.06
6209.18
5949.65
5798.24
5729.68
5705.63
5707.12
5746.94
5812.83
5878.91
6041.51
6513.14
6857.58
41506.2
61856.4
61110.8
61998
42552.3
26113.8
17346.8
12328.3
9642.64
8091.32
7158.33
6563.23
6210.36
5959.22
5816.93
5755.14
5735.13
5738.96
5779.3
5844.77
5908.49
6023.38
6379.38
6773.63
6936.67
41777.6
62106.1
58707.1
62462.9
49324.6
28065.9
17022.3
12237.8
9587.65
8065.65
7139.84
6552.06
6215.74
5969.49
5836.57
5782.31
5765.89
5772.04
5815.01
5875.39
5943.76
6041.42
6277.45
6625.32
6882.56
6929.12
42052.2
62626.7
58393.3
61194.9
56581
34388.5
18400.4
12078.8
9514.18
8049
7130.31
6547.35
6222.73
5982.2
5857.28
5810.83
5797.93
5806.16
5852.78
5909.31
5977.95
6077.23
6218.72
6483.75
6680.12
6750.53
6500.85
42250.6
63004.6
58328.9
60872.6
57413.6
43395.7
22446
12874
9392.8
7938.64
7116.77
6547.79
6230.45
5995.26
5878.37
5840.12
5831.53
5840.91
5891.92
5949.67
6012.6
6117.83
6206.98
6315.71
6434.64
6509.92
6379.76
6084.15
42354.5
63210
58184.2
60737.4
57420.6
45617.7
28886
15097.9
9822.32
7811.04
6954.73
6510.02
6237.01
6006.8
5901.01
5867.26
5866.01
5877.92
5934.26
5991.87
6047.71
6152.16
6145.09
6108.62
6155.31
6303.17
6233.02
6059.08
5977.96
42386
63237.4
58052.8
60680.6
57380.7
45927.2
30682.6
18755.6
11048.3
8021.21
6800.84
6327.01
6111.08
5983.31
5909.07
5891.6
5895.42
5913.34
5972.97
6029.83
6049.48
6063.04
5996.91
5858.29
5868.97
6102.25
6150.03
6058.57
5996.36
5935.76
42375.5
63157.3
57940.7
60733.2
57424.1
45930
31023.1
19480.3
13081.8
8724.62
6867.82
6137.24
5889.4
5810.3
5788.65
5801.97
5839
5870.62
5918.61
5949.68
5930.18
5876.04
5764.46
5608.24
5620.16
5914.31
6106.17
6071.29
6012.62
5955
5898.61
42357.1
63047.9
57898.2
60869.6
57501.3
45934
31036.8
19679.5
13648.9
9929.89
7245.16
6130.6
5689.42
5546.14
5545.23
5591.04
5647.28
5691.18
5730.57
5740.76
5699.54
5620.92
5533.88
5431.24
5436.74
5742.99
6062.09
6081.88
6030.54
5970.72
5916.33
5867.72
42361.4
62999.6
57954.8
61093.2
57596.9
45931.5
30991.6
19719.6
13669.9
10434.7
7892.01
6328.3
5667.13
5380.25
5295.44
5316.82
5371.24
5425.24
5464.25
5475.9
5463.16
5415.64
5378.63
5322.85
5333.37
5589.27
5985.13
6085.05
6046.45
5987.78
5930.68
5883.88
5849.68
42423
63091.3
58114.3
61376.5
57698
45925.7
30947.3
19699.1
13688.4
10262.3
8250.43
6642.2
5783.14
5369.31
5194.86
5150.12
5175.15
5215.68
5260.29
5291.9
5311.34
5295.01
5291.57
5302.59
5315.13
5457.08
5866.24
6074.1
6059.43
6003.9
5946.34
5897.43
5865.33
5848.98
42558.8
63356.9
58341.9
61666.1
57779.3
45917.1
30902.6
19654.1
13675.2
10262.9
8111.52
6829.57
5926.07
5471.45
5224.17
5129
5104.04
5128.37
5167.34
5203.91
5238.57
5269.16
5294.24
5314.02
5321.59
5375.93
5728.99
6039.94
6067.66
6019.43
5961.68
5911.63
5879.46
5866.11
5860.14
42756.1
63759
58566.8
61886.3
57816.4
45899.9
30864.2
19597.7
13643.9
10256.2
8085.02
6705.79
5968.14
5540.63
5278.4
5155.01
5112.77
5128.22
5166.22
5204.6
5243.96
5281.63
5311.76
5331.25
5336.04
5343.22
5587.55
5971.93
6068.58
6033.82
5977.18
5925.19
5893.49
5883.66
5879.07
5876.13
42967.7
64210
58712.7
61981
57807.3
45868.6
30832.4
19537.7
13608.8
10244
8084.31
6598.54
5826.08
5507.77
5320.83
5185.34
5127.8
5135.22
5172.43
5214.67
5256.58
5297.59
5331.66
5350.8
5353.06
5338.95
5458.8
5864.46
6057.67
6046.16
5992.68
5938.58
5906.79
5900.03
5899.71
5896.71
5904.48
43142.5
64618.8
58733.8
61951.9
57774.2
45827.3
30797.7
19484
13576.7
10232.9
8081.29
6593.93
5683.01
5351.65
5248.62
5218.21
5142.67
5142.82
5176.92
5222.77
5269.31
5313.43
5350.28
5370.08
5370.11
5348.94
5380.22
5729.92
6027.96
6054.95
6007.91
5951.92
5919.55
5915.54
5918.98
5920.87
5924.02
5960.96
43229.9
64888.4
58609.7
61843.4
57735.6
45785.5
30755.9
19436
13553.9
10225.2
8078.97
6592.95
5665.17
5179.8
5076.34
5155.34
5148.73
5147.06
5180.64
5227.09
5278.18
5326.51
5367.12
5389.43
5387.94
5363.53
5346.65
5591.2
5971.01
6057.84
6022.36
5965.4
5931.72
5930.52
5938.11
5943.07
5948.97
5977
6066.11
43213
64937
58327.1
61681.1
57693.8
45745.6
30711.1
19395.9
13539.3
10223.3
8077.14
6593.13
5669.46
5095.31
4867.68
5005.58
5135.9
5147.29
5184.57
5230.51
5284.9
5338.06
5382.79
5408.63
5407.35
5380.82
5341.04
5463.46
5879.92
6051.25
6035.28
5978.99
5943.62
5944.78
5956.8
5965.55
5971.26
6000.03
6076.58
6249.07
43120.3
64831.4
58004.2
61547.5
57675.9
45707.5
30671.8
19367.6
13531.6
10225.7
8077.8
6593.57
5675.53
5096.01
4739.04
4778.88
5032.75
5145.73
5187.33
5235.01
5290.14
5348.54
5397.78
5427.6
5427.97
5400
5350.34
5378.67
5757.2
6029.97
6045.52
5992.53
5955.62
5958.23
5975.08
5987.81
5994.33
6019.68
6095.79
6249.26
6584.38
43003.5
64693.4
57769.3
61527.1
57707.9
45683.1
30647.5
19353.9
13530.7
10231.5
8080.42
6595.89
5682.17
5102.69
4718.21
4587.44
4832.87
5095.68
5187.7
5239.76
5294.75
5357.2
5411.8
5446.03
5449.52
5420.49
5365.64
5337.34
5622.58
5987.13
6051.31
6005.69
5967.99
5970.81
5992.86
6009.86
6017.49
6040.4
6111.12
6260.37
6562.81
7254.64
42922.1
64615.3
57686.3
61606
57772.8
45689.1
30647.5
19357.4
13537.6
10240.7
8084.65
6600.24
5689.71
5110.2
4722.9
4499.41
4593.27
4940.72
5173.98
5240.59
5299.78
5363.87
5424.38
5463.72
5471.29
5442.69
5384.05
5326.31
5492.9
5916.22
6049.99
6017.95
5980.7
5982.72
6010.1
6031.58
6040.79
6061.41
6127.93
6267.76
6555.05
7191.9
8565.4
42899.6
64655.6
57744.1
61724.5
57826.5
45712.5
30676.5
19381.2
13554.8
10254.2
8090.7
6606.23
5698.39
5118.05
4729.98
4496.24
4437.04
4709.5
5083.58
5236.04
5304.04
5369.41
5435.21
5480.59
5493.01
5466.6
5404.82
5331.84
5394.82
5815.74
6037.8
6028.45
5993.63
5994.42
6026.66
6052.94
6064.08
6082.83
6145.24
6277.59
6544.31
7145.94
8443.91
10827.4
42966.3
64911
57887.5
61831.3
57837.2
45736.8
30720.5
19412.7
13584.7
10273.4
8099.14
6613.91
5707.75
5126.51
4737.72
4502.92
4371.81
4476.74
4910.68
5220.87
5304.46
5375.03
5444.19
5496.59
5514.5
5491.58
5427.23
5345.88
5336.84
5693.73
6009.95
6035.89
6006.62
6006.31
6042.35
6073.89
6087.27
6104.57
6163.2
6288.64
6537.64
7097.9
8340.25
10662.1
13882.6
43061.9
65293.9
58041.2
61891.1
57785.4
45748.4
30766.9
19451.2
13625.3
10299.6
8110.99
6623.6
5717.73
5135.11
4746.09
4510.67
4374.56
4344.7
4665.23
5114.79
5301.92
5378.65
5452.08
5511.48
5535.66
5517.06
5451.53
5363.02
5312.6
5567.2
5960.94
6038.37
6019.25
6018.68
6057.19
6094.33
6110.27
6126.54
6181.72
6301.04
6533.64
7056.12
8232.34
10512
13766.3
16734.5
43112.7
65645
58057.9
61840.2
57678.5
45721.3
30799.2
19495.9
13677.2
10331.7
8127.11
6636.05
5728.53
5143.89
4754.81
4519.07
4382.4
4302.29
4440.99
4928.73
5279.47
5377.82
5460.24
5525.16
5556.33
5542.69
5477.71
5383.26
5309.24
5457.08
5886.6
6033.31
6030.82
6031.77
6071.05
6114.2
6133.03
6148.64
6200.73
6314.63
6532.41
7019.21
8131.06
10348.4
13664
16760.7
18800.6
43069.8
65847.8
57918.4
61703.5
57565.4
45658.8
30795.1
19541.9
13738.1
10369
8146.21
6651.5
5740.63
5153.06
4763.77
4527.91
4390.83
4305.74
4318.7
4685.31
5172.73
5371.06
5467.62
5538.11
5576.23
5568.25
5504.94
5405.53
5317.48
5378.02
5789.3
6017.45
6040.24
6045.73
6083.99
6133.49
6155.49
6170.75
6220.16
6329.32
6533.66
6987.45
8035.29
10186.5
13533
16814
18939.3
20410.8
42891.3
65820.8
57689.5
61534.3
57474.5
45580.6
30756.2
19578.1
13802
10408.8
8168.39
6669.36
5754.26
5163.08
4773.07
4536.96
4399.73
4313.26
4280.28
4459.75
4999.14
5356.26
5470.37
5551.4
5595.02
5593.55
5532.88
5429.84
5330.84
5332.86
5678.77
5987.1
6046.08
6060.37
6096.31
6152.04
6177.69
6192.77
6239.9
6345.02
6537.22
6960.61
7946.06
10025.4
13391.9
16833.1
19127.4
20621
21478
42623.2
65591.4
57393.6
61348.8
57406.4
45501.8
30680.5
19602.7
13860.4
10447.7
8192.22
6689.14
5769.09
5174.19
4783.02
4546.22
4409.17
4321.26
4284.73
4332.36
4760.44
5269.43
5469.91
5564.73
5612.66
5618.4
5561.15
5456.18
5347.86
5313.96
5569.99
5938.22
6046.69
6075.07
6108.3
6169.77
6199.62
6214.63
6259.81
6361.64
6542.96
6938.52
7863.6
9866.54
13238.9
16840.3
19284.7
20888.7
21779.9
21928.2
42363.7
65344.8
57153.2
61223.9
57342.7
45418
30589.8
19612.4
13909.8
10480.3
8215.68
6710.1
5785.05
5186.25
4793.87
4555.86
4419.01
4330.23
4293.14
4282.75
4528.3
5108.12
5458.5
5574.04
5629.99
5642.59
5589.7
5484.02
5367.15
5311.34
5478.28
5869.2
6040.31
6088.38
6120.55
6186.56
6221.26
6236.29
6279.77
6379.05
6550.71
6920.94
7788.28
9711.03
13075.9
16831.7
19439.3
21128.2
22150.1
22271.6
22056.4
42157.5
65175.8
57017.5
61153.3
57305.2
45346.5
30493.1
19613.1
13948.7
10505.4
8236.13
6730.75
5801.54
5199.11
4805.48
4566.17
4429.16
4340.27
4303.03
4286.59
4383.37
4883.4
5408.95
5580
5647.98
5666
5618.43
5512.84
5388.61
5318.65
5413.06
5785.23
6023.46
6098.22
6133.48
6202.42
6242.54
6257.8
6299.63
6397.15
6560.32
6907.62
7720.25
9559.97
12904
16807.8
19586.9
21370.2
22499.8
22691.7
22402.5
22135
42006.3
65079.6
56939.9
61093.2
57258
45303.6
30427.6
19614.1
13979.7
10521.7
8252.51
6749.44
5817.61
5212.36
4817.61
4577.01
4439.76
4350.69
4313.66
4295.57
4318.99
4637.37
5273.89
5579.95
5664.8
5688.99
5647.22
5542.32
5412.22
5329.76
5375.62
5695.26
5992.4
6103.68
6147.48
6217.38
6263.33
6279.19
6319.31
6415.75
6571.64
6898.3
7659.63
9414.37
12724.4
16768.3
19728.4
21610.5
22855.1
23101.1
22826.3
22464.6
22345.4
41856.8
65056.4
56877.6
61016.2
57201.4
45291.3
30397
19646.3
14007.5
10532.2
8264.88
6765.36
5832.48
5225.46
4829.9
4588.22
4450.74
4361.36
4324.58
4305.96
4319.83
4461.85
5071.5
5560.28
5676.68
5712.78
5675.95
5572.33
5437.67
5344.76
5360.02
5609.99
5945.15
6103.34
6162.16
6231.62
6283.44
6300.54
6338.78
6434.66
6584.5
6892.72
7606.43
9275.46
12538.8
16713.2
19863.7
21850.7
23210.6
23524.1
23243.7
22870.1
22652.3
22796.3
41640.8
64932.5
56753.1
60927.4
57128.6
45297.5
30398.9
19700.4
14049.6
10539.7
8275.39
6778.01
5845.56
5237.75
4841.9
4599.44
4461.85
4372.06
4335.57
4317.01
4329.54
4374.72
4826.68
5455.35
5685.52
5737.83
5704.61
5602.93
5463.95
5362.59
5358.33
5539.18
5883.26
6093.87
6176.68
6245.38
6302.72
6321.86
6358.11
6453.7
6598.71
6890.61
7560.51
9144.39
12348.9
16642.3
19993
22091
23566
23957.3
23676.9
23270
23032
23080.3
23553.6
41351
64636
56525.7
60842.6
57046.5
45282.5
30423
19772.2
14099
10555.9
8285.93
6789.29
5855.93
5248.81
4853.31
4610.27
4472.77
4382.59
4346.3
4328.05
4339.98
4358.62
4611.49
5289.52
5685
5761.23
5733.77
5634.01
5490.84
5382.64
5364.88
5489.5
5813.28
6072.03
6190.14
6259
6321.09
6343.1
6377.39
6472.72
6614.03
6891.73
7521.75
9022.01
12156.6
16555.8
20116.3
22332.6
23919.3
24401.3
24123.4
23685.1
23405.8
23434.5
23817.3
24663.9
40960.9
64202.2
56250.1
60780.6
57008.8
45244.6
30438.6
19849.7
14154.4
10577.8
8302.98
6800.16
5865.46
5258.01
4863.51
4620.5
4483.1
4392.77
4356.72
4338.91
4350.58
4365.29
4480.42
5064.73
5652.22
5780.33
5764.73
5665.43
5518.26
5404.65
5377.5
5462.32
5741.61
6037.65
6200.24
6272.83
6338.54
6364.14
6396.73
6491.65
6630.19
6895.82
7489.89
8909.18
11963.9
16454.4
20231.4
22576.9
24269
24855.9
24584.3
24113.2
23793.5
23781.7
24149.1
24910.3
26168.9
40563.7
63667.9
55953.3
60734.1
57009.1
45187.5
30441.3
19915.1
14209.4
10604.1
8326.67
6814.84
5874.89
5266.91
4872.46
4629.64
4492.77
4402.56
4366.87
4349.45
4361.22
4374.62
4418.57
4820.3
5531.11
5797.42
5797.82
5697.27
5546.23
5427.71
5395.18
5453.35
5676.23
5990.06
6201.66
6287.3
6355.26
6384.81
6416.23
6510.56
6646.91
6902.56
7464.72
8806.43
11772.9
16339.2
20336.4
22822
24614.2
25319.4
25060
24555.2
24193.1
24141.6
24472.5
25223.8
26400.7
28114.7
40189.6
63178.7
55693.1
60702.3
57041.3
45120.9
30432.9
19961.1
14252.3
10633.8
8355.02
6832.81
5886.54
5276.05
4880.95
4637.85
4501.44
4412.05
4376.8
4359.69
4371.92
4385.1
4417.78
4632.19
5348.34
5802.42
5830.1
5730.1
5574.74
5451.37
5416.17
5455.35
5624.52
5932.35
6191.66
6301.68
6371.49
6404.93
6435.85
6529.58
6663.97
6911.59
7445.93
8714.3
11585.5
16211.3
20429.7
23066
24955.2
25790.8
25550.4
25011.6
24605.3
24512
24807.6
25527.1
26699.6
28333.5
30557.1
39825.5
62717.5
55456
60689.6
57107.3
45067.5
30421.4
19985.5
14281.4
10660.3
8385.91
6853.25
5900.44
5286.77
4889.81
4645.9
4509.38
4420.97
4386.56
4369.86
4382.59
4396.58
4427.55
4526.52
5115.01
5767.17
5858.63
5765.16
5603.7
5475.52
5439.05
5461.53
5590.12
5868.36
6170.17
6315.41
6387.64
6424.4
6455.52
6548.84
6681.28
6922.48
7433.18
8633.08
11404.1
16072.6
20510.4
23307.2
25292.5
26268.9
26055.6
25482.5
25030.5
24893.9
25152.2
25841.4
26986.3
28620.8
30763.4
33566.6
39420.4
62296.3
55242.2
60678.6
57210.5
45036.9
30435.1
19999.8
14294.3
10682.1
8415.01
6874.64
5916.16
5299.28
4899.83
4654.2
4517.18
4429.47
4396.04
4380.28
4393.24
4408.22
4438.19
4484.72
4877.33
5645.08
5886.23
5803.25
5633.22
5499.95
5462.23
5477.27
5572.69
5804.89
6135.48
6326.09
6403.95
6443.28
6475.07
6568.48
6698.88
6934.83
7426.02
8563.12
11230.4
15924.9
20578.2
23543.8
25627.6
26751.9
26575.3
25968
25468.7
25287.4
25507.1
26164.4
27283.6
28893.6
31040.9
33759.1
37232.1
38939
61845.6
55083.5
60678.6
57334.6
45029.9
30470.5
20024.6
14299.5
10698.8
8440.48
6894.71
5932.41
5313.02
4911.36
4663.41
4525.02
4437.93
4405.28
4391.01
4403.98
4419.94
4449.89
4487.32
4700.86
5460.66
5901.96
5842.59
5664.03
5524.62
5485.53
5500.89
5567.29
5748.4
6087.02
6330.48
6420.6
6461.74
6494.38
6588.49
6716.97
6948.32
7423.85
8504.65
11066.6
15770.2
20633.4
23775.1
25961.2
27238
27109.1
26467.8
25920
25692.5
25872.6
26496.9
27589.1
29176.9
31301.4
34027.3
37407.4
41665.4
38376
61358.1
54984.1
60701.4
57459.7
45041.7
30516.9
20058.4
14310.1
10715.2
8462.6
6912.79
5948.04
5326.93
4923.82
4673.85
4533.4
4446.01
4414.36
4401.82
4414.91
4431.56
4461.99
4497.24
4602.08
5230.1
5878.42
5880.02
5697.75
5549.37
5508.86
5525.36
5571.67
5704.59
6030.69
6326.75
6437.41
6480.1
6513.33
6608.77
6735.73
6962.79
7425.99
8457.58
10914.3
15610.9
20676.5
24001.3
26294.1
27725.7
27655.2
26981.9
26384.2
26109.4
26248.6
26839.1
27903.5
29468.1
31572.7
34275.6
37665
41817.3
47007
37756.1
60875.7
54985.1
60762.6
57565
45045.8
30558.6
20092.6
14328.2
10738.2
8483.93
6928.12
5962.22
5340.41
4936.23
4685.12
4542.38
4453.99
4423.27
4412.19
4425.96
4442.91
4473.99
4508.23
4565.09
4996.78
5767.72
5918.93
5735.75
5574.13
5531.86
5551.27
5585.55
5674.58
5970.92
6308.86
6453.3
6498.68
6531.95
6629.12
6755.32
6978.3
7431.78
8421.53
10775.2
15449.7
20708.2
24222.9
26626.9
28213.2
28211.5
27510.4
26861.4
26538.2
26635.4
27191.1
28227
29768
31851.9
34535.4
37899.5
42060.9
47125.6
53432.6
37082.7
60392.5
55109.8
60862.7
57655.2
45052.5
30574
20121.2
14350.5
10770
8508.15
6943.16
5974.66
5352.8
4948.15
4696.4
4551.89
4462.51
4431.32
4421.87
4436.89
4453.93
4485.72
4520.43
4567.82
4817.61
5598.27
5950.37
5777.5
5598.98
5554.36
5576.79
5606.22
5655.38
5912.05
6276.58
6466.88
6517.77
6550.37
6649.35
6775.72
6995.09
7440.75
8395.72
10651.2
15289.4
20729.2
24440.1
26961.6
28698.1
28776.8
28052.6
27352.1
26978.7
27033
27553
28559.7
30076.7
32139.6
34803.3
38146.5
42277.5
47348.7
53503.1
61161.7
36346.8
59894.9
55324.1
61006.4
57732.4
45054.3
30565.8
20135.2
14376.6
10806.4
8536.72
6960.25
5987.34
5364.15
4959.2
4707.32
4561.79
4471.54
4438.31
4430.82
4447.19
4464.91
4496.89
4532.93
4578.49
4710.41
5382.72
5952.92
5820.27
5624.68
5576.09
5601.65
5630.75
5645.68
5859.64
6233.32
6475.32
6537.45
6568.85
6669.33
6796.78
7013.41
7452.73
8379.26
10543.5
15133.2
20740.7
24653.3
27299.5
29178.3
29347.6
28608.8
27855.1
27430.4
27441
27925.1
28901.8
30394.1
32436.1
35080
38402.2
42508.4
47540.7
53695.7
61162.5
70468.2
35551.6
59309.9
55608.9
61220.3
57795.5
45057.6
30536.9
20136
14402.8
10844.9
8566.86
6980.1
6001.11
5375.52
4969.64
4717.63
4571.81
4480.86
4445.6
4438.92
4456.8
4476.08
4507.74
4545.55
4590.14
4657.62
5156.22
5866.79
5861.87
5653.15
5596.97
5625.55
5657.11
5647.35
5817.66
6180.09
6475.6
6557.52
6587.71
6689.07
6818.26
7033.45
7467.86
8371.28
10452.6
14985
20743.5
24863.2
27639.1
29651.1
29921.8
29177.6
28369.9
27892.2
27858.2
28305.8
29253.3
30720.5
32741.1
35365.7
38667.4
42748.9
47749
53852.1
61310
70369.2
81693.7
34713.6
58635
55932.1
61513.6
57848.1
45049.2
30499.1
20133.7
14431
10883
8597.17
7001.16
6016.63
5387.98
4979.88
4727.54
4581.51
4490.43
4453.77
4446.46
4466.12
4487.17
4518.73
4557.93
4602.72
4655.1
4966.61
5729.35
5904.6
5686.9
5616.97
5648.34
5683.72
5658.43
5786.4
6124.71
6465.73
6577.38
6607.24
6708.71
6839.93
7055.15
7486.42
8371.28
10378.3
14848.8
20739.1
25071.1
27975.5
30117.2
30498.8
29756.8
28896
28363.7
28284.3
28694.9
29612.6
31055.8
33055.1
35660.1
38942.1
43000
47968.5
54028
61414.8
70450.4
81453.3
95263.9
33844.5
57896.1
56293.6
61877.8
57897.5
44997.1
30457.4
20140.4
14465.8
10919.7
8626.11
7022.29
6033.5
5401.35
4990.51
4737.12
4590.84
4500.3
4462.41
4454.48
4474.81
4497.63
4530.34
4569.71
4615.69
4664.3
4837.24
5547.56
5927.28
5725.11
5636.13
5669.81
5709.82
5675.11
5765.54
6069.52
6442.66
6595.93
6627.64
6728.49
6861.65
7078.37
7508.68
8379.17
10320.3
14727.4
20730.9
25269.6
28307.5
30579.2
31079.6
30344.8
29433
28844.3
28719.4
29092.7
29980.4
31399.2
33377.9
35963.5
39226
43261.4
48200.2
54217.2
61543.4
70481.1
81439.4
94825.7
111709
32944.5
57131.5
56682.4
62303.3
57934.6
44888.8
30407.4
20155.2
14513.7
10957.3
8653.12
7043.03
6050.31
5415.8
5001.7
4746.69
4599.99
4510.36
4472.11
4463.57
4482.26
4507.4
4542.58
4581.01
4628.3
4675.51
4761.37
5346.41
5887.02
5763.57
5654.83
5689.92
5734.85
5695.57
5754.3
6018.39
6408.24
6610.42
6648.91
6748.73
6883.4
7102.91
7534.74
8395.1
10278.1
14621.9
20721.2
25452.2
28641.9
31038.2
31662.9
30942.1
29977.9
29335
29163.9
29499.3
30356.3
31750.7
33709.1
36275.9
39519.2
43533
48443.7
54420.8
61688.1
70541
81364.8
94677.9
110998
131688
32024.2
56346.4
57113.5
62768.7
57966.9
44727.5
30352
20178.3
14568.7
10999.3
8680.35
7063.29
6066.92
5430.49
5013.35
4756.74
4608.86
4520.03
4482.12
4473.12
4489.42
4516.62
4554.92
4592.09
4640.35
4688.52
4743.09
5157.22
5792.94
5801.46
5674.82
5708.69
5758.68
5717.86
5752.17
5976
6364.98
6618.41
6670.84
6769.73
6905.36
7128.59
7564.49
8419.12
10252.5
14533.1
20700.8
25620
28979.9
31496.8
32247.1
31549.3
30530.3
29834.7
29616.6
29913.7
30740.3
32110
34048.4
36597.5
39821.9
43814.8
48698.8
54638.3
61850.4
70621.1
81326.8
94455.7
110665
130606
156014
31113.2
55556.3
57562.6
63234.8
57982.6
44528.8
30302.8
20209.8
14626.8
11042.4
8709.48
7084.31
6083.57
5445.04
5025.23
4767.14
4617.54
4529.18
4491.94
4483.16
4497.47
4525.09
4566.64
4603.34
4651.37
4702.78
4748.23
5009.18
5658.42
5828.38
5698.79
5726.04
5781.27
5741.4
5757.6
5944.14
6317.18
6618.16
6692.88
6791.71
6927.83
7155.33
7597.66
8450.93
10243.7
14445.2
20667.1
25789.9
29319.3
31955.5
32834
32162.4
31091.8
30341.5
30075.8
30335.4
31131.6
32477.1
34395.4
36927.5
40135
44106.4
48965.3
54869.4
62029.6
70723
81314.1
94279.8
110240
130022
154436
185692
30250.6
54757.1
58020
63632.2
57967.1
44305.9
30270.5
20253
14686
11084.2
8739.21
7106.84
6100.79
5459.68
5036.98
4777.61
4626.59
4537.65
4500.88
4493.3
4506.53
4532.53
4577.34
4614.77
4662.1
4715.99
4761.03
4913.15
5496.86
5814.71
5726.52
5741.93
5802.67
5765.49
5769.38
5923.4
6266.13
6609.48
6714.1
6814.7
6951.07
7182.58
7631.91
8484.2
10239.7
14356.6
20634.7
25966.7
29661.4
32413
33424.1
32779.5
31662.8
30854
30540.5
30762.7
31529.4
32851.1
34750.1
37265.4
40457.1
44410.3
49242.7
55114
62225.2
70845.8
81328.8
94135.8
109873
129321
153518
183459
221949
29360
53946.4
58461.1
63936
57923.8
44091.2
30250.9
20309.2
14747.5
11124.6
8768.63
7130.26
6118.78
5474.72
5048.85
4788.18
4635.95
4546.34
4509.46
4503.61
4516.07
4540.12
4586.97
4626.11
4673.12
4728.26
4777.89
4861.51
5332.96
5739.49
5757.97
5756.92
5823.15
5789.76
5786.68
5912.88
6214.93
6593.21
6732.39
6837.86
6974.51
7209.36
7666.05
8519.61
10248.4
14284
20603.8
26150.3
30011.9
32868
34017.9
33401.8
32241.4
31371.7
31009.4
31194.6
31932.5
33231.7
35112
37611.2
40787.6
44724.3
49534
55371.1
62437.2
70988.9
81369.5
94026.4
109546
128693
152448
182107
218870
266282
28379.7
52943
58865.8
64122.2
57863.6
43917.8
30235.1
20366.8
14811.1
11165.6
8798.03
7154.28
6137.14
5490.15
5061.17
4798.61
4645.45
4555.93
4517.29
4513.12
4526.21
4548.7
4595.19
4636.97
4685.85
4739.86
4798.67
4854
5192.26
5645.18
5783.69
5773.01
5842.81
5814.08
5808.34
5910.67
6168.02
6570.67
6746.3
6861.16
6999.14
7236.87
7701.1
8557.86
10271.7
14228.8
20573.5
26335.8
30374.9
33325.8
34611.7
34030.3
32825.9
31894.5
31482.5
31630.2
32340.1
33617.5
35480.5
37964.7
41126.8
45047.7
49837.7
55643.6
62664.7
71152.1
81435.8
93949.9
109263
128115
151470
180553
216962
262128
320503
27418.4
51712.9
59105.8
64198.7
57773.9
43812.5
30229
20418
14872.5
11207.7
8828.89
7178.63
6155.87
5505.37
5073.78
4809.4
4655.03
4565.77
4525.61
4522.27
4536.26
4558.03
4602
4646.77
4700
4751.11
4819.76
4862.42
5092.99
5525.99
5787.74
5791.77
5861.87
5838.52
5833.02
5915.27
6129.55
6538.73
6755.73
6884.16
7025.06
7265.37
7736.6
8597.2
10305.8
14190.8
20545.3
26514.8
30749
33795
35204.8
34662.5
33417
32421.4
31959.2
32069.1
32751.2
34007.9
35854.7
38325.4
41474.4
45380.8
50152.2
55931.8
62908
71334.6
81527.3
93905.8
109021
127593
150554
179111
214783
259525
315013
386799
26372.2
50295.5
59154
64146.5
57600.3
43741.7
30237.5
20468.9
14930.9
11250.1
8861.74
7204.36
6174.82
5520.38
5086.3
4820.66
4664.41
4575.3
4534.84
4531.4
4545.9
4568.3
4609.17
4655.3
4714.99
4762.45
4839.23
4875.32
5030.21
5393.84
5739.82
5816.16
5880.97
5863.3
5859.97
5927.05
6105.13
6497.13
6761.06
6906.13
7052.09
7294.78
7772.27
8638.45
10347.4
14167.3
20519.5
26683.1
31126.8
34279.7
35806.6
35294.8
34011.1
32953.1
32438.5
32510.6
33165.3
34401.9
36233.9
38692.4
41830.1
45723.5
50477.9
56233.1
63172
71535.1
81643.1
93893.7
108821
127123
149707
177745
212740
256555
311559
379680
467807
25125.3
48722.4
59029.4
64000.5
57384.3
43619
30248.9
20526.1
14993.2
11291.3
8895.48
7231.07
6194.69
5535.27
5098.34
4832.18
4674.35
4584.71
4544.22
4540.93
4554.02
4578.06
4618.56
4663.25
4730.55
4774.87
4856.01
4892.39
4990.84
5272.73
5665.73
5842.17
5901.35
5888.65
5888.99
5945.12
6093.77
6452.24
6762.89
6926.45
7079.46
7324.63
7808.2
8684.87
10394.4
14158.6
20506.4
26842.3
31495.9
34780.6
36425.2
35933.8
34601.3
33487.1
32920.6
32953.4
33581.4
34799.1
36617.1
39064.9
42193
46075.6
50814.9
56547.8
63452.4
71761.4
81780.9
93912.6
108662
126706
148925
176464
210785
253744
307607
375209
458742
566721
24134.1
46793.3
58956.8
63789.2
57233.7
43478.8
30207.7
20592.2
15064.6
11334.4
8928.14
7258
6215.37
5550.72
5110.35
4842.95
4684.98
4594.39
4552.67
4551.5
4562.87
4587.78
4629.93
4670.49
4745.76
4788.63
4870.46
4910.12
4973.09
5182.38
5577.4
5862.71
5925.15
5914.93
5919.88
5968.52
6092.88
6407.47
6759.31
6944.54
7106.05
7354.98
7844.75
8734.17
10445.6
14160.4
20501
27004.7
31856
35290.3
37058.7
36595
35192
34016.1
33403.8
33397.7
33998.2
35198.3
37004
39442.4
42562.3
46436
51163
56876
63749.2
72008.7
81949.4
93960.1
108542
126340
148210
175263
208932
251033
303834
370064
453083
555374
687437
25363.2
46322.7
58965.5
63788.1
57157.6
43426.6
30147.5
20633.4
15143.5
11380.6
8961.52
7284.39
6235.95
5566.68
5122.7
4852.97
4695.61
4605.14
4560.82
4562.44
4571.16
4596.55
4642.74
4678.8
4759.72
4803.77
4882.33
4921.64
4965.1
5121.12
5472.68
5861.45
5953.52
5942.61
5952.56
5996.75
6102.68
6367.2
6747.7
6960.49
7131.64
7386.68
7881.3
8785.36
10498.8
14169.6
20501.6
27160.9
32203
35777.2
37728.6
37265.4
35803.1
34541.2
33880.3
33841.9
34415.4
35597.9
37393.3
39824.2
42937.7
46804.3
51521.1
57217.5
64062.5
72276.5
82145.5
94042
108461
126026
147560
174145
207177
248439
300167
365110
446520
548357
673455
834779
26312.2
55231.5
61514
63946.5
57091.1
43404.1
30150.8
20659.9
15205.9
11428.1
8996.61
7310.92
6256.18
5582.42
5136.16
4863.25
4705.15
4617.2
4569.87
4571.51
4581.55
4605.11
4655.68
4690.26
4771.5
4819.06
4889.6
4925.75
4960.49
5081.07
5362.38
5818.19
5988.35
5972.04
5987.1
6029.54
6120.73
6335.48
6728.39
6971.71
7154.28
7416.67
7916.8
8835.87
10553.1
14183.6
20506.2
27315.4
32551.6
36252.1
38362.5
37983.7
36422.7
35079.2
34349.3
34278.5
34831.8
35997.6
37783.3
40209.4
43318.6
47179.9
51888.7
57571.3
64392.3
72565
82367.8
94161.2
108418
125761
146976
173110
205523
245961
296631
360259
440146
540142
664913
817788
1.01482e+06
26157.7
58852.5
70845.3
67296.1
57507.6
43093.8
30177.5
20725.3
15255
11466.3
9032.12
7338.72
6276.49
5597.63
5149.9
4875.11
4713.49
4629.32
4580.41
4578.38
4592.44
4615.78
4666.25
4704.67
4781.75
4831.32
4889.73
4926.75
4960.27
5052.34
5267.77
5751.95
6027.44
6004.32
6023.69
6066.38
6145.16
6314.47
6703.7
6978.68
7172.61
7443.66
7952
8885.32
10609
14201.2
20510.8
27467.8
32903.3
36733.6
38980.7
38686.7
37080.2
35623
34826.1
34704.9
35240.3
36396.3
38173.5
40596
43704.1
47562.8
52265.6
57936.9
64737.2
72874
82616.4
94314.1
108423
125543
146457
172158
203970
243603
293224
355545
433857
532094
654811
807557
994408
1.23534e+06
26131.8
58548.2
78594.6
70290.3
59674.4
43268.5
29935.9
20814.8
15317.1
11490.1
9063.39
7366.64
6297.26
5612.83
5162.78
4888.3
4722.56
4638.85
4592.14
4585.89
4602.93
4630.43
4674.45
4721.76
4789.08
4836.25
4885.07
4929.75
4964.57
5028.03
5188.97
5673.41
6062.44
6040.61
6062.46
6106.5
6175.12
6305.25
6673.36
6981.34
7187.63
7468.96
7987.45
8936.11
10667.6
14222.4
20513.3
27614.4
33258.8
37218.5
39603.6
39369.9
37744.6
36193.7
35305.6
35135.5
35637.1
36787
38563
40983.3
44092.2
47951.9
52651.8
58314.1
65096.7
73202.1
82890.9
94500.8
108473
125385
145997
171288
202522
241367
289956
350967
427696
524093
644830
795329
982311
1.21105e+06
1.50653e+06
26140.4
58756
78478.6
76997.8
49889.1
42143.1
30130.2
20759.2
15399.2
11515.9
9084.21
7392.59
6317.99
5628.69
5175.07
4901.68
4734.17
4644.64
4603.91
4597.24
4611.27
4646.99
4682.61
4737.56
4788.8
4833.51
4885.72
4934.57
4970.42
5011.62
5125.06
5590.25
6082.18
6081.98
6103.93
6149.34
6209.73
6307.06
6639.21
6977.93
7198.77
7491.94
8023.84
8991.6
10730.3
14248.3
20513.6
27754.6
33617.5
37712.6
40227
40060.1
38390.7
36774.7
35804.8
35566.4
36035.5
37165.2
38944.7
41370.7
44482
48345.1
53046.3
58703.2
65471.1
73548.6
83189.6
94720.5
108567
125286
145607
170497
201178
239261
286832
346542
421669
516193
634830
783150
967713
1.19687e+06
1.47779e+06
1.84201e+06
26175.8
59265.2
78862.5
76975.1
53022.8
20673.9
27303.1
20793.4
15455.7
11572.1
9107.84
7415.38
6337.61
5645.13
5188.84
4910.89
4746.49
4651.94
4612.85
4613.23
4617.46
4663.45
4689.7
4745.69
4782.97
4836.36
4890.93
4941.22
4977.23
5003.4
5081.96
5497.7
6076.81
6130.07
6147.94
6194.64
6246.99
6317.62
6603.04
6968.4
7207.13
7513.34
8061.2
9053.84
10798.2
14280
20512.6
27887.7
33979.2
38218.6
40856.4
40753.9
39045.8
37336
36312.9
36012.3
36432.7
37543
39312.9
41750.6
44873
48741.5
53447
59103.4
65860.8
73914
83511.8
94971.3
108703
125244
145296
169787
199935
237283
283862
342278
415796
508403
624876
770855
953061
1.17964e+06
1.46126e+06
1.80809e+06
2.26037e+06
26245.2
59954.2
79480.8
77096.9
52925.1
19862.7
8168.42
18158.8
15155.4
11632.3
9170.66
7441.36
6360.26
5659.73
5202.13
4920.36
4756.8
4666.79
4617.47
4630.67
4626.17
4674.19
4690.83
4740.5
4786.42
4844.4
4900.15
4949.56
4984.34
5000.53
5051.62
5400.76
6037.74
6182.29
6193.94
6240.85
6283.97
6334.05
6567.85
6952.44
7213.35
7533.31
8099.37
9122.86
10872.5
14318.9
20512.5
28012.7
34342.5
38739
41495.1
41456.2
39707.9
37902.6
36799.5
36466.5
36842.1
37919
39679.6
42115.9
45257.1
49140.7
53853
59512.5
66264.9
74299.1
83858.1
95252.3
108880
125256
145059
169178