/*--------------------------------*- C++ -*----------------------------------*\
| =========                 |                                                 |
| \\      /  F ield         | OpenFOAM: The Open Source CFD Toolbox           |
|  \\    /   O peration     | Version:  v2012                                 |
|   \\  /    A nd           | Website:  www.openfoam.com                      |
|    \\/     M anipulation  |                                                 |
\*---------------------------------------------------------------------------*/
FoamFile
{
    version     2.0;
    format      ascii;
    class       volScalarField;
    location    "12000";
    object      p;
}
// * * * * * * * * * * * * * * * * * * * * * * * * * * * * * * * * * * * * * //

dimensions      [1 -1 -2 0 0 0 0];


internalField   nonuniform List<scalar> 
27324
(
47700
49020.7
47700.9
50091.8
49021
47703.5
51358.5
50091.6
49022.7
47707.9
52640.4
51358.1
50092.6
49025.1
47715.6
53909.8
52639.7
51358.5
50093.2
49029.3
47728.5
55156.8
53909.2
52639.6
51357.9
50094.2
49036.2
47749.2
56459.7
55156.6
53909.3
52637.7
51356.7
50096.1
49047.9
47780.6
57957.3
56460
55157.7
53907.8
52634.7
51354.7
50099.3
49066.2
47826.5
59663.8
57957.5
56461.7
55158
53905.5
52629.4
51352.2
50104.5
49093.5
47891.8
61540.6
59663.8
57959.1
56463.7
55158.7
53901.6
52622
51348.2
50112.2
49135.1
47982.9
63543
61540.4
59664.7
57960.8
56467.4
55160.1
53896
52610.6
51342.7
50124.7
49196.8
48104
65645.5
63542.8
61541
59665.3
57964.2
56474
55162.1
53887.2
52595
51335.7
50144.3
49285.6
48262.2
67766.7
65644.8
63543.4
61541
59666.6
57970.1
56483.8
55165.1
53875
52574.6
51326.8
50177.4
49412.2
48457.6
69574.5
67764.8
65644.4
63543.6
61541.3
59668.8
57979.2
56498.7
55169.3
53858.8
52549.6
51316.2
50232.7
49579.8
48692.1
70954.2
69573
67762.4
65642.4
63543.6
61541.4
59672.9
57993.5
56519.9
55174.6
53837.5
52520.4
51307.7
50327.7
49793
48968.8
71997.3
70954.1
69570.7
67755
65638.2
63543
61542.2
59679.9
58015
56548.6
55179.8
53812.9
52495.3
51317.9
50478.7
50044.8
49310.1
72652.6
71995.6
70952.9
69563.7
67742.1
65631.5
63542.4
61543.9
59691.4
58045.6
56585.4
55185.8
53788.7
52469.3
51372
50701.3
50323.8
49818.5
72549
72649.4
71992.8
70950.7
69551.8
67720.8
65621.7
63540.1
61547.3
59709
58088.9
56630.4
55189.1
53766.7
52464.5
51500
51006.9
50619.6
50634.6
65263.6
72525.6
72642.4
71986.5
70946
69531.5
67689
65606.8
63534.8
61552.6
59735.8
58147.2
56681.1
55193.9
53755.5
52516.9
51744.8
51380.6
50951.5
52052.6
48946.6
65194.4
72483
72626.5
71972.9
70938.5
69499.5
67642.7
65585.1
63524.9
61559.8
59776.3
58222.7
56733.3
55206.9
53777
52668.4
52136.9
51811.7
51649.7
54531.5
32636.6
48900.6
65064.9
72381.2
72601.2
71953.3
70925.3
69451.4
67577.6
65550.6
63510
61570.3
59835.8
58310
56780.3
55235.4
53864.7
52982
52679.3
52390.5
53068.1
58968.8
24193.2
32661.7
48812.9
64782.4
72204.4
72550
71922.4
70902.3
69380.1
67489.4
65499.6
63486.5
61582
59915.7
58398.6
56822.1
55294.6
54060
53545
53289
53354.4
55917.9
64731.1
22987.9
24217.2
32700.4
48627.9
64290.9
71888.9
72469.8
71876.9
70858.8
69285.9
67377.5
65423.7
63443.5
61596.2
60013.5
58468.1
56862.5
55402.3
54474.3
54228.4
53861
55309.9
60744.4
71988.4
22844.3
22991.3
24257.3
32787.3
48327.3
63466.5
71364.4
72322.8
71811.2
70789.2
69160.4
67230.6
65322.7
63379.3
61617.3
60102.9
58495.9
56905.5
55608.8
55056.4
55047
55360.4
59054.6
68653.7
77424.8
22868.3
22845.4
22997.3
24346.7
32927.1
47826.9
62215.1
70509.8
72077.1
71688.4
70636.9
68992.8
67065.5
65183
63283.6
61651.7
60146.2
58474.4
56983
55976
56177
56123.6
57489.6
65998.9
73558
71273.1
22982.4
22868.7
22847.1
23011.6
24499
33162.5
47136.1
60362.2
69131.1
71623.4
71488.9
70420.7
68772
66858.1
65017.6
63189.1
61725.2
60095.6
58520.1
57184.5
57156.2
56952.9
56611
62760.3
66608.2
61441
57219
23075.9
22982.7
22869
22851.3
23036.5
24761.3
33528.2
46176.3
57820.4
66929
70726.5
71111.4
70058.6
68409.4
66675
64814.8
63147.2
61766.9
60045.5
58632.6
57785.7
57454.3
56074.6
57541.3
57883.3
55078.2
50946.1
50891.2
23173.6
23076.2
22982.7
22869.2
22857.2
23081.5
25189.7
34059.6
45000.5
54527.2
63490.7
68895.2
70223.1
69395.3
67832.2
66203.1
64439.3
63035.2
61422.1
59806.3
57980.8
57533.6
54317.8
50644.6
49066.6
48991.6
48752.3
49404.4
50774.8
23259.9
23173.6
23075.7
22983
22870.9
22867.3
23157.3
25867.8
34786.2
43703
50660
58485.3
65108.3
67980.9
67976.4
66520
65178.7
63477.1
62043.5
59975.1
56822.7
54166.4
48904
42989.6
41446
44048.3
47011.9
49040.4
50290.4
51501.7
23332.5
23259.9
23173.3
23075.9
22983
22873.3
22883.5
23290.8
26906.9
35736.5
42498.9
46800.1
52133.3
58234.3
62296.8
63337.9
63174.1
61362.7
59660.1
56986.8
52124.8
46908.2
41258.3
36999.3
36572.3
40662.1
45806.5
48509.6
50043.3
51083.6
52124.1
23396.9
23332.5
23259.8
23172.9
23075.6
22984.3
22878.3
22907.2
23520.8
28438.6
36869.2
41626.3
43609.2
46049.8
49331.8
52084.4
53144.4
52555
50604.6
47337
42998.2
39212.9
35951.8
34121.5
34308.5
38032.6
44317.2
47981
49696.3
50807.8
51712.4
52499.1
23451.4
23397
23332.2
23259.3
23172.2
23076.1
22984.6
22886
22946
23929.9
30565.5
38057.4
41029
41818.8
42407.3
42969.2
43148.9
42665.9
41522.2
39690.8
37505.4
35386.1
33923.7
33322
33522.7
36000.9
42550.5
47164
49290.4
50469.8
51429
52164.9
52707.1
23494.3
23451.1
23396.5
23332.2
23259.4
23171.4
23075.6
22985.9
22902
23014.4
24666.6
33250.1
39360.6
41044.6
41357.5
41162.7
40495.3
39433.1
38331.2
37212.1
35903.4
34596.1
33601.9
33221.6
33318.3
34603.5
40414.2
46068.7
48756.7
50114.5
51106.8
51925.5
52507.7
53173.6
23523.2
23494.1
23451
23396.7
23332
23258.1
23169.7
23075.6
22988.1
22923.9
23144.4
25978.9
36217.4
40775.1
41381.6
41365.4
40992.7
39895.7
38531.1
37281.2
36152
34972.3
33917.4
33334.5
33308.9
33784.5
38162.8
44578
48091.4
49730.7
50786.1
51636.9
52347.2
53206.3
53539.5
23534.3
23523.2
23494.3
23450.7
23396.2
23331.3
23257.1
23167.7
23075.5
22990.8
22964.6
23410.7
28155.7
38894.5
41775.7
41860.9
41682.7
40919
39483.9
38045
36741.5
35557.4
34461.5
33656.5
33392.3
33427.1
36157.1
42721.7
47239.6
49299.1
50459.3
51336.2
52139.3
53195.9
53759.1
54473.8
23516.7
23533.9
23522.5
23493.2
23450.3
23395
23330.5
23254.8
23164.6
23075.2
22996.9
23017.4
24014.9
31290.4
40795.9
42308
42193.8
41738.3
40533.9
39019
37593.3
36291.1
35047.3
33994.2
33455.8
33332.7
34672.7
40583.1
46149.5
48792.3
50119.8
51022.8
51912.4
53126.6
53869.8
54954.3
55817
23479.2
23516.5
23533.9
23522.7
23492.6
23448.8
23394.5
23328.6
23251.6
23160.5
23075.1
23007.8
23123.7
25319.1
34954.2
41653.4
42349
42148.3
41375
39916.1
38352.8
36958.3
35632.8
34395.7
33553.2
33312.5
33787.5
38371.8
44764.4
48174.6
49754.5
50706.3
51656.7
53037.8
53986.1
55223.1
56562.2
57550.4
23427.1
23479.3
23516.3
23533
23520.8
23490.9
23447.6
23392
23326.3
23246.7
23156.1
23076
23039.6
23365.4
27894.3
38255.2
41827.7
42249.6
41948.6
40803.2
39149.3
37617.9
36213.2
34855.7
33775.8
33306.4
33383.4
36371.8
43063.5
47401.9
49345.3
50387.7
51384.9
52921.7
54073.8
55517.2
56988.3
58531.6
59440.8
23373.5
23427.3
23478.9
23515.2
23531.1
23519.5
23488.8
23444.6
23389.6
23322.1
23240
23151.8
23079.3
23089
24066.5
31907.3
40703.1
42243.6
42253.2
41612.7
40030.3
38344.6
36823.4
35370.7
34077.3
33361.8
33250.8
34833
41093.2
46425
48870.5
50061.7
51110.5
52777.5
54155.6
55792.3
57466.4
59095.2
60646.5
61309.7
23335.9
23373.8
23426.9
23478.4
23513.9
23529.4
23516.1
23485.3
23441.3
23384.8
23316
23230.5
23147.9
23087.3
23204.7
25872.2
36454.7
42083.9
42400.6
42192.7
40943.2
39149.4
37471.8
35925.9
34483
33483.4
33225.5
33856.5
38996.6
45196.2
48302
49718
50846.7
52606.2
54218.6
56056.7
57926.1
59733
61341.3
62719.9
63044.1
23322.8
23336.3
23373.7
23426.9
23477.5
23512.6
23525.4
23511.4
23480.4
23435.3
23378.5
23306.9
23218.4
23145.2
23123.2
23569.6
29594.1
39865.5
42499.2
42447.9
41752.9
40023.2
38164.1
36506.7
34957.8
33719.2
33223.4
33366.8
36997.9
43688.1
47604.1
49344.2
50593.9
52410.9
54270.7
56308.3
58381.6
60353.9
62127.3
63538
64629.1
64588.4
23337.4
23323.3
23336.7
23374.3
23427.5
23476.5
23508.4
23520.6
23504.6
23472.4
23427.2
23368.5
23292.6
23202.8
23144.4
23172.2
24887.4
34703.2
41565.8
42504.4
42295.6
40919.2
38921.3
37116.6
35487.5
34053.9
33274.7
33189.1
35333.2
41917.1
46737
48922.1
50343.3
52212.8
54308.6
56548.3
58826.6
60980.2
62893.1
64462.9
65556.5
66313.5
65959.4
23374.9
23337.5
23322.9
23337.5
23375.3
23427.2
23473.9
23504.6
23513.1
23494.8
23461.6
23415.1
23353
23272.9
23192.4
23155.5
23400.2
28266
39278.6
42308.1
42525.7
41720.8
39756.9
37773.3
36055.9
34489.4
33411.6
33151
34156.2
39967.9
45662
48427.3
50089.4
52033
54326.8
56778.4
59260.3
61605.5
63667.1
65364.1
66605.7
67334.2
67805.7
67072.7
23411.9
23375
23337.5
23324.5
23339.2
23376.7
23427.2
23471.6
23497
23502.3
23481.1
23446.1
23397
23330.5
23246.6
23178.2
23177.6
24445
33762.8
41780.6
42575.7
42262.4
40647.9
38500.1
36662.5
34994.9
33651.4
33145.7
33474.7
37998.5
44351.6
47830.4
49821.2
51879.4
54322
57002.3
59681.8
62229.1
64443.7
66273.1
67630.4
68490
68904.7
68979.3
68090.6
23442
23412.1
23375.2
23338.3
23325.6
23341
23379.1
23427.7
23466.7
23487.7
23487.3
23462.8
23423.7
23371.4
23296.5
23210.1
23172.6
23337
27702.6
38791.8
42532.1
42463
41497.7
39319.6
37313
35551.8
34007.9
33177.4
33174.2
36209.1
42802.7
47100.1
49521.6
51757.8
54308.6
57207
60092.5
62848.1
65224.7
67183.2
68665.1
69623.2
70146.6
70129.1
70099.9
68853.3
23442.2
23442.1
23411.4
23375.6
23339
23328
23344.7
23382.9
23427.5
23461
23474.6
23468.3
23436.8
23394.6
23333.8
23249.2
23179.7
23161.3
24300.3
33547.8
41415.6
42468.7
42144.8
40230.8
38024.3
36145.3
34446.5
33301.9
33085.2
34778
41054
46207.5
49167.6
51671.1
54272.7
57411.6
60495.4
63459.6
66008.8
68097
69701
70770.5
71365.3
71440.1
71315
70915.2
69475.7
23408.5
23442.5
23442
23411.7
23375.2
23340.4
23331.5
23349.9
23387.7
23428.1
23453.4
23458.9
23441
23405.8
23354.5
23281.6
23194.3
23137.2
23300.5
27737.5
39102.9
42287.4
42468.3
41170.1
38817.5
36770.2
34961.6
33529.3
33064.8
33793.6
39199
45130.9
48732.2
51610.4
54238.8
57607.1
60894.6
64061.1
66794.1
69015.5
70739.6
71922.3
72601.1
72747.3
72688.9
72172.9
71564.3
69933.8
23368.1
23409
23442.2
23440.7
23411.3
23375.5
23342.8
23337.6
23357.7
23394.7
23428.5
23444.6
23436
23411.9
23364.5
23305.6
23215.6
23134
23126.1
24345.7
34097.3
41828.3
42538.9
41976.8
39704.9
37436.6
35521.3
33872.5
33073.7
33233
37384.4
43859.2
48191.9
51556.7
54211.5
57799.1
61294.4
64651.3
67576.9
69939.8
71781.1
73079
73845.7
74082
74044.2
73595.2
72855.6
72028.9
70278.6
23333.8
23368.5
23408.4
23441.3
23439
23410.5
23375.6
23346.5
23344.6
23368.9
23404
23428.9
23432.5
23416.7
23373
23320.7
23244.2
23137.7
23090.4
23271.6
28461.4
39537.6
42548.9
42463.6
40661.8
38165.9
36115.2
34309.8
33163.6
32977
35777.8
42399.6
47534.4
51470.7
54217.2
57989
61698
65230.9
68353.3
70870
72827
74239.2
75098.9
75425.9
75422.4
75006.4
74307.4
73353.2
72337.5
70550.9
23322
23334.5
23368.6
23408.5
23440.3
23436.9
23408.8
23376.3
23351.2
23356
23383.7
23414.4
23429.5
23424
23387.8
23336.9
23270
23174.3
23081.9
23083.8
24758.7
35434.4
42013.8
42618.9
41587.5
38983.6
36739.7
34828.9
33344.5
32890.3
34502.7
40812.5
46755.2
51292.3
54268.9
58181.9
62106.1
65802.7
69119.6
71805
73878.8
75402.3
76358.6
76779.9
76815.8
76446.8
75750.6
74827.3
73682
72566.6
70749
23338.8
23322.2
23334.9
23369.4
23408.2
23438
23432.6
23406
23376.9
23359.2
23370.4
23402.7
23427.6
23433.3
23410.2
23362.9
23299.9
23219.3
23116.6
23066.9
23396.2
29951.6
40681.8
42635.4
42297.6
39900.9
37413.1
35389.6
33654
32870.9
33614.4
39194.2
45777.5
50964.9
54386
58383.9
62516.7
66371.3
69873.9
72741.8
74938.6
76567.8
77623.5
78141.4
78223.3
77905.1
77225
76295.5
75168.9
73928.7
72736.3
70892.6
23367.5
23338.9
23322.6
23335.9
23369.9
23407.6
23434.4
23428.2
23401.4
23377.9
23369.9
23389.8
23425.6
23442.9
23434
23398.6
23338.3
23269.1
23172.3
23070.9
23119.7
25682.3
37323.2
42464.9
42643.3
40884.7
38157.9
35979.6
34080.2
32879.1
33092.2
37654.5
44626
50553.6
54577.3
58601
62925.9
66941.9
70617.2
73675.9
76007.5
77736.6
78891.5
79508.8
79641.4
79381.3
78718.9
77796.5
76657.5
75421.4
74119
72858.2
70995.1
23389.6
23367.3
23339.1
23324
23337.7
23371.2
23406.6
23428.9
23419.4
23394.8
23379.4
23380.6
23415.6
23448.2
23455.7
23436.6
23384.2
23319.5
23234.6
23123.5
23100.4
23704.4
32355.5
41549.7
42715
41814.5
38999.2
36603.2
34573.6
33064.4
32847.8
36303.7
43345.1
49998.3
54795.1
58836.8
63330.4
67519.2
71353.5
74602.2
77084.5
78910.6
80161.3
80879.8
81067.7
80871.1
80232.7
79318.9
78181.7
76916.6
75617.5
74254.3
72948.9
71066.3
23397.1
23388.9
23366.8
23339.7
23325.4
23340.3
23373
23404.7
23420.1
23410.9
23387.9
23379
23396.6
23442.8
23467.8
23467.6
23430.9
23367
23294.1
23183
23119.7
23159
27475.9
39351
42718.9
42490.5
39949
37272.7
35113.2
33337.6
32746
35231
42006.9
49279.3
55014.5
59094.5
63731.1
68106.4
72089.1
75516.4
78166
80091.9
81432.2
82252.4
82499.6
82370.9
81764.6
80861.9
79729.7
78442.1
77117.1
75755.7
74354.2
73016.7
71114.2
23387.4
23396.7
23388.4
23366.5
23340.4
23328.2
23344
23375.1
23402.2
23410.2
23394.6
23377.7
23381.2
23412.6
23468.8
23483.1
23466.7
23408.7
23339.2
23242.9
23138.1
23071.5
24485.9
35330.1
42315.8
42794.8
40974.3
38009.1
35684.7
33747
32716.3
34501.3
40685.6
48396.3
55212.3
59384.8
64134.6
68704.1
72830.9
76417.4
79245.6
81282.5
82704.4
83624
83935.2
83877.6
83311.8
82425.9
81294.5
79990
78643.3
77260.1
75857.2
74428.1
73068.5
71145.4
23374.2
23387.1
23395.4
23387.5
23365.9
23341.5
23332.6
23349.2
23378.3
23398.6
23394.6
23377.3
23367
23383.1
23431.6
23484.4
23483.2
23438.9
23371.8
23285.6
23164.1
23058.4
23342.7
30317.3
41146.9
42860.9
41953.3
38836.1
36291.7
34240.5
32916.6
34103.2
39455.9
47428.7
55160.9
59713.5
64553.1
69309.9
73584.2
77307.7
80315.5
82482.3
83979.8
84991.9
85373.2
85389.8
84870.7
84010.3
82880.5
81565.6
80191.7
78793.5
77365.2
75932.8
74483.9
73108.9
71164.9
23363.8
23374.5
23386.5
23394.4
23386
23365.3
23344.3
23338.2
23357.7
23382.2
23391.9
23378.9
23357.3
23357.5
23389
23443.8
23484.5
23454.5
23396.2
23311.1
23203.2
23056
23074.3
26206.3
38442.7
42863.2
42684.6
39772.5
36942.7
34794.2
33252.2
33928.6
38405.3
46406
54840.6
60108.6
65002
69920.2
74350.4
78193.8
81369
83687.6
85261.3
86353.7
86811.9
86905.8
86438.8
85610.7
84490.3
83170.4
81773.6
80353
78903.6
77444.4
75990.2
74526.5
73140.9
71176.4
23367
23364.3
23373.9
23386
23392.7
23383.6
23365
23346
23346.6
23367.1
23385.6
23387
23356.3
23339.9
23349.4
23399
23450
23458.9
23416.3
23328.6
23239.4
23093
23043.8
23987.1
34214.5
42371.5
43044.9
40803.6
37651.6
35401.4
33752
33863.5
37604.8
45295.3
54303.8
60551.1
65495.9
70532.1
75127.6
79083.8
82403.2
84890.6
86551.8
87709
88250.6
88424.5
88013.2
87223.9
86119.3
84803.4
83382.9
81942.9
80469.6
78987.5
77505.1
76034.5
74559.7
73166.6
71182.8
23370.1
23367.5
23364.7
23374.2
23385
23390.2
23381.1
23363.3
23352.3
23357.2
23379.7
23391
23377.2
23337.8
23325.8
23349.9
23415.2
23439.9
23430.7
23348.4
23269
23145.4
23051.7
23205
29434.1
41054.7
43139.2
41833.2
38440.2
36065.5
34330.2
33869.3
37106.9
44225.7
53649.3
61014
66038.7
71145.9
75911.5
79985.1
83420.7
86080.5
87852.5
89059.9
89689
89944.4
89591.5
88847.2
87762.8
86457.5
85012.9
83555.1
82064.1
80558.3
79052.1
77552.4
76069.4
74585.8
73187.4
71186.2
23371.3
23370.6
23368.3
23365.2
23374
23383.8
23386.8
23376.4
23363.5
23357.2
23371.3
23394.6
23394.1
23367.8
23321.7
23324.1
23373.9
23424
23437.6
23378.6
23297.5
23205.7
23071.5
23032.4
25788.9
38230.8
43148.7
42676.1
39342.6
36782.4
34992.8
34384.1
36883
43280.3
52871.7
61387.9
66624.7
71768.1
76697.6
80901.1
84429.6
87246.8
89159.4
90414.3
91127.5
91460.6
91172.9
90474.9
89419.8
88119.7
86660.6
85183
83680.2
82156
80626.4
79102.8
77590
76097.1
74606.6
73204.2
71187.7
23361.4
23371.3
23370.8
23369.1
23366.2
23374
23381.6
23381.5
23372
23362.3
23364.5
23388.6
23406.5
23395.6
23356
23320.6
23345.9
23404.8
23442.5
23415.9
23331.8
23258.8
23123.8
23014.7
23868.2
34037.3
42643.1
43157.4
40383.1
37564
35759.7
34926.4
36801.6
42530.9
52052.5
61489.2
67245.6
72413.2
77484
81830.3
85440.2
88384.5
90461.4
91780.2
92561.2
92967.9
92755.4
92103.9
91084.1
89795.6
88329.9
86827.8
85314.7
83775.1
82226.8
80680.2
79143.3
77620.2
76119.5
74623.2
73217.9
71188.4
23355.4
23360.9
23370.9
23371.2
23370.9
23368.4
23373.6
23379.4
23376.5
23364.7
23362
23373.2
23407.3
23416.6
23392.4
23350.4
23334.1
23379.7
23445.1
23448.1
23372.7
23300.6
23180.8
23013.7
23176.1
29480.3
41348
43338.9
41536.3
38426.9
36613.2
35674.6
36939.7
42070.3
51227.4
61465.9
67901.5
73100.1
78271.1
82766.1
86460.8
89496.8
91744
93158.9
93988.8
94464.3
94335.5
93733.4
92748.1
91484
90020.6
88500.9
86969.6
85414.4
83849.1
82283.1
80723.3
79176.1
77644.7
76137.6
74636.6
73228.8
71188.7
23348.9
23355.3
23360.7
23370.3
23371.8
23372.6
23369.7
23374.2
23376.2
23368.8
23358.2
23362.8
23384.9
23421.7
23418.6
23381.1
23343.1
23360.1
23441.5
23467.4
23415.6
23333.5
23228.7
23050.2
23014.5
25961.4
38652.3
43379.9
42662.8
39397
37555.7
36541.6
37430.9
41815.7
50387.3
60932.6
68576.5
73842.6
79062.1
83700
87494.4
90594.5
92994.2
94545.6
95418.8
95949.8
95909.4
95361.2
94410.3
93176.1
91729.8
90192.5
88648.5
87075.7
85493.2
83908.6
82328.7
80758.6
79202.9
77664.8
76152.3
74647.4
73237.6
71188.8
23340.5
23349
23354.4
23360
23369.8
23373.3
23374.3
23373.1
23373.9
23372.5
23361.9
23353.5
23364.1
23399.1
23427.5
23410.7
23358.7
23354.3
23406.7
23466.5
23449.6
23361.6
23259.6
23105.5
22995.1
23998
34701
43045.8
43560.3
40500.8
38588.2
37540.4
38079.4
41714.7
49672.1
60425
69219.9
74642.5
79861.7
84625.2
88537.9
91691.7
94206.9
95925.2
96860.5
97422.6
97474.7
96980.8
96073.1
94864.5
93443.2
91893
90340.6
88759.1
87160.3
85557.4
83957.2
82366.3
80787.6
79225
77681.2
76164.3
74656.1
73244.7
71188.9
23324.2
23340.7
23348.7
23354.2
23359.2
23369
23373.6
23377.9
23375.3
23373.7
23368.2
23353.9
23351.5
23370
23408.1
23423.4
23383.4
23353.8
23366.6
23443
23466.3
23391.8
23278.2
23173.8
23003.3
23192
30327
41976.8
44092.7
41751.6
39718.1
38660
38947.1
41779.8
49186.4
59825.2
69712.6
75489.8
80678.1
85539.3
89583.4
92799.8
95388.8
97276.9
98316.8
98887.2
99022.3
98586.9
97731.1
96551.5
95142.7
93598.7
92038.5
90456.1
88848.9
87229.6
85609.5
83997.7
82397.6
80811.8
79243.3
77694.7
76174.1
74663
73250.2
71188.9
23306.5
23323.8
23340.8
23349.1
23353.1
23357.8
23367.1
23374.9
23378.7
23378.5
23372.9
23363.7
23346.7
23353.7
23382.6
23417.4
23402.9
23359.5
23340.5
23407.2
23470.4
23427.3
23293.5
23231.1
23032.4
22947.1
26740.6
39635.5
44282.9
43138
40968.3
39906.7
39987.9
42305.7
48945.2
59210.3
69995.9
76363.2
81522
86446.4
90621.9
93923
96555.2
98583.4
99775.4
100353
100540
100175
99373.5
98232.4
96827.6
95313.5
93747.8
92161.2
90549.9
88920.4
87283.9
85653.4
84031.5
82423.8
80831.9
79258.4
77705.7
76182.1
74668.6
73254.7
71189
23296.1
23306.2
23323.9
23341.6
23348.9
23352.2
23356.9
23367.5
23375.6
23381.7
23379.7
23371.7
23358.7
23348.8
23360.7
23402.1
23409.1
23377.2
23328.1
23366
23471.8
23455.2
23317.5
23273.3
23092.6
22896.3
24456.6
36111.9
44313.6
44617.7
42357.7
41283.7
41207.1
42991
48858.4
58561.6
69935.6
77248.7
82403.3
87354.5
91646.3
95056.9
97722.1
99838.7
101207
101826
102017
101732
100990
99887.1
98503.6
97031.7
95466.2
93857
92236.5
90605.8
88969.2
87330.4
85689.9
84060.3
82445.8
80848.6
79270.8
77714.8
76188.5
74673
73258.1
71189.1
23286.8
23296.1
23305.8
23324.2
23341.5
23349.2
23350.8
23354.3
23365.7
23377.7
23382.3
23379.2
23369.1
23356.3
23352
23377.7
23409
23403
23330.1
23342.9
23434.2
23465.5
23359.6
23301
23158.7
22889.9
23323
32236.7
43221.7
45965.8
43896.5
42802
42590.9
43967.2
48902.4
58002.8
69645.5
78110.7
83326.1
88274.3
92652.5
96190.9
98898.1
101049
102573
103292
103458
103235
102575
101492
100170
98743.3
97154.4
95554.6
93950.5
92320.5
90676
89023.5
87368.6
85722.1
84084.2
82464.3
80862.5
79281
77722.1
76193.6
74676.4
73260.8
71189.1
23260.3
23286.7
23295.6
23305.5
23323.7
23342.7
23348.8
23348.9
23353.2
23366
23378.6
23380.7
23375.2
23364.5
23357.1
23366.2
23400.2
23416
23363.8
23339.5
23389.3
23463.3
23414.6
23319.4
23196.4
22896.3
22892.6
28635.9
41626.7
47002.7
45577.1
44477.9
44147.1
45131.5
49257.6
57646
69373.2
78834.9
84280.2
89216.3
93641.6
97310.2
100078
102223
103846
104708
104871
104660
104099
103047
101806
100434
98806.3
97270.7
95673.5
94038.7
92388.1
90729.3
89066.8
87404
85747
84104.7
82479.7
80874
79289.4
77728
76197.7
74679.1
73262.9
71189.1
23218.3
23260
23286.4
23295.2
23305
23324.1
23343.5
23348.4
23346.6
23352.1
23366.8
23378.1
23374.7
23368.5
23360
23361.6
23381.4
23417
23396.3
23344.8
23342.9
23444.2
23460.6
23334.3
23205.5
23009.6
22779.1
26019.9
38880.4
47376.5
47454.5
46334.4
45877.6
46509.1
49865.9
57528.3
69021.7
79292.5
85249.3
90189.2
94618.2
98399
101244
103361
105009
106012
106240
105997
105518
104541
103397
102056
100425
98962.7
97382.4
95763
94112.3
92447.1
90776.5
89104.2
87433.4
85770.3
84121.8
82492.5
80883.4
79296.2
77732.8
76201
74681.2
73264.5
71189.1
23201.4
23218.2
23259.6
23286.1
23294.9
23304.3
23324
23343.6
23346.4
23344.6
23353.3
23369.1
23374.6
23364.6
23357.5
23356.7
23367.5
23400.8
23408.5
23356.6
23321.4
23406
23485.9
23356.8
23198.4
23107.5
22757
24460.6
35615.7
47177.7
49611.8
48391.6
47789.1
48087.5
50752.5
57646.2
68427.9
79464.9
86230.3
91197.1
95588.2
99440.7
102363
104445
106057
107148
107515
107254
106792
105948
104918
103564
102017
100598
99061.5
97477
95840.6
94175.2
92497.6
90816.7
89136.2
87458.4
85789.4
84136.2
82503.1
80891.2
79301.7
77736.6
76203.6
74682.8
73265.7
71189
23231.9
23201.2
23219.1
23259.5
23286.2
23293.6
23303.6
23324.4
23344
23343.1
23341.8
23355.8
23372
23366
23353
23350.5
23356.8
23377.8
23408.7
23379.3
23311.3
23349.9
23491.7
23384.8
23192.1
23173.9
22831.7
23747.7
32349.1
45816.3
51842.1
50627.1
49889.9
49865.1
51894.8
57956.2
67811.2
79536.1
87221.1
92229.6
96552.6
100416
103392
105438
106980
108082
108618
108415
107923
107212
106331
104987
103581
102182
100693
99158
97555.8
95907.1
94229.9
92541.5
90851.6
89163.5
87479.5
85805.4
84148.1
82511.9
80897.5
79306.1
77739.6
76205.5
74684
73266.5
71188.9
23245
23231.2
23201
23220.2
23259.9
23285
23292.6
23303.1
23325.6
23343.5
23337.9
23340.1
23362.5
23371.9
23354.7
23341.1
23348.2
23363
23386.5
23389.9
23317.3
23314.6
23471.7
23410.5
23190
23211.7
23107.1
23544.9
29613.6
43958.8
53695.3
53025.5
52194.5
51839.6
53284.3
58416.7
67252.6
79583.5
88091.7
93249.5
97501.8
101301
104277
106298
107760
108811
109479
109433
108930
108300
107585
106304
105043
103700
102279
100791
99237.6
97624.9
95965.2
94277.5
92579.6
90881.5
89186.8
87497.3
85818.8
84158
82519
80902.5
79309.7
77742
76207.1
74684.8
73267.1
71188.8
23174
23244.9
23229.9
23200.9
23222.1
23259.6
23283.6
23291.3
23302.6
23327.1
23340.1
23331.5
23341.8
23369.4
23365.3
23335.9
23338
23353.6
23373.6
23382.8
23344
23302.4
23397.3
23417.8
23246.7
23242.4
23438.6
23507.8
27798.5
41687.1
54847.1
55638.4
54733.1
54018.7
54876
59018.1
66888.2
79583.6
88732.4
94201.1
98417
102071
104968
106980
108373
109349
110077
110243
109824
109234
108619
107488
106385
105125
103796
102374
100872
99308.9
97685.7
96016.2
94319
92612.5
90907.1
89206.5
87512.3
85829.9
84166.1
82524.8
80906.6
79312.4
77743.8
76208.2
74685.5
73267.5
71188.7
23226
23176.9
23244.5
23227.7
23201.3
23224.2
23260.1
23282.2
23288.5
23303.2
23328.8
23332.4
23324
23349.5
23374
23346.3
23323.8
23344.1
23364.2
23369
23357.8
23304.8
23325.4
23404.1
23344.5
23285.2
23796.3
23670.4
26881.6
38831.6
54828.7
58526.5
57528.3
56409.3
56647.5
59851.5
66936.8
79188.7
89095.3
95057
99267.9
102696
105423
107456
108800
109713
110450
110800
110578
110024
109419
108500
107589
106434
105214
103883
102455
100946
99372.1
97739.5
96060.8
94355
92640.7
90928.9
89223
87524.7
85839.1
84172.7
82529.5
80909.8
79314.6
77745.2
76209
74685.9
73267.8
71188.6
23650.9
23223.9
23183.6
23244.7
23223.5
23202.4
23227.6
23261
23279.1
23285.8
23305.1
23330.7
23321.4
23319.6
23360.3
23364.9
23316.3
23320.7
23357.5
23359.1
23349.5
23321.1
23270.2
23364.7
23479.5
23363.2
24102.7
23955.7
26589.6
36247.4
53930.5
61691.8
60555.3
59013.1
58600.1
60958
67372.7
78515.6
89339.1
95794
100004
103132
105642
107717
109043
109924
110666
111140
111120
110666
110077
109312
108608
107621
106510
105292
103962
102529
101012
99428.6
97786.9
96099.7
94386
92664.9
90947.3
89236.9
87535
85846.4
84178
82533.2
80912.4
79316.3
77746.2
76209.6
74686.1
73267.9
71188.4
23720.6
23651.4
23219.5
23195
23244.6
23217.9
23205.6
23232.8
23260.7
23275.8
23282
23309.7
23326.8
23307.4
23321.7
23373
23329.3
23293.6
23342.8
23363.9
23328.2
23333.2
23248.9
23322.9
23630.6
23486.9
24402
24601.4
26782.1
34339.9
52441.1
64557.9
63777.7
61834.7
60735.5
62291.6
67916.4
77730.5
89473.9
96314.5
100529
103351
105685
107785
109118
109924
110617
111093
111383
111182
110594
109953
109370
108641
107684
106578
105365
104034
102596
101071
99478.7
97828.5
96133.4
94412.6
92685.3
90962.7
89248.4
87543.4
85852.7
84182.3
82536.2
80914.4
79317.5
77747
76210
74686.3
73268
71188.3
24450.7
23788.3
23648.9
23211.7
23213.9
23246.1
23211
23208.8
23238.5
23262.5
23270.4
23278.4
23314.2
23317.1
23292.9
23343.4
23357.8
23283.9
23304.3
23371.4
23312.2
23316.2
23278.8
23308.1
23775.2
23688.1
24763.3
25355
27149.9
33396.3
50571.7
66617.8
67154.1
64891.7
63061.8
63834
68667
76913.2
89334.7
96531
100780
103455
105637
107655
109035
109840
110468
110989
111313
111505
110990
110465
109915
109381
108698
107742
106644
105434
104101
102656
101123
99522.8
97864.6
96162.3
94435.1
92702.5
90975.6
89257.9
87550.3
85857.7
84185.7
82538.5
80915.9
79318.5
77747.5
76210.3
74686.4
73267.9
71188.1
55653.7
28791.4
23829
23652.1
23203.9
23238
23246.1
23205
23216.9
23245.2
23263.3
23264.7
23278.3
23321.6
23290.8
23290.1
23362.3
23311
23255.2
23365.9
23313.4
23267.3
23380
23332.8
23884
24001.6
25228.6
26268.8
28021.7
33153.6
48191.6
67520
70744.8
68203.1
65590.3
65564.4
69531.9
76152.6
88805.6
96530.6
100843
103484
105291
107126
108594
109483
110157
110662
111081
111404
111408
110736
110412
109870
109414
108753
107800
106709
105499
104162
102711
101170
99561.4
97895.8
96186.9
94454.2
92716.8
90986.3
89265.7
87555.9
85861.6
84188.4
82540.3
80917
79319.1
77747.9
76210.4
74686.4
73267.9
71188
55639
55490.3
30274
24101.5
23653.9
23197
23268.6
23241
23202.8
23225.8
23252.3
23265.5
23258.6
23289.8
23312.1
23267.3
23317
23377.2
23242.3
23299.7
23360.2
23247.4
23419.7
23440
24009.7
24464.2
25854.3
27323.2
29151.2
33682.1
45863.1
67504.7
74545.5
71759.7
68334.1
67455
70454.4
75507.1
87886.7
96095.8
100523
103078
104778
106461
108007
109018
109755
110310
110733
111184
111230
111362
110601
110359
109871
109457
108805
107858
106771
105560
104217
102760
101211
99594.8
97922.4
96207.8
94470.1
92728.8
90995
89272
87560.4
85864.7
84190.5
82541.7
80917.9
79319.6
77748.1
76210.5
74686.3
73267.8
71187.9
55630.1
55632.8
55959.7
32630.7
24476.5
23679.3
23205.5
23288.7
23231.2
23206.3
23238.5
23263
23267.4
23254.9
23309.1
23294.2
23248.8
23393.4
23282
23192.8
23386.6
23287.2
23419.9
23671
24260.3
25089.7
26674.4
28509.1
30565.2
34298.4
44288.1
66756.4
78120.4
75533.4
71315.6
69443
71376.5
75015.5
86629.7
95225.1
99753.4
102514
104155
105719
107345
108524
109369
109958
110373
110846
111005
111192
111272
110516
110352
109896
109505
108857
107914
106830
105616
104267
102803
101247
99623.5
97945.1
96225.4
94483.4
92738.6
91002.2
89277.1
87563.8
85867.1
84192.2
82542.7
80918.5
79320
77748.2
76210.5
74686.2
73267.7
71187.8
55719.1
55631
55629.5
55763.7
35186.8
25324.7
23748.2
23236.2
23307.5
23215.2
23216.4
23244
23278.7
23258.9
23255.4
23336.7
23239.5
23318
23365.9
23131.5
23358.4
23482.1
23413.8
24038.4
24679.9
25903.6
27702.1
29838.3
32113.7
35176.8
43309.2
65563.4
80764.6
79462.1
74542.6
71480.8
72330.9
74675
85020.9
94064.4
98788
101763
103537
105017
106675
108029
109000
109652
110051
110512
110703
110992
111097
111183
110498
110372
109933
109555
108910
107969
106886
105666
104311
102840
101278
99647.9
97964.2
96240
94494.4
92746.7
91008
89281.2
87567
85869
84193.4
82543.4
80918.9
79320.2
77748.3
76210.5
74686.2
73267.6
71187.7
55757.9
55717.2
55630.9
55625.2
56226.6
37921.9
26593.8
24009.5
23308.3
23326.7
23201.1
23222.8
23250.1
23293.3
23238.9
23335.6
23325.8
23190.9
23392.3
23202.9
23274.2
23796.9
23556.9
24554.6
25357.2
26930.4
28945.2
31318.1
33806
36518.8
43364.3
63755.4
82105.3
83560
78022.4
73510.9
73248.8
74411.3
83113.9
92557.1
97623.2
100922
102942
104414
106045
107542
108636
109394
109792
110224
110410
110720
110911
111029
111140
110512
110402
109978
109606
108961
108021
106936
105712
104350
102873
101304
99668.6
97980.2
96252.2
94503.5
92753.3
91012.6
89284.4
87569.1
85870.5
84194.3
82544
80919.2
79320.3
77748.3
76210.5
74686.1
73267.5
71187.6
55764.1
55756.1
55716.2
55632
55619.8
55879.3
40738.3
28548.2
24573.1
23497.2
23347.3
23226.3
23229.5
23280.4
23309.6
23221.4
23376.3
23155.1
23303.7
23540.6
23261.1
24140.1
23989.1
25223.6
26326.6
28187.1
30410.7
32965.8
35640.4
38216.5
44234.7
61315.8
82674.1
87783.5
81751.8
75551.3
74007.9
74084.1
81037.6
90796.5
96351.5
100004
102380
103915
105475
107046
108260
109157
109584
109998
110149
110451
110668
110849
111013
111133
110541
110441
110027
109656
109010
108069
106982
105751
104384
102900
101326
99686
97993.5
96262.3
94510.9
92758.6
91016.4
89287.1
87570.9
85871.6
84195
82544.4
80919.4
79320.3
77748.3
76210.4
74686
73267.4
71187.5
55778.6
55766.1
55754.4
55714
55631.9
55620
56237.6
43442.5
31068.8
25753.7
23939.7
23479.6
23346.1
23200.2
23352.4
23209.8
23308.4
23459.3
23237.9
23894.5
23449.3
24510.4
24731.1
26153.2
27612.9
29700.4
32107.9
34799.1
37617.2
40211
45377.8
58796.8
82872.6
91745.3
85540.6
77447.5
74504.5
73785.1
78967
88872
95057.6
99053.9
101825
103495
104970
106519
107861
108893
109389
109812
109927
110204
110421
110621
110834
111039
111139
110578
110485
110077
109704
109055
108113
107022
105786
104413
102924
101345
99700.5
98004.6
96270.5
94516.9
92762.9
91019.4
89288.9
87572.2
85872.4
84195.5
82544.6
80919.5
79320.3
77748.2
76210.3
74685.9
73267.3
71187.4
55665.9
55775.7
55765.4
55752.9
55711.7
55630.7
55606.8
56005.7
46027.3
34141.4
27686.9
24954.7
23912.9
23592.9
23322.9
23604.8
23222.6
23824.3
23375.2
24201.4
24087.6
25136.9
25876.2
27451.7
29239.4
31498.4
34048.1
36832.2
39736.2
42430.7