/*--------------------------------*- C++ -*----------------------------------*\
| =========                 |                                                 |
| \\      /  F ield         | OpenFOAM: The Open Source CFD Toolbox           |
|  \\    /   O peration     | Version:  v2012                                 |
|   \\  /    A nd           | Website:  www.openfoam.com                      |
|    \\/     M anipulation  |                                                 |
\*---------------------------------------------------------------------------*/
FoamFile
{
    version     2.0;
    format      ascii;
    class       volScalarField;
    location    "12000";
    object      p1;
}
// * * * * * * * * * * * * * * * * * * * * * * * * * * * * * * * * * * * * * //

dimensions      [0 1 0 0 0 0 0];


internalField   nonuniform List<scalar> 
27324
(
1.72338e-05
1.6634e-05
2.14234e-05
1.60389e-05
2.08109e-05
2.12709e-05
1.54465e-05
2.01878e-05
2.05214e-05
1.87025e-05
1.48601e-05
1.95521e-05
1.97706e-05
1.80016e-05
1.61503e-05
1.4282e-05
1.89039e-05
1.90196e-05
1.72873e-05
1.55976e-05
1.41691e-05
1.37164e-05
1.82434e-05
1.82716e-05
1.6577e-05
1.49961e-05
1.37299e-05
1.22355e-05
1.3168e-05
1.75739e-05
1.7529e-05
1.58808e-05
1.43882e-05
1.32076e-05
1.18653e-05
1.01361e-05
1.26421e-05
1.69001e-05
1.67968e-05
1.52064e-05
1.37913e-05
1.26666e-05
1.13904e-05
9.817e-06
7.97834e-06
1.214e-05
1.62283e-05
1.60795e-05
1.45601e-05
1.32204e-05
1.21302e-05
1.08886e-05
9.38981e-06
7.72005e-06
6.09307e-06
1.1662e-05
1.55606e-05
1.53803e-05
1.39402e-05
1.26844e-05
1.16192e-05
1.03881e-05
8.93694e-06
7.37266e-06
5.91428e-06
4.7069e-06
1.12087e-05
1.48977e-05
1.46991e-05
1.33351e-05
1.21755e-05
1.11444e-05
9.91289e-06
8.4888e-06
7.01111e-06
5.67718e-06
4.59811e-06
3.74392e-06
1.07793e-05
1.42401e-05
1.40352e-05
1.27386e-05
1.16656e-05
1.06932e-05
9.47449e-06
8.06984e-06
6.66286e-06
5.43584e-06
4.45576e-06
3.67769e-06
3.02503e-06
1.03731e-05
1.35878e-05
1.33872e-05
1.21502e-05
1.11419e-05
1.02261e-05
9.05864e-06
7.69046e-06
6.34649e-06
5.20944e-06
4.3116e-06
3.5913e-06
2.98001e-06
2.44575e-06
9.98655e-06
1.29401e-05
1.27519e-05
1.15707e-05
1.06045e-05
9.72638e-06
8.62325e-06
7.33763e-06
6.06808e-06
5.00849e-06
4.17706e-06
3.50201e-06
2.92108e-06
2.41139e-06
1.9615e-06
9.61697e-06
1.22901e-05
1.21237e-05
1.09964e-05
1.00569e-05
9.19832e-06
8.15511e-06
6.97576e-06
5.81636e-06
4.83486e-06
4.05709e-06
3.41658e-06
2.85832e-06
2.3667e-06
1.93365e-06
1.5579e-06
9.2616e-06
1.16318e-05
1.14965e-05
1.04209e-05
9.49714e-06
8.65398e-06
7.66635e-06
6.59736e-06
5.56641e-06
4.6806e-06
3.95217e-06
3.33782e-06
2.79613e-06
2.31802e-06
1.89814e-06
1.53514e-06
1.23165e-06
8.91829e-06
1.0958e-05
1.08672e-05
9.86647e-06
8.92206e-06
8.1011e-06
7.17776e-06
6.21727e-06
5.31449e-06
4.53069e-06
3.8577e-06
3.26614e-06
2.73658e-06
2.26829e-06
1.85907e-06
1.50697e-06
1.21343e-06
9.74147e-07
8.58312e-06
1.02571e-05
1.02312e-05
9.35373e-06
8.38918e-06
7.54811e-06
6.70453e-06
5.85555e-06
5.07144e-06
4.3825e-06
3.76512e-06
3.1992e-06
2.68023e-06
2.21935e-06
1.81821e-06
1.47602e-06
1.19151e-06
9.59948e-07
7.75916e-07
8.17e-06
9.4976e-06
9.57713e-06
8.87483e-06
7.94616e-06
7.07177e-06
6.25914e-06
5.52463e-06
4.84955e-06
4.24096e-06
3.67198e-06
3.13186e-06
2.6259e-06
2.17174e-06
1.77717e-06
1.44306e-06
1.16776e-06
9.42991e-07
7.65414e-07
6.29072e-07
7.56754e-06
8.54933e-06
8.90531e-06
8.41668e-06
7.57976e-06
6.71452e-06
5.90264e-06
5.23193e-06
4.65471e-06
4.11164e-06
3.57986e-06
3.06202e-06
2.57042e-06
2.12482e-06
1.73652e-06
1.40932e-06
1.14206e-06
9.25072e-07
7.5245e-07
6.21811e-07
5.24951e-07
6.50307e-06
7.71974e-06
8.15718e-06
8.0327e-06
7.26206e-06
6.44701e-06
5.65273e-06
5.01027e-06
4.48877e-06
3.99647e-06
3.49142e-06
2.98994e-06
2.51219e-06
2.07677e-06
1.69595e-06
1.37543e-06
1.11524e-06
9.05529e-07
7.39139e-07
6.12341e-07
5.19982e-07
4.54434e-07
5.01909e-06
6.87414e-06
7.51671e-06
7.6317e-06
7.08285e-06
6.23062e-06
5.4754e-06
4.86057e-06
4.3648e-06
3.89579e-06
3.40784e-06
2.91745e-06
2.45096e-06
2.02644e-06
1.65461e-06
1.34136e-06
1.08788e-06
8.84679e-07
7.24773e-07
6.02626e-07
5.13234e-07
4.52106e-07
4.10311e-07
4.67211e-06
6.16409e-06
6.85776e-06
7.17668e-06
6.87064e-06
6.14533e-06
5.33556e-06
4.75802e-06
4.28011e-06
3.81585e-06
3.33042e-06
2.84594e-06
2.38825e-06
1.97333e-06
1.61191e-06
1.30687e-06
1.0602e-06
8.63003e-07
7.09286e-07
5.92404e-07
5.06275e-07
4.46912e-07
4.09044e-07
3.87913e-07
4.55858e-06
5.99741e-06
6.29229e-06
6.73573e-06
6.59055e-06
6.01978e-06
5.29226e-06
4.68004e-06
4.22177e-06
3.75658e-06
3.26396e-06
2.7779e-06
2.32576e-06
1.91855e-06
1.56744e-06
1.27185e-06
1.03233e-06
8.40934e-07
6.92912e-07
5.8151e-07
4.99055e-07
4.42132e-07
4.05592e-07
3.8372e-07
4.44913e-07
4.47821e-06
5.89202e-06
6.11114e-06
6.45872e-06
6.21679e-06
5.85915e-06
5.22746e-06
4.65842e-06
4.1784e-06
3.71307e-06
3.21068e-06
2.71716e-06
2.26662e-06
1.86374e-06
1.52183e-06
1.23612e-06
1.00437e-06
8.18742e-07
6.76143e-07
5.69898e-07
4.91693e-07
4.37114e-07
4.01825e-07
3.80622e-07
4.28142e-07
6.95516e-07
4.40266e-06
5.79403e-06
6.00677e-06
6.39339e-06
5.9037e-06
5.56327e-06
5.1666e-06
4.63636e-06
4.16396e-06
3.68227e-06
3.16943e-06
2.6668e-06
2.2132e-06
1.81209e-06
1.47652e-06
1.1999e-06
9.76491e-07
7.9661e-07
6.59405e-07
5.57879e-07
4.83987e-07
4.32157e-07
3.97981e-07
3.77845e-07
4.10538e-07
6.28364e-07
1.18482e-06
4.32749e-06
5.69559e-06
5.91454e-06
6.30513e-06
5.82554e-06
5.20694e-06
4.99476e-06
4.64905e-06
4.17581e-06
3.67049e-06
3.14389e-06
2.62754e-06
2.16833e-06
1.76463e-06
1.43437e-06
1.16405e-06
9.48701e-07
7.74815e-07
6.42893e-07
5.45881e-07
4.75899e-07
4.27039e-07
3.94244e-07
3.74337e-07
3.92841e-07
5.56539e-07
1.01133e-06
2.02768e-06
4.2527e-06
5.59569e-06
5.82447e-06
6.20842e-06
5.736e-06
5.08867e-06
4.70381e-06
4.5996e-06
4.26477e-06
3.72528e-06
3.13989e-06
2.60549e-06
2.13427e-06
1.72345e-06
1.39582e-06
1.1305e-06
9.2111e-07
7.53578e-07
6.26692e-07
5.34172e-07
4.67425e-07
4.21773e-07
3.89873e-07
3.69254e-07
3.76499e-07
4.94588e-07
8.54696e-07
1.70379e-06
3.48413e-06
4.17877e-06
5.49471e-06
5.73711e-06
6.1142e-06
5.63907e-06
5.01295e-06
4.57944e-06
4.42863e-06
4.327e-06
3.89366e-06
3.23905e-06
2.62242e-06
2.1132e-06
1.69448e-06
1.362e-06
1.09958e-06
8.94653e-07
7.32426e-07
6.1105e-07
5.22478e-07
4.58444e-07
4.15074e-07
3.84457e-07
3.6317e-07
3.62771e-07
4.42299e-07
7.23382e-07
1.42823e-06
2.95244e-06
6.03754e-06
4.10605e-06
5.39406e-06
5.65243e-06
6.02159e-06
5.5395e-06
4.94304e-06
4.52655e-06
4.31719e-06
4.27799e-06
4.06823e-06
3.45777e-06
2.7598e-06
2.15925e-06
1.69339e-06
1.33744e-06
1.07166e-06
8.70133e-07
7.10556e-07
5.94763e-07
5.0977e-07
4.48447e-07
4.06461e-07
3.77286e-07
3.58188e-07
3.52905e-07
4.02291e-07
6.16287e-07
1.195e-06
2.49327e-06
5.17794e-06
1.0441e-05
4.03487e-06
5.29526e-06
5.57078e-06
5.92991e-06
5.43988e-06
4.86695e-06
4.48821e-06
4.28348e-06
4.19682e-06
4.15772e-06
3.7075e-06
2.99282e-06
2.31261e-06
1.76877e-06
1.36163e-06
1.06499e-06
8.48449e-07
6.89426e-07
5.76799e-07
4.95164e-07
4.36397e-07
3.98637e-07
3.73129e-07
3.5583e-07
3.47514e-07
3.73934e-07
5.31495e-07
9.99548e-07
2.09632e-06
4.4212e-06
9.0712e-06
1.78653e-05
3.9654e-06
5.20006e-06
5.49208e-06
5.8389e-06
5.34125e-06
4.7916e-06
4.44027e-06
4.26316e-06
4.16707e-06
4.13256e-06
3.91809e-06
3.26246e-06
2.52969e-06
1.91305e-06
1.44492e-06
1.1065e-06
8.66306e-07
6.9607e-07
5.75979e-07
4.92282e-07
4.35008e-07
3.97064e-07
3.72063e-07
3.5505e-07
3.45055e-07
3.55572e-07
4.65481e-07
8.37385e-07
1.75578e-06
3.75504e-06
7.84209e-06
1.57259e-05
3.00338e-05
3.89803e-06
5.10984e-06
5.41602e-06
5.74804e-06
5.24464e-06
4.71895e-06
4.39195e-06
4.23455e-06
4.15322e-06
4.09772e-06
3.98903e-06
3.53143e-06
2.77675e-06
2.09431e-06
1.56348e-06
1.17865e-06
9.05772e-07
7.16881e-07
5.86423e-07
4.97185e-07
4.37431e-07
3.97961e-07
3.72232e-07
3.55239e-07
3.44371e-07
3.44923e-07
4.155e-07
7.04448e-07
1.46507e-06
3.17286e-06
6.74201e-06
1.37755e-05
2.6767e-05
4.94231e-05
3.83317e-06
5.02514e-06
5.34156e-06
5.65677e-06
5.15051e-06
4.65019e-06
4.34543e-06
4.20364e-06
4.13646e-06
4.08669e-06
3.97546e-06
3.70547e-06
3.03961e-06
2.30132e-06
1.70413e-06
1.26807e-06
9.58495e-07
7.46673e-07
6.0266e-07
5.05807e-07
4.41722e-07
4.00156e-07
3.73374e-07
3.55801e-07
3.44276e-07
3.3952e-07
3.79666e-07
5.96915e-07
1.21901e-06
2.66688e-06
5.76455e-06
1.20025e-05
2.37503e-05
4.45488e-05
7.98687e-05
3.77115e-06
4.9451e-06
5.26725e-06
5.56414e-06
5.05869e-06
4.58541e-06
4.30154e-06
4.17283e-06
4.11747e-06
4.07558e-06
3.96587e-06
3.73751e-06
3.27324e-06
2.52168e-06
1.86104e-06
1.3706e-06
1.02116e-06
7.83027e-07
6.23253e-07
5.17055e-07
4.47603e-07
4.0311e-07
3.74825e-07
3.56512e-07
3.44409e-07
3.37131e-07
3.55879e-07
5.11559e-07
1.01246e-06
2.23034e-06
4.90105e-06
1.04013e-05
2.09704e-05
4.00014e-05
7.27527e-05
0.000126457
3.71071e-06
4.86823e-06
5.19157e-06
5.46954e-06
4.96899e-06
4.52369e-06
4.26041e-06
4.1429e-06
4.09825e-06
4.0631e-06
3.95645e-06
3.72666e-06
3.3764e-06
2.75181e-06
2.03083e-06
1.48351e-06
1.09176e-06
8.24333e-07
6.46463e-07
5.29688e-07
4.54193e-07
4.06373e-07
3.76378e-07
3.57268e-07
3.44611e-07
3.36268e-07
3.41612e-07
4.4544e-07
8.41027e-07
1.85592e-06
4.14372e-06
8.96214e-06
1.84247e-05
3.57647e-05
6.60521e-05
0.000116368
0.000196198
3.64935e-06
4.79276e-06
5.11366e-06
5.373e-06
4.88189e-06
4.46434e-06
4.22088e-06
4.11437e-06
4.07936e-06
4.05037e-06
3.94592e-06
3.71747e-06
3.37976e-06
2.91834e-06
2.21989e-06
1.60748e-06
1.17065e-06
8.71206e-07
6.72789e-07
5.43847e-07
4.61507e-07
4.0997e-07
3.78055e-07
3.58054e-07
3.44867e-07
3.35942e-07
3.34174e-07
3.96566e-07
7.00442e-07
1.5373e-06
3.48315e-06
7.6779e-06
1.6101e-05
3.18368e-05
5.97455e-05
0.000106804
0.000182349
0.000297707
3.58721e-06
4.71709e-06
5.03287e-06
5.2754e-06
4.79775e-06
4.40732e-06
4.18223e-06
4.08678e-06
4.06139e-06
4.03776e-06
3.93494e-06
3.70716e-06
3.37039e-06
2.95695e-06
2.40373e-06
1.74604e-06
1.25847e-06
9.24155e-07
7.02809e-07
5.59876e-07
4.69692e-07
4.13958e-07
3.79898e-07
3.58882e-07
3.45218e-07
3.35866e-07
3.30714e-07
3.63117e-07
5.87036e-07
1.26814e-06
2.91095e-06
6.53852e-06
1.39919e-05
2.8208e-05
5.384e-05
9.77199e-05
0.000169144
0.000279328
0.000440709
3.52478e-06
4.63993e-06
4.949e-06
5.17745e-06
4.71668e-06
4.35253e-06
4.14452e-06
4.05995e-06
4.04408e-06
4.02565e-06
3.92391e-06
3.69611e-06
3.36079e-06
2.94943e-06
2.49312e-06
1.89981e-06
1.35662e-06
9.83322e-07
7.36966e-07
5.7812e-07
4.78918e-07
4.18406e-07
3.81942e-07
3.59772e-07
3.45628e-07
3.35879e-07
3.293e-07
3.42365e-07
4.97697e-07
1.04288e-06
2.41812e-06
5.53479e-06
1.20873e-05
2.48713e-05
4.83228e-05
8.91362e-05
0.000156505
0.000261717
0.000417118
0.000634399
3.46273e-06
4.56172e-06
4.86375e-06
5.08151e-06
4.63916e-06
4.29987e-06
4.10792e-06
4.03415e-06
4.0274e-06
4.01386e-06
3.91321e-06
3.68504e-06
3.35048e-06
2.94044e-06
2.50024e-06
2.02304e-06
1.46545e-06
1.04897e-06
7.7514e-07
5.98913e-07
4.89369e-07
4.23386e-07
3.84222e-07
3.60749e-07
3.46053e-07
3.3596e-07
3.28709e-07
3.31081e-07
4.29788e-07
8.56421e-07
1.99675e-06
4.6554e-06
1.03801e-05
2.18141e-05
4.31909e-05
8.10365e-05
0.00014447
0.000244747
0.000394414
0.000605333
0.000880713
3.40234e-06
4.48388e-06
4.77934e-06
4.98924e-06
4.5648e-06
4.24924e-06
4.07282e-06
4.00963e-06
4.01128e-06
4.00228e-06
3.90284e-06
3.67453e-06
3.34013e-06
2.93081e-06
2.49072e-06
2.06231e-06
1.57778e-06
1.12092e-06
8.17363e-07
6.22342e-07
5.01266e-07
4.28993e-07
3.86765e-07
3.61836e-07
3.46501e-07
3.36133e-07
3.28462e-07
3.25607e-07
3.81418e-07
7.04065e-07
1.6392e-06
3.8902e-06
8.85865e-06
1.90269e-05
3.84324e-05
7.34192e-05
0.000133019
0.000228492
0.000372417
0.000577196
0.000847399
0.00115717
3.34526e-06
4.40753e-06
4.69733e-06
4.90073e-06
4.49343e-06
4.19894e-06
4.03921e-06
3.98675e-06
3.9958e-06
3.99094e-06
3.89276e-06
3.6647e-06
3.33036e-06
2.92099e-06
2.48198e-06
2.05758e-06
1.65219e-06
1.2018e-06
8.63752e-07
6.48532e-07
5.14805e-07
4.35341e-07
3.89607e-07
3.63051e-07
3.46982e-07
3.36353e-07
3.28347e-07
3.23197e-07
3.49945e-07
5.82066e-07
1.338e-06
3.22902e-06
7.5113e-06
1.64972e-05
3.40412e-05
6.62722e-05
0.000122151
0.000212924
0.000351245
0.000549765
0.000814772
0.00112405
0.00140567
3.28888e-06
4.33318e-06
4.61796e-06
4.81502e-06
4.4244e-06
4.14876e-06
4.00472e-06
3.96536e-06
3.98103e-06
3.97986e-06
3.88302e-06
3.65553e-06
3.32145e-06
2.91157e-06
2.47287e-06
2.04959e-06
1.66884e-06
1.27944e-06
9.15158e-07
6.77369e-07
5.30119e-07
4.42571e-07
3.928e-07
3.64411e-07
3.47514e-07
3.36576e-07
3.28318e-07
3.22187e-07
3.31786e-07
4.87181e-07
1.08682e-06
2.66114e-06
6.32646e-06
1.42158e-05
3.00032e-05
5.95921e-05
0.000111851
0.000198049
0.00033087
0.000523229
0.000782629
0.00109098
0.00137884
0.00157459
3.23313e-06
4.26096e-06
4.5406e-06
4.7309e-06
4.35708e-06
4.0986e-06
3.96934e-06
3.9432e-06
3.96693e-06
3.96921e-06
3.87373e-06
3.64705e-06
3.31339e-06
2.90302e-06
2.46393e-06
2.04176e-06
1.66034e-06
1.32399e-06
9.71724e-07
7.09126e-07
5.47227e-07
4.50815e-07
3.96408e-07
3.65935e-07
3.48111e-07
3.36808e-07
3.28381e-07
3.21696e-07
3.22484e-07
4.16969e-07
8.79604e-07
2.17715e-06
5.29081e-06
1.21713e-05
2.63071e-05
5.33662e-05
0.000102114
0.000183846
0.000311306
0.000497569
0.000751263
0.00105777
0.00135165
0.00155404
0.00169702
3.17706e-06
4.1894e-06
4.46415e-06
4.64816e-06
4.29087e-06
4.04856e-06
3.93338e-06
3.92051e-06
3.95253e-06
3.95887e-06
3.86506e-06
3.6394e-06
3.30621e-06
2.89544e-06
2.45584e-06
2.03387e-06
1.65387e-06
1.33121e-06
1.02435e-06
7.43424e-07
5.66066e-07
4.60221e-07
4.00523e-07
3.67646e-07
3.48783e-07
3.37058e-07
3.2849e-07
3.21459e-07
3.18161e-07
3.68849e-07
7.11548e-07
1.7674e-06
4.39242e-06
1.03494e-05
2.29404e-05
4.75868e-05
9.29276e-05
0.000170315
0.000292534
0.000472824
0.000720698
0.0010248
0.00132384
0.00153353
0.00167436
0.00186006
3.1197e-06
4.11632e-06
4.38675e-06
4.56664e-06
4.22532e-06
3.99873e-06
3.89734e-06
3.89772e-06
3.93805e-06
3.94843e-06
3.85704e-06
3.63278e-06
3.30001e-06
2.88889e-06
2.44877e-06
2.02664e-06
1.64755e-06
1.32434e-06
1.05281e-06
7.81698e-07
5.8671e-07
4.70787e-07
4.05237e-07
3.69576e-07
3.4954e-07
3.37332e-07
3.28601e-07
3.21321e-07
3.16294e-07
3.3921e-07
5.78449e-07
1.4237e-06
3.61774e-06
8.73856e-06
1.98853e-05
4.22443e-05
8.42855e-05
0.000157433
0.000274559
0.000448982
0.000691021
0.00099215
0.00129574
0.00151286
0.00165226
0.00183102
0.00205952
3.05923e-06
4.04018e-06
4.30825e-06
4.48633e-06
4.1597e-06
3.9487e-06
3.86177e-06
3.87531e-06
3.9237e-06
3.93792e-06
3.84927e-06
3.6272e-06
3.295e-06
2.88348e-06
2.44289e-06
2.02035e-06
1.64164e-06
1.3194e-06
1.0573e-06
8.16554e-07
6.09054e-07
4.82429e-07
4.10646e-07
3.71768e-07
3.50389e-07
3.3764e-07
3.28713e-07
3.21293e-07
3.15443e-07
3.23008e-07
4.77019e-07
1.13825e-06
2.95466e-06
7.32383e-06
1.71282e-05
3.73221e-05
7.61835e-05
0.000145195
0.000257357
0.000426066
0.000662264
0.000959977
0.00126735
0.00149227
0.00163068
0.00180209
0.00202908
0.00221912
2.9957e-06
3.95999e-06
4.22941e-06
4.40776e-06
4.09445e-06
3.89701e-06
3.8264e-06
3.85377e-06
3.9098e-06
3.92756e-06
3.84177e-06
3.62225e-06
3.29114e-06
2.87936e-06
2.43823e-06
2.01522e-06
1.63648e-06
1.31482e-06
1.05282e-06
8.36547e-07
6.33538e-07
4.95147e-07
4.16794e-07
3.74283e-07
3.51342e-07
3.37991e-07
3.28833e-07
3.21324e-07
3.15016e-07
3.15073e-07
4.04245e-07
9.04625e-07
2.3906e-06
6.09173e-06
1.46512e-05
3.28084e-05
6.86083e-05
0.000133594
0.000240921
0.00040406
0.000634485
0.000928379
0.00123881
0.00147169
0.00161002
0.00177362
0.00199759
0.00219367
0.00232604
2.93017e-06
3.87653e-06
4.15114e-06
4.33096e-06
4.02983e-06
3.84459e-06
3.7892e-06
3.83281e-06
3.89657e-06
3.91744e-06
3.83448e-06
3.61777e-06
3.288e-06
2.8764e-06
2.4348e-06
2.01127e-06
1.63231e-06
1.31079e-06
1.04936e-06
8.40575e-07
6.56405e-07
5.08776e-07
4.23525e-07
3.77177e-07
3.52421e-07
3.38387e-07
3.28966e-07
3.21367e-07
3.14749e-07
3.11506e-07
3.56702e-07
7.16827e-07
1.91525e-06
5.02583e-06
1.24399e-05
2.86831e-05
6.15552e-05
0.000122612
0.00022524
0.000382967
0.000607698
0.00089749
0.0012102
0.00145112
0.0015902
0.00174603
0.00196631
0.00216653
0.00230308
0.00240218
2.866e-06
3.7926e-06
4.07562e-06
4.25713e-06
3.96606e-06
3.79195e-06
3.75141e-06
3.81078e-06
3.88377e-06
3.90769e-06
3.82749e-06
3.61358e-06
3.28535e-06
2.87417e-06
2.43242e-06
2.00837e-06
1.62916e-06
1.30741e-06
1.04634e-06
8.37606e-07
6.71311e-07
5.23492e-07
4.30926e-07
3.80544e-07
3.53657e-07
3.38833e-07
3.29118e-07
3.21408e-07
3.14615e-07
3.09978e-07
3.29048e-07
5.70491e-07
1.5197e-06
4.1102e-06
1.04774e-05
2.49312e-05
5.50073e-05
0.00011225
0.000210289
0.000362786
0.000581937
0.000867397
0.00118166
0.00143052
0.00157125
0.00171933
0.00193535
0.00213939
0.00227829
0.00238143
0.00244771
2.8057e-06
3.71071e-06
4.004e-06
4.18625e-06
3.9033e-06
3.74031e-06
3.71389e-06
3.78851e-06
3.87053e-06
3.89809e-06
3.82058e-06
3.60952e-06
3.28294e-06
2.87243e-06
2.43061e-06
2.00642e-06
1.62685e-06
1.30477e-06
1.04364e-06
8.353e-07
6.75768e-07
5.37582e-07
4.38837e-07
3.8418e-07
3.55092e-07
3.39335e-07
3.29294e-07
3.21453e-07
3.14568e-07
3.09237e-07
3.1479e-07
4.62069e-07
1.19305e-06
3.32641e-06
8.74977e-06
2.15315e-05
4.8953e-05
0.000102492
0.000196067
0.00034349
0.000557229
0.000838202
0.00115329
0.00140995
0.00155315
0.00169361
0.00190478
0.00211193
0.00225364
0.00235906
0.00243017
0.00245567
2.74752e-06
3.6317e-06
3.93596e-06
4.11711e-06
3.84049e-06
3.68929e-06
3.67855e-06
3.76664e-06
3.85712e-06
3.88806e-06
3.81353e-06
3.60528e-06
3.2805e-06
2.87091e-06
2.42916e-06
2.00468e-06
1.62518e-06
1.30274e-06
1.04143e-06
8.33121e-07
6.7401e-07
5.48155e-07
4.46991e-07
3.88215e-07
3.56768e-07
3.39911e-07
3.29497e-07
3.21505e-07
3.14554e-07
3.08843e-07
3.08181e-07
3.8779e-07
9.27299e-07
2.66265e-06
7.24122e-06
1.84681e-05
4.33687e-05
9.33379e-05
0.000182555
0.000325077
0.000533569
0.00081
0.00112525
0.00138943
0.00153594
0.00166892
0.00187464
0.00208428
0.00222868
0.00233682
0.00241111
0.00244204
0.00242169
2.69115e-06
3.55553e-06
3.87074e-06
4.04842e-06
3.77776e-06
3.63825e-06
3.64429e-06
3.74668e-06
3.84363e-06
3.87779e-06
3.80588e-06
3.60047e-06
3.27749e-06
2.86928e-06
2.42785e-06
2.00319e-06
1.62373e-06
1.30111e-06
1.03961e-06
8.31016e-07
6.72261e-07
5.52298e-07
4.55012e-07
3.92474e-07
3.58702e-07
3.40585e-07
3.2973e-07
3.21569e-07
3.14533e-07
3.08608e-07
3.0537e-07
3.42293e-07
7.16142e-07
2.10557e-06
5.9367e-06
1.57204e-05
3.82358e-05
8.47683e-05
0.000169759
0.000307522
0.00051098
0.000782845
0.00109768
0.001369
0.00151957
0.00164529
0.00184497
0.00205643
0.00220359
0.00231411
0.00239207
0.00242704
0.00241215
0.0023462
2.63603e-06
3.48078e-06
3.8071e-06
3.9799e-06
3.7153e-06
3.58795e-06
3.61027e-06
3.72731e-06
3.83081e-06
3.86738e-06
3.79789e-06
3.59459e-06
3.27382e-06
2.86723e-06
2.42647e-06
2.00185e-06
1.6223e-06
1.29972e-06
1.03806e-06
8.29174e-07
6.70617e-07
5.51615e-07
4.61464e-07
3.96601e-07
3.60766e-07
3.41384e-07
3.29996e-07
3.21645e-07
3.14509e-07
3.08504e-07
3.04218e-07
3.17836e-07
5.55169e-07
1.64179e-06
4.81887e-06
1.32709e-05
3.35274e-05
7.67725e-05
0.000157668
0.000290824
0.000489445
0.000756818
0.00107068
0.0013487
0.00150406
0.0016228
0.00181581
0.00202839
0.00217838
0.00229099
0.00237252
0.00241208
0.00240149
0.00234057
0.00223387
2.58195e-06
3.40687e-06
3.7442e-06
3.91218e-06
3.65317e-06
3.53913e-06
3.57732e-06
3.70793e-06
3.8179e-06
3.85761e-06
3.78994e-06
3.58811e-06
3.26903e-06
2.86468e-06
2.42488e-06
2.00058e-06
1.62092e-06
1.29848e-06
1.03664e-06
8.27514e-07
6.68971e-07
5.49862e-07
4.64863e-07
4.00768e-07
3.63051e-07
3.42338e-07
3.30308e-07
3.21735e-07
3.14489e-07
3.08428e-07
3.03661e-07
3.06315e-07
4.4035e-07
1.26018e-06
3.86849e-06
1.1102e-05
2.92226e-05
6.93244e-05
0.000146291
0.000274972
0.000468965
0.00073195
0.00104442
0.00132856
0.00148943
0.00160152
0.00178722
0.00200016
0.00215309
0.00226742
0.00235253
0.00239659
0.00239086
0.00233407
0.00223172
0.00209221
2.52881e-06
3.33459e-06
3.68192e-06
3.84527e-06
3.59162e-06
3.49177e-06
3.54627e-06
3.68892e-06
3.80474e-06
3.84799e-06
3.78287e-06
3.58161e-06
3.26365e-06
2.86097e-06
2.423e-06
1.99936e-06
1.61971e-06
1.29736e-06
1.03528e-06
8.26015e-07
6.67388e-07
5.48577e-07
4.65461e-07
4.03836e-07
3.65268e-07
3.43417e-07
3.30687e-07
3.21844e-07
3.14474e-07
3.08352e-07
3.03379e-07
3.01458e-07
3.66515e-07
9.52177e-07
3.06734e-06
9.19413e-06
2.53022e-05
6.24016e-05
0.000135615
0.000259979
0.000449519
0.000708293
0.00101901
0.00130869
0.00147563
0.00158156
0.00175936
0.00197174
0.00212797
0.00224338
0.00233212
0.00238064
0.00237971
0.00232761
0.00222894
0.00209294
0.00192992
2.47765e-06
3.26446e-06
3.62072e-06
3.7791e-06
3.53113e-06
3.44488e-06
3.51694e-06
3.67097e-06
3.79177e-06
3.83842e-06
3.77644e-06
3.5762e-06
3.25822e-06
2.85677e-06
2.42048e-06
1.9981e-06
1.61869e-06
1.2962e-06
1.03403e-06
8.24626e-07
6.66024e-07
5.47319e-07
4.64046e-07
4.05631e-07
3.67107e-07
3.44541e-07
3.3115e-07
3.21975e-07
3.14467e-07
3.08273e-07
3.03243e-07
2.99509e-07
3.25212e-07
7.13451e-07
2.39374e-06
7.53043e-06
2.17449e-05
5.59782e-05
0.000125634
0.000245848
0.000431115
0.000685853
0.00099458
0.00128914
0.00146269
0.00156292
0.00173241
0.00194338
0.00210311
0.00221905
0.00231133
0.00236425
0.00236812
0.00232066
0.0022262
0.00209328
0.00193293
0.0017557
2.43059e-06
3.19831e-06
3.56125e-06
3.71383e-06
3.47246e-06
3.39909e-06
3.48797e-06
3.65375e-06
3.77937e-06
3.82914e-06
3.77031e-06
3.57151e-06
3.25395e-06
2.85254e-06
2.41737e-06
1.99678e-06
1.61778e-06
1.29522e-06
1.033e-06
8.23383e-07
6.64867e-07
5.46135e-07
4.63031e-07
4.05901e-07
3.68647e-07
3.4578e-07
3.31718e-07
3.22135e-07
3.14467e-07
3.08195e-07
3.03128e-07
2.98681e-07
3.05542e-07
5.35232e-07
1.83055e-06
6.09165e-06
1.85366e-05
5.0023e-05
0.000116333
0.000232596
0.000413749
0.000664655
0.000971221
0.00127002
0.0014506
0.00154571
0.00170649
0.00191529
0.00207854
0.00219452
0.0022901
0.0023474
0.00235607
0.0023133
0.00222302
0.00209367
0.00193574
0.00176041
0.00157734
2.38635e-06
3.13629e-06
3.50343e-06
3.64992e-06
3.41564e-06
3.35522e-06
3.45974e-06
3.63633e-06
3.76733e-06
3.8203e-06
3.7644e-06
3.56726e-06
3.25042e-06
2.84929e-06
2.41426e-06
1.9954e-06
1.61695e-06
1.29442e-06
1.03203e-06
8.22336e-07
6.63856e-07
5.45089e-07
4.62101e-07
4.05128e-07
3.68879e-07
3.46784e-07
3.32383e-07
3.22342e-07
3.14477e-07
3.08119e-07
3.02989e-07
2.98298e-07
2.97462e-07
4.1348e-07
1.36924e-06
4.8607e-06
1.56578e-05
4.4513e-05
0.000107685
0.000220238
0.000397449
0.000644686
0.000949045
0.0012514
0.00143934
0.00152992
0.00168173
0.00188769
0.00205428
0.00216983
0.0022684
0.0023301
0.00234357
0.00230549
0.00221946
0.00209367
0.00193861
0.00176506
0.00158323
0.00140124
2.34377e-06
3.07781e-06
3.44727e-06
3.58708e-06
3.36039e-06
3.31323e-06
3.43287e-06
3.6189e-06
3.75498e-06
3.81177e-06
3.7586e-06
3.56317e-06
3.24735e-06
2.84661e-06
2.41176e-06
1.99365e-06
1.61615e-06
1.29376e-06
1.03125e-06
8.21434e-07
6.62961e-07
5.44209e-07
4.61227e-07
4.03921e-07
3.68246e-07
3.4728e-07
3.33037e-07
3.22612e-07
3.14503e-07
3.08043e-07
3.02833e-07
2.98101e-07
2.94468e-07
3.41306e-07
9.9984e-07
3.81664e-06
1.30919e-05
3.94196e-05
9.96717e-05
0.000208767
0.000382254
0.000625961
0.000928104
0.00123344
0.00142894
0.00151562
0.00165821
0.00186078
0.00203032
0.00214506
0.00224621
0.00231234
0.0023306
0.00229723
0.0022155
0.00209334
0.00194114
0.00176978
0.00158918
0.0014079
0.00123229
2.30176e-06
3.02148e-06
3.39313e-06
3.52519e-06
3.30667e-06
3.27249e-06
3.40701e-06
3.60175e-06
3.7423e-06
3.8029e-06
3.75261e-06
3.55892e-06
3.24441e-06
2.84425e-06
2.40961e-06
1.99185e-06
1.61513e-06
1.29314e-06
1.03059e-06
8.2059e-07
6.62177e-07
5.43429e-07
4.60389e-07
4.03198e-07
3.67281e-07
3.47332e-07
3.33767e-07
3.22953e-07
3.14549e-07
3.07972e-07
3.02665e-07
2.97926e-07
2.93306e-07
3.05956e-07
7.15773e-07
2.93806e-06
1.08157e-05
3.47233e-05
9.227e-05
0.000198185
0.00036819
0.000608513
0.000908454
0.00121621
0.00141938
0.00150282
0.00163606
0.0018347
0.0020067
0.0021205
0.00222355
0.00229418
0.00231717
0.00228852
0.00221111
0.00209264
0.00194338
0.00177422
0.00159519
0.00141468
0.00123938
0.00107391
2.25994e-06
2.96658e-06
3.34116e-06
3.46475e-06
3.25446e-06
3.23322e-06
3.38131e-06
3.58474e-06
3.72962e-06
3.79382e-06
3.74599e-06
3.55427e-06
3.2413e-06
2.84202e-06
2.40747e-06
1.99017e-06
1.61384e-06
1.29244e-06
1.02998e-06
8.19819e-07
6.61453e-07
5.42682e-07
4.59647e-07
4.02457e-07
3.66156e-07
3.46059e-07
3.34231e-07
3.23398e-07
3.14631e-07
3.07909e-07
3.02495e-07
2.97722e-07
2.92756e-07
2.92007e-07
5.12286e-07
2.20327e-06
8.80897e-06
3.0399e-05
8.54734e-05
0.000188471
0.000355297
0.000592377
0.000890135
0.00119987
0.00141065
0.00149154
0.00161534
0.00180954
0.0019834
0.00209625
0.00220065
0.00227565
0.0023033
0.00227936
0.00220629
0.00209157
0.00194532
0.00177841
0.00160096
0.00142151
0.00124661
0.00108116
0.000928253
2.21746e-06
2.91298e-06
3.2914e-06
3.40613e-06
3.20325e-06
3.19552e-06
3.35596e-06
3.56745e-06
3.71695e-06
3.78496e-06
3.73908e-06
3.54864e-06
3.23781e-06
2.83974e-06
2.40548e-06
1.98856e-06
1.61228e-06
1.29153e-06
1.02928e-06
8.19138e-07
6.6074e-07
5.41959e-07
4.58965e-07
4.01754e-07
3.6514e-07
3.44202e-07
3.34131e-07
3.23808e-07
3.14762e-07
3.07853e-07
3.02323e-07
2.97504e-07
2.92441e-07
2.87256e-07
3.82712e-07
1.59411e-06
7.04934e-06
2.64271e-05
7.92746e-05
0.000179621
0.000343581
0.000577631
0.000873182
0.00118448
0.00140279
0.00148179
0.00159614
0.00178537
0.00196043
0.0020724
0.00217761
0.0022567
0.00228898
0.00226972
0.00220103
0.00209009
0.00194692
0.00178234
0.00160653
0.00142814
0.00125389
0.00108855
0.000935467
0.000796407
2.17373e-06
2.86002e-06
3.2442e-06
3.34952e-06
3.15302e-06
3.15867e-06
3.33113e-06
3.55014e-06
3.70409e-06
3.77624e-06
3.7323e-06
3.54266e-06
3.23327e-06
2.83719e-06
2.40366e-06
1.98692e-06
1.61062e-06
1.29018e-06
1.02852e-06
8.18524e-07
6.60027e-07
5.41281e-07
4.58304e-07
4.0109e-07
3.64557e-07
3.42522e-07
3.33605e-07
3.24304e-07
3.14943e-07
3.07804e-07
3.02149e-07
2.97268e-07
2.92191e-07
2.85575e-07
3.15901e-07
1.10583e-06
5.51736e-06
2.27783e-05
7.36806e-05
0.000171627
0.000333052
0.000564329
0.000857672
0.00117013
0.0013958
0.00147358
0.00157855
0.00176228
0.00193777
0.00204912
0.0021544
0.00223731
0.00227419
0.00225961
0.00219532
0.00208822
0.00194818
0.00178598
0.00161188
0.00143461
0.001261
0.001096
0.000942802
0.000803435
0.000678677
2.1292e-06
2.80704e-06
3.19937e-06
3.29516e-06
3.10407e-06
3.12229e-06
3.30613e-06
3.53293e-06
3.69139e-06
3.76746e-06
3.72573e-06
3.53689e-06
3.22841e-06
2.83406e-06
2.4018e-06
1.98538e-06
1.60907e-06
1.28865e-06
1.02763e-06
8.17889e-07
6.59396e-07
5.40656e-07
4.5768e-07
4.00507e-07
3.63951e-07
3.412e-07
3.31881e-07
3.24604e-07
3.15162e-07
3.07773e-07
3.01975e-07
2.97019e-07
2.91926e-07
2.8473e-07
2.90369e-07
7.36367e-07
4.19513e-06
1.94212e-05
6.86957e-05
0.000164499
0.000323698
0.000552535
0.000843694
0.00115689
0.00138965
0.00146691
0.00156262
0.00174035
0.00191546
0.00202628
0.00213105
0.0022174
0.00225902
0.00224912
0.00218918
0.00208592
0.00194908
0.00178933
0.00161699
0.0014409
0.00126798
0.0011033
0.000950185
0.000810551
0.000685411
0.000574782
2.08373e-06
2.75328e-06
3.15666e-06
3.24315e-06
3.0562e-06
3.08635e-06
3.2807e-06
3.51534e-06
3.67888e-06
3.75856e-06
3.71902e-06
3.53149e-06
3.22372e-06
2.83045e-06
2.39986e-06
1.98401e-06
1.60777e-06
1.28711e-06
1.02639e-06
8.17273e-07
6.58847e-07
5.40048e-07
4.57094e-07
3.99969e-07
3.63378e-07
3.40123e-07
3.29642e-07
3.24293e-07
3.15474e-07
3.07773e-07
3.01801e-07
2.96754e-07
2.91632e-07
2.84126e-07
2.83151e-07
4.86568e-07
3.06119e-06
1.63181e-05
6.43313e-05
0.000158254
0.000315523
0.000542264
0.000831369
0.00114486
0.00138436
0.00146174
0.00154841
0.00171969
0.00189339
0.00200385
0.00210788
0.00219717
0.00224354
0.00223831
0.00218274
0.0020833
0.0019496
0.00179238
0.00162186
0.00144698
0.00127481
0.00111049
0.000957455
0.000817719
0.000692188
0.00058114
0.000484043
2.03768e-06
2.6988e-06
3.11561e-06
3.19332e-06
3.00921e-06
3.05041e-06
3.25482e-06
3.49732e-06
3.66624e-06
3.74954e-06
3.71211e-06
3.52614e-06
3.21934e-06
2.82693e-06
2.39747e-06
1.98267e-06
1.60664e-06
1.2859e-06
1.02505e-06
8.16652e-07
6.58322e-07
5.39457e-07
4.56546e-07
3.99441e-07
3.62843e-07
3.3953e-07
3.27578e-07
3.2365e-07
3.15832e-07
3.0782e-07
3.01626e-07
2.96477e-07
2.91308e-07
2.83627e-07
2.81143e-07
3.50525e-07
2.09833e-06
1.34238e-05
6.06002e-05
0.000152925
0.000308535
0.000533537
0.000820796
0.00113416
0.00137986
0.001458
0.00153593
0.00170037
0.00187136
0.00198181
0.00208507
0.00217688
0.00222784
0.0022272
0.00217595
0.00208035
0.00194985
0.00179512
0.00162648
0.00145287
0.00128147
0.00111755
0.000964629
0.000824788
0.000699024
0.000587495
0.000489965
0.000405529
1.99115e-06
2.64448e-06
3.07606e-06
3.14518e-06
2.9629e-06
3.01415e-06
3.22856e-06
3.47899e-06
3.65343e-06
3.74019e-06
3.70488e-06
3.52063e-06
3.21521e-06
2.82357e-06
2.39479e-06
1.98124e-06
1.60566e-06
1.2849e-06
1.02387e-06
8.15788e-07
6.57769e-07
5.38941e-07
4.56036e-07
3.98935e-07
3.62367e-07
3.39023e-07
3.26113e-07
3.22279e-07
3.15993e-07
3.07906e-07
3.01453e-07
2.96185e-07
2.90954e-07
2.83168e-07
2.80141e-07
3.02567e-07
1.3121e-06
1.06998e-05
5.75125e-05
0.000148546
0.000302762
0.000526351
0.000812049
0.00112495
0.0013761
0.00145559
0.00152522
0.00168198
0.00184928
0.00196035
0.00206266
0.00215664
0.00221197
0.00221583
0.00216883
0.00207704
0.00194976
0.00179757
0.00163082
0.00145854
0.00128796
0.00112448
0.000971697
0.000831784
0.000705781
0.000593918
0.00049584
0.000410974
0.000338164
1.94453e-06
2.5914e-06
3.0377e-06
3.09826e-06
2.91688e-06
2.97729e-06
3.20209e-06
3.46047e-06
3.64045e-06
3.73047e-06
3.69724e-06
3.51485e-06
3.21099e-06
2.82044e-06
2.39217e-06
1.97933e-06
1.6047e-06
1.28398e-06
1.02283e-06
8.14844e-07
6.57239e-07
5.38479e-07
4.55534e-07
3.98437e-07
3.61907e-07
3.38513e-07
3.2489e-07
3.20308e-07
3.15713e-07
3.08026e-07
3.01284e-07
2.95879e-07
2.9057e-07
2.82733e-07
2.79345e-07
2.93584e-07
7.43641e-07
8.10913e-06
5.50826e-05
0.000145151
0.000298247
0.000520712
0.000805151
0.00111739
0.00137308
0.00145436
0.00151603
0.00166432
0.00182734
0.00193948
0.00204074
0.00213648
0.00219601
0.00220419
0.00216137
0.00207339
0.00194934
0.00179972
0.0016349
0.00146399
0.00129428
0.00113126
0.000978654
0.000838692
0.000712482
0.000600283
0.000501796
0.000416331