/*--------------------------------*- C++ -*----------------------------------*\
| =========                 |                                                 |
| \\      /  F ield         | OpenFOAM: The Open Source CFD Toolbox           |
|  \\    /   O peration     | Version:  v2012                                 |
|   \\  /    A nd           | Website:  www.openfoam.com                      |
|    \\/     M anipulation  |                                                 |
\*---------------------------------------------------------------------------*/
FoamFile
{
    version     2.0;
    format      ascii;
    class       volScalarField;
    location    "12000";
    object      PD;
}
// * * * * * * * * * * * * * * * * * * * * * * * * * * * * * * * * * * * * * //

dimensions      [0 0 0 0 0 0 0];


internalField   nonuniform List<scalar> 
27324
(
0.361545
0.398025
0.775387
0.418991
0.820072
0.864744
0.44682
0.83741
0.902033
0.931546
0.475832
0.864926
0.919317
0.960519
0.981369
0.507424
0.892586
0.945511
0.982187
1.0018
0.947313
0.540815
0.9212
0.972006
1.01009
1.03224
0.971761
0.857376
0.580037
0.949616
0.998716
1.03994
1.06676
1.01827
0.91417
0.734884
0.628568
0.982439
1.02596
1.07086
1.10549
1.06645
0.987256
0.833011
0.516929
0.68706
1.02452
1.05787
1.10374
1.14572
1.11715
1.05101
0.931018
0.684494
0.382415
0.75384
1.07717
1.09948
1.14355
1.18847
1.16488
1.1066
0.993152
0.826306
0.659438
0.414552
0.828464
1.14067
1.15251
1.19767
1.24161
1.20907
1.14244
1.03002
0.90533
0.86299
0.76137
0.49628
0.912246
1.21766
1.2194
1.2695
1.31539
1.26306
1.15962
1.03143
0.94427
0.980062
1.01225
0.853053
0.607606
1.00562
1.31451
1.30631
1.36159
1.41148
1.3385
1.18719
1.01047
0.940174
1.03765
1.17247
1.11497
0.910592
0.713399
1.11032
1.44019
1.42363
1.4792
1.52683
1.42994
1.24708
1.02885
0.912374
1.04298
1.25676
1.35058
1.12017
0.931574
0.788287
1.23431
1.60189
1.58005
1.63141
1.66004
1.52721
1.32904
1.11454
0.947056
1.01657
1.299
1.49774
1.45813
1.0504
0.943403
0.781552
1.36996
1.81756
1.77541
1.82182
1.81959
1.62991
1.41906
1.24129
1.06992
1.05513
1.30099
1.61114
1.67339
1.45159
0.951906
0.956241
0.671185
1.48388
2.11143
2.02012
2.04064
2.00798
1.76409
1.51773
1.37009
1.24425
1.19417
1.33705
1.6706
1.87472
1.80465
1.33616
0.870703
0.97849
0.526017
1.66755
2.51258
2.35267
2.29843
2.20116
1.92668
1.65765
1.48502
1.39726
1.40987
1.47023
1.69138
2.0319
2.10004
1.82883
1.18775
0.83582
0.957354
0.621344
1.92277
3.26476
2.83217
2.64435
2.40388
2.06661
1.8111
1.60419
1.50153
1.59055
1.72005
1.77451
2.04033
2.36235
2.26395
1.70807
1.05688
0.88764
0.839169
1.71425
3.9197
3.68872
3.56231
3.11901
2.67747
2.18085
1.88911
1.69478
1.52893
1.68713
1.9414
2.01305
2.03791
2.38299
2.58236
2.27448
1.5111
1.02367
0.996429
1.01482
4.74086
6.3533
4.76042
4.57986
3.63819
3.03946
2.37729
1.89824
1.63949
1.50751
1.59815
2.03744
2.25453
2.18665
2.29721
2.64849
2.64856
2.11309
1.31252
1.09043
0.914043
2.32544
8.30445
1.08572
5.02717
6.12966
6.10164
3.84613
2.68503
2.0359
1.46201
1.31857
1.50787
1.83437
2.33416
2.39169
2.28318
2.51887
2.75911
2.53909
1.80304
1.12798
1.07018
0.818873
6.38307
7.23901
0.576812
1.14323
5.77554
8.37758
8.35114
4.63965
2.43315
1.44783
0.983584
1.27516
1.75696
2.02065
2.43994
2.3911
2.28644
2.6332
2.66973
2.23882
1.32638
1.0422
1.03795
2.21598
9.63507
3.78505
0.587355
0.933624
1.2039
6.79249
12.8214
13.7577
6.72581
2.06366
0.764308
0.899232
1.50461
1.99239
2.06141
2.43961
2.21156
2.25979
2.6033
2.41445
1.71163
1.16594
1.30157
1.00715
5.86351
10.0571
3.28892
0.673599
0.966716
1.04041
1.19773
9.37994
23.808
29.0078
12.0317
2.09265
0.478316
1.04415
1.74869
2.01349
2.14761
2.29223
1.97654
2.34646
2.43219
2.09984
1.40263
1.14111
0.757232
4.11741
11.7225
18.803
21.3993
0.740288
1.06678
1.08959
1.03383
1.19593
16.0854
46.6651
61.5992
26.4437
3.67064
0.703601
0.943447
1.85403
1.951
2.32043
2.04412
1.83994
2.46063
2.1669
1.57458
0.65987
0.371757
2.30789
19.5414
38.6134
38.9292
22.2382
0.792877
1.10642
1.12214
1.06928
0.950087
1.46954
31.1605
79.3031
114.215
66.3724
12.2855
1.69426
0.70046
1.45856
1.54583
2.14
1.43833
1.74164
1.66819
1.5411
0.122195
0.305075
6.04027
38.5018
59.9272
38.9458
14.7067
3.1349
0.815577
1.13191
1.08122
1.05427
1.00588
0.867576
3.20375
54.7978
104.781
176.884
153.767
48.1441
7.80256
1.72394
1.08376
0.812378
1.16828
0.502539
1.00879
0.467375
1.4989
8.74922
29.5878
68.2005
75.2922
35.8956
7.11175
0.622942
0.124379
0.811359
1.12914
1.05159
1.009
0.999025
0.987244
0.753847
10.7962
73.6532
103.06
213.143
280.479
159.031
52.4917
16.5887
7.33762
4.60244
3.80079
4.91986
9.9564
25.2408
52.2089
77.0761
86.3235
64.1486
24.5058
3.82085
0.379346
0.132738
0.066046
0.795579
1.10573
1.01648
0.986375
1.01438
1.01876
0.967109
0.619459
32.3451
72.5805
72.0444
179.108
345.89
346.755
221.823
127.241
84.0579
70.7393
73.1068
82.632
102.537
112.622
100.212
62.8301
31.1036
15.711
3.43514
0.460558
0.140432
0.102862
0.0488936
0.772086
1.07378
0.987608
0.9739
1.03079
1.06516
1.0413
0.709736
1.81556
72.4625
54.2802
36.2567
87.4845
217.581
338.062
346.203
292.875
239.596
203.504
175.163
145.899
104.892
55.7098
19.4094
7.55526
11.5344
5.05424
0.750594
0.176543
0.0933041
0.0888329
0.0314317
0.739734
1.03665
0.972009
0.978143
1.05823
1.09382
1.05108
0.825571
0.437631
7.94491
126.144
29.1462
8.70204
17.3859
51.2799
108.507
153.054
160.978
139.803
102.542
64.845
31.8849
10.8452
2.09002
0.872018
8.15322
7.04701
1.31293
0.263179
0.110615
0.0851449
0.0596534
0.00672907
0.70774
1.00451
0.974677
1.00382
1.08994
1.12411
1.06096
0.881555
0.629341
0.264964
31.0658
154.95
12.8226
0.0951952
0.524998
2.63572
7.78345
13.4349
15.0984
11.8599
6.49885
2.47394
0.53668
0.0316965
0.034126
4.44111
9.01762
2.40115
0.41834
0.132261
0.095589
0.0643196
0.0198465
0.0159966
0.697993
0.988887
1.00157
1.04845
1.11744
1.14328
1.06694
0.913434
0.731577
0.438781
0.807608
90.6014
131.683
6.31893
1.24428
0.899211
1.2392
1.96905
1.55012
1.09586
0.938029
0.840791
0.564858
0.140916
0.00752489
1.59442
9.33545
4.08302
0.708109
0.171266
0.102177
0.0767999
0.0259852
0.0209302
0.0795213
0.715013
1.00102
1.04551
1.0939
1.13053
1.14703
1.06542
0.931229
0.743671
0.511148
0.153406
5.85085
183.183
75.9151
2.37943
1.75444
1.04847
2.04778
2.50614
1.94479
1.47994
1.2554
0.890778
0.319482
0.0226186
0.35285
7.36075
6.21621
1.2247
0.241139
0.112422
0.0846916
0.0368583
0.0255492
0.0958749
0.226932
0.739936
1.02751
1.08569
1.12252
1.12539
1.13703
1.05993
0.930445
0.742331
0.517116
0.267862
0.0514241
30.301
234.458
30.4909
0.241173
0.317051
0.84736
2.11583
2.04021
1.57904
1.32238
1.03271
0.467512
0.040612
0.0454807
4.2325
8.09524
2.10862
0.366857
0.130252
0.0898027
0.0470113
0.0342282
0.10675
0.263772
0.445406
0.807826
1.07575
1.12549
1.12719
1.11045
1.12303
1.06051
0.916396
0.723583
0.511548
0.321529
0.180609
0.604575
104.169
182.734
8.98908
0.0823697
0.122737
1.22647
1.97409
1.62471
1.27054
1.06765
0.643556
0.129303
0.00263574
1.68747
8.63679
3.46895
0.592981
0.162606
0.0931125
0.057214
0.044504
0.123739
0.277204
0.495325
0.658561
0.871671
1.13375
1.15764
1.12389
1.09834
1.11392
1.06529
0.901895
0.704354
0.505319
0.350888
0.261587
0.0452041
6.85318
216.384
80.1673
1.32468
0.0122772
0.418324
1.71687
1.81444
1.3605
1.09827
0.808814
0.263309
0.00873152
0.442036
7.23842
5.23475
0.99159
0.219456
0.098361
0.0640203
0.0578862
0.142762
0.301271
0.501577
0.712206
0.817337
0.914956
1.15787
1.13421
1.09049
1.07713
1.11174
1.0688
0.891673
0.699115
0.495784
0.375529
0.293459
0.125569
0.0359578
42.7709
240.614
19.5015
0.119776
0.0965095
1.05882
1.9286
1.53519
1.16007
0.932985
0.464799
0.0447298
0.0668222
4.59268
6.96536
1.6629
0.318052
0.109775
0.0668189
0.0739595
0.164846
0.325871
0.524933
0.708199
0.871917
0.879751
0.93457
1.15227
1.07998
1.04246
1.06558
1.11146
1.07091
0.891017
0.704717
0.49286
0.380288
0.315006
0.160769
0.0287635
1.3857
144.907
139.978
2.92622
0.0544627
0.345305
1.67468
1.72994
1.24902
1.01176
0.668088
0.138518
0.00151725
2.10631
7.87394
2.70065
0.488976
0.131437
0.0672589
0.0924395
0.189987
0.352812
0.545543
0.728529
0.856778
0.936842
0.840377
0.929785
1.13215
1.02718
1.02076
1.07087
1.11598
1.07224
0.90119
0.713019
0.49419
0.385616
0.301184
0.186236
0.077461
0.00226731
16.7237
231.474
42.7692
0.28476
0.0423739
0.97634
1.82339
1.39795
1.07408
0.839825
0.300154
0.00866799
0.668714
7.2777
4.10445
0.780717
0.169562
0.0692569
0.112011
0.218251
0.382347
0.567473
0.744632
0.872193
0.91358
0.898187
0.722664
0.899108
1.11013
0.994678
1.02518
1.08963
1.12608
1.06485
0.912398
0.718052
0.497541
0.395229
0.285505
0.177539
0.112919
0.0207889
0.35803
90.3173
166.427
6.47778
0.0117179
0.282468
1.60048
1.60127
1.16303
0.959664
0.510632
0.0489995
0.134185
5.31722
5.65213
1.25894
0.23654
0.0751354
0.130877
0.249734
0.413837
0.590493
0.761891
0.882497
0.925145
0.872448
0.779654
0.542628
0.850823
1.06002
0.986764
1.04323
1.1054
1.12377
1.06558
0.941654
0.714348
0.50015
0.40996
0.275916
0.159264
0.122385
0.0490483
0.00467035
7.77114
197.734
54.0408
0.450581
0.0212283
0.973521
1.76932
1.30795
1.04818
0.719478
0.143513
0.00854687
2.96109
6.83869
1.9929
0.352121
0.0872083
0.148947
0.283965
0.447279
0.615387
0.778606
0.894343
0.930396
0.88301
0.758852
0.58425
0.417718
0.857696
1.04773
1.00342
1.0648
1.11224
1.10555
1.05702
0.952087
0.689272
0.499622
0.426372
0.273397
0.146742
0.113099
0.0623863
0.0122301
0.148662
62.3632
168.893
8.30066
0.0171406
0.304334
1.68722
1.52029
1.13609
0.880515
0.321147
0.00490458
1.21658
7.05367
3.01375
0.545758
0.110243
0.167988
0.318092
0.483393
0.643009
0.794976
0.905582
0.937216
0.886919
0.769662
0.570641
0.43558
0.420564
0.904518
1.07886
1.06937
1.10916
1.11386
1.08462
1.04691
0.937847
0.649093
0.489924
0.436711
0.272906
0.144
0.102134
0.0573595
0.0287042
9.44519e-05
5.05943
168.993
57.2178
0.72137
0.0270963
1.17771
1.74884
1.25571
0.996707
0.521153
0.0435041
0.352432
6.01675
4.24242
0.856206
0.152385
0.187588
0.35431
0.523323
0.6734
0.810946
0.916106
0.943688
0.892037
0.773293
0.582256
0.426569
0.424274
0.491919
0.965713
1.12268
1.11839
1.12583
1.09778
1.0681
1.04253
0.914401
0.604822
0.481589
0.449793
0.268384
0.145539
0.0985842
0.045115
0.0372536
0.00944271
0.132178
52.7152
150.428
7.92383
0.0305325
0.479424
1.82087
1.43452
1.07729
0.731441
0.135775
0.0634001
4.12195
5.42021
1.32642
0.226847
0.208886
0.391121
0.566995
0.708585
0.826864
0.925381
0.950415
0.896672
0.777399
0.589753
0.43322
0.41271
0.494643
0.54434
1.06633
1.19044
1.13526
1.11629
1.0718
1.05563
1.04514
0.896051
0.569683
0.47208
0.433652
0.242526
0.144367
0.097707
0.0358723
0.0389527
0.0210933
0.0119905
4.82258
151.791
46.6772
0.401703
0.0811441
1.49252
1.66144
1.16373
0.890651
0.297051
0.00100452
2.21073
6.11961
1.98925
0.353054
0.232585
0.428747
0.615982
0.745672
0.843141
0.933169
0.95713
0.901651
0.78083
0.597729
0.437903
0.409174
0.480591
0.553272
0.539771
1.11871
1.24457
1.13573
1.10657
1.05306
1.04758
1.06913
0.889277
0.550378
0.461876
0.411341
0.212856
0.129789
0.0915371
0.0310864
0.0310526
0.0321822
0.0182579
0.154523
54.293
124.497
5.54102
0.00295645
0.793892
1.83979
1.29347
1.00201
0.50559
0.0209508
0.909495
5.93832
2.84137
0.553061
0.261643
0.4677
0.670527
0.785221
0.85995
0.939593
0.963596
0.907028
0.784043
0.604637
0.442385
0.403952
0.473332
0.549216
0.557251
0.486422
1.12153
1.23911
1.08624
1.06294
1.05177
1.05648
1.08506
0.874678
0.55361
0.461494
0.372769
0.178237
0.1093
0.0755595
0.0259802
0.0253637
0.0313178
0.0307972
0.00579141
6.42722
140.153
31.4439
0.219837
0.207172
1.75565
1.49099
1.07866
0.722742
0.0952709
0.273608
4.85478
3.77164
0.84645
0.301754
0.511945
0.730652
0.825323
0.877773
0.945216
0.969454
0.912823
0.787142
0.610665
0.445959
0.398859
0.465006
0.548742
0.558502
0.523725
0.426936
1.11938
1.21568
1.04083
1.04129
1.04365
1.06849
1.10985
0.894306
0.561391
0.475472
0.340047
0.142239
0.0868271
0.0569735
0.0201864
0.023021
0.0250332
0.0481076
0.0089039
0.227252
64.1966
91.6134
2.60239
0.0120611
1.24381
1.72589
1.17352
0.888388
0.233507
0.0393832
3.27476
4.51376
1.28025
0.371036
0.565675
0.793213
0.865087
0.896674
0.951062
0.974421
0.918766
0.790242
0.615693
0.448969
0.393935
0.457028
0.547057
0.564903
0.529766
0.461014
0.377512
1.0947
1.20658
1.02846
1.03968
1.06078
1.07509
1.1289
0.909024
0.594163
0.516164
0.326061
0.116848
0.0671039
0.0401173
0.0147336
0.0249944
0.0249261
0.0483697
0.0372175
0.000310275
10.9464
127.092
16.8808
0.0542603
0.53665
1.87345
1.32192
0.98265
0.459652
0.0030932
1.78083
4.80808
1.87714
0.492879
0.631788
0.856143
0.903687
0.916786
0.95818
0.978452
0.924422
0.7936
0.61979
0.451295
0.38914
0.449105
0.545046
0.570025
0.5416
0.465027
0.411134
0.333609
1.13299
1.19496
1.03299
1.04206
1.06275
1.07767
1.1347
0.914595
0.624153
0.555799
0.328753
0.109207
0.056111
0.0263452
0.0101587
0.0259293
0.030397
0.0456585
0.058875
0.0132461
0.59432
80.9127
57.9204
0.981269
0.107427
1.70908
1.53322
1.06364
0.677348
0.0597662
0.75085
4.48955
2.55632
0.693783
0.703349
0.911663
0.941651
0.938452
0.967208
0.981639
0.929051
0.797191
0.622992
0.452958
0.384409
0.441207
0.542555
0.574664
0.550722
0.480978
0.412904
0.367729
0.294099
1.20244
1.24451
1.0638
1.0439
1.05534
1.07219
1.12697
0.908741
0.639787
0.601437
0.333727
0.122756
0.0545487
0.0187153
0.00497153
0.0198677
0.0339932
0.0400253
0.0637166
0.040971
0.00401976
22.5885
103.604
7.06027
0.00131608
1.13473
1.77471
1.15849
0.842005
0.20414
0.223212
3.62288
3.18801
1.01589
0.76525
0.954219
0.980833
0.962021
0.97817
0.984455
0.932027
0.800912
0.625388
0.453741
0.379709
0.433447
0.539688
0.578445
0.559919
0.496219
0.424876
0.368191
0.328637
0.25896
1.26128
1.29261
1.09486
1.04
1.0514
1.07171
1.10734
0.882398
0.659685
0.634033
0.348654
0.140914
0.0668236
0.0187591
0.000136226
0.00827228
0.0264327
0.0342056
0.0461574
0.0531228
0.00756779
2.559
95.371
29.2568
0.20547
0.466075
1.91644
1.30008
0.958312
0.420452
0.0378089
2.49452
3.61652
1.494
0.824709
0.990013
1.02445
0.987752
0.990309
0.9875
0.933042
0.804392
0.627188
0.453538
0.375136
0.42603
0.536674
0.581136
0.568868
0.512786
0.43594
0.378387
0.327956
0.293468
0.228393
1.34644
1.32059
1.09565
1.02789
1.03384
1.07655
1.09176
0.867574
0.651332
0.636893
0.362017
0.170499
0.0852692
0.0295519
0.00347001
0.00098242
0.0101725
0.0257474
0.0296767
0.0448366
0.0179862
0.107721
43.5855
69.5831
2.06296
0.0948298
1.74435
1.50009
1.05226
0.672202
0.0850855
1.4689
3.73734
2.00423
0.901432
1.02326
1.07493
1.01534
1.00245
0.991006
0.93233
0.807066
0.628524
0.452349
0.370778
0.419061
0.53181
0.583116
0.577951
0.531319
0.448392
0.387886
0.336735
0.291842
0.26222
0.202549
1.33578
1.34285
1.08187
1.01761
1.0276
1.10428
1.08485
0.852567
0.645813
0.624157
0.324079
0.191947
0.107855
0.0410014
0.0186084
0.00567455
0.00199835
0.0149742
0.0219956
0.02661
0.0337933
0.00131616
9.41392
92.5593
10.8217
0.00407758
1.18134
1.73871
1.15845
0.851443
0.305755
0.786114
3.45357
2.53557
1.04689
1.05469
1.13072
1.04363
1.01342
0.994868
0.930539
0.80823
0.629312
0.450331
0.3668
0.412624
0.5256
0.584573
0.586992
0.5437
0.46296
0.398695
0.345152
0.299428
0.259793
0.234896
0.181282
1.33618
1.3169
1.04464
1.01158
1.02729
1.12785
1.08335
0.855428
0.640621
0.568468
0.291108
0.189147
0.122547
0.0538164
0.0241083
0.0213447
0.0057073
0.00633909
0.0196155
0.0168386
0.0375151
0.00977324
0.85389
68.4572
34.6172
0.34437
0.521745
1.91965
1.29902
1.01767
0.663249
0.436029
2.82439
3.02696
1.29972
1.13502
1.18889
1.07119
1.02255
0.998726
0.928916
0.807529
0.629311
0.447826
0.363256
0.406731
0.519462
0.585581
0.595714
0.555441
0.47949
0.410651
0.354873
0.30682
0.26624
0.231784
0.211424
0.164413
1.34336
1.3086
1.02898
1.01046
1.02721
1.14683
1.09551
0.857119
0.649372
0.5252
0.252218
0.170118
0.120989
0.0564345
0.01795
0.0329414
0.015082
0.00418272
0.0162853
0.0149431
0.0294702
0.0304974
0.0171971
27.1322
67.1916
2.69458
0.122493
1.85406
1.48995
1.18785
1.06944
0.392795
2.13115
3.39778
1.71048
1.21833
1.23701
1.09672
1.03019
1.00199
0.927927
0.804972
0.628058
0.445404
0.360298
0.401363
0.513525
0.586208
0.603807
0.567173
0.497309
0.422841
0.365349
0.315392
0.272666
0.237176
0.207734
0.19169
0.151668
1.3957
1.30098
1.01953
1.01762
1.02937
1.15649
1.10256
0.872924
0.690189
0.499155
0.225725
0.144826
0.100333
0.0577568
0.00829033
0.0177937
0.0236514
0.00477359
0.0101322
0.0174606
0.0215822
0.048502
0.00649043
5.51532
77.7404
11.8035
0.0063699
1.41337
1.74422
1.37977
1.43582
0.605973
1.57688
3.49599
2.23639
1.3137
1.26727
1.11956
1.03741
1.00436
0.92743
0.801402
0.625314
0.443504
0.35784
0.396425
0.507726
0.586648
0.610963
0.578818
0.516232
0.435342
0.375908
0.324412
0.280018
0.242659
0.212187
0.187597
0.175546
0.142616
1.46941
1.32541
0.99205
1.02204
1.03609
1.16263
1.10405
0.884983
0.714638
0.492573
0.225269
0.128171
0.0762727
0.0571283
0.0120399
0.00126368
0.0186545
0.00550804
0.00323929
0.0205021
0.0201412
0.0470372
0.024682
0.511407
53.6605
33.1464
0.38062
0.775644
2.01376
1.58655
1.80829
1.04692
1.24808
3.32814
2.74676
1.41323
1.27646
1.14202
1.04534
1.00557
0.926438
0.798034
0.62092
0.441998
0.355577
0.391758
0.501953
0.586946
0.617657
0.590776
0.535846
0.448779
0.386517
0.333431
0.287666
0.248849
0.216684
0.191187
0.171237
0.162883
0.136902
1.53298
1.34193
0.969119
1.02534
1.04341
1.16057
1.10506
0.890298
0.73428
0.491631
0.245009
0.126758
0.0577285
0.0456533
0.0262447
0.00255611
0.0052249
0.0108763
0.000587469
0.0182158
0.0238383
0.0339385
0.0433618
0.00897141
21.5684
58.4486
2.67299
0.269827
2.14965
1.84563
2.17939
1.57225
1.07498
2.96127
3.19943
1.59056
1.28623
1.16647
1.05432
1.00545
0.92394
0.795485
0.614785
0.439825
0.353029
0.387288
0.496454
0.586993
0.624014
0.602775
0.548769
0.464303
0.39792
0.342725
0.295409
0.255256
0.221778
0.194728
0.173946
0.158466
0.153569
0.134454
1.57184
1.33922
0.933246
1.02624
1.06918
1.15469
1.1077
0.885638
0.730736
0.491986
0.274711
0.143229
0.0507672
0.0317635
0.0246236
0.012069
1.87713e-05
0.0131707
0.00191898
0.00920952
0.0269869
0.022859
0.0463537
0.00912451
4.87674
65.9627
10.5234
0.0145184
1.98232
2.17616
2.53533
2.14776
1.14223
2.55716
3.48306
1.87528
1.3382
1.19204
1.06242
1.00382
0.919517
0.793592
0.608225
0.436316
0.350227
0.383169
0.491499
0.586835
0.630009
0.61462
0.56225
0.481806
0.410374
0.352896
0.303547
0.261819
0.227073
0.198762
0.176592
0.160326
0.149075
0.147522
0.135005
1.62216
1.34968
0.897156
1.02918
1.08847
1.15048
1.11194
0.884288
0.711076
0.472898
0.301328
0.165345
0.056606
0.0282717
0.0121582
0.0177749
0.00344188
0.00683171
0.00884736
0.000655973
0.0228227
0.0176441
0.0318803
0.0313977
0.564128
47.362
27.5664
0.204525
1.49397
2.5714
2.90376
2.70778
1.45059
2.24066
3.58876
2.30184
1.40648
1.21076
1.06667
1.0008
0.913359
0.791368
0.602626
0.430767
0.347167
0.379601
0.487067
0.586639
0.635484
0.626058
0.575878
0.500469
0.42281
0.363969
0.312514
0.268836
0.232582
0.203041
0.179733
0.162097
0.150176
0.142959
0.144549
0.13833
1.73476
1.37056
0.888897
1.03363
1.10434
1.14802
1.11959
0.888651
0.670185
0.451752
0.317351
0.176629
0.0654196
0.0360225
0.00903172
0.00797112
0.0126302
0.000708821
0.0215739
0.00203501
0.0113035
0.0186433
0.0176948
0.0520026
0.016177
21.6909
47.9025
1.89379
0.913668
2.95156
3.29281
3.24918
1.9274
2.00057
3.54238
2.79837
1.51417
1.21456
1.06521
0.997145
0.906675
0.788147
0.598739
0.422991
0.343236
0.375944
0.482856
0.586438
0.640654
0.636691
0.589754
0.520494
0.435733
0.375186
0.322351
0.276747
0.238545
0.207491
0.182992
0.164339
0.151161
0.143274
0.139934
0.144635
0.144587
1.8569
1.44097
0.892827
1.02859
1.1195
1.14718
1.13472
0.90434
0.634363
0.438932
0.320918
0.184943
0.0664016
0.0343359
0.0137609
0.00149708
0.0175015
0.000623514
0.0156412
0.0125378
0.00187773
0.0217288
0.0111924
0.0501368
0.0098773
6.35058
56.1479
7.67328
0.395201
3.1658
3.72846
3.77246
2.53305
1.95246
3.3491
3.24352
1.64757
1.20403
1.0588
0.993467
0.900606
0.783713
0.595717
0.413778
0.337758
0.371134
0.478745
0.585975
0.645687
0.646601
0.604156
0.539112
0.449979
0.386762
0.332365
0.285245
0.245222
0.212385
0.186412
0.166676
0.152435
0.143425
0.139412
0.139805
0.147732
0.153677
1.96605
1.51053
0.914728
1.01968
1.12385
1.15153
1.1491
0.908115
0.608285
0.431467
0.323136
0.179507
0.0660304
0.0298373
0.015315
0.00113045
0.0108356
0.0059722
0.00528169
0.0237501
0.000151998
0.0194135
0.0119505
0.0349154
0.0366048
1.11936
44.8886
20.5084
0.0684959
3.10314
4.21316
4.28791
3.17381
2.07723
3.07132
3.50232
1.8541
1.19639
1.04919
0.989804
0.895824
0.77806
0.59156
0.403788
0.329645
0.363957
0.474167
0.585191
0.650279
0.655977
0.618332
0.553376
0.465613
0.397696
0.341044
0.292861
0.251952
0.217793
0.190306
0.16927
0.153937
0.143939
0.138763
0.138485
0.142691
0.153766
0.165495
2.072
1.57274
0.930058
1.01185
1.1206
1.17041
1.14449
0.905503
0.580197
0.446937
0.330708
0.171505
0.0653921
0.0293449
0.0116117
0.0067596
0.00302398
0.0115446
0.000414345
0.0181564
0.0068518
0.00986093
0.0192184
0.0172391
0.0565456
0.0753282
25.4294
34.7381
0.840461
2.81006
4.7149
4.81262
3.80958
2.33801
2.72201
3.65763
2.18462
1.20792
1.03774
0.984658
0.892019
0.771361
0.584204
0.392411
0.318062
0.353714
0.46762
0.584256
0.653924
0.665108
0.63194
0.567939
0.4815
0.408662
0.350418
0.300466
0.258257
0.223151
0.194594
0.172223
0.155701
0.144566
0.138504
0.137048
0.140352
0.148359
0.162728
0.180247
2.20888
1.6257
0.94731
1.00247
1.11814
1.19429
1.1429
0.895504
0.55507
0.462907
0.353299
0.169463
0.0625594
0.0274132
0.0108242
0.00584032
0.000625218
0.00910768
0.00579094
0.00394466
0.0211447
0.00176256
0.0281888
0.0087401
0.0530807
0.00632145
9.99401
43.941
4.55261
2.38436
5.14378
5.34891
4.43201
2.76306
2.48344
3.71686
2.59116
1.26962
1.02011
0.976583
0.887834
0.762987
0.571512
0.377107
0.302401
0.34042
0.45726
0.583056
0.656723
0.673511
0.645414
0.581573
0.498919
0.419461
0.361186
0.309928
0.265899
0.229075
0.199077
0.175364
0.157714
0.145409
0.138265
0.135885
0.138135
0.145036
0.156809
0.174611
0.197888
2.36535
1.68532
0.950486
1.00078
1.11459
1.21991
1.1372
0.868974
0.541326
0.481748
0.363264
0.170515
0.0626624
0.0271985
0.0127238
0.00203237
0.00313388
0.0021239
0.0173834
2.22831e-05
0.0311288
0.0024141
0.027091
0.00835701
0.0238444
0.0599909
2.70254
40.6612
11.9532
1.30354
5.44813
5.90714
5.02435
3.2471
2.36414
3.64237
2.96364
1.32928
0.995612
0.964805
0.880964
0.751597
0.55125
0.35472
0.28175
0.324224
0.442639
0.580601
0.658826
0.68098
0.65806
0.593485
0.516439
0.431031
0.373072
0.320163
0.274121
0.235458
0.203969
0.178995
0.16
0.146565
0.13832
0.134941
0.136056
0.141896
0.152564
0.168078
0.189372
0.218056
2.52574
1.74716
0.959966
1.01127
1.11295
1.24431
1.12324
0.842198
0.537971
0.496366
0.367208
0.16383
0.0638056
0.0285455
0.0148853
0.00215146
0.00593158
0.000457814
0.00976006
0.0027064
0.0180831
0.0150448
0.0146469
0.0140482
0.00719298
0.108917
0.381532
27.9168
22.4075
0.973895
5.70003
6.48956
5.58037
3.76437
2.3737
3.32147
3.24854
1.42922
0.981707
0.950103
0.867873
0.73423
0.520792
0.322891
0.254554
0.304985
0.425639
0.575498
0.660196
0.687839
0.66874
0.604771
0.532009
0.443038
0.384357
0.330501
0.283056
0.242579
0.209311
0.182907
0.162658
0.148038
0.138616
0.134156
0.134323
0.138977
0.148404
0.162753
0.182118
0.207005
0.240615
2.67419
1.81987
0.958003
1.04322
1.12227
1.25174
1.10576
0.815423
0.543115
0.515611
0.365438
0.148901
0.0615085
0.0309639
0.0160528
0.00406571
0.00493975
0.00497653
0.00162892
0.00934673
0.00678157
0.030054
0.00296494
0.022833
0.00306232
0.11777
0.0276472
14.4152
30.7621
2.54
5.78978
7.00124
6.09617
4.27358
2.48201
2.92514
3.48211
1.63136
1.00344
0.93081
0.843527
0.705992
0.477836
0.281015
0.220041
0.282657
0.408327
0.567433
0.659663
0.694371
0.67748
0.616159
0.541554
0.455424
0.39468
0.340505
0.292323
0.250389
0.215307
0.187159
0.165601
0.149793
0.139231
0.133631
0.132646
0.13628
0.144581
0.15759
0.175619
0.198999
0.227295
0.265409
2.97403
1.91642
0.972988
1.0762
1.13486
1.24132
1.08813
0.7875
0.544636
0.535663
0.376204
0.133733
0.0528886
0.0335204
0.0164207
0.00434951
0.00455349
0.00613493
0.000334828
0.00670906
0.00176448
0.0264195
0.00317215
0.0267795
0.00253912
0.0908145
0.269223
5.5377
32.3329
6.87037
4.78893
7.32421
6.56093
4.75253
2.65724
2.52847
3.61049
1.94098
1.04274
0.897554
0.80234
0.661413
0.422006
0.231279
0.18037
0.256344
0.391498
0.558016
0.656149
0.700195
0.684513
0.62626
0.550885
0.468074
0.404807
0.349893
0.30115
0.258352
0.221885
0.192091
0.168863
0.151778
0.140125
0.133416
0.131349
0.13384
0.140937
0.152777
0.169367
0.191173
0.218384
0.249806
0.29168
3.2644
2.11998
1.00345
1.10316
1.1473
1.21984
1.08085
0.784144
0.546799
0.539409
0.389036
0.129406
0.0457442
0.0321392
0.0203107
0.00386563
0.00317138
0.00486793
0.00234691
0.00140896
0.00638523
0.0116862
0.0248584
0.0189178
0.0161302
0.0806976
0.634329
1.72365
26.5626
14.0203
3.62856
7.43281
7.0145
5.19843
2.87965
2.20467
3.58476
2.27865
1.05918
0.841035
0.741533
0.596308
0.356556
0.17825
0.139264
0.226254
0.375432
0.549523
0.650484
0.703604
0.691019
0.634875
0.559335
0.478391
0.413834
0.359323
0.309515
0.265947
0.228625
0.197494
0.17278
0.154203
0.141276
0.133431
0.130302
0.131648
0.137609
0.148135
0.163456
0.183922
0.209453
0.240225
0.274373
0.318867
3.59517
2.28536
1.06347
1.11831
1.1436
1.18329
1.07989
0.789869
0.548865
0.529385
0.385086
0.142871
0.0409976
0.0300062
0.0199612
0.00797865
0.00185026
0.00455808
0.0028282
0.000401962
0.00958344
0.00189211
0.0449569
0.00642906
0.0675056
0.114553
0.945396
0.708359
16.8483
21.6797
2.98436
7.50648
7.46091
5.60511
3.1333
2.05605
3.37485
2.61806
1.06817
0.781835
0.663002
0.510713
0.288364
0.128736
0.101946
0.196001
0.359897
0.543707
0.644302
0.703273
0.696589
0.643147
0.567151
0.487073
0.421336
0.367982
0.317993
0.273388
0.235061
0.203086
0.177113
0.157043
0.142786
0.13377
0.129491
0.129778
0.134482
0.143754
0.157803
0.176845
0.201047
0.230213
0.264148
0.300283
0.346131
4.29495
2.48698
1.08732
1.13539
1.1387
1.14909
1.07979
0.793709
0.549311
0.514024
0.362781
0.148119
0.0488496
0.0321132
0.0157801
0.0152848
0.0010879
0.00683683
0.00404317
0.00101798
0.00289881
0.00352887
0.0443356
0.000924261
0.147636
0.179902
1.14436
1.07754
9.082
26.8236
4.57703
7.26041
7.768
5.94679
3.39351
1.98161
2.99777
2.95183
1.12553
0.741769
0.571009
0.413086
0.226706
0.0895536
0.0728486
0.170956
0.346423
0.539839
0.63887
0.700844
0.699535
0.651684
0.575363
0.494728
0.427473
0.375369
0.326063
0.280948
0.241475
0.208511
0.1815
0.160281
0.144649
0.134353
0.12896
0.128147
0.131674
0.139713
0.152492
0.170081
0.192806
0.220562
0.25309
0.289525
0.326784
0.372482
5.14433
2.90086
1.12144
1.1268
1.13401
1.13123
1.06657
0.786158
0.540161
0.521189
0.346008
0.1408
0.0578381
0.0326025
0.0192922
0.0111052
0.00775324
0.00887636
0.00706158
0.000494314
0.000688395
0.00800503
0.011576
0.0176274
0.240328
0.310387
1.32145
2.18208
4.95947
26.3351
9.09444
6.5107
7.79853
6.20828
3.64619
1.98361
2.54732
3.11593
1.24668
0.709307
0.47135
0.320854
0.179038
0.0648272
0.0491326
0.141305
0.317488
0.534149
0.635785
0.697641
0.700972
0.6576
0.58423
0.502968
0.432518
0.381359
0.33292
0.288189
0.248159
0.213896
0.185897
0.16368
0.146923
0.135332
0.128726
0.126687
0.12918
0.136009
0.147433
0.163645
0.184881
0.211218
0.242434
0.277682
0.315808
0.353256
0.397551
4.53311
3.08617
1.18342
1.08742
1.09339
1.13333
1.06196
0.745672
0.512757
0.527555
0.361791
0.137495
0.0547826
0.0420344
0.0207672
0.00881989
0.022028
0.00219441
0.0151528
0.000683694
0.00132624
0.0018694
0.00162238
0.0421913
0.350629
0.566081
1.7987
3.75714
4.07916
21.5882
15.5034
5.0151
7.44947
6.40726
3.89467
2.02376
2.09125
3.13604
1.44391
0.660353
0.381031
0.247157
0.147491
0.0524858
0.0362491
0.120994
0.296142
0.510734
0.632621
0.695927
0.702816
0.65966
0.589458
0.512866
0.437484
0.38636
0.338692
0.294418
0.254473
0.219565
0.190369
0.167077
0.149352
0.136707
0.128816
0.125648
0.126947
0.132617
0.142704
0.157562
0.17729
0.202244
0.232045
0.266201
0.303476
0.342399
0.378875
0.4204
358.304
2.7327
1.08153
1.09326
0.998816
1.11596
1.08384
0.723019
0.47675
0.523726
0.372505
0.151849
0.0490319
0.0448986
0.017886
0.0277254
0.0139817
0.0087007
0.0230599
0.00546583
0.00708042
0.00296204
0.022025
0.0528935
0.448098
1.07964
2.62572
5.41126
4.83001
15.4067
21.8328
4.00485
6.96928
6.55109
4.1378
2.08499
1.68278
2.98123
1.67812
0.632336
0.319139
0.182987
0.110578
0.0454468
0.028619
0.103367
0.278054
0.497922
0.631868
0.701207
0.69979
0.665436
0.590065
0.517844
0.443303
0.390747
0.343529
0.299739
0.260004
0.224914
0.194984
0.170578
0.151833
0.138222
0.129249
0.124933
0.12493
0.129469
0.138309
0.151822
0.170092
0.193483
0.221906
0.254968
0.29147
0.32982
0.368382
0.402745
0.440657
16.5416
8.43361
0.670889
1.07248
0.996457
1.05096
1.09114
0.749182
0.471387
0.515079
0.360417
0.163151
0.0494421
0.031463
0.0349063
0.0158321
0.0128157
0.0428295
0.0081722
0.0394994
0.0234877
0.00710602
0.0463146
0.125817
0.747881
1.98424
3.95889
7.16808
6.55144
10.7452
25.5913
4.7438
6.30171
6.61
4.36556
2.14072
1.33938
2.63322
1.96582
0.655903
0.282
0.140273
0.0872753
0.0481265
0.0285639
0.0920146
0.26081
0.48113
0.626236
0.702886
0.711561
0.665384
0.595697
0.517441
0.445446
0.39481
0.347275
0.304102
0.264688
0.22966
0.199448
0.174311
0.154465
0.139809
0.129946
0.1245
0.123425
0.126593
0.13418
0.146327
0.163219
0.185041
0.211975
0.243677
0.279372
0.317549
0.355993
0.392961
0.424462
0.458047
0.722401
3.09501
16.7976
0.817737
0.908561
1.09658
1.02661
0.755532
0.506845
0.519597
0.335156
0.153479
0.0554987
0.0292824
0.028858
0.00900304
0.0470973
0.0150826
0.0164172
0.0981919
0.0225097
0.0368484
0.0913958
0.364234
1.41325
3.42552
5.84543
8.88361
8.3199
8.08055
26.1913
7.96343
5.29963
6.46361
4.57243
2.17468
1.05181
2.17407
2.20718
0.701177
0.282526
0.127544
0.0743865
0.0527208
0.0355326
0.090986
0.254408
0.47137
0.622829
0.702067
0.715185
0.678459
0.599014
0.522911
0.444803
0.396228
0.349807
0.307291
0.268638
0.233789
0.203468
0.177936
0.157267
0.141559
0.130695
0.124283
0.122145
0.12414
0.130444
0.141237
0.156692
0.17701
0.202417
0.232816
0.2674
0.304922
0.34361
0.381188
0.41562
0.443707
0.47261
0.652271
1.05812
1.13743
9.35602
1.51649
1.06602
1.03788
0.670917
0.570889
0.546439
0.32121
0.133174
0.0579706
0.0194913
0.0171974
0.0395214
0.0128381
0.0289994
0.0991389
0.0778688
0.000105077
0.254832
0.294338
0.988977
2.75458
5.49399
8.15333
10.544