/*--------------------------------*- C++ -*----------------------------------*\
| =========                 |                                                 |
| \\      /  F ield         | OpenFOAM: The Open Source CFD Toolbox           |
|  \\    /   O peration     | Version:  v2012                                 |
|   \\  /    A nd           | Website:  www.openfoam.com                      |
|    \\/     M anipulation  |                                                 |
\*---------------------------------------------------------------------------*/
FoamFile
{
    version     2.0;
    format      ascii;
    class       volScalarField;
    location    "12000";
    object      q1;
}
// * * * * * * * * * * * * * * * * * * * * * * * * * * * * * * * * * * * * * //

dimensions      [0 0 0 0 0 0 0];


internalField   nonuniform List<scalar> 
27324
(
0.498994
0.497981
0.499915
0.497774
0.499723
0.500038
0.497808
0.499548
0.499894
0.500154
0.498094
0.499502
0.499619
0.499986
0.500312
0.498444
0.49953
0.49952
0.499502
0.49997
0.500433
0.498678
0.499611
0.499504
0.499307
0.498969
0.499354
0.499844
0.4986
0.499714
0.499579
0.499237
0.498534
0.496974
0.496322
0.496022
0.498418
0.499739
0.499724
0.499331
0.498354
0.495921
0.490642
0.485506
0.476778
0.498326
0.499685
0.499786
0.499578
0.498522
0.495502
0.488171
0.472393
0.447318
0.405163
0.498374
0.499626
0.499721
0.4997
0.499017
0.495885
0.487254
0.466487
0.420017
0.359959
0.305131
0.498468
0.499608
0.499624
0.499584
0.499249
0.496979
0.488056
0.464004
0.40838
0.323638
0.275667
0.195236
0.498537
0.499618
0.49957
0.499394
0.498961
0.497359
0.490271
0.464912
0.403708
0.310853
0.235293
0.196598
0.0601415
0.498924
0.499575
0.499562
0.499276
0.498499
0.49646
0.490499
0.468543
0.404393
0.30545
0.221375
0.15929
0.113627
0.0275108
0.499398
0.499594
0.499452
0.499237
0.498172
0.495107
0.487608
0.467624
0.409343
0.303308
0.211331
0.15007
0.0798375
0.0548385
0.0846645
0.499679
0.499716
0.499395
0.498993
0.498012
0.494023
0.483632
0.460596
0.406914
0.305032
0.202975
0.138318
0.0818364
0.0101357
0.00255567
0.121517
0.499715
0.499839
0.499534
0.498814
0.497398
0.493381
0.480487
0.451979
0.395541
0.299079
0.200006
0.131921
0.0719956
0.0180038
0.0522625
0.0222941
0.159406
0.499695
0.49977
0.499718
0.499034
0.49697
0.491831
0.478849
0.445825
0.381621
0.284794
0.194286
0.132352
0.0629208
0.0105548
0.0360469
0.0869674
0.0114689
0.210208
0.497511
0.49952
0.499547
0.499406
0.497506
0.491151
0.476118
0.44329
0.371207
0.267356
0.184557
0.130996
0.0613886
0.000344341
0.0382546
0.0626385
0.092664
0.0217149
0.226662
0.457453
0.497524
0.49897
0.499013
0.498452
0.492867
0.476121
0.440418
0.366226
0.252884
0.173512
0.126813
0.056716
0.0051247
0.041367
0.0557743
0.066785
0.0904449
0.0805295
0.181918
0.328744
0.482735
0.49489
0.497726
0.497545
0.495563
0.48096
0.442466
0.363678
0.244482
0.16496
0.122154
0.0485337
0.0125996
0.0431099
0.0513586
0.057816
0.0679388
0.0858461
0.127515
0.136263
0.228495
0.422907
0.475008
0.488667
0.494286
0.493775
0.48798
0.452054
0.367522
0.241286
0.161156
0.11824
0.0415491
0.0238645
0.045731
0.0493778
0.0491333
0.0641954
0.0582491
0.0852459
0.138559
0.0953544
0.413961
0.34406
0.415545
0.458673
0.472949
0.485418
0.485424
0.467377
0.37838
0.244526
0.164708
0.114043
0.0393843
0.0323987
0.0523093
0.0469831
0.0457495
0.0531119
0.0547424
0.0503859
0.0449043
0.123899
0.0786037
0.499841
0.480882
0.351067
0.389863
0.414365
0.437514
0.464641
0.466826
0.402262
0.24955
0.171157
0.115655
0.0294217
0.0290788
0.0583861
0.0484842
0.0434961
0.0467103
0.0413403
0.0707574
0.0714865
0.0100248
0.0878729
0.0165459
0.500419
0.503852
0.493138
0.347472
0.32568
0.325259
0.365211
0.413535
0.420422
0.273348
0.176458
0.114194
0.0206881
0.0371634
0.0529653
0.0539702
0.0431805
0.0453359
0.0383083
0.0666995
0.056193
0.0194044
0.0110073
0.125012
0.024828
0.500004
0.500785
0.50751
0.505402
0.309188
0.23361
0.227743
0.247117
0.300844
0.32093
0.198385
0.108838
0.00736102
0.0514048
0.0580493
0.0578667
0.0479221
0.0501489
0.0450402
0.0765249
0.018097
0.0417074
0.0828079
0.0507255
0.0547476
0.0132033
0.499862
0.500164
0.501464
0.511635
0.510701
0.237719
0.14718
0.156151
0.127778
0.13233
0.198789
0.119839
0.0164389
0.072931
0.0728053
0.0583378
0.0660077
0.0586581
0.0518291
0.0663855
0.0210938
0.108736
0.167617
0.069313
0.0297056
0.0783843
0.0206542
0.499817
0.499991
0.500332
0.502233
0.518613
0.489517
0.159756
0.0817781
0.105364
0.0909532
0.0474054
0.0528653
0.0542659
0.0957641
0.098877
0.0691414
0.0668055
0.0647212
0.0614936
0.0277067
0.179413
0.329297
0.148153
0.0565748
0.00635102
0.0560515
0.106216
0.112674
0.499819
0.499938
0.499997
0.500528
0.503508
0.532588
0.39744
0.0986471
0.0291789
0.0650439
0.0845255
0.0491702
0.00524586
0.105895
0.0861031
0.0823077
0.0787332
0.0150734
0.0205561
0.247885
0.203295
0.157942
0.0532998
0.0259234
0.0426215
0.0416449
0.00778723
0.0229065
0.00381429
0.499853
0.499903
0.499912
0.500032
0.500809
0.506202
0.560648
0.246404
0.0599358
0.0163732
0.0310039
0.0618402
0.051648
0.0321856
0.0259603
0.0238557
0.0541471
0.0724619
0.10046
0.127453
0.0844865
0.0433639
0.0244462
0.0711354
0.0220996
0.00574195
0.00336316
0.0303878
0.0226563
0.0116866
0.499866
0.499919
0.499832
0.4999
0.500098
0.501387
0.51281
0.577928
0.138295
0.0406022
0.0528852
0.00516012
0.0264691
0.0449991
0.0466004
0.0488238
0.0486125
0.049945
0.049531
0.0388114
0.00367132
0.0351438
0.0582921
0.0528143
0.0143371
0.0273933
0.0220203
0.0589199
0.00781431
0.112088
0.0256267
0.499879
0.499937
0.499845
0.499787
0.499883
0.500203
0.502742
0.531929
0.44057
0.0762595
0.0281251
0.0684499
0.0486761
0.027769
0.00588272
0.0203396
0.0175668
0.0114564
0.00553452
0.0172818
0.0330831
0.045153
0.0424695
0.0148457
0.0366501
0.0262736
0.00851338
0.0289498
0.0309337
0.0156907
0.0869461
0.0352626
0.499881
0.499931
0.499885
0.499802
0.499735
0.499831
0.500443
0.506428
0.574445
0.279509
0.0304896
0.017547
0.0500861
0.0933667
0.0900164
0.0567264
0.0349622
0.0321487
0.0332984
0.0407468
0.0467602
0.0487282
0.0149689
0.0511955
0.0491646
0.0494829
0.00744786
0.0514193
0.0443677
0.0171501
0.0253248
0.0523017
0.0656164
0.499916
0.499909
0.499884
0.499868
0.499748
0.499603
0.499632
0.501033
0.514678
0.631518
0.139174
0.014851
0.0195049
0.0660898
0.253095
0.188375
0.131249
0.105407
0.0902342
0.0712945
0.0564287
0.023144
0.0391661
0.24452
0.0397442
0.0393028
0.0154878
0.043482
0.0526336
0.0070631
0.0366882
0.0117735
0.0137798
0.139118
0.499936
0.49991
0.499867
0.499862
0.499844
0.499588
0.499171
0.499038
0.502225
0.533554
0.468718
0.0553129
0.00876216
0.0497383
0.048199
0.0588966
0.071105
0.0828903
0.101797
0.0972443
0.0553963
0.0176459
0.0147514
0.100791
0.164298
0.00597254
0.0275558
0.0334847
0.0521081
0.000975019
0.0301656
0.0248985
0.0202202
0.117719
0.0822532
0.499924
0.499908
0.499842
0.499845
0.499817
0.499699
0.499111
0.498075
0.497799
0.505117
0.597964
0.263483
0.00401681
0.00789937
0.134275
0.0234483
0.0153479
0.00131463
0.00245131
0.0058225
0.0231507
0.0261901
0.026082
0.0407249
0.204035
0.0420684
0.031662
0.0161651
0.0509486
0.0108981
0.0254042
0.0217697
0.00765071
0.121871
0.069723
0.016249
0.499912
0.499889
0.49983
0.499799
0.499751
0.499691
0.499323
0.497903
0.495736
0.495279
0.514615
0.713504
0.133081
0.0339074
0.0137455
0.183589
0.0212431
0.00851693
0.00469747
0.0144657
0.00910956
0.000653574
0.000320054
0.00839419
0.083659
0.0506864
0.0215176
0.00357185
0.0456087
0.0206141
0.0180739
0.0186214
0.000830253
0.101545
0.0759565
0.000771614
0.00971775
0.499924
0.499909
0.499822
0.499765
0.499706
0.499597
0.499325
0.498341
0.495219
0.49095
0.490662
0.538354
0.413964
0.0484047
0.0354398
0.00864732
0.0155863
0.0164362
0.0183093
0.0202203
0.0145607
0.00201375
0.00250856
0.00143653
0.012014
0.164926
0.00774734
0.0209449
0.035888
0.0285904
0.0101629
0.0129842
0.00945685
0.0789229
0.0683284
0.0169698
0.0216888
0.0420606
0.499946
0.499947
0.499835
0.499742
0.499631
0.49948
0.499187
0.498386
0.496105
0.489567
0.48225
0.490767
0.635108
0.175692
0.00142995
0.0207548
0.0252113
0.0379069
0.04629
0.0233871
0.0189794
0.00971852
0.00567681
0.00730149
0.0136237
0.166003
0.0559203
0.0299679
0.0212301
0.0333708
0.00176095
0.00767169
0.0125574
0.063244
0.0642702
0.0148561
0.00295217
0.00397828
0.0717096
0.499981
0.499985
0.499878
0.499728
0.499555
0.499351
0.498987
0.498106
0.496423
0.491404
0.47932
0.473884
0.498063
0.585082
0.080473
0.0238131
0.00710999
0.106252
0.117652
0.0300952
0.0160295
0.00693265
0.00218316
0.00500239
0.00197614
0.0727264
0.103337
0.0244003
0.00298783
0.0339291
0.00661508
0.00129233
0.00778635
0.0431923
0.0603919
0.0192335
0.00711688
0.0214292
0.0384016
0.078694
0.500042
0.500033
0.499961
0.499788
0.499582
0.499276
0.498719
0.497693
0.496084
0.492308
0.482828
0.464879
0.454218
0.548104
0.204115
0.0207048
0.0236486
0.00399524
0.00788725
0.0592411
0.0179782
0.00754152
0.000372387
0.00246134
0.00482793
0.0215007
0.0775596
0.003506
0.0150644
0.0297064
0.013608
0.00802267
0.000935456
0.0252911
0.0567236
0.0201608
0.00613146
0.0138012
0.0559259
0.0508105
0.0671768
0.500052
0.500104
0.500098
0.499948
0.499723
0.499339
0.498579
0.497167
0.495347
0.491958
0.485337
0.46781
0.43095
0.435706
0.723518
0.0844544
0.0108943
0.0115491
0.107364
0.170304
0.0296079
0.00970549
0.000436134
0.00089958
0.00396566
0.001772
0.156023
0.0547855
0.0270559
0.0203852
0.0179852
0.0178938
0.00246603
0.00761384
0.052682
0.0226802
0.00606202
0.0113427
0.0496223
0.0703744
0.0411271
0.057825
0.500007
0.500097
0.500214
0.500178
0.499957
0.499567
0.49871
0.496941
0.494461
0.490727
0.485586
0.471813
0.429694
0.379459
0.418627
0.15267
0.0374547
0.0202533
0.00436552
0.277456
0.0685609
0.014142
0.00119403
0.000761931
0.000848404
0.0081183
0.0601274
0.117202
0.0269308
0.00657339
0.0196147
0.025256
0.0079812
0.00804173
0.0498212
0.0248439
0.00566142
0.00789259
0.047746
0.0673425
0.0622369
0.0288312
0.100478
0.499998
0.500029
0.5002
0.500301
0.500276
0.499938
0.49913
0.497333
0.494048
0.489289
0.484114
0.472908
0.437621
0.376589
0.27591
0.234422
0.0786343
0.00834053
0.0177816
0.0427559
0.208998
0.0255378
0.00331908
0.00223883
0.00391859
0.00927687
0.0105888
0.171353
0.00749302
0.00955041
0.0181191
0.0288337
0.0190152
0.0204798
0.0478838
0.0277016
0.0052976
0.00500104
0.0446701
0.0683186
0.0611854
0.0478043
0.0598347
0.244829
0.499956
0.500018
0.500098
0.500287
0.500457
0.500462
0.499855
0.498216
0.494571
0.488632
0.482303
0.470822
0.443094
0.389258
0.24248
0.115953
0.109128
0.0461984
0.0120099
0.0258069
0.274768
0.0610782
0.00749693
0.0030788
0.00826162
0.00699991
0.0147036
0.205554
0.0367324
0.0234208
0.0127128
0.0288164
0.0307565
0.0273408
0.0425201
0.0312446
0.00504511
0.00216196
0.0418863
0.0679151
0.0643711
0.0454059
0.0712973
0.207011
0.372
0.499936
0.499949
0.500034
0.500186
0.500435
0.500773
0.500887
0.499668
0.496159
0.489783
0.481921
0.467908
0.442198
0.401982
0.239881
0.0770454
0.413363
0.0767047
0.0176538
0.0284771
0.117828
0.212289
0.013214
0.00238734
0.0116706
0.00235445
0.0207207
0.0498434
0.100297
0.0296012
0.00309058
0.0257896
0.0391478
0.0293498
0.0371035
0.0351702
0.00518799
0.000654
0.0390838
0.0675315
0.0663554
0.0476646
0.0624654
0.206806
0.352005
0.430623
0.499944
0.499889
0.499922
0.50004
0.500286
0.500738
0.501501
0.501815
0.499118
0.49319
0.484789
0.467462
0.439131
0.405872
0.25082
0.0951356
0.0324597
0.153941
0.0409512
0.00244703
0.0482848
0.305104
0.0218376
0.00103863
0.0133569
0.00264078
0.0205036
0.0183784
0.163489
0.0215749
0.0100441
0.0202955
0.0423759
0.0238195
0.0293817
0.0377638
0.00338585
0.00342556
0.0363485
0.0669741
0.0683763
0.0492885
0.0582862
0.191303
0.351978
0.420627
0.455144
0.49995
0.499922
0.499785
0.499885
0.500062
0.500497
0.501421
0.503173
0.503758
0.498682
0.490437
0.471655
0.440929
0.404523
0.26057
0.113353
0.0147023
0.243309
0.049324
0.0238993
0.02534
0.112429
0.0505812
0.00758198
0.0125556
0.00788406
0.0182932
0.0246582
0.213477
0.00854697
0.0239957
0.0118737
0.0416399
0.0104937
0.0211234
0.0398056
0.00212975
0.00615182
0.0336469
0.0663031
0.0701269
0.0515576
0.0535735
0.178663
0.343807
0.422817
0.448972
0.465637
0.499969
0.499946
0.499796
0.499691
0.49977
0.500132
0.500955
0.503007
0.506843
0.506475
0.498705
0.482286
0.451911
0.409082
0.263452
0.139263
0.0143283
0.163315
0.0575891
0.0375225
0.00173727
0.0700001
0.480879
0.0154026
0.00862327
0.0116699
0.0113215
0.0387424
0.0246561
0.0638632
0.0352569
0.000166549
0.0413121
0.0127461
0.0127099
0.0398863
0.000523173
0.00865686
0.0308349
0.0655939
0.0716772
0.0539499
0.0498262
0.165658
0.336855
0.420146
0.452205
0.460358
0.470681
0.500049
0.500005
0.499871
0.499657
0.499502
0.499585
0.500286
0.502046
0.506458
0.511373
0.51025
0.498181
0.472484
0.426657
0.26892
0.174188
0.00440625
0.128727
0.167058
0.0276441
0.0284757
0.0434267
0.166586
0.021698
0.000742048
0.0136538
0.00398904
0.0351145
0.0225222
0.133624
0.040441
0.0100968
0.0438072
0.0360954
0.00448339
0.038278
0.00377849
0.0108058
0.0276976
0.0648698
0.0730048
0.0565576
0.0468789
0.153095
0.32931
0.41817
0.451405
0.464927
0.46497
0.473716
0.500065
0.500102
0.500036
0.49982
0.499513
0.499159
0.49917
0.500643
0.504369
0.510717
0.518685
0.520732
0.499885
0.456587
0.277632
0.20154
0.00373583
0.0878835
0.186054
0.0120866
0.0382743
0.00417369
0.0889615
0.109775
0.00861596
0.012777
0.00351436
0.0308813
0.0451523
0.210673
0.0339981
0.0194196
0.0353554
0.0520763
0.00380548
0.0340073
0.00782116
0.0123405
0.0242402
0.0640086
0.0742008
0.0591998
0.0446597
0.140783
0.321503
0.415822
0.451111
0.46507
0.470303
0.466998
0.475684
0.500029
0.50011
0.500212
0.500075
0.499749
0.499222
0.49843
0.498149
0.501438
0.50708
0.518812
0.538737
0.535223
0.497034
0.293378
0.213639
0.0153007
0.0749903
0.100437
0.233915
0.0249629
0.0293989
0.0540909
0.265134
0.00964902
0.00793314
0.00877898
0.0212127
0.0598022
0.174594
0.00773405
0.0291392
0.019322
0.0531258
0.0112787
0.0298222
0.0121331
0.0132331
0.0204635
0.0629857
0.0753877
0.06191
0.0431983
0.128799
0.313326
0.413361
0.450596
0.46568
0.470497
0.472359
0.467879
0.477073
0.49998
0.500073
0.500232
0.500299
0.500121
0.499563
0.498611
0.496643
0.496118
0.502395
0.512582
0.54075
0.560058
0.550635
0.317102
0.222652
0.0283762
0.0782072
0.0614388
0.0214972
0.0107957
0.0411131
0.0187631
0.132997
0.00988433
0.00107345
0.0117986
0.0118879
0.0597029
0.000966597
0.0469033
0.038188
0.00341141
0.0462623
0.00885864
0.025896
0.016146
0.0134191
0.0165254
0.0616018
0.0765823
0.0646517
0.0423352
0.117268
0.30483
0.41076
0.450027
0.466031
0.471416
0.472439
0.473392
0.468116
0.478279
0.499942
0.500001
0.500161
0.500326
0.500446
0.500215
0.499178
0.497068
0.493141
0.494272
0.504216
0.526853
0.560446
0.590771
0.403497
0.253519
0.0425405
0.0791441
0.0741805
0.0274099
0.213591
0.0204916
0.024613
0.0829668
0.462983
0.00898304
0.0110748
0.00422623
0.0456942
0.0587984
0.137367
0.0453471
0.011476
0.0349088
0.00204443
0.0236881
0.0192161
0.0130831
0.0127065
0.0598085
0.0777559
0.0674535
0.0420041
0.10624
0.295987
0.408006
0.449388
0.466261
0.472264
0.473478
0.473612
0.473776
0.468256
0.479492
0.499947
0.499936
0.499986
0.50022
0.500473
0.500722
0.500403
0.498164
0.494361
0.489474
0.490007
0.508599
0.538556
0.582493
0.8088
0.348508
0.0692908
0.0858529
0.0982333
0.0253947
0.187689
0.0260101
0.0460016
0.0403626
0.18875
4.24814e-05
0.00458242
0.00231876
0.0383105
0.0738443
0.254148
0.050518
0.0253895
0.0238864
0.0192044
0.0229832
0.02077
0.012481
0.00930089
0.0576416
0.0787756
0.0704151
0.0420643
0.0958161
0.286874
0.405054
0.448665
0.466386
0.47319
0.474528
0.474713
0.47415
0.473914
0.468527
0.480823
0.499947
0.499916
0.499865
0.499978
0.50031
0.500748
0.50134
0.500803
0.496528
0.491266
0.480354
0.482019
0.510157
0.531692
0.460907
0.600471
0.153176
0.0909566
0.129692
0.0252743
0.0480158
0.070074
0.0364843
0.00479827
0.114911
0.0305241
0.00754015
0.00674129
0.0307661
0.0724372
0.126959
0.0525233
0.0353158
0.00449473
0.0385394
0.0217481
0.0208503
0.0118494
0.006512
0.0552638
0.0794777
0.0736037
0.0425317
0.0860197
0.277502
0.401862
0.447779
0.466431
0.473959
0.475566
0.475569
0.475232
0.474322
0.474028
0.46913
0.482327
0.499962
0.499922
0.499827
0.499792
0.499969
0.500495
0.501401
0.502827
0.501539
0.494783
0.482182
0.466047
0.474703
0.494014
0.288202
0.376757
0.351788
0.100528
0.141188
0.0125668
0.00599983
0.0173217
0.0043502
0.0445303
0.0713331
0.472684
0.0163352
0.00686845
0.0246198
0.0668377
0.114376
0.0502075
0.037245
0.00276716
0.0519285
0.0159918
0.0199734
0.0112663
0.00431273
0.0529436
0.0796124
0.076917
0.0434391
0.0769115
0.267879
0.398439
0.44675
0.466343
0.474494
0.476281
0.476154
0.475923
0.475259
0.474418
0.474353
0.470199
0.484015
0.500027
0.499975
0.499842
0.499755
0.499698
0.499946
0.500921
0.502903
0.505251
0.502328
0.489419
0.470416
0.45573
0.454346
0.275512
0.227156
0.269839
0.115783
0.131287
0.00131725
0.0116489
0.0204052
0.053871
0.0519923
0.0250915
0.18051
0.00215475
0.00163556
0.0166669
0.0600321
0.105634
0.0478277
0.0337425
0.0100016
0.0463021
0.025162
0.0194244
0.010795
0.00251244
0.050999
0.0792313
0.080193
0.0449573
0.068402
0.25795
0.394791
0.445612
0.466139
0.474878
0.476878
0.476543
0.476344
0.47579
0.47521
0.474688
0.475064
0.471809
0.485867
0.500057
0.500049
0.499977
0.499809
0.499651
0.499544
0.499876
0.501855
0.505283
0.50844
0.50408
0.481986
0.459171
0.44398
0.326856
0.179824
0.181192
0.11205
0.128494
0.0104811
0.00546477
0.0306807
0.0817103
0.0249454
0.0241671
0.115972
0.03059
0.0204407
0.00724815
0.0535668
0.0548486
0.0254842
0.0339988
0.0251114
0.0289693
0.0216486
0.0188875
0.0104725
0.0007925
0.0495101
0.0783786
0.0831566
0.0471738
0.0605025
0.247715
0.390952
0.444387
0.465854
0.475112
0.47762
0.477134
0.47673
0.476188
0.475634
0.475336
0.47532
0.476259
0.473963
0.487835
0.500048
0.50009
0.500104
0.499986
0.499752
0.499491
0.499154
0.499784
0.503367
0.508963
0.516434
0.505579
0.469008
0.445331
0.421744
0.207698
0.171486
0.010186
0.160484
0.0240529
0.00709735
0.0250275
0.0962004
0.0296403
0.0572662
0.069136
0.422569
0.0409312
0.000688505
0.0461318
0.0389695
0.0248877
0.0397029
0.0368017
0.0124012
0.0324259
0.0218317
0.0104247
0.00114752
0.0484545
0.0774961
0.0855287
0.050041
0.0532063
0.237178
0.386967
0.443125
0.465497
0.475293
0.478453
0.478013
0.477344
0.47668
0.476021
0.475663
0.475828
0.476422
0.477966
0.476595
0.489827
0.499979
0.500062
0.500162
0.500138
0.499989
0.49965
0.499077
0.498321
0.499829
0.505757
0.517532
0.524073
0.499504
0.442732
0.399311
0.430202
0.211493
0.0849549
0.166037
0.0313228
0.0170094
0.0128565
0.00761178
0.0799425
0.0556185
0.0167216
0.208332
0.0486581
0.00116714
0.0376244
0.0270841
0.0450727
0.0422784
0.0429786
0.0046452
0.0453553
0.0261138
0.010751
0.00357898
0.0476362
0.0769118
0.0872338
0.0533236
0.0467262
0.226462
0.382911
0.441887
0.465081
0.475447
0.479184
0.478916
0.47799
0.477307
0.476504
0.476008
0.476054
0.476777
0.478025
0.480127
0.479583
0.491742
0.499931
0.499976
0.500095
0.500177
0.500182
0.500019
0.499366
0.498242
0.497137
0.49996
0.510692
0.526276
0.530567
0.471802
0.329047
0.339216
0.350281
0.0843442
0.358284
0.0377308
0.0193304
0.0213256
0.032685
0.109883
0.0193064
0.0332712
0.124407
0.0373466
0.0103621
0.027619
0.0256072
0.0303737
0.0378897
0.0438871
0.0114913
0.051792
0.0290167
0.0114196
0.00637042
0.0468687
0.0768536
0.0884097
0.0563714
0.0411842
0.215754
0.37883
0.440671
0.464685
0.475497
0.479733
0.479559
0.478379
0.477781
0.477011
0.476423
0.476316
0.476898
0.478231
0.480073
0.482627
0.482747
0.493503
0.499939
0.499924
0.499936
0.50009
0.50021
0.500278
0.50006
0.498859
0.497052
0.495305
0.500243
0.516261
0.537239
0.519041
0.352713
0.172766
0.904159
0.0530671
0.25138
0.0630192
0.00170297
0.0600266
0.0425944
0.0760306
0.0390287
0.0644558
0.0692255
0.359213
0.034521
0.0168511
0.0211089
0.0311868
0.00610926
0.041761
0.0187383
0.0475774
0.0380924
0.0117477
0.00935302
0.045975
0.0773338
0.0894345
0.0589579
0.0368213
0.20523
0.374693
0.43943
0.464337
0.475481
0.480122
0.480121
0.478625
0.47793
0.477303
0.47679
0.47662
0.477059
0.478232
0.480143
0.482467
0.485296
0.485901
0.49504
0.49999
0.499927
0.499866
0.499932
0.500101
0.500274
0.500464
0.500107
0.498234
0.494789
0.493424
0.501149
0.519559
0.533465
0.454726
0.118144
0.443053
0.0839845
0.153537
0.169558
0.0272464
0.0836903
0.0376188
0.0285468
0.0895137
0.0615366
0.0175712
0.272732
0.0575158
0.00631821
0.0161754
0.0255883
0.0096968
0.0358335
0.0283256
0.0314002
0.0404301
0.0108893
0.01215
0.044894
0.078039
0.0907272
0.0607116
0.0332494
0.195131
0.370466
0.438181
0.463999
0.475503
0.480326
0.480835
0.479107
0.478049
0.477373
0.476932
0.476834
0.477234
0.478276
0.480041
0.482409
0.485058
0.487968
0.48886
0.496318
0.500045
0.499986
0.499872
0.499868
0.499925
0.500128
0.500406
0.500849
0.500127
0.496988
0.492656
0.493316
0.501796
0.499724
0.495512
0.139966
0.270447
0.338761
0.100294
0.0376014
0.02639
0.0735335
0.0395708
0.0675407
0.0789011
0.0233927
0.0342941
0.152262
0.0704492
0.00157102
0.0128421
0.0229654
0.0100654
0.0364787
0.038839
0.0144739
0.0485476
0.00829296
0.014553
0.0436238
0.0786759
0.092485
0.0619325
0.0297915
0.185759
0.366289
0.437004
0.463692
0.475567
0.480536
0.481588
0.479871
0.47842
0.477518
0.476924
0.476839
0.477298
0.478317
0.479966
0.482213
0.484908
0.487673
0.490478
0.491487
0.497339
0.50001
0.500053
0.499965
0.499878
0.499851
0.499881
0.500158
0.500636
0.501229
0.500002
0.495684
0.490729
0.494275
0.498505
0.466316
0.284923
0.236785
0.284209
0.11161
0.0424459
0.0798867
0.0468211
0.0300587
0.0482693
0.0642978
0.0384493
0.0649634
0.0863918
0.142869
0.00732918
0.011533
0.0201904
0.0121474
0.0208716
0.0421872
0.00693396
0.0571846
0.00385514
0.0166767
0.0421863
0.0789429
0.0945609
0.0631006
0.0259384
0.177411
0.362628
0.435975
0.463547
0.47561
0.480927
0.48224
0.480578
0.478772
0.47783
0.477042
0.476789
0.477211
0.478258
0.479879
0.48204
0.484629
0.48746
0.490159
0.492702
0.493701
0.498121
0.499961
0.500015
0.500078
0.499967
0.499864
0.499779
0.499845
0.500127
0.500769
0.501358
0.499699
0.492858
0.491434
0.506852
0.466149
0.285099
0.276382
0.0995333
0.127025
0.0742441
0.196007
0.0268671
0.0142228
0.00849067
0.0390524
0.0886102
0.0711759
0.0329732
0.472191
0.0188366
0.00920457
0.0161851
0.0079924
0.00697229
0.0376394
0.00530463
0.0602078
0.000661832
0.0184767
0.0407894
0.0787303
0.0966517
0.0646177
0.0215202
0.169965
0.360035
0.435245
0.463635
0.475752
0.481453
0.482863
0.480927
0.478968
0.478128
0.477398
0.476966
0.477155
0.478095
0.479703
0.481846
0.484375
0.487144
0.489912
0.492392
0.494583
0.495475
0.498698
0.49997
0.499954
0.500031
0.50007
0.499945
0.499814
0.49973
0.499793
0.499991
0.500414
0.500799
0.497977
0.489241
0.502288
0.512936
0.178522
0.354652
0.0498845
0.286485
0.0957803
0.0476497
0.0424762
0.0271008
0.05713
0.0777433
0.0943924
0.0434096
0.0196264
0.173256
0.0360856
0.00675365
0.0127234
0.00655564
0.000778078
0.0370661
0.0153631
0.0508698
0.000490232
0.0195474
0.0395318
0.078102
0.0985581
0.0665922
0.0171105
0.163226
0.358886
0.435215
0.463882
0.476244
0.482009
0.483534
0.481204
0.47915
0.478215
0.477586
0.477136
0.477154
0.477911
0.479432
0.481572
0.4841
0.486832
0.489586
0.492144
0.494296
0.496093
0.496837
0.499113
0.500014
0.499961
0.499934
0.500028
0.500062
0.49989
0.499688
0.49966
0.499679
0.499441
0.498854
0.498277
0.491933
0.491543
0.521254
0.242474
0.561464
0.0588586
0.12044
0.160518
0.0451042
0.126878
0.0679117
0.138932
0.0712493
0.111013
0.0131767
0.0497791
0.0757641
0.0712408
0.00666092
0.00998394
0.0038293
0.00622662
0.03133
0.0270399
0.0363802
0.0150726
0.0196916
0.0387209
0.0773114
0.100012
0.0688195
0.0133373
0.157032
0.359203
0.436468
0.464352
0.477128
0.48274
0.484025
0.481873
0.479404
0.478184
0.477354
0.476967
0.477053
0.477728
0.479122
0.481199
0.48375
0.486497
0.489253
0.491826
0.49407
0.495848
0.497255
0.49784
0.499403
0.500032
0.500005
0.499916
0.499928
0.500047
0.500048
0.499779
0.499395
0.499646
0.499639
0.498047
0.494583
0.490614
0.483472
0.505734
0.378993
0.374591
0.15674
0.0489569
0.788579
0.0748967
0.0879558
0.0919931
0.149181
0.0853231
0.0549419
0.0838597
0.0668005
0.0538627
0.200687
0.00741852
0.00752694
0.00193503
0.00438545
0.0257953
0.0297288
0.0269138
0.0275773
0.0187163
0.0381732
0.0767116
0.101
0.0712646
0.0105619
0.151962
0.360784
0.439319
0.465509
0.478237
0.48378
0.484544
0.483237
0.480031
0.478402
0.477167
0.476646
0.476776
0.477502
0.478839
0.4808
0.483306
0.486097
0.488893
0.491505
0.49378
0.49565
0.497059
0.498116
0.498556
0.4996
0.500039
0.500027
0.499955
0.499893
0.499944
0.500091
0.500003
0.499385
0.499068
0.500393
0.499775
0.493903
0.482997
0.475979
0.48489
0.467381
0.26239
0.225897
0.0149793
0.139317
0.0770084
0.0170942
0.0944237
0.0698571
0.0935004
0.108975
0.170562
0.0584104
0.00478601
0.209988
0.00380352
0.00473611
0.000330081
0.00459348
0.0116874
0.0293681
0.0199435
0.0387542
0.017901
0.0376395
0.0767339
0.101615
0.0739694
0.00880984
0.149152
0.363538
0.443502
0.467964
0.47954
0.484994
0.48544
0.484821
0.481451
0.479017
0.477398
0.476546
0.476468
0.477169
0.478511
0.480416
0.482835
0.48561
0.488469
0.491149
0.493489
0.495407
0.496896
0.497964
0.498733
0.49905
0.499733
0.499995
0.500095
0.50002
0.499921
0.49986
0.499981
0.500109
0.499758
0.498415
0.499257
0.501765
0.498897
0.481984
0.464126
0.467684
0.428954
0.262137
0.0649129
0.0894465
0.00983227
0.115953
0.0856222
0.0970672
0.0262029
0.0765739
0.0868442
0.294874
0.0305731
0.0340236
0.114186
0.00852062
0.00477005
0.000592304
0.00374179
0.00262371
0.0225726
0.0090285
0.0350664
0.0201716
0.0374388
0.077877
0.102167
0.0774779
0.0078996
0.14985
0.367885
0.448324
0.471864
0.481364
0.48617
0.486911
0.486253
0.483041
0.479799
0.47808
0.476819
0.476311
0.476761
0.47806
0.479991
0.482384
0.485099
0.487975
0.490737
0.493159
0.495153
0.496701
0.497838
0.49862
0.499163
0.499384
0.499822
0.499918
0.500061
0.500248
0.500037
0.499871
0.499799
0.499998
0.500202
0.498983
0.4972
0.499915
0.504155
0.491612
0.461436
0.450201
0.43651
0.241337
0.138359
0.29655
0.0377236
0.24547
0.0699343
0.0537725
0.0773383
0.0072822
0.0922335
0.129566
0.0120927
0.0588135
0.0579668
0.0535191
0.00795099
0.0014523
0.00257961
0.005422
0.0185057
0.00601983
0.0234114
0.0168342
0.0388446
0.0806996
0.103567
0.0822396
0.00773465
0.154997
0.374806
0.453106
0.476539
0.484091
0.487421
0.488817
0.487718
0.484547
0.480737
0.478819
0.477365
0.476505
0.476537
0.477575
0.479451
0.48187
0.484599
0.487456
0.490262
0.492783
0.494871
0.496493
0.497689
0.498525
0.499081
0.499456
0.499603
0.499881
0.50005
0.499847
0.50019
0.500335
0.500046
0.499752
0.49961
0.500176
0.500397
0.497742
0.495235
0.502801
0.502482
0.47491
0.425471
0.459711
0.29669
0.068539
0.205055
0.145509
0.102779
0.127195
0.00350204
0.130733
0.00875348
0.0534028
0.112733
0.0586072
0.0574274
0.0179897
0.125454
0.00600081
0.00321122
0.00090135
0.00707987
0.0170534
0.0119493
0.0121546
0.0038242
0.0427341
0.0854035
0.107158
0.0887344
0.00841916
0.165107
0.385158
0.457568
0.480876
0.48748
0.489176
0.490511
0.489409
0.486307
0.482128
0.479662
0.477941
0.476935
0.476625
0.477269
0.478883
0.481259
0.484039
0.486934
0.489758
0.492352
0.494542
0.496262
0.497527
0.498415
0.499014
0.499397
0.49965
0.499746
0.499919
0.500327
0.500001
0.499663
0.500276
0.500477
0.500034
0.49948
0.499233
0.500636
0.500299
0.494625
0.490773
0.508505
0.492925
0.428505
0.388983
0.35245
0.00290427
0.243263
0.418373
0.0899616
0.31576
0.0427383
0.177704
0.02921
0.00073297
0.100102
0.0961382
0.0356565
0.0199923
0.170857
0.00225754
0.00590907
0.000315936
0.00499151
0.00257851
0.0102725
0.000131732
0.0120022
0.0474082
0.0916838
0.114727
0.0968179
0.009673
0.180687
0.398581
0.46202
0.483832
0.490892
0.491671
0.492078
0.491048
0.488082
0.484036
0.480974
0.478704
0.477404
0.476924
0.477237
0.478494
0.480634
0.483373
0.486349
0.489246
0.49189
0.49417
0.495989
0.497344
0.498295
0.498935
0.49935
0.499609
0.499778
0.499838
0.499945
0.498346
0.50079
0.499966
0.499581
0.500448
0.500765
0.500001
0.498883
0.498645
0.501206
0.499074
0.484987
0.487099
0.491281
0.458063
0.305972
0.464288
0.0469094
0.254262
0.29533
0.207568
0.144233
0.0599425
0.506169
0.047147
0.00981596
0.0792694
0.091286
0.0109291
0.0520252
0.122727
0.0119822
0.00728538
0.000541267
0.00365325
0.00628531
0.00981755
0.0110251
0.0185045
0.0471319
0.0997996
0.126893
0.105739
0.00966734
0.201902
0.41302
0.466903
0.485512
0.493729
0.494718
0.494142
0.492364
0.489713
0.486085
0.482737
0.479989
0.478103
0.477274
0.477395
0.478356
0.480156
0.482704
0.485669
0.488666
0.491408
0.493767
0.495679
0.49713
0.498158
0.498848
0.499296
0.499577
0.499749
0.49986
0.499897
0.499962
0.499771
0.499441
0.501798
0.499914
0.499425
0.5008
0.501394
0.499877
0.497728
0.49821
0.502053
0.493317
0.46464
0.495044
0.446327
0.341229
0.290209
0.124764
0.221046
0.428962
0.404532
0.0221753
0.0811768
0.0139387
0.0775711
0.0423183
0.0612797
0.087857
0.00294066
0.069702
0.0513646
0.0236678
0.00677549
0.000211487
0.0038099
0.0181933
0.00320998
0.0277633
0.0116797
0.0495381
0.108639
0.140502
0.111581
0.00334849
0.217435
0.427263
0.473405
0.487549
0.495318
0.497547
0.496254
0.494116
0.49107
0.487942
0.48468
0.481701
0.479298
0.477883
0.477635
0.478375
0.479913
0.48217
0.484981
0.488001
0.490866
0.493334
0.495344
0.496883
0.497995
0.498749
0.499236
0.499541
0.499728
0.49984
0.499912
0.499934
0.499973
0.557329
0.499726
0.499509
0.50234
0.499798
0.49917
0.501561
0.502754
0.499611
0.496572
0.498035
0.500655
0.474598
0.461542
0.437186
0.329439
0.190561
0.268666
0.187455
0.419713
0.440371
0.0735535
0.18089
0.0540745
0.0915339
0.0532214
0.0378035
0.0522314
0.00200972
0.0627907
0.0104074
0.0820955
0.00733624
7.91929e-05
0.00484183
0.0265543
0.00171549
0.0338576
0.0130924
0.0587635
0.118696
0.159692
0.123571
0.00627245
0.241066
0.443427
0.48072
0.490503
0.495741
0.499362
0.498127
0.496548
0.492997
0.489579
0.486542
0.483619
0.480897
0.47897
0.478131
0.478488
0.479816
0.48183
0.484408
0.487327
0.490243
0.492852
0.49498
0.496614
0.497806
0.49863
0.499166
0.499501
0.499705
0.499826
0.499898
0.499945
0.499957
0.499981
0.109591
0.536592
0.501613
0.500297
0.503351
0.49949
0.498901
0.503419
0.504884
0.499432
0.494709
0.499193
0.491733
0.446241
0.478961
0.186906
0.268023
0.181276
0.160542
0.194196
0.291681
0.189635