/*--------------------------------*- C++ -*----------------------------------*\
| =========                 |                                                 |
| \\      /  F ield         | OpenFOAM: The Open Source CFD Toolbox           |
|  \\    /   O peration     | Version:  v2012                                 |
|   \\  /    A nd           | Website:  www.openfoam.com                      |
|    \\/     M anipulation  |                                                 |
\*---------------------------------------------------------------------------*/
FoamFile
{
    version     2.0;
    format      ascii;
    class       volScalarField;
    location    "12000";
    object      q2;
}
// * * * * * * * * * * * * * * * * * * * * * * * * * * * * * * * * * * * * * //

dimensions      [0 0 0 0 0 0 0];


internalField   nonuniform List<scalar> 
27324
(
3.22111e-17
2.33241e-17
2.44031e-17
1.79499e-17
1.89656e-17
1.95846e-17
1.34559e-17
1.54372e-17
1.49997e-17
9.37821e-18
1.00653e-17
1.22311e-17
1.18374e-17
7.29668e-18
5.17156e-18
7.49953e-18
9.61618e-18
9.13538e-18
5.71379e-18
4.25437e-18
5.0074e-18
5.59738e-18
7.49129e-18
7.00846e-18
4.40225e-18
3.42303e-18
4.30549e-18
7.8858e-18
4.14999e-18
5.79759e-18
5.3491e-18
3.37746e-18
2.71837e-18
3.57821e-18
6.75043e-18
1.84254e-17
3.03463e-18
4.4297e-18
4.0659e-18
2.59108e-18
2.14973e-18
2.94257e-18
5.74353e-18
1.53805e-17
7.12196e-17
2.19326e-18
3.32159e-18
3.06566e-18
1.99071e-18
1.70758e-18
2.42077e-18
4.89654e-18
1.34291e-17
5.20474e-17
3.01375e-16
1.57995e-18
2.44331e-18
2.27958e-18
1.52398e-18
1.36545e-18
2.01468e-18
4.23345e-18
1.2077e-17
4.32941e-17
1.4941e-16
6.05311e-16
1.14068e-18
1.76629e-18
1.66982e-18
1.14886e-18
1.09046e-18
1.70088e-18
3.76559e-18
1.11833e-17
3.8617e-17
1.07916e-16
2.46706e-16
8.02657e-16
8.26244e-19
1.25433e-18
1.20387e-18
8.49507e-19
8.5546e-19
1.44025e-18
3.43769e-18
1.07761e-17
3.61179e-17
8.95727e-17
1.67052e-16
3.38178e-16
8.31279e-16
6.01143e-19
8.71881e-19
8.51003e-19
6.16727e-19
6.57776e-19
1.20399e-18
3.15096e-18
1.06121e-17
3.54895e-17
8.11313e-17
1.32025e-16
2.26258e-16
4.21994e-16
7.85774e-16
4.41654e-19
5.90436e-19
5.86502e-19
4.39993e-19
4.99593e-19
9.9709e-19
2.83334e-18
1.01117e-17
3.56066e-17
7.87362e-17
1.16396e-16
1.64113e-16
3.01821e-16
4.97041e-16
7.54913e-16
3.26555e-19
3.9008e-19
3.93443e-19
3.08441e-19
3.77817e-19
8.27257e-19
2.51279e-18
9.06683e-18
3.31972e-17
7.91377e-17
1.07817e-16
1.35777e-16
1.9421e-16
4.01468e-16
5.52851e-16
8.11667e-16
2.46276e-19
2.50428e-19
2.59955e-19
2.13448e-19
2.84953e-19
6.89894e-19
2.22041e-18
7.86642e-18
2.81919e-17
7.34488e-17
1.03733e-16
1.16761e-16
1.50864e-16
2.35968e-16
5.22442e-16
5.83314e-16
1.03921e-15
1.96295e-19
1.55964e-19
1.70099e-19
1.49845e-19
2.1476e-19
5.7177e-19
1.95258e-18
6.84437e-18
2.30808e-17
6.07981e-17
9.60256e-17
1.05308e-16
1.20982e-16
1.61634e-16
3.01073e-16
6.37047e-16
5.89724e-16
1.45354e-15
1.5365e-19
9.4682e-20
1.09231e-19
1.07829e-19
1.6745e-19
4.71765e-19
1.68774e-18
6.0312e-18
1.96202e-17
4.73279e-17
8.05028e-17
9.82994e-17
1.01386e-16
1.21615e-16
1.78219e-16
3.85429e-16
7.05131e-16
6.27138e-16
1.09817e-15
1.62063e-19
5.18125e-20
6.82556e-20
7.81763e-20
1.36389e-19
4.04291e-19
1.45376e-18
5.37302e-18
1.74837e-17
3.90439e-17
6.14142e-17
8.70394e-17
9.50768e-17
9.58538e-17
1.21727e-16
2.12281e-16
4.78823e-16
6.61719e-16
7.67612e-16
2.39095e-16
1.3e-19
4.1984e-20
4.24262e-20
5.70232e-20
1.1297e-19
3.61587e-19
1.3242e-18
4.87359e-18
1.67805e-17
3.48821e-17
4.91619e-17
6.84533e-17
8.98841e-17
8.86896e-17
9.35273e-17
1.29868e-16
2.66793e-16
5.14204e-16
5.64079e-16
5.57806e-16
4.78791e-17
1.68359e-19
5.01397e-20
3.26678e-20
4.73206e-20
9.52897e-20
3.22016e-19
1.26941e-18
4.88866e-18
1.66351e-17
3.66293e-17
4.36312e-17
5.46958e-17
7.62317e-17
8.78106e-17
8.40052e-17
9.64465e-17
1.51885e-16
3.37896e-16
4.7161e-16
6.4209e-16
1.51701e-16
1.68618e-17
3.95434e-18
1.1471e-19
3.92448e-20
2.98051e-20
7.97247e-20
2.87983e-19
1.17374e-18
5.37154e-18
1.93009e-17
3.84531e-17
4.847e-17
4.90834e-17
6.2617e-17
8.30944e-17
8.44153e-17
8.4354e-17
1.07501e-16
1.98589e-16
4.26639e-16
4.85276e-16
7.55106e-16
2.91093e-17
1.59198e-17
8.39061e-18
1.15805e-18
9.97442e-20
3.61712e-20
4.11299e-20
1.70967e-19
1.03251e-18
5.49012e-18
2.70107e-17
4.74733e-17
4.91323e-17
5.75074e-17
5.70303e-17
7.27205e-17
9.11049e-17
8.40074e-17
9.25511e-17
1.34212e-16
3.18251e-16
4.76232e-16
5.10743e-16
1.57614e-16
1.25549e-17
3.46939e-17
8.20668e-18
1.57541e-18
1.09212e-18
8.98208e-20
4.12357e-20
6.53678e-20
3.59546e-19
4.20556e-18
3.62675e-17
7.45846e-17
5.90332e-17
5.57483e-17
6.89495e-17
6.59726e-17
8.97263e-17
9.81952e-17
8.90794e-17
1.11324e-16
2.04358e-16
3.83683e-16
3.43311e-16
5.19199e-16
3.03101e-17
8.91739e-18
4.0175e-17
6.52834e-18
1.50061e-18
1.47717e-18
9.54509e-19
8.98833e-20
4.77153e-20
7.44366e-20
5.03461e-19
1.17747e-17
1.70044e-16
9.61196e-17
6.45621e-17
6.73287e-17
7.46372e-17
7.94072e-17
1.11995e-16
9.64493e-17
1.02034e-16
1.40001e-16
2.75567e-16
3.95312e-16
7.62705e-16
5.65212e-17
8.45703e-18
3.34938e-18
3.4659e-18
5.47498e-18
1.2511e-18
1.44498e-18
1.32049e-18
1.01927e-18
9.89592e-20
5.5595e-20
6.85515e-20
3.64806e-19
1.05061e-17
1.698e-16
1.55288e-16
7.18996e-17
8.06992e-17
7.25405e-17
9.95222e-17
1.2877e-16
9.27692e-17
1.23602e-16
2.18131e-16
8.51516e-16
2.07151e-15
1.36337e-16
4.6523e-18
1.54987e-18
2.0735e-18
7.67379e-18
4.80623e-18
1.13862e-18
1.37422e-18
1.34621e-18
1.46755e-18
1.44475e-18
1.1538e-19
7.09773e-20
6.172e-20
1.67838e-19
2.60478e-18
6.45973e-17
2.94998e-16
1.17171e-16
1.23957e-16
8.64564e-17
1.74359e-16
1.44134e-16
1.6944e-16
2.10594e-16
9.5722e-15
1.98203e-15
3.3522e-17
2.19955e-18
1.21722e-18
2.9302e-18
1.87064e-17
2.72885e-16
4.50948e-18
1.06693e-18
1.4322e-18
1.37306e-18
1.48299e-18
2.41878e-18
1.88994e-18
1.4683e-19
1.07039e-19
6.24049e-20
7.83434e-20
4.63775e-19
7.90549e-18
8.75519e-17
2.02145e-16
3.47098e-16
2.23362e-16
8.79718e-16
3.38025e-16
1.01539e-15
2.1209e-16
1.66218e-17
3.5478e-18
1.36233e-18
1.40209e-18
4.66379e-18
6.65333e-17
3.37746e-15
4.85801e-14
4.47498e-18
1.04563e-18
1.47271e-18
1.43932e-18
1.50186e-18
2.3445e-18
6.6584e-18
1.40538e-18
2.21254e-19
2.10262e-19
8.35211e-20
5.06345e-20
1.06656e-19
5.60696e-19
3.38864e-18
1.26449e-17
2.76489e-17
4.05861e-17
2.96179e-17
1.14039e-17
3.47465e-18
1.42311e-18
1.14056e-18
1.52556e-18
2.93904e-18
1.13805e-17
1.89331e-16
7.20443e-15
4.40679e-14
1.74078e-13
4.55809e-18
1.05912e-18
1.52718e-18
1.45429e-18
1.437e-18
2.28436e-18
6.316e-18
2.71815e-17
7.83995e-19
4.24595e-19
6.02346e-19
1.75742e-19
5.9598e-20
5.00264e-20
8.84455e-20
2.02549e-19
3.89166e-19
5.57312e-19
5.85206e-19
5.68927e-19
5.47906e-19
6.70962e-19
1.23368e-18
3.84419e-18
1.28885e-17
2.88672e-17
2.39807e-16
5.43501e-15
4.03367e-14
8.57525e-14
4.47422e-13
4.72209e-18
1.08936e-18
1.56786e-18
1.44237e-18
1.36876e-18
2.11163e-18
5.99566e-18
3.12631e-17
3.47501e-17
4.76536e-19
1.06359e-18
2.48282e-18
7.59463e-19
1.90537e-19
8.78758e-20
7.66624e-20
9.60053e-20
1.37129e-19
1.98043e-19
3.05476e-19
5.4543e-19
1.24255e-18
4.49711e-18
2.9254e-17
1.3581e-16
5.77463e-17
1.4719e-16
2.66916e-15
2.85963e-14
9.98438e-14
1.68901e-13
2.03823e-12
4.98395e-18
1.12926e-18
1.57439e-18
1.3896e-18
1.28253e-18
2.00072e-18
5.93824e-18
2.92399e-17
1.33857e-16
1.33587e-17
3.52981e-19
3.81203e-18
2.8026e-17
1.11838e-17
2.31505e-18
7.57669e-19
4.56763e-19
4.44702e-19
6.06713e-19
1.13277e-18
2.77278e-18
1.02477e-17
6.4422e-17
9.19136e-16
3.8501e-15
1.18157e-16
1.01365e-16
1.18976e-15
1.57747e-14
7.65617e-14
1.72668e-13
6.59598e-13
8.89477e-11
5.25679e-18
1.15934e-18
1.53258e-18
1.29406e-18
1.1959e-18
1.89262e-18
5.83668e-18
2.71796e-17
1.18817e-16
3.95071e-16
3.83867e-18
3.6255e-19
1.61922e-17
2.91905e-14
2.15051e-15
2.23638e-16
4.90859e-17
2.38983e-17
2.22396e-17
3.61047e-17
1.03552e-16
5.31812e-16
6.24601e-15
4.33151e-13
5.09875e-13
3.44252e-16
8.29815e-17
5.08657e-16
7.97103e-15
5.8304e-14
1.39255e-13
5.14524e-13
1.2984e-11
2.08256e-10
5.28135e-18
1.15597e-18
1.43498e-18
1.17475e-18
1.12491e-18
1.81841e-18
5.75605e-18
2.59899e-17
1.01778e-16
4.16219e-16
4.83395e-16
1.25586e-18
5.45583e-19
5.21877e-17
6.79551e-16
1.21109e-15
8.0616e-16
4.41611e-16
7.04171e-16
1.34087e-15
1.94446e-15
2.66723e-15
5.67984e-15
5.19466e-14
4.65012e-12
1.76638e-15
9.54907e-17
2.50355e-16
3.70465e-15
3.95768e-14
1.22423e-13
3.51704e-13
6.54443e-12
9.12865e-11
2.96127e-10
4.99946e-18
1.10083e-18
1.31373e-18
1.07174e-18
1.08367e-18
1.7858e-18
5.72436e-18
2.53478e-17
1.01753e-16
3.95858e-16
2.46891e-15
8.4615e-17
5.58625e-19
1.33253e-18
2.37789e-16
4.28501e-16
1.00225e-15
3.98624e-16
3.30558e-16
5.49828e-16
9.47495e-16
1.3991e-15
2.74145e-15
1.50056e-14
8.47389e-13
1.76288e-14
1.64861e-16
1.51058e-16
1.68895e-15
2.38122e-14
1.03945e-13
2.77477e-13
3.02272e-12
4.43874e-11
1.38647e-10
1.22416e-09
4.6692e-18
1.02663e-18
1.21746e-18
1.00882e-18
1.0736e-18
1.7911e-18
5.72055e-18
2.53893e-17
1.03124e-16
4.1074e-16
1.98452e-15
6.92114e-15
1.20653e-17
3.99447e-19
5.47793e-18
7.52571e-15
5.82605e-15
1.42977e-15
4.01593e-16
4.8239e-16
8.13742e-16
1.22946e-15
2.09756e-15
8.22776e-15
3.77668e-13
3.83662e-13
4.43748e-16
1.1972e-16
7.89755e-16
1.2833e-14
8.22921e-14
2.36893e-13
1.69143e-12
1.93505e-11
7.25606e-11
6.10807e-10
9.36768e-09
4.04238e-18
9.33838e-19
1.13939e-18
9.8735e-19
1.08064e-18
1.81046e-18
5.68362e-18
2.59033e-17
1.07289e-16
4.25901e-16
1.73392e-15
5.62194e-15
2.82009e-15
2.29142e-18
5.43914e-19
3.60317e-17
4.33263e-14
2.52791e-14
8.67671e-16
4.80041e-16
7.41147e-16
1.24424e-15
1.90576e-15
4.91606e-15
6.62458e-14
2.59649e-11
1.94666e-15
1.31084e-16
4.05487e-16
6.3667e-15
5.86283e-14
2.1275e-13
1.0492e-12
9.01759e-12
3.58232e-11
3.50842e-10
5.19865e-09
1.05565e-07
3.5857e-18
8.4681e-19
1.08782e-18
9.81035e-19
1.08614e-18
1.82065e-18
5.62835e-18
2.65268e-17
1.10846e-16
4.34582e-16
1.58462e-15
4.33745e-15
3.18344e-14
1.669e-16
7.51134e-19
1.68777e-18
6.87219e-16
7.91508e-13
4.20524e-15
5.6288e-16
5.97571e-16
1.07294e-15
1.7477e-15
3.35478e-15
2.22552e-14
4.26873e-12
1.5102e-14
2.05847e-16
2.44561e-16
3.0361e-15
3.73948e-14
1.88394e-13
7.61835e-13
4.30301e-12
1.78391e-11
1.89572e-10
3.29243e-09
6.44604e-08
1.41289e-06
3.33775e-18
8.13077e-19
1.12655e-18
1.02008e-18
1.10798e-18
1.81662e-18
5.5942e-18
2.70284e-17
1.11521e-16
4.39464e-16
1.44416e-15
3.98127e-15
1.97751e-14
9.78832e-14
1.31066e-17
5.20334e-19
1.29741e-17
2.55014e-14
3.64261e-14
1.11099e-15
5.17787e-16
8.53598e-16
1.53975e-15
2.5966e-15
9.21389e-15
3.81652e-13
2.56203e-13
4.78724e-16
1.84354e-16
1.46452e-15
2.15772e-14
1.55414e-13
6.32075e-13
2.17809e-12
8.92714e-12
1.02187e-10
1.95817e-09
4.41428e-08
9.2908e-07
2.0788e-05
3.24938e-18
8.17232e-19
1.22152e-18
1.08582e-18
1.11707e-18
1.81068e-18
5.57939e-18
2.71058e-17
1.10005e-16
4.38062e-16
1.37944e-15
3.72489e-15
1.71666e-14
1.81897e-13
2.41967e-15
1.99175e-18
9.08103e-19
2.17354e-16
8.74089e-14
5.74831e-15
6.07561e-16
6.7849e-16
1.31655e-15
2.20091e-15
5.1542e-15
6.93344e-14
7.53045e-11
1.71756e-15
1.82494e-16
7.57059e-16
1.14853e-14
1.16488e-13
5.67757e-13
1.17868e-12
4.53115e-12
5.45442e-11
1.16381e-09
2.84523e-08
6.80877e-07
1.43792e-05
0.000307136
3.29212e-18
8.37502e-19
1.32227e-18
1.11093e-18
1.09958e-18
1.79456e-18
5.56803e-18
2.66945e-17
1.08126e-16
4.34308e-16
1.32278e-15
3.8907e-15
1.5209e-14
7.85347e-14
1.86754e-12
6.91873e-17
7.49439e-19
4.50237e-18
7.12667e-15
1.24444e-13
1.30344e-15
5.95088e-16
1.06078e-15
1.92474e-15
3.50985e-15
2.11871e-14
5.25486e-12
1.00845e-14
2.46241e-16
4.43946e-16
5.83513e-15
7.87124e-14
5.03588e-13
6.92951e-13
2.34979e-12
2.88777e-11
6.82567e-10
1.83396e-08
4.71189e-07
1.11811e-05
0.000221703
0.00394305
3.46413e-18
8.57709e-19
1.38198e-18
1.08959e-18
1.06149e-18
1.76412e-18
5.6198e-18
2.61783e-17
1.07094e-16
4.30304e-16
1.26496e-15
4.09441e-15
1.62571e-14
5.53207e-14
7.8603e-13
2.34327e-14
5.15443e-18
8.64352e-19
7.07604e-17
7.38158e-13
8.06517e-15
6.87361e-16
8.23759e-16
1.63279e-15
2.7495e-15
9.2342e-15
4.0308e-13
1.11784e-13
4.66126e-16
3.11074e-16
2.95943e-15
4.76701e-14
4.20662e-13
4.46031e-13
1.25367e-12
1.52463e-11
3.95485e-10
1.16846e-08
3.26623e-07
8.20413e-06
0.00018232
0.00296904
0.0393093
3.74248e-18
9.07957e-19
1.38221e-18
1.04581e-18
1.02969e-18
1.7619e-18
5.59149e-18
2.48372e-17
1.07651e-16
4.27892e-16
1.20046e-15
4.25359e-15
1.82776e-14
4.89592e-14
3.28319e-13
1.44762e-11
2.56136e-16
1.18816e-18
3.50023e-18
3.83398e-15
3.51562e-13
1.38432e-15
6.7352e-16
1.30651e-15
2.30072e-15
5.30294e-15
7.92634e-14
6.69938e-12
1.27315e-15
2.72244e-16
1.56962e-15
2.64103e-14
3.2231e-13
3.09135e-13
6.94524e-13
8.05535e-12
2.25925e-10
7.38387e-09
2.24312e-07
6.04844e-06
0.00014071
0.00257866
0.0317444
0.209046
3.65907e-18
9.03126e-19
1.32625e-18
9.99021e-19
1.01334e-18
1.79665e-18
5.62284e-18
2.42358e-17
1.12577e-16
4.27464e-16
1.13732e-15
4.3325e-15
1.99693e-14
5.21517e-14
2.39887e-13
3.78435e-12
1.02107e-13
1.05831e-17
9.68637e-19
5.03247e-17
4.37262e-13
7.63654e-15
6.8612e-16
9.92193e-16
1.94447e-15
3.74566e-15
2.3024e-14
1.47782e-11
5.19987e-15
3.08102e-16
9.10753e-16
1.39045e-14
2.19945e-13
2.24231e-13
4.07293e-13
4.2651e-12
1.27117e-10
4.62321e-09
1.53185e-07
4.42845e-06
0.000109312
0.00209814
0.0291057
0.191401
0.48162
3.33741e-18
8.405e-19
1.18224e-18
9.26024e-19
1.00666e-18
1.84146e-18
5.65674e-18
2.45095e-17
1.21273e-16
4.34705e-16
1.09376e-15
4.38505e-15
2.04739e-14
5.7412e-14
2.7048e-13
1.0599e-12
3.55631e-09
5.49412e-16
1.71333e-18
3.46819e-18
1.91059e-15
2.57108e-13
1.12011e-15
7.62516e-16
1.59309e-15
2.96573e-15
1.07403e-14
6.06864e-13
3.38975e-14
4.63131e-16
6.0321e-16
7.27005e-15
1.32712e-13
1.69806e-13
2.50228e-13
2.26815e-12
7.0502e-11
2.86839e-09
1.04014e-07
3.23053e-06
8.44523e-05
0.00172248
0.0249845
0.182622
0.469391
0.852291
3.00254e-18
7.712e-19
1.09114e-18
8.95166e-19
1.02523e-18
1.88128e-18
5.65931e-18
2.50449e-17
1.31427e-16
4.34275e-16
1.02412e-15
4.4792e-15
2.03037e-14
5.91815e-14
3.77853e-13
7.06002e-13
6.46159e-12
1.31041e-13
1.50052e-17
1.23932e-18
5.75754e-17
1.83248e-13
4.15008e-15
6.78267e-16
1.23916e-15
2.51242e-15
6.19514e-15
1.08301e-13
4.31049e-13
9.45002e-16
4.74305e-16
3.92647e-15
7.24117e-14
1.323e-13
1.62368e-13
1.22028e-12
3.84488e-11
1.76117e-09
7.02943e-08
2.34597e-06
6.51013e-05
0.00140691
0.0215703
0.167599
0.45439
0.831128
0.998736
2.59562e-18
6.9315e-19
1.06261e-18
9.003e-19
1.05792e-18
1.91445e-18
5.63648e-18
2.54862e-17
1.38433e-16
4.29853e-16
1.04187e-15
5.06879e-15
2.02468e-14
5.99049e-14
5.2042e-13
6.49387e-13
1.92422e-12
4.34476e-12
6.44068e-16
2.12511e-18
4.8489e-18
4.94264e-15
5.81794e-14
8.63685e-16
9.41195e-16
2.12761e-15
4.40097e-15
3.25567e-14
2.04822e-10
2.67212e-15
4.5866e-16
2.26274e-15
3.73499e-14
1.05142e-13
1.10964e-13
6.66128e-13
2.07998e-11
1.0693e-09
4.72833e-08
1.69736e-06
5.00242e-05
0.00114652
0.018528
0.15402
0.438227
0.80774
0.996335
1
2.44289e-18
6.44474e-19
1.06257e-18
9.08546e-19
1.08089e-18
1.93487e-18
5.46359e-18
2.56708e-17
1.41446e-16
4.20097e-16
1.06774e-15
5.77897e-15
2.23904e-14
6.4451e-14
6.37601e-13
8.91911e-13
1.01282e-12
2.52147e-12
1.17019e-13
1.51506e-17
1.65116e-18
1.01057e-16
3.30001e-12
2.11941e-15
7.62001e-16
1.72359e-15
3.51214e-15
1.41301e-14
2.3702e-12
1.06837e-14
5.6212e-16
1.42957e-15
1.92744e-14
8.35656e-14
7.95087e-14
3.71961e-13
1.11734e-11
6.41882e-10
3.16492e-08
1.22408e-06
3.83388e-05
0.000931871
0.0158971
0.141332
0.424068
0.783293
0.994561
1
1
2.47545e-18
6.50026e-19
1.14462e-18
9.63103e-19
1.0771e-18
1.91084e-18
5.37542e-18
2.63217e-17
1.3892e-16
4.04385e-16
1.14565e-15
6.83107e-15
2.5882e-14
7.92734e-14
8.20724e-13
1.16775e-12
1.04577e-12
1.1721e-12
1.5288e-11
4.47169e-16
2.34024e-18
8.90339e-18
1.22905e-14
1.539e-14
7.69666e-16
1.31877e-15
2.98924e-15
7.93013e-15
2.40707e-13
6.46465e-14
8.84622e-16
1.02966e-15
1.04055e-14
6.48026e-14
5.87964e-14
2.14059e-13
6.00267e-12
3.80593e-10
2.10619e-08
8.80696e-07
2.93163e-05
0.000755882
0.0136213
0.129728
0.411237
0.758788
0.991222
1
1
1
2.52131e-18
6.70736e-19
1.22723e-18
9.92104e-19
1.08477e-18
1.87976e-18
5.2474e-18
2.55459e-17
1.36322e-16
3.8502e-16
1.23766e-15
8.26084e-15
3.10441e-14
1.04434e-13
1.16951e-12
1.30369e-12
1.45011e-12
6.05623e-13
7.84167e-12
7.09137e-14
1.17483e-17
2.48845e-18
3.2567e-16
1.05799e-12
1.21854e-15
9.99173e-16
2.50052e-15
5.55154e-15
6.11483e-14
1.11364e-12
1.81474e-15
8.83641e-16
5.79087e-15
4.62992e-14
4.42475e-14
1.28649e-13
3.24006e-12
2.23069e-10
1.39077e-08
6.32674e-07
2.23905e-05
0.000612137
0.0116646
0.118981
0.399329
0.73458
0.98708
1
1
1
1
2.63138e-18
6.77373e-19
1.24983e-18
9.90756e-19
1.05483e-18
1.86108e-18
5.16196e-18
2.52037e-17
1.26067e-16
3.45453e-16
1.30861e-15
9.75024e-15
3.61031e-14
1.40552e-13
1.8e-12
1.12573e-12
1.44497e-12
5.96579e-13
9.6228e-13
1.22863e-09
2.07696e-16
2.48307e-18
2.1904e-17
9.40103e-14
4.10666e-15
8.30469e-16
1.9808e-15
4.54316e-15
2.13837e-14
5.23745e-11
4.96684e-15
9.14826e-16
3.43437e-15
2.99838e-14
3.36456e-14
8.13057e-14
1.76725e-12
1.29272e-10
9.10079e-09
4.53845e-07
1.71031e-05
0.000495092
0.00998548
0.109115
0.388422
0.711023
0.981911
0.999998
1
1
1
1
2.51388e-18
6.82934e-19
1.23798e-18
9.83218e-19
1.04827e-18
1.85226e-18
5.13735e-18
2.51173e-17
1.19795e-16
3.15878e-16
1.33699e-15
1.0567e-14
3.91659e-14
1.83923e-13
2.94912e-12
1.04233e-12
1.06062e-12
6.42321e-13
4.83452e-13
4.99761e-12
1.7617e-14
7.87671e-18
4.48169e-18
1.43083e-15
4.4653e-14
8.94008e-16
1.49696e-15
3.83382e-15
1.14816e-14
6.53851e-13
1.90793e-14
1.15718e-15
2.31383e-15
1.80283e-14
2.62624e-14
5.48191e-14
9.77364e-13
7.41427e-11
5.89582e-09
3.25218e-07
1.3087e-05
0.000400277
0.00854978
0.10006
0.378563
0.688502
0.97588
0.999992
1
1
1
1
1
2.3137e-18
6.36685e-19
1.17887e-18
9.76938e-19
1.05624e-18
1.85817e-18
5.1923e-18
2.51481e-17
1.16565e-16
2.92999e-16
1.3691e-15
9.69122e-15
4.04668e-14
2.22604e-13
6.49857e-12
1.46895e-12
8.85026e-13
7.73088e-13
4.22318e-13
9.07292e-13
2.85004e-11
7.11463e-17
2.84864e-18
8.028e-17
1.41675e-11
1.55529e-15
1.12997e-15
3.19915e-15
7.94022e-15
1.00861e-13
1.16574e-13
1.80479e-15
1.80808e-15
1.03544e-14
2.1613e-14
3.96582e-14
5.49688e-13
4.21073e-11
3.78463e-09
2.32663e-07
1.00492e-05
0.000323784
0.00732574
0.0918398
0.369714
0.667179
0.969072
0.999965
1
1
1
1
1
1
2.17928e-18
5.98776e-19
1.1267e-18
9.77279e-19
1.05985e-18
1.85024e-18
5.29769e-18
2.5939e-17
1.09524e-16
2.77202e-16
1.38854e-15
8.81396e-15
3.47995e-14
2.36015e-13
3.04392e-11
4.37053e-12
1.26892e-12
9.65116e-13
6.70554e-13
6.06594e-13
1.12599e-11
2.0794e-15
5.26169e-18
1.14232e-17
1.53699e-14
5.63568e-15
9.42221e-16
2.54644e-15
6.24097e-15
3.30409e-14
1.48327e-12
3.49678e-15
1.6492e-15
5.99059e-15
1.83155e-14
3.03496e-14
3.14806e-13
2.37172e-11
2.41158e-09
1.66134e-07
7.7508e-06
0.000262469
0.00628245
0.0844228
0.361675
0.647043
0.961357
0.999891
1
1
1
1
1
1
1
2.01484e-18
5.82582e-19
1.12963e-18
9.89494e-19
1.08429e-18
1.83339e-18
5.37319e-18
2.59637e-17
1.09278e-16
2.70959e-16
1.3799e-15
7.70723e-15
2.90022e-14
1.73725e-13
8.47761e-12
2.62532e-11
5.05298e-12
1.45903e-12
1.26622e-12
7.72047e-13
3.28036e-12
2.43606e-13
2.48964e-17
4.30722e-18
5.20527e-16
5.96532e-14
1.01211e-15
1.93773e-15
5.16683e-15
1.57442e-14
5.01166e-13
8.31336e-15
1.74066e-15
4.03868e-15
1.53915e-14
2.42966e-14
1.84322e-13
1.32754e-11
1.53032e-09
1.18421e-07
6.00681e-06
0.000213582
0.00539559
0.0777462
0.354312
0.628273
0.950794
0.99971
1
1
1
1
1
1
1
1
2.09345e-18
5.75013e-19
1.1594e-18
9.98598e-19
1.08913e-18
1.76294e-18
5.41049e-18
2.60743e-17
1.06324e-16
2.72147e-16
1.60304e-15
6.99931e-15
2.49682e-14
1.34522e-13
1.23437e-12
6.92588e-12
4.10064e-11
3.24583e-12
1.95043e-12
1.67066e-12
1.26622e-12
1.81222e-10
2.99827e-16
4.40283e-18
4.7566e-17
2.73002e-12
1.69835e-15
1.45849e-15
4.25176e-15
1.05866e-14
7.25352e-14
2.21101e-14
2.17167e-15
3.00736e-15
1.19789e-14
2.02126e-14
1.11414e-13
7.41324e-12
9.69849e-10
8.43801e-08
4.67539e-06
0.00017486
0.00464524
0.07173
0.347343
0.61093
0.936972
0.999326
1
1
1
1
1
1
1
1
1
2.14929e-18
6.0243e-19
1.23366e-18
1.00133e-18
1.08265e-18
1.70982e-18
5.41879e-18
2.56933e-17
1.04152e-16
2.97476e-16
1.79294e-15
6.94708e-15
2.26587e-14
1.10532e-13
8.56854e-13
1.33483e-12
1.02594e-11
1.1609e-11
2.3088e-12
3.28791e-12
1.07063e-12
8.89966e-12
1.1672e-14
1.08846e-17
1.03325e-17
7.86409e-15
5.48343e-15
1.17502e-15
3.39603e-15
7.73912e-15
2.20636e-14
5.44259e-14
3.22098e-15
2.4689e-15
8.68045e-15
1.61934e-14
7.02069e-14
4.14802e-12
6.15342e-10
6.02028e-08
3.65079e-06
0.000144221
0.00401514
0.0662569
0.340726
0.595062
0.921305
0.998599
1
1
1
1
1
1
1
1
1
1
2.18429e-18
6.17673e-19
1.27166e-18
9.97664e-19
1.07429e-18
1.66998e-18
5.34637e-18
2.55934e-17
1.01147e-16
3.20398e-16
2.01942e-15
7.58157e-15
2.25677e-14
1.07844e-13
1.18686e-12
7.33877e-13
2.68669e-12
2.15521e-11
3.03066e-12
3.89836e-12
1.52169e-12
1.59587e-12
4.06906e-12
5.93814e-17
5.40921e-18
3.84717e-16
4.64928e-14
1.15126e-15
2.61416e-15
5.84283e-15
1.04664e-14
6.40508e-14
5.28328e-15
2.24731e-15
5.86452e-15
1.33351e-14
4.70284e-14
2.33524e-12
3.91251e-10
4.31247e-08
2.86013e-06
0.000119941
0.00349099
0.0611972
0.334243
0.580823
0.903969
0.997345
1
1
1
1
1
1
1
1
1
1
1
2.11359e-18
6.31825e-19
1.29798e-18
9.8099e-19
1.06164e-18
1.6489e-18
5.30683e-18
2.50719e-17
9.2699e-17
3.42426e-16
2.18558e-15
8.32929e-15
2.81454e-14
1.02895e-13
2.73023e-12
1.79414e-12
1.37724e-12
1.8017e-11
5.99564e-12
3.05696e-12
2.40383e-12
7.86096e-13
1.73346e-11
7.44535e-16
6.78661e-18
4.65318e-17
2.0238e-12
1.60689e-15
1.94353e-15
4.43012e-15
6.41669e-15
3.33206e-14
8.69374e-15
2.33777e-15
4.05299e-15
1.11065e-14
3.37925e-14
1.32867e-12
2.49185e-10
3.10916e-08
2.25144e-06
0.000100491
0.00305796
0.056464
0.327968
0.568324
0.885335
0.995321
1
1
1
1
1
1
1
1
1
1
1
1
2.01291e-18
6.22687e-19
1.35968e-18
9.68859e-19
1.03982e-18
1.63378e-18
5.28071e-18
2.46847e-17
8.94611e-17
3.54166e-16
2.15657e-15
8.80839e-15
3.54256e-14
1.04875e-13
1.69847e-12
5.30861e-11
1.88393e-12
1.42911e-11
3.27859e-11
2.37728e-12
2.6393e-12
8.12614e-13
2.35563e-12
2.72776e-14
1.79941e-17
1.23746e-17
7.43116e-15
3.70844e-15
1.46721e-15
3.40163e-15
4.30519e-15
1.40454e-14
1.26245e-14
2.72102e-15
3.11523e-15
9.46178e-15
2.6098e-14
7.64435e-13
1.59011e-10
2.26098e-08
1.78653e-06
8.4705e-05
0.00270181
0.0521052
0.322259
0.557826
0.865885
0.992268
0.999999
1
1
1
1
1
1
1
1
1
1
1
1
1.95793e-18
6.20706e-19
1.4131e-18
9.5843e-19
1.01678e-18
1.63167e-18
5.24162e-18
2.43617e-17
8.70431e-17
3.66121e-16
1.96912e-15
8.75267e-15
4.37336e-14
1.2557e-13
6.54529e-13
2.54193e-11
9.59362e-12
5.13102e-12
2.97524e-10
2.80606e-12
2.0283e-12
1.3083e-12
9.97241e-13
1.16057e-11
9.3145e-17
7.46356e-18
4.35927e-16
1.73156e-14
1.23733e-15
2.55886e-15
3.06549e-15
7.29883e-15
1.5934e-14
3.46525e-15
2.61883e-15
7.69306e-15
2.10484e-14
4.45731e-13
1.01803e-10
1.6624e-08
1.4337e-06
7.18197e-05
0.00241063
0.048292
0.317627
0.549426
0.84592
0.988
0.999997
1
1
1
1
1
1
1
1
1
1
1
1
1
1.96716e-18
6.3425e-19
1.4976e-18
9.51112e-19
9.68962e-19
1.63666e-18
5.17592e-18
2.43323e-17
8.74297e-17
3.74283e-16
1.75506e-15
7.72831e-15
5.02634e-14
1.62188e-13
6.66383e-13
3.27012e-12
7.61553e-11
3.86911e-12
6.40861e-11
7.69096e-12
1.66627e-12
2.32652e-12
8.89152e-13
1.13831e-11
9.80713e-16
9.53943e-18
6.16557e-17
8.97026e-13
1.29022e-15
1.87885e-15
2.29306e-15
4.30947e-15
1.44035e-14
4.52424e-15
2.44983e-15
5.94146e-15
1.68173e-14
2.65106e-13
6.57783e-11
1.23844e-08
1.16682e-06
6.13337e-05
0.00216687
0.0450957
0.313969
0.542979
0.825677
0.982346
0.999984
1
1
1
1
1
1
1
1
1
1
1
1
1
1
1.9669e-18
6.38609e-19
1.58448e-18
9.4016e-19
9.34485e-19
1.64025e-18
5.10963e-18
2.40651e-17
9.00712e-17
3.95831e-16
1.57925e-15
6.80427e-15
4.78136e-14
1.74066e-13
1.27223e-12
1.88055e-12
1.24672e-11
1.02392e-11
7.19768e-12
3.7977e-10
2.11592e-12
3.37259e-12
1.54066e-12
1.77982e-12
2.56137e-14
2.34675e-17
1.79145e-17
2.05267e-14
1.81897e-15
1.36807e-15
1.74947e-15
2.85183e-15
9.72916e-15
5.68218e-15
2.49744e-15
4.46632e-15
1.37066e-14
1.63421e-13
4.32259e-11
9.36748e-09
9.64441e-07
5.2933e-05
0.0019571
0.0425655
0.311285
0.538192
0.805634
0.975084
0.999938
1
1
1
1
1
1
1
1
1
1
1
1
1
1
1
1.87548e-18
6.35647e-19
1.59039e-18
9.26178e-19
9.07398e-19
1.64206e-18
5.04571e-18
2.36578e-17
9.68953e-17
4.14814e-16
1.4548e-15
6.41802e-15
4.28181e-14
1.49512e-13
1.58017e-12
6.12374e-12
3.02671e-12
2.17582e-10
1.94361e-12
7.32205e-11
6.00821e-12
3.08338e-12
3.6854e-12
8.18633e-13
5.29298e-12
1.00131e-16
1.07445e-17
8.47201e-16
3.54808e-15
1.0342e-15
1.35021e-15
2.01954e-15
6.05202e-15
6.84019e-15
2.70136e-15
3.43055e-15
1.11011e-14
1.05937e-13
2.91095e-11
7.20338e-09
8.09505e-07
4.6289e-05
0.00177432
0.040677
0.310312
0.535991
0.786494
0.966112
0.999802
1
1
1
1
1
1
1
1
1
1
1
1
1
1
1
1
1.79834e-18
6.01608e-19
1.55656e-18
9.22393e-19
8.83453e-19
1.64286e-18
4.95091e-18
2.29889e-17
1.03941e-16
4.21232e-16
1.39052e-15
6.03401e-15
4.35557e-14
1.61231e-13
9.83311e-13
6.22332e-11
1.9438e-12
2.98543e-10
3.12962e-12
4.76708e-12
8.711e-11
2.43971e-12
7.26749e-12
8.55581e-13
1.10512e-11
7.25633e-16
1.25936e-17
1.13081e-16
1.15005e-14
8.60032e-16
1.04079e-15
1.49535e-15
3.77891e-15
7.11336e-15
3.08063e-15
2.86044e-15
9.11349e-15
7.2467e-14
2.0176e-11
5.64391e-09
6.89684e-07
4.1101e-05
0.00161963
0.0392852
0.311935
0.53763
0.768706
0.955779
0.999453
1
1
1
1
1
1
1
1
1
1
1
1
1
1
1
1
1
1.76429e-18
5.75342e-19
1.47433e-18
9.20515e-19
8.72869e-19
1.63168e-18
4.87784e-18
2.28887e-17
1.10393e-16
4.24093e-16
1.32901e-15
6.17282e-15
4.43667e-14
1.883e-13
8.3498e-13
9.42309e-11
3.70247e-12
1.22321e-11
1.5784e-11
1.81195e-12
3.48422e-09
2.86491e-12
6.53803e-12
1.45768e-12
1.54016e-12
1.0254e-14
2.60531e-17
3.09001e-17
6.66519e-14
8.13533e-16
8.01388e-16
1.13808e-15
2.51139e-15
6.312e-15
3.62433e-15
2.67052e-15
7.32414e-15
5.13797e-14
1.44512e-11
4.52106e-09
5.96745e-07
3.71015e-05
0.00149795
0.0382882
0.317855
0.5446
0.753126
0.944485
0.998688
1
1
1
1
1
1
1
1
1
1
1
1
1
1
1
1
1
1
1.75001e-18
5.58759e-19
1.4127e-18
9.14187e-19
8.71581e-19
1.58982e-18
4.92611e-18
2.30334e-17
1.18434e-16
4.00291e-16
1.26089e-15
6.34971e-15
4.51847e-14
1.97242e-13
9.62152e-13
7.46702e-12
2.05913e-11
4.57928e-12
5.89828e-10
2.68792e-12
1.24274e-11
7.82073e-12
3.17307e-12
4.12883e-12
7.84805e-13
5.89874e-13
8.2854e-17
1.83609e-17
3.43115e-15
8.61797e-16
6.23164e-16
8.79159e-16
1.76598e-15
5.07678e-15
4.43156e-15
2.62992e-15
5.64427e-15
3.70731e-14
1.07504e-11
3.72648e-09
5.25459e-07
3.4078e-05
0.00141288
0.0377878
0.3298
0.558013
0.741364
0.932398
0.997252
1
1
1
1
1
1
1
1
1
1
1
1
1
1
1
1
1
1
1
1.71424e-18
5.49987e-19
1.34837e-18
9.09148e-19
8.6961e-19
1.54343e-18
4.94906e-18
2.34292e-17
1.26054e-16
3.78302e-16
1.14314e-15
6.38966e-15
4.70998e-14
2.30944e-13
1.00774e-12
8.57443e-12
7.54393e-11
6.46513e-12
1.36611e-11
2.54894e-11
2.28841e-12
9.9804e-11
1.75388e-12
1.09517e-11
8.51984e-13
2.39674e-11
4.03187e-16
1.80487e-17
2.9948e-16
1.00755e-15
5.01038e-16
6.86472e-16
1.29349e-15
3.73306e-15
5.12932e-15
2.68984e-15
4.4201e-15
2.63249e-14
8.41657e-12
3.18136e-09
4.72822e-07
3.19177e-05
0.00136856
0.0382031
0.34989
0.578327
0.735297
0.919739
0.994811
1
1
1
1
1
1
1
1
1
1
1
1
1
1
1
1
1
1
1
1
1.67903e-18
5.40219e-19
1.31326e-18
8.91897e-19
8.71032e-19
1.5008e-18
4.9985e-18
2.44969e-17
1.29801e-16
3.52662e-16
1.09141e-15
6.41017e-15
4.69252e-14
2.42588e-13
8.66431e-13
2.99173e-11
1.8104e-11
5.44437e-11
2.66389e-12
1.09381e-09
1.27186e-12
6.29414e-11
1.82388e-12
1.15272e-11
2.78536e-12
8.28236e-13
3.08904e-15
2.89979e-17
7.79735e-17
2.14384e-15
4.19448e-16
5.38942e-16
9.79504e-16
2.7409e-15
5.47697e-15
2.88017e-15
3.68735e-15
1.97656e-14
6.99365e-12
2.82838e-09
4.37362e-07
3.05921e-05
0.00137176
0.0402169
0.381996
0.606218
0.735022
0.908727
0.991029
0.999999
1
1
1
1
1
1
1
1
1
1
1
1
1
1
1
1
1
1
1
1
1.66165e-18
5.32431e-19
1.26429e-18
8.57313e-19
8.70414e-19
1.47011e-18
5.10495e-18
2.55833e-17
1.30077e-16
3.32248e-16
1.05366e-15
6.77528e-15
4.73032e-14
2.33211e-13
7.68677e-13
1.86416e-11
9.17319e-12
5.02959e-10
6.29462e-12
4.49434e-11
2.86981e-12
4.08283e-12
4.5278e-12
5.44093e-12
1.66179e-11
3.26589e-13
5.66547e-14
6.9615e-17
3.69384e-17
3.16693e-15
3.55374e-16
4.24524e-16
7.61191e-16
2.03485e-15
5.31008e-15
3.39051e-15
3.3118e-15
1.50916e-14
6.0448e-12
2.62573e-09
4.19263e-07
3.02195e-05
0.00143741
0.044875
0.433939
0.642863
0.737312
0.903195
0.985694
0.999994
1
1
1
1
1
1
1
1
1
1
1
1
1
1
1
1
1
1
1
1
1
1.66467e-18
5.22371e-19
1.24014e-18
7.98774e-19
8.5637e-19
1.47483e-18
5.24787e-18
2.66767e-17
1.27209e-16
3.12452e-16
1.03909e-15
7.52969e-15
4.98505e-14
2.18147e-13
7.48668e-13
8.58447e-12
1.20236e-11
1.56811e-11
9.03437e-11
7.22327e-12
1.22667e-11
1.42463e-12
4.9171e-11
2.62028e-12
5.9777e-11
2.87731e-13
2.42389e-12
2.34114e-16
2.9602e-17
8.08265e-16
3.11491e-16
3.42042e-16
6.03753e-16
1.54691e-15
4.77e-15
4.15614e-15
3.11092e-15
1.11955e-14
5.25916e-12
2.55971e-09
4.2119e-07
3.11312e-05
0.00159451
0.0540569
0.517887
0.687447
0.740474
0.904615
0.979568
0.999974
1
1
1
1
1
1
1
1
1
1
1
1
1
1
1
1
1
1
1
1
1
1
1.54115e-18
5.0417e-19
1.18485e-18
7.47593e-19
8.39343e-19
1.51373e-18
5.39916e-18
2.79047e-17
1.24726e-16
2.95273e-16
9.96397e-16
8.49867e-15
5.87077e-14
1.94788e-13
7.85473e-13
7.45325e-12
1.39826e-11
1.10657e-11
7.64981e-10
1.17457e-11
8.11172e-11
1.73674e-12
4.46506e-11
2.0232e-12
7.94764e-11
4.17981e-13
9.68108e-14
1.11034e-15
3.66014e-17
1.98384e-16
3.69891e-16
2.87749e-16
4.87733e-16
1.20512e-15
4.07961e-15
5.16471e-15
3.0781e-15
8.35558e-15
4.77431e-12
2.66715e-09
4.47433e-07
3.37663e-05
0.00188221
0.0708816
0.642063
0.741406
0.744409
0.909207
0.974249
0.999907
1
1
1
1
1
1
1
1
1
1
1
1
1
1
1
1
1
1
1
1
1
1
1
1.46184e-18
4.51327e-19
1.10621e-18
7.08842e-19
8.24444e-19
1.57285e-18
5.47637e-18
2.78986e-17
1.21602e-16
2.87991e-16
9.64669e-16
8.92738e-15
6.78988e-14
1.91611e-13
6.35313e-13
7.90734e-12
2.16333e-11
1.60609e-11
4.7662e-11
1.16296e-10
1.33506e-11
5.75778e-12
2.03729e-12
3.29746e-12
4.92948e-12
4.98675e-13
2.60462e-14
6.68215e-15
6.49029e-17
7.74261e-17
4.99017e-16
2.52881e-16
3.96311e-16
9.57174e-16
3.38639e-15
6.27152e-15
3.24342e-15
6.61361e-15
4.59604e-12
2.90094e-09
4.95929e-07
3.87981e-05
0.00237704
0.102685
0.800525
0.803245
0.749175
0.911864
0.970042
0.999762
1
1
1
1
1
1
1
1
1
1
1
1
1
1
1