/*--------------------------------*- C++ -*----------------------------------*\
| =========                 |                                                 |
| \\      /  F ield         | OpenFOAM: The Open Source CFD Toolbox           |
|  \\    /   O peration     | Version:  v2012                                 |
|   \\  /    A nd           | Website:  www.openfoam.com                      |
|    \\/     M anipulation  |                                                 |
\*---------------------------------------------------------------------------*/
FoamFile
{
    version     2.0;
    format      ascii;
    class       volScalarField;
    location    "12000";
    object      q3;
}
// * * * * * * * * * * * * * * * * * * * * * * * * * * * * * * * * * * * * * //

dimensions      [0 0 0 0 0 0 0];


internalField   nonuniform List<scalar> 
27324
(
2
2
2
2
2
2
2
2
2
2
2
2
2
2
2
2
2
2
2
2
2
2
2
2
2
2
2
2
2
2
2
2
2
2
2
2
2
2
2
2
2
2
2
2
2
2
2
2
2
2
2
2
2
2
2
2
2
2
2
2
2
2
2
2
2
2
2
2
2
2
2
2
2
2
2
2
2
2
2
2
2
2
2
2
2
2
2
2
2
2
2
2
2
2
2
2
2
2
2
2
2
2
2
2
2
2
2
2
2
2
2
2
2
2
2
2
2
2
2
2
2
2
2
2
2
2
2
2
2
2
2
2
2
2
2
2
2
2
2
2
2
2
2
2
2
2
2
2
2
2
2
2
2
2
2
2
2
2
2
2
2
2
2
2
2
2
2
2
2
2
2
2
2
2
2
2
2
2
2
2
2
2
2
2
2
2
2
2
2
2
2
2
2
2
2
2
2
2
2
2
2
2
2
2
2
2
2
2
2
1.71798
2
2
2
2
2
2
2
2
2
2
2
2
2
2
2
2
2
2
2
1.68681
1.51118
2
2
2
2
2
2
2
2
2
2
2
2
2
2
2
2
2
2
2
1.68055
1.45445
1.43125
2
2
2
2
2
2
2
2
2
2
2
2
2
2
2
2
2
2
2
1.68291
1.43349
1.34795
1.43919
2
2
2
2
2
2
2
2
2
2
2
2
2
2
2
2
2
2
2
1.68446
1.42818
1.30059
1.3447
1.48682
2
2
2
2
2
2
2
2
2
2
2
2
2
2
2
2
2
2
2
1.6806
1.43687
1.28251
1.2799
1.405
1.78369
2
2
2
2
2
2
2
2
2
2
2
2
2
2
2
2
2
2
2
1.67534
1.44481
1.28539
1.22445
1.32531
1.64099
2
2
2
2
2
2
2
2
2
2
2
2
2
2
2
2
2
2
2
2
1.67479
1.44801
1.29159
1.18886
1.24193
1.42127
2
2
2
2
2
2
2
2
2
2
2
2
2
2
2
2
2
2
2
2
2
1.67954
1.44325
1.29295
1.1678
1.12627
1.18371
1.59222
2
2
2
2
2
2
2
2
2
2
2
2
2
2
2
2
2
2
2
2
2
1.67845
1.42927
1.28511
1.11789
0.980661
0.964546
1.26325
2
2
2
2
2
2
2
2
2
2
2
2
2
2
2
2
2
2
2
2
2
1.98854
1.65478
1.38222
1.1939
0.998259
0.823425
0.787292
1.01643
1.70134
2
2
2
2
2
2
2
2
2
2
2
2
2
2
2
2
2
2
2
2
2
1.86624
1.53723
1.24693
1.02309
0.835603
0.70049
0.672059
0.84626
1.4123
2
2
2
2
2
2
2
2
2
2
2
2
2
2
2
2
2
2
2
2
2
1.92145
1.55862
1.26257
1.01815
0.846254
0.720833
0.63744
0.612095
0.728605
1.18168
2
2
2
2
2
2
2
2
2
2
2
2
2
2
2
2
2
2
2
2
2
2
1.59807
1.29211
1.05908
0.884805
0.756542
0.671344
0.613435
0.586342
0.648449
0.992426
1.88293
2
2
2
2
2
2
2
2
2
2
2
2
2
2
2
2
2
2
2
2
2
1.93404
1.50014
1.19989
0.989951
0.840317
0.730545
0.656755
0.610211
0.580612
0.597039
0.837009
1.55518
2
2
2
2
2
2
2
2
2
2
2
2
2
2
2
2
2
2
2
2
2
2
2
1.54817
1.21468
0.990243
0.840379
0.736214
0.663269
0.613962
0.581025
0.569126
0.717097
1.2803
2
2
2
2
2
2
2
2
2
2
2
2
2
2
2
2
2
2
2
2
2
2
2
2
1.65411
1.27935
1.0287
0.862791
0.752436
0.67578
0.621376
0.58379
0.55743
0.630909
1.05274
2
2
2
2
2
2
2
2
2
2
2
2
2
2
2
2
2
2
2
2
2
2
2
2
2
1.7685
1.35351
1.07469
0.891898
0.771888
0.689302
0.62946
0.586711
0.554434
0.574305
0.868055
1.78004
2
2
2
2
2
2
2
2
2
2
2
2
2
2
2
2
2
2
2
2
2
2
2
2
2
1.88505
1.43096
1.12347
0.921645
0.79129
0.703065
0.638405
0.590235
0.554695
0.543628
0.725721
1.44377
2
2
2
2
2
2
2
2
2
2
2
2
2
2
2
2
2
2
2
2
2
2
2
2
2
2
2
1.51098
1.17603
0.953578
0.811165
0.716962
0.648299
0.595577
0.556029
0.53008
0.624316
1.1662
2
2
2
2
2
2
2
2
2
2
2
2
2
2
2
2
2
2
2
2
2
2
2
2
2
2
2
2
1.59405
1.23253
0.9893
0.832988
0.731621
0.65907
0.602223
0.558482
0.525767
0.557854
0.941931
2
2
2
2
2
2
2
2
2
2
2
2
2
2
2
2
2
2
2
2
2
2
2
2
2
2
2
2
2
1.68186
1.29082
1.0285
0.857198
0.747309
0.670572
0.610376
0.562074
0.525453
0.520505
0.767495
1.69917
2
2
2
2
2
2
2
2
2
2
2
2
2
2
2
2
2
2
2
2
2
2
2
2
2
2
2
2
2
1.77599
1.34849
1.06948
0.883793
0.764146
0.68263
0.619596
0.567319
0.526538
0.502748
0.640942
1.35377
2
2
2
2
2
2
2
2
2
2
2
2
2
2
2
2
2
2
2
2
2
2
2
2
2
2
2
2
2
2
1.84407
1.40687
1.10984
0.912341
0.782492
0.695311
0.629643
0.574038
0.52878
0.496118
0.556138
1.07382
2
2
2
2
2
2
2
2
2
2
2
2
2
2
2
2
2
2
2
2
2
2
2
2
2
2
2
2
2
2
1.91189
1.84253
1.46431
1.14836
0.941479
0.802606
0.708885
0.640318
0.582189
0.532338
0.494678
0.505647
0.854118
2
2
2
2
2
2
2
2
2
2
2
2
2
2
2
2
2
2
2
2
2
2
2
2
2
2
2
2
2
2
2
1.69746
1.69835
1.51511
1.18651
0.969036
0.824329
0.7237
0.651622
0.591346
0.537411
0.495171
0.479337
0.690505
1.6329
2
2
2
2
2
2
2
2
2
2
2
2
2
2
2
2
2
2
2
2
2
2
2
2
2
2
2
2
2
2
2
1.60255
1.47974
1.47552
1.22666
0.993458
0.846591
0.7401
0.663643
0.601253
0.544075
0.496732
0.467793
0.577223
1.27699
2
2
2
2
2
2
2
2
2
2
2
2
2
2
2
2
2
2
2
2
2
2
2
2
2
2
2
2
2
2
2
2
1.57018
1.32
1.34897
1.2421
1.01638
0.867459
0.758145
0.676596
0.611705
0.551896
0.499801
0.463887
0.505753
0.994856
2
2
2
2
2
2
2
2
2
2
2
2
2
2
2
2
2
2
2
2
2
2
2
2
2
2
2
2
2
2
2
2
2
1.56437
1.25119
1.1716
1.21315
1.0374
0.885106
0.777148
0.690741
0.622637
0.560741
0.504302
0.46316
0.465132
0.780514
2
2
2
2
2
2
2
2
2
2
2
2
2
2
2
2
2
2
2
2
2
2
2
2
2
2
2
2
2
2
2
2
2
2
1.56148
1.22824
1.04225
1.10686
1.05383
0.899902
0.795279
0.706232
0.634165
0.570224
0.510347
0.463819
0.444658
0.627175
1.57269
2
2
2
2
2
2
2
2
2
2
2
2
2
2
2
2
2
2
2
2
2
2
2
2
2
2
2
2
2
2
2
2
2
2
1.55954
1.22416
0.985262
0.9618
1.02338
0.914457
0.810065
0.722792
0.646542
0.580199
0.51763
0.465824
0.435724
0.526072
1.20626
2
2
2
2
2
2
2
2
2
2
2
2
2
2
2
2
2
2
2
2
2
2
2
2
2
2
2
2
2
2
2
2
2
2
2
1.5606
1.22276
0.964923
0.848483
0.944477
0.920657
0.820855
0.739344
0.660055
0.590634
0.525963
0.469209
0.432594
0.465139
0.923152
2
2
2
2
2
2
2
2
2
2
2
2
2
2
2
2
2
2
2
2
2
2
2
2
2
2
2
2
2
2
2
2
2
2
2
2
1.56314
1.22379
0.962619
0.794356
0.823675
0.908012
0.829835
0.753792
0.674847
0.601741
0.534878
0.474182
0.431988
0.431639
0.715878
2
2
2
2
2
2
2
2
2
2
2
2
2
2
2
2
2
2
2
2
2
2
2
2
2
2
2
2
2
2
2
2
2
2
2
2
2
1.56682
1.22632
0.962246
0.774088
0.716043
0.848569
0.836105
0.764066
0.690596
0.613773
0.544218
0.480579
0.43246
0.415049
0.574675
1.53858
2
2
2
2
2
2
2
2
2
2
2
2
2
2
2
2
2
2
2
2
2
2
2
2
2
2
2
2
2
2
2
2
2
2
2
2
2
1.5711
1.22969
0.963678
0.771796
0.6561
0.751062
0.829386
0.770758
0.706068
0.627008
0.554036
0.487811
0.43513
0.407953
0.486739
1.15473
2
2
2
2
2
2
2
2
2
2
2
2
2
2
2
2
2
2
2
2
2
2
2
2
2
2
2
2
2
2
2
2
2
2
2
2
2
2
1.57555
1.23324
0.96577
0.772065
0.631953
0.646498
0.791143
0.776465
0.718988
0.641603
0.564468
0.495605
0.439143
0.405424
0.436773
0.866238
2
2
2
2
2
2
2
2
2
2
2
2
2
2
2
2
2
2
2
2
2
2
2
2
2
2
2
2
2
2
2
2
2
2
2
2
2
2
2
1.57985
1.23633
0.968085
0.77247
0.625933
0.574086
0.71817
0.776045
0.727634
0.657268
0.575739
0.503811
0.444604
0.404923
0.410954
0.663546
2
2
2
2
2
2
2
2
2
2
2
2
2
2
2
2
2
2
2
2
2
2
2
2
2
2
2
2
2
2
2
2
2
2
2
2
2
2
2
2
1.58361
1.23891
0.970026
0.773134
0.625166
0.539983
0.6222
0.76096
0.733151
0.672807
0.588097
0.512471
0.451028
0.407355
0.39908
0.533615
1.5544
2
2
2
2
2
2
2
2
2
2
2
2
2
2
2
2
2
2
2
2
2
2
2
2
2
2
2
2
2
2
2
2
2
2
2
2
2
2
2
2
1.58648
1.24123
0.971505
0.774366
0.625008
0.526564
0.537209
0.713192
0.737759
0.686028
0.601763
0.521676
0.458089
0.411625
0.39435
0.459155
1.13792
2
2
2
2
2
2
2
2
2
2
2
2
2
2
2
2
2
2
2
2
2
2
2
2
2
2
2
2
2
2
2
2
2
2
2
2
2
2
2
2
2
1.58886
1.24357
0.972848
0.775767
0.625895
0.524824
0.485617
0.637837
0.734785
0.695185
0.616671
0.531562
0.465737
0.417671
0.392808
0.421086
0.830985
2
2
2
2
2
2
2
2
2
2
2
2
2
2
2
2
2
2
2
2
2
2
2
2
2
2
2
2
2
2
2
2
2
2
2
2
2
2
2
2
2
2
1.59026
1.24573
0.97448
0.777171
0.627339
0.525039
0.462682
0.549295
0.716086
0.701107
0.63197
0.542348
0.473989
0.424489
0.392726
0.403584
0.624287
2
2
2
2
2
2
2
2
2
2
2
2
2
2
2
2
2
2
2
2
2
2
2
2
2
2
2
2
2
2
2
2
2
2
2
2
2
2
2
2
2
2
2
1.59172
1.24774
0.976642
0.778671
0.629163
0.525636
0.454622
0.476914
0.667178
0.705917
0.645827
0.554384
0.482788
0.432036
0.397915
0.39652
0.501925
1.66784
2
2
2
2
2
2
2
2
2
2
2
2
2
2
2
2
2
2
2
2
2
2
2
2
2
2
2
2
2
2
2
2
2
2
2
2
2
2
2
2
2
2
2
1.59307
1.24974
0.979156
0.780449
0.630968
0.526905
0.453823
0.434384
0.594476
0.703395
0.65618
0.567991
0.492245
0.440482
0.40389
0.393866
0.440033
1.17152
2
2
2
2
2
2
2
2
2
2
2
2
2
2
2
2
2
2
2
2
2
2
2
2
2
2
2
2
2
2
2
2
2
2
2
2
2
2
2
2
2
2
2
2
1.59388
1.25169
0.981617
0.782487
0.632578
0.528408
0.453978
0.415256
0.512833
0.686296
0.663342
0.583096
0.502515
0.449689
0.411621
0.394735
0.41354
0.82136
2
2
2
2
2
2
2
2
2
2
2
2
2
2
2
2
2
2
2
2
2
2
2
2
2
2
2
2
2
2
2
2
2
2
2
2
2
2
2
2
2
2
2
2
2
1.59465
1.25321
0.98368
0.784598
0.634004
0.529818
0.454819
0.408736
0.446017
0.64168
0.669064
0.598531
0.513823
0.459637
0.420444
0.398774
0.402907
0.600422
2
2
2
2
2
2
2
2
2
2
2
2
2
2
2
2
2
2
2
2
2
2
2
2
2
2
2
2
2
2
2
2
2
2
2
2
2
2
2
2
2
2
2
2
2
2
1.59574
1.25319
0.985193
0.786472
0.635338
0.530938
0.456075
0.408083
0.40511
0.576027
0.669828
0.612287
0.526399
0.470313
0.4303
0.404918
0.398478
0.485743
1.91665
2
2
2
2
2
2
2
2
2
2
2
2
2
2
2
2
2
2
2
2
2
2
2
2
2
2
2
2
2
2
2
2
2
2
2
2
2
2
2
2
2
2
2
2
2
2
1.59706
1.25254
0.985649
0.787916
0.636772
0.53183
0.457643
0.408461
0.3852
0.501118
0.659224
0.62272
0.540434
0.481773
0.441076
0.412861
0.397143
0.439437
1.25859
2
2
2
2
2
2
2
2
2
2
2
2
2
2
2
2
2
2
2
2
2
2
2
2
2
2
2
2
2
2
2
2
2
2
2
2
2
2
2
2
2
2
2
2
2
2
2
1.59886
1.25206
0.985695
0.789036
0.638355
0.532672
0.459114
0.409225
0.37683
0.43665
0.623204
0.629807
0.555983
0.494201
0.452766
0.42225
0.399912
0.423958
0.818572
2
2
2
2
2
2
2
2
2
2
2
2
2
2
2
2
2
2
2
2
2
2
2
2
2
2
2
2
2
2
2
2
2
2
2
2
2
2
2
2
2
2
2
2
2
2
2
2
1.6016
1.25224
0.985394
0.790076
0.639792
0.533712
0.460359
0.4105
0.375378
0.392773
0.568653
0.635443
0.572934
0.507742
0.465362
0.432932
0.404629
0.418168
0.579861
2
2
2
2
2
2
2
2
2
2
2
2
2
2
2
2
2
2
2
2
2
2
2
2
2
2
2
2
2
2
2
2
2
2
2
2
2
2
2
2
2
2
2
2
2
2
2
2
2
1.60518
1.25313
0.985455
0.789978
0.640864
0.535163
0.461363
0.411954
0.375481
0.368414
0.505759
0.62709
0.589262
0.522476
0.478907
0.444745
0.411701
0.415571
0.492659
2
2
2
2
2
2
2
2
2
2
2
2
2
2
2
2
2
2
2
2
2
2
2
2
2
2
2
2
2
2
2
2
2
2
2
2
2
2
2
2
2
2
2
2
2
2
2
2
2
2
1.6083
1.25596
0.986247
0.789552
0.64173
0.53691
0.462193
0.413029
0.37591
0.356567
0.44562
0.606582
0.602967
0.538358
0.493496
0.457671
0.42033
0.415605
0.471971
1.33077
2
2
2
2
2
2
2
2
2
2
2
2
2
2
2
2
2
2
2
2
2
2
2
2
2
2
2
2
2
2
2
2
2
2
2
2
2
2
2
2
2
2
2
2
2
2
2
2
2
2
1.61089
1.2589
0.987508
0.788888
0.642094
0.538525
0.462954
0.41367
0.377784
0.353187
0.399434
0.568069
0.61078
0.555969
0.509274
0.471683
0.430471
0.418127
0.466303
0.821165
2
2
2
2
2
2
2
2
2
2
2
2
2
2
2
2
2
2
2
2
2
2
2
2
2
2
2
2
2
2
2
2
2
2
2
2
2
2
2
2
2
2
2
2
2
2
2
2
2
2
2
1.61216
1.26097
0.988931
0.788783
0.64202
0.539762
0.463855
0.414017
0.379673
0.35285
0.369746
0.520027
0.612188
0.576194
0.526335
0.486787
0.441986
0.422855
0.462833
0.731729
2
2
2
2
2
2
2
2
2
2
2
2
2
2
2
2
2
2
2
2
2
2
2
2
2
2
2
2
2
2
2
2
2
2
2
2
2
2
2
2
2
2
2
2
2
2
2
2
2
2
2
2
1.61306
1.26247
0.99106
0.789145
0.641448
0.540624
0.46487
0.414388
0.381118
0.354144
0.353724
0.470082
0.597778
0.597205
0.544489
0.503011
0.454778
0.429646
0.461791
0.719687
2
2
2
2
2
2
2
2
2
2
2
2
2
2
2
2
2
2
2
2
2
2
2
2
2
2
2
2
2
2
2
2
2
2
2
2
2
2
2
2
2
2
2
2
2
2
2
2
2
2
2
2
2
1.61416
1.26297
0.992787
0.789919
0.641192
0.540835
0.46586
0.414844
0.382132
0.358096
0.346758
0.426582
0.572347
0.615557
0.563641
0.520443
0.468782
0.438298
0.462526
0.709526
2
2
2
2
2
2
2
2
2
2
2
2
2
2
2
2
2
2
2
2
2
2
2
2
2
2
2
2
2
2
2
2
2
2
2
2
2
2
2
2
2
2
2
2
2
2
2
2
2
2
2
2
2
2
1.61572
1.2636
0.994093
0.791539
0.64141
0.540154
0.466532
0.416191
0.383001
0.36302
0.345101
0.39551
0.54125
0.627326
0.584339
0.539264
0.484006
0.448439
0.464962
0.702949
2
2
2
2
2
2
2
2
2
2
2
2
2
2
2
2
2
2
2
2
2
2
2
2
2
2
2
2
2
2
2
2
2
2
2
2
2
2
2
2
2
2
2
2
2
2
2
2
2
2
2
2
2
2
2
1.61748
1.26451
0.995056
0.792854
0.642063
0.539278
0.466928
0.418277
0.383991
0.368236
0.346778
0.377293
0.502234
0.628485
0.607142
0.559613
0.50047
0.459799
0.469435
0.700613
2
2
2
2
2
2
2
2
2
2
2
2
2
2
2
2
2
2
2
2
2
2
2
2
2
2
2
2
2
2
2
2
2
2
2
2
2
2
2
2
2
2
2
2
2
2
2
2
2
2
2
2
2
2
2
2
1.61883
1.26562
0.996221
0.793634
0.643229
0.538692
0.4668
0.420978
0.385437
0.372735
0.350241
0.36842
0.465189
0.61415
0.632325
0.581345
0.518161
0.472322
0.476218
0.705266
2
2
2
2
2
2
2
2
2
2
2
2
2
2
2
2
2
2
2
2
2
2
2
2
2
2
2
2
2
2
2
2
2
2
2
2
2
2
2
2
2
2
2
2
2
2
2
2
2
2
2
2
2
2
2
2
2
1.61994
1.26651
0.997871
0.793764
0.644223
0.538874
0.466554
0.423949
0.387512
0.376893
0.357757
0.36594
0.436006
0.593264
0.655341
0.604306
0.537102
0.485982
0.484958
0.713052
2
2
2
2
2
2
2
2
2
2
2
2
2
2
2
2
2
2
2
2
2
2
2
2
2
2
2
2
2
2
2
2
2
2
2
2
2
2
2
2
2
2
2
2
2
2
2
2
2
2
2
2
2
2
2
2
2
2
1.62182
1.26635
0.999763
0.794188
0.644958
0.53986
0.466606
0.4268
0.390608
0.381485
0.366386
0.36716
0.418606
0.567459
0.671763
0.62845
0.55742
0.500805
0.495471
0.725211
2
2
2
2
2
2
2
2
2
2
2
2
2
2
2
2
2
2
2
2
2
2
2
2
2
2
2
2
2
2
2
2
2
2
2
2
2
2
2
2
2
2
2
2
2
2
2
2
2
2
2
2
2
2
2
2
2
2
2
1.62629
1.26604
1.00141
0.795235
0.644863
0.542564
0.467337
0.42906
0.395124
0.386929
0.376045
0.373957
0.410429
0.536053
0.676813
0.65434
0.579252
0.516837
0.507593
0.740931
2
2
2
2
2
2
2
2
2
2
2
2
2
2
2
2
2
2
2
2
2
2
2
2
2
2
2
2
2
2
2
2
2
2
2
2
2
2
2
2
2
2
2
2
2
2
2
2
2
2
2
2
2
2
2
2
2
2
2
2
1.63284
1.26692
1.00107
0.797274
0.645221
0.544175
0.469733
0.43126
0.401367
0.393633
0.386336
0.383308
0.409756
0.504829
0.670602
0.68221
0.602567
0.53415
0.521149
0.759711
2
2
2
2
2
2
2
2
2
2
2
2
2
2
2
2
2
2
2
2
2
2
2
2
2
2
2
2
2
2
2
2
2
2
2
2
2
2
2
2
2
2
2
2
2
2
2
2
2
2
2
2
2
2
2
2
2
2
2
2
2
1.63765
1.27026
0.999144
0.799077
0.647264
0.544844
0.474013
0.4348
0.409182
0.401651
0.397452
0.395416
0.411303
0.481718
0.654633
0.709004
0.627309
0.552876
0.535773
0.781013
2
2
2
2
2
2
2
2
2
2
2
2
2
2
2
2
2
2
2
2
2
2
2
2
2
2
2
2
2
2
2
2
2
2
2
2
2
2
2
2
2
2
2
2
2
2
2
2
2
2
2
2
2
2
2
2
2
2
2
2
2
2
1.63704
1.2757
0.998329
0.79969
0.65322
0.544977
0.480621
0.440058
0.418317
0.411225
0.409887
0.408878
0.415146
0.465882
0.634785
0.729224
0.653271
0.573076
0.551165
0.805061
2
2
2
2
2
2
2
2
2
2
2
2
2
2
2
2
2
2
2
2
2
2
2
2
2
2
2
2
2
2
2
2
2
2
2
2
2
2
2
2
2
2
2
2
2
2
2
2
2
2
2
2
2
2
2
2
2
2
2
2
2
2
2
1.63276
1.27947
1.00275
0.798744
0.661064
0.5477
0.489224
0.447615
0.42886
0.423275
0.423642
0.423462
0.423473
0.457275
0.609803
0.738924
0.680699
0.594819
0.566982
0.831246
2
2
2
2
2
2
2
2
2
2
2
2
2
2
2
2
2
2
2
2
2
2
2
2
2
2
2
2
2
2
2
2
2
2
2
2
2
2
2
2
2
2
2
2
2
2
2
2
2
2
2
2
2
2
2
2
2
2
2
2
2
2
2
2
1.63238
1.27869
1.01552
0.798453
0.669855
0.5546
0.498717
0.457899
0.442142
0.437704
0.438815
0.439038
0.435139
0.458909
0.5799
0.739867
0.709682
0.617961
0.583453
0.858301
2
2
2
2
2
2
2
2
2
2
2
2
2
2
2
2
2
2
2
2
2
2
2
2
2
2
2
2
2
2
2
2
2
2
2
2
2
2
2
2
2
2
2
2
2
2
2
2
2
2
2
2
2
2
2
2
2
2
2
2
2
2
2
2
2
1.65201
1.27718
1.02981
0.804661
0.677953
0.565635
0.509725
0.472622
0.458284
0.454445
0.455479
0.455489
0.449289
0.462103
0.550031
0.733463
0.737639
0.641601
0.599555
0.885001
2
2
2
2
2
2
2
2
2
2
2
2
2
2
2
2
2
2
2
2
2
2
2
2
2
2
2
2
2
2
2
2
2
2
2
2
2
2
2
2
2
2
2
2
2
2
2
2
2
2
2
2
2
2
2
2
1.49469
2
2
2
2
2
2
2
2
2
1.67576
1.28335
1.04132
0.818249
0.688103
0.5828
0.526187
0.491694
0.477436
0.473418
0.473664
0.472704
0.465048
0.467919
0.523708
0.720215
0.760053
0.664065
0.614974
0.911986
2
2
2
2
2
2
2
2
2
2
2
2
2
2
2
2
2
2
2
2
2
2
2
2
2
2
2
2
2
2
2
2
2
2
2
2
2
2
2
2
2
2
2
2
2
2
2
2
2
2
2
2
2
2
2
2
2
1.28259
1.25578
2
2
2
2
2
2
2
2
1.69655
1.31101
1.05741
0.844538
0.707994
0.608058
0.54902
0.514941
0.499608
0.494546
0.493314
0.490593
0.481149
0.47425
0.50485
0.701916
0.774297
0.684084
0.629624
0.939938
2
2
2
2
2
2
2
2
2
2
2
2
2
2
2
2
2
2
2
2
2
2
2
2
2
2
2
2
2
2
2
2
2
2
2
2
2
2
2
2
2
2
2
2
2
2
2
2
2
2
2
2
2
2
2
2
2
2
1.28193
1.27557
1.00195
2
2
2
2
2
2
2
1.76005
1.37669
1.09845
0.887892
0.742543
0.641315
0.578011
0.541968
0.524564
0.517625
0.514193
0.508865
0.496702
0.482315
0.492758
0.666064
0.780274
0.7008
0.644248
0.969899
2
2
2
2
2
2
2
2
2
2
2
2
2
2
2
2
2
2
2
2
2
2
2
2
2
2
2
2
2
2
2
2
2
2
2
2
2
2
2
2
2
2
2
2
2
2
2
2
2
2
2
2
2
2
2
2
2
2
2
1.2858
1.28541
1.00836
0.903447
2
2
2
2
2
2
1.90609
1.48349
1.17454
0.949715
0.79009
0.681243
0.611966
0.572174
0.551825
0.542204
0.535771
0.526884
0.510895
0.491464
0.485788
0.624832
0.783106
0.713766
0.659743
1.00235
2
2
2
2
2
2
2
2
2
2
2
2
2
2
2
2
2
2
2
2
2
2
2
2
2
2
2
2
2
2
2
2
2
2
2
2
2
2
2
2
2
2
2
2
2
2
2
2
2
2
2
2
1.8086
2
2
2
2
2
2
2
1.28372
1.2991
1.01758
0.910762
0.873016
2
2
2
2
2
2
1.62761
1.2762
1.0243
0.846577
0.726081
0.649291
0.604631
0.580575
0.567453
0.557072
0.543544
0.523245
0.499953
0.480469
0.58202
0.769961
0.721538
0.676859
1.03803
2
2
2
2
2
2
2
2
2
2
2
2
2
2
2
2
2
2
2
2
2
2
2
2
2
2
2
2
2
2
2
2
2
2
2
2
2
2
2
2
2
2
2
2
2
2
2
2
2
2
2
2
1.83601
1.45137
2
2
2
2
2
2
2
1.29003
1.31265
1.02631
0.917448
0.881887
0.862174
2
2
2
2
2
1.78039
1.38545
1.10325
0.905572
0.772441
0.687688
0.637744
0.60936
0.591887
0.576531
0.55727
0.533623
0.506602
0.478405
0.542048
0.743129
0.72682
0.695618
1.07722
2
2
2
2
2
2
2
2
2
2
2
2
2
2
2
2
2
2
2
2
2
2
2
2
2
2
2
2
2
2
2
2
2
2
2
2
2
2
2
2
2
2
2
2
2
2
2
2
2
2
2
2
1.85709
1.4739
1.14556
2
2
2
2
2
2
2
1.29341
1.32547
1.0337
0.92468
0.8892
0.870904
0.855666
2
2
2
2
1.88244
1.47101
1.16984
0.957601
0.814663
0.723462
0.66875
0.63579
0.613258
0.592051
0.568357
0.541366
0.510899
0.477964
0.50854
0.701653
0.729918
0.715323
1.11967
2
2
2
2
2
2
2
2
2
2
2
2
2
2
2
2
2
2
2
2
2
2
2
2
2
2
2
2
2
2
2
2
2
2
2
2
2
2
2
2
2
2
2
2
2
2
2
2
2
2
2
2
1.87792
1.49082
1.164
0.882525
2
2
2
2
2
2
2
1.29997
1.33597
1.03994
0.931567
0.896988
0.878424
0.863602
0.84961
2
2
2
1.84329
1.48425
1.1977
0.987915
0.844089
0.750995
0.693527
0.65651
0.628799
0.603199
0.576393
0.546228
0.51297
0.477799
0.482671
0.652444
0.731468
0.735034
1.16493
2
2
2
2
2
2
2
2
2
2
2
2
2
2
2
2
2
2
2
2
2
2
2
2
2
2
2
2
2
2
2
2
2
2
2
2
2
2
2
2
2
2
2
2
2
2
2
2
2
2
2
2
1.89822
1.50765
1.17749
0.897507
0.654817
2
2
2
2
2
2
2
1.30701
1.34233
1.04481
0.938273
0.904452
0.886456
0.871146
0.856375
0.84052
1.51941
1.70954
1.59972
1.37912
1.15863
0.980004
0.850733
0.763794
0.707475
0.66818
0.638309
0.610673
0.581152
0.548487
0.513461
0.477453
0.463625
0.599235
0.728668
0.753429
1.21281
2
2
2
2
2
2
2
2
2
2
2
2
2
2
2
2
2
2
2
2
2
2
2
2
2
2
2
2
2
2
2
2
2
2
2
2
2
2
2
2
2
2
2
2
2
2
2
2
2
2
2
2
1.91833
1.52399
1.19103
0.908171
0.666833
0.456125
2
2
2
2
2
2
2
1.31242
1.34434
1.0483
0.945135
0.911802
0.894311
0.878881
0.863636
0.846791
0.828812
1.1073
1.21288
1.16293
1.04719
0.927573
0.829639
0.758231
0.708627
0.673031
0.643486
0.614505
0.58315
0.54895
0.513125
0.476938
0.451012
0.549034
0.721162
0.768958
1.26256
2
2
2
2
2
2
2
2
2
2
2
2
2
2
2
2
2
2
2
2
2
2
2
2
2
2
2
2
2
2
2
2
2
2
2
2
2
2
2
2
2
2
2
2
2
2
2
2
2
2
2
2
1.93807
1.54015
1.20416
0.918987
0.675158
0.465509
0.282104
2
2
2
2
2
2
2
1.31942
1.34009
1.05232
0.951196
0.918994
0.901927
0.886486
0.871041
0.853804
0.835095
0.811475
0.899975
0.938402
0.910712
0.853099
0.793197
0.743314
0.704563
0.673493
0.645185
0.615682
0.583372
0.548523
0.512505
0.476346
0.444496
0.50504
0.69533
0.780031
1.31353
2
2
2
2
2
2
2
2
2
2
2
2
2
2
2
2
2
2
2
2
2
2
2
2
2
2
2
2
2
2
2
2
2
2
2
2
2
2
2
2
2
2
2
2
2
2
2
2
2
2
2
2
1.95744
1.55595
1.21711
0.929451
0.683687
0.47186
0.28898
0.132527
2
2
2
2
2
2
2
1.32696
1.33363
1.05568
0.957001
0.925687
0.909067
0.893946
0.878454
0.860859
0.842005
0.817513
0.792424
0.806392
0.809236
0.789943
0.759098
0.727414
0.698528
0.671872
0.644915
0.615461
0.582844
0.547816
0.511823
0.475625
0.441332
0.469664
0.657877
0.788716
1.36624
2
2
2
2
2
2
2
2
2
2
2
2
2
2
2
2
2
2
2
2
2
2
2
2
2
2
2
2
2
2
2
2
2
2
2
2
2
2
2
2
2
2
2
2
2
2
2
2
2
2
2
2
1.97634
1.57136
1.22973
0.939749
0.691926
0.478428
0.293554
0.136766
0.0342364
2
2
2
2
2
2
2
1.33438
1.32356
1.06051
0.962188
0.93193
0.915838
0.90098
0.885738
0.867904
0.848867
0.82408
0.798515
0.771969
0.763336
0.753497
0.736499
0.715654
0.693405
0.669941
0.644115
0.614873
0.582145
0.546967
0.510899
0.474845
0.439691
0.443211
0.611717
0.795074
1.4183
2
2
2
2
2
2
2
2
2
2
2
2
2
2
2
2
2
2
2
2
2
2
2
2
2
2
2
2
2
2
2
2
2
2
2
2
2
2
2
2
2
2
2
2
2
2
2
2
2
2
2
2
1.99482
1.58635
1.24202
0.949777
0.700042
0.484775
0.298327
0.139548
0.0354297
0.00284321
2
2
2
2
2
2
2
1.34219
1.31375
1.06511
0.967712
0.937582
0.922167
0.907898
0.892664
0.874838
0.855636
0.830487
0.804725
0.777861
0.754259
0.73962
0.725939
0.7094
0.690502
0.668778
0.643555
0.614177
0.581195
0.545869
0.509854
0.474037
0.43873
0.424486
0.561266
0.798798
1.46592
2
2
2
2
2
2
2
2
2
2
2
2
2
2
2
2
2
2
2
2
2
2
2
2
2
2
2
2
2
2
2
2
2
2
2
2
2
2
2
2
2
2
2
2
2
2
2
2
2
2
2
2
2
1.60092
1.25391
0.959518
0.707931
0.491023
0.302946
0.142495
0.036211
0.00292362
2
2
2
2
2
2
2
1.34962
1.30929
1.0702
0.972882
0.943368
0.9281
0.914402
0.899237
0.881563
0.862354
0.836843
0.810678
0.783698
0.760191
0.738757
0.722442
0.707043
0.689392
0.66821
0.642965
0.613308
0.580025
0.54461
0.508793
0.473329
0.438092
0.41221
0.512164
0.790855
1.50509
2
2
2
2
2
2
2
2
2
2
2
2
2
2
2
2
2
2
2
2
2
2
2
2
2
2
2
2
2
2
2
2
2
2
2
2
2
2
2
2
2
2
2
2
2
2
2
2
2
2
2
2
2
1.61503
1.2654
0.968926
0.715593
0.497104
0.307499
0.14536
0.0370456
0.00297582
2
2
2
2
2
2
2
1.34958
1.31002
1.07586
0.978277
0.948695
0.934014
0.920594
0.90558
0.888076
0.868871
0.843171
0.816553
0.78925
0.765742
0.744479
0.724323
0.706599
0.689209
0.667988
0.642332
0.612202
0.578674
0.543369
0.507876
0.472744
0.437615
0.406198
0.469238
0.766633
1.53534
2
2
2
2
2
2
2
2
2
2
2
2
2
2
2
2
2
2
2
2
2
2
2
2
2
2
2
2
2
2
2
2
2
2
2
2
2
2
2
2
2
2
2
2
2
2
2
2
2
2
2
2
2
1.62856
1.27645
0.977978
0.722983
0.503008
0.311936
0.148197
0.0378598
0.00303124
2
2
2
2
2
2
2
1.34772
1.31502
1.08143
0.984265
0.954228
0.939634
0.926716
0.911819
0.894409
0.87525
0.849456
0.822417
0.79472
0.771058
0.749859
0.72998
0.709367
0.689382
0.667819
0.641611
0.611042
0.577346
0.542279
0.507099
0.472231
0.437236
0.403541
0.434999
0.725001
1.56044
2
2
2
2
2
2
2
2
2
2
2
2
2
2
2
2
2
2
2
2
2
2
2
2
2
2
2
2
2
2
2
2
2
2
2
2
2
2
2
2
2
2
2
2
2
2
2
2
2
2
2
2
2
1.64145
1.28695
0.986633
0.730078
0.508702
0.316248
0.150972
0.0386682
0.00308455
2
2
2
2
2
2
2
1.35011
1.32364
1.0871
0.99026
0.960412
0.945511
0.932667
0.917951
0.900662
0.881583
0.855763
0.828323
0.800289
0.776246
0.755016
0.735323
0.715053
0.692168
0.667652
0.640878
0.609926
0.576147
0.541329
0.506407
0.471822
0.436922
0.402388
0.409904
0.673867
1.57915
2
2
2
2
2
2
2
2
2
2
2
2
2
2
2
2
2
2
2
2
2
2
2
2
2
2
2
2
2
2
2
2
2
2
2
2
2
2
2
2
2
2
2
2
2
2
2
2
2
2
2
2
2
1.65361
1.29684
0.994823
0.736823
0.514158
0.320412
0.15368
0.0394605
0.00313695
2
2
2
2
2
2
2
1.3461
1.33541
1.09202
0.996784
0.966678
0.951545
0.938843
0.923949
0.906847
0.88794
0.862191
0.83449
0.806024
0.78158
0.760104
0.740501
0.720533
0.697889
0.670041
0.640209
0.608896
0.575061
0.540447
0.505873
0.471485
0.436643
0.401789
0.392708
0.616939
1.58928
2
2
2
2
2
2
2
2
2
2
2
2
2
2
2
2
2
2
2
2
2
2
2
2
2
2
2
2
2
2
2
2
2
2
2
2
2
2
2
2
2
2
2
2
2
2
2
2
2
2
2
2
2
1.66504
1.30606
1.00247
0.74317
0.519338
0.324411
0.156307
0.040235
0.00318758
2
2
2
2
2
2
2
1.34017
1.34803
1.09751
1.00371
0.973201
0.9577
0.945225
0.93018
0.913128
0.894398
0.868779
0.840938
0.812077
0.787201
0.76535
0.745714
0.726018
0.703612
0.675929
0.642038
0.607932
0.574023
0.53968
0.505443
0.471194
0.436362
0.401368
0.381797
0.562119
1.58375
2
2
2
2
2
2
2
2
2
2
2
2
2
2
2
2
2
2
2
2
2
2
2
2
2
2
2
2
2
2
2
2
2
2
2
2
2
2
2
2
2
2
2
2
2
2
2
2
2
2
2
2
2
1.67565
1.31455
1.00952
0.749088
0.524208
0.328204
0.158836
0.0409863
0.00323637
2
2
2
2
2
2
2
1.34033
1.35946
1.1009
1.01099
0.980291
0.964291
0.95168
0.936445
0.919592
0.900999
0.875478
0.84765
0.818375
0.793141
0.77094
0.751092
0.731565
0.709459
0.681986
0.647845
0.609303
0.573124
0.539016
0.505085
0.470901
0.436059
0.400964
0.377006
0.51662
1.54388
2
2
2
2
2
2
2
2
2
2
2
2
2
2
2
2
2
2
2
2
2
2
2
2
2
2
2
2
2
2
2
2
2
2
2
2
2
2
2
2
2
2
2
2
2
2
2
2
2
2
2
2
2
1.68536
1.32229
1.01593
0.754506
0.528739
0.331775
0.161245
0.0417104
0.00328294
2
2
2
2
2
2
2
1.33586
1.36765
1.10291
1.01835
0.988018
0.971357
0.958292
0.942761
0.926067
0.90768
0.882295
0.854517
0.825123
0.799415
0.776889
0.756778
0.737288
0.715431
0.688133
0.653943
0.614997
0.574482
0.538458
0.504741
0.470605
0.435668
0.400483
0.375351
0.482789
1.46418
2
2
2
2
2
2
2
2
2
2
2
2
2
2
2
2
2
2
2
2
2
2
2
2
2
2
2
2
2
2
2
2
2
2
2
2
2
2
2
2
2
2
2
2
2
2
2
2
2
2
2
2
2
1.69404
1.32917
1.02162
0.759386
0.532883
0.3351
0.163518
0.0423981
0.0033269
2
2
2
2
2
2
2
1.33455
1.37045
1.10596
1.02541
0.995648
0.978771
0.965406
0.949423
0.932553
0.914355
0.889135
0.861459
0.832123
0.806281
0.783127
0.762802
0.743186
0.721527
0.694486
0.660214
0.620969
0.579958
0.540001
0.504361
0.470222
0.435164
0.399898
0.375086
0.461074
1.36544
2
2
2
2
2
2
2
2
2
2
2
2
2
2
2
2
2
2
2
2
2
2
2
2
2
2
2
2
2
2
2
2
2
2
2
2
2
2
2
2
2
2
2
2
2
2
2
2
2
2
2
2
2
1.70162
1.33508
1.02653
0.763651
0.536603
0.338143
0.165639
0.0430437
0.00336764
2
2
2
2
2
2
2
1.33983
1.36642
1.10706
1.0324
1.00316
0.986101
0.972792
0.956433
0.939243
0.921132
0.896009
0.868492
0.83936
0.813414
0.790147
0.769212
0.749374
0.727704
0.700933
0.666675
0.627034
0.585345
0.545012
0.505947
0.469747
0.434456
0.399251
0.37549
0.449695
1.25615
2
2
2
2
2
2
2
2
2
2
2
2
2
2
2
2
2
2
2
2
2
2
2
2
2
2
2
2
2
2
2
2
2
2
2
2
2
2
2
2
2
2
2
2
2
2
2
2
2
2
2
2
2
1.70811
1.33994
1.03055
0.76723
0.539818
0.340877
0.167584
0.0436428
0.00340484
2
2
2
2
2
2
2
1.34586
1.35815
1.11007
1.03843
1.01054
0.993299
0.980079
0.96337
0.946136
0.928051
0.902889
0.875508
0.846668
0.820866
0.797445
0.776227
0.755994
0.733957
0.707447
0.673073
0.633042
0.590625
0.549836
0.510352
0.470908
0.433622
0.398668
0.376274
0.446876
1.15735
2
2
2
2
2
2
2
2
2
2
2
2
2
2
2
2
2
2
2
2
2
2
2
2
2
2
2
2
2
2
2
2
2
2
2
2
2
2
2
2
2
2
2
2
2
2
2
2
2
2
2
2
2
1.71342
1.34375
1.03361
0.770059
0.54246
0.343228
0.169332
0.0441872
0.00343815
2
2
2
2
2
2
2
1.35001
1.34849
1.11455
1.04392
1.01741
1.00027
0.98724
0.970158
0.952939
0.934804
0.909735
0.882441
0.853904
0.828368
0.804967
0.783458
0.76275
0.74027
0.713829
0.679311
0.638899
0.595825
0.55441
0.514494
0.474629
0.434514
0.398232
0.377363
0.451969
1.08128
2
2
2
2
2
2
2
2
2
2
2
2
2
2
2
2
2
2
2
2
2
2
2
2
2
2
2
2
2
2
2
2
2
2
2
2
2
2
2
2
2
2
2
2
2
2
2
2
2
2
2
2
2
1.71741
1.34644
1.03572
0.772092
0.544507
0.345151
0.170831
0.0446679
0.00346697
2
2
2
2
2
2
2
1.3525
1.34016
1.11953
1.04929
1.02372
1.00666
0.994311
0.976883
0.959452
0.941194
0.916203
0.889288
0.860866
0.835717
0.812478
0.790768
0.769538
0.746576
0.719914
0.685346
0.64454
0.600788
0.558619
0.518275
0.478344
0.438143
0.399522
0.378711
0.461376
1.03446
2
2
2
2
2
2
2
2
2
2
2
2
2
2
2
2
2
2
2
2
2
2
2
2
2
2
2
2
2
2
2
2
2
2
2
2
2
2
2
2
2
2
2
2
2
2
2
2
2
2
2
2
2
1.72001
1.34796
1.03682
0.773286
0.545908
0.346626
0.172046
0.0450684
0.00349069
2
2
2
2
2
2
2
1.35253
1.33643
1.12492
1.05443
1.0299
1.01305
1.00084
0.983368
0.965758
0.947323
0.922255
0.895505
0.867563
0.842647
0.819786
0.797977
0.776285
0.752716
0.725616
0.690806
0.649661
0.605429
0.562474
0.521961
0.482253
0.441943
0.403176
0.381977
0.47311
1.01616
2
2
2
2
2
2
2
2
2
2
2
2
2
2
2
2
2
2
2
2
2
2
2
2
2
2
2
2
2
2
2
2
2
2
2
2
2
2
2
2
2
2
2
2
2
2
2
2
2
2
2
2
2
1.7214
1.34828
1.0369
0.773628
0.546641
0.347622
0.172963
0.0453772
0.00350812
2
2
2
2
2
2
2
1.3514
1.33902
1.13099
1.05937
1.03547
1.01919
1.00714
0.989344
0.971893
0.953198
0.928104
0.901213
0.873544
0.849257
0.826651
0.804973
0.782916
0.758713
0.730963
0.695811
0.654403
0.609576
0.56626
0.525818
0.486372
0.445856
0.406931
0.3866
0.488397
1.02177
2
2
2
2
2
2
2
2
2
2
2
2
2
2
2
2
2
2
2
2
2
2
2
2
2
2
2
2
2
2
2
2
2
2
2
2
2
2
2
2
2
2
2
2
2
2
2
2
2
2
2
2
2
1.72183
1.3475
1.03596
0.77306
0.546673
0.34811
0.173561
0.0455892
0.00351867
2
2
2
2
2
2
2
1.34874
1.34819
1.13736
1.06458
1.04076
1.02484
1.0131
0.995227
0.977653
0.958824
0.933572
0.906527
0.879007
0.855191
0.832832
0.81159
0.789208
0.764552
0.735891
0.700246
0.65868
0.613552
0.57029
0.529951
0.490637
0.450039
0.410812
0.391334
0.500471
1.04925
2
2
2
2
2
2
2
2
2
2
2
2
2
2
2
2
2
2
2
2
2
2
2
2
2
2
2
2
2
2
2
2
2
2
2
2
2
2
2
2
2
2
2
2
2
2
2
2
2
2
2
2
2
1.72074
1.3459
1.03407
0.771586
0.545964
0.34807
0.173823
0.0456988
0.00352208
2
2
2
2
2
2
2
1.3455
1.36116
1.14445
1.07039
1.0461
1.03029
1.0185
1.0007
0.983438
0.964333
0.938671
0.911529
0.884024
0.860431
0.838373
0.817504
0.795143
0.770093
0.740417
0.704266
0.662645
0.617711
0.574726
0.534347
0.495079
0.454356
0.414759
0.396062
0.512899
1.07715
2
2
2
2
2
2
2
2
2
2
2
2
2
2
2
2
2
2
2
2
2
2
2
2
2
2
2
2
2
2
2
2
2
2
2
2
2
2
2
2
2
2
2
2
2
2
2
2
2
2
2
2
2
1.71814
1.34319
1.03144
0.769296
0.54451
0.34746
0.173733
0.0457013
0.00351819
2
2
2
2
2
2
2
1.34474
1.37504
1.15225
1.07716
1.05183
1.03597
1.02385
1.00572
0.988883
0.969762
0.943829
0.916199
0.888702
0.865217
0.84341
0.822983
0.800645
0.775309
0.744777
0.708083
0.666614
0.622212
0.579423
0.538935
0.499632
0.458806
0.418653
0.400725
0.525665
1.11604
2
2
2
2
2
2
2
2
2
2
2
2
2
2
2
2
2
2
2
2
2
2
2
2
2
2
2
2
2
2
2
2
2
2
2
2
2
2
2
2
2
2
2
2
2
2
2
2
2
2
2
2
2
1.71607
1.33945
1.02797
0.766352
0.542397
0.346269
0.173257
0.0455965
0.00350693
2
2
2
2
2
2
2
1.34628
1.39091
1.16046
1.08385
1.05812
1.04217
1.0295
1.01085
0.994097
0.974871
0.94904
0.920824
0.893149
0.869603
0.848049
0.827979
0.805903
0.780456
0.749334
0.71215
0.67083
0.627027
0.584404
0.543911
0.50433
0.463222
0.422443
0.40536
0.538624
1.15743
2
2
2
2
2
2
2
2
2
2
2
2
2
2
2
2
2
2
2
2
2
2
2
2
2
2
2
2
2
2
2
2
2
2
2
2
2
2
2
2
2
2
2
2
2
2
2
2
2
2
2
2
2
1.71122
1.33607
1.02383
0.762757
0.539734
0.344577
0.172386
0.0453697
0.00348853
2
2
2
2
2
2
2
1.34969
1.40637
1.16826
1.09069
1.06464
1.04883
1.03553
1.01656
0.999569
0.980067
0.954232
0.925575
0.897536
0.873829
0.852502
0.832724
0.811032
0.785763
0.754316
0.716576
0.675328
0.631992
0.589662
0.549204
0.509054
0.46751
0.426152
0.409889
0.551769
1.19993
2
2
2
2
2
2
2
2
2
2
2
2
2
2
2
2
2
2
2
2
2
2
2
2
2
2
2
2
2
2
2
2
2
2
2
2
2
2
2
2
2
2
2
2
2
2
2
2
2
2
2
2
2
1.71016
1.3306
1.0199
0.758753
0.536558
0.342456
0.171178
0.0450209
0.0034618
2
2
2
2
2
2
2
1.35257
1.41864
1.1748
1.0981
1.07121
1.05557
1.04162
1.02283
1.00564
0.985767
0.959782
0.930743
0.902114
0.878196
0.856991
0.837518
0.816214
0.791439
0.759742
0.721458
0.680215
0.637223
0.595286
0.554632
0.5136
0.47158
0.429696
0.414365
0.565159
1.24368
2
2
2
2
2
2
2
2
2
2
2
2
2
2
2
2
2
2
2
2
2
2
2
2
2
2
2
2
2
2
2
2
2
2
2
2
2
2
2
2
2
2
2
2
2
2
2
2
2
2
2
2
2
1.70629
1.32771
1.01447
0.754861
0.533147
0.339948
0.169672
0.0445687
0.0034269
2
2
2
2
2
2
2
1.35876
1.42363