/*--------------------------------*- C++ -*----------------------------------*\
| =========                 |                                                 |
| \\      /  F ield         | OpenFOAM: The Open Source CFD Toolbox           |
|  \\    /   O peration     | Version:  v2012                                 |
|   \\  /    A nd           | Website:  www.openfoam.com                      |
|    \\/     M anipulation  |                                                 |
\*---------------------------------------------------------------------------*/
FoamFile
{
    version     2.0;
    format      ascii;
    class       volScalarField;
    location    "12000";
    object      q4;
}
// * * * * * * * * * * * * * * * * * * * * * * * * * * * * * * * * * * * * * //

dimensions      [0 0 0 0 0 0 0];


internalField   uniform 0;

boundaryField
{
    top
    {
        type            calculated;
        value           uniform 0;
    }
    base
    {
        type            calculated;
        value           nonuniform List<scalar> 
276
(
0.019745
0.0221382
0.0284229
0.02946
0.0295285
0.0294421
0.0293058
0.0291639
0.0290273
0.0289012
0.0287877
0.0286855
0.0285924
0.0285083
0.0284324
0.0283633
0.0283007
0.0282434
0.0281904
0.0281421
0.0280986
0.028059
0.0280228
0.0279895
0.0279589
0.0279313
0.0279063
0.0278842
0.0278649
0.0278484
0.0278343
0.0278228
0.0278137
0.0278069
0.0278025
0.0278003
0.0278
0.0278016
0.0278048
0.0278094
0.0278152
0.0278224
0.0278304
0.0278396
0.0278496
0.0278603
0.0278718
0.0278838
0.0278963
0.0279089
0.0279214
0.0279333
0.0279446
0.0279553
0.0279655
0.0279749
0.0279835
0.0279916
0.027999
0.0280059
0.0280122
0.0280179
0.0280232
0.028028
0.0280324
0.0280364
0.0280401
0.0280434
0.0280465
0.0280494
0.0280519
0.0280541
0.028056
0.0280577
0.0280591
0.0280603
0.0280613
0.0280624
0.0280627
0.0280648
0.0280677
0.0280702
0.0280727
0.028075
0.0280769
0.0280784
0.0280796
0.028081
0.0280826
0.028084
0.0280858
0.0280875
0.0280893
0.028091
0.0280927
0.0280939
0.0280955
0.0280962
0.0280964
0.028097
0.028097
0.0280971
0.0280968
0.0280967
0.0280967
0.0280963
0.028096
0.0280958
0.0280954
0.0280948
0.0280946
0.0280943
0.0280939
0.0280934
0.0280927
0.0280923
0.0280912
0.02809
0.0280894
0.0280888
0.0280875
0.0280861
0.0280848
0.0280838
0.0280827
0.0280804
0.0280762
0.0280792
0.0280775
0.0280748
0.0280728
0.0280698
0.0280674
0.0280665
0.0280643
0.0280603
0.0280575
0.0280547
0.0280519
0.0280499
0.0280485
0.0280444
0.0280402
0.0280373
0.0280332
0.0280301
0.0280285
0.0280232
0.0280186
0.0280149
0.0280109
0.0280071
0.0280017
0.0279982
0.0279945
0.0279893
0.0279844
0.0279797
0.0279747
0.0279688
0.0279633
0.0279588
0.0279545
0.0279505
0.0279432
0.0279362
0.0279304
0.0279241
0.0279157
0.0279089
0.0279022
0.0278951
0.0278898
0.02788
0.0270764
0.0166879
0.00754031
0.0145052
0.016686
0.0171778
0.0174311
0.0176252
0.0178144
0.0179863
0.0181153
0.0182484
0.0187009
0.0198448
0.0217215
0.0236766
0.0246671
0.0249351
0.0248423
0.0242047
0.0231836
0.0218587
0.0201158
0.0178531
0.0148429
0.010144
0.00562386
0.0132478
0.017972
0.0216987
0.02484
0.0275174
0.0299887
0.0323269
0.0345559
0.0366685
0.0386748
0.0405888
0.0424087
0.0441524
0.0458136
0.0473692
0.0488135
0.0501789
0.0514561
0.0526465
0.0537807
0.0548871
0.0559876
0.0570878
0.0581884
0.0592736
0.0603338
0.0613558
0.0623243
0.0632301
0.0640778
0.0648736
0.0656225
0.066334
0.067018
0.0676852
0.068343
0.0689884
0.0696136
0.0702154
0.0707923
0.0713469
0.0718864
0.0724213
0.0729526
0.0735179
0.0741281
0.0746688
0.0751738
0.0756469
0.0761085
0.0765801
0.0769624
0.0772452
0.0774368
0.0775264
0.077516
0.0774167
0.0772349
0.076976
0.0766458
0.0762465
0.0757883
0.0752836
0.0747401
0.0741619
0.0735517
0.0729117
0.0722483
0.0715643
0.0708633
0.0701449
0.0694176
0.068663
0.0680054
0.0668012
)
;
    }
    frontAndBack
    {
        type            empty;
    }
    inlet
    {
        type            calculated;
        value           uniform 0;
    }
    outlet
    {
        type            calculated;
        value           uniform 0;
    }
}


// ************************************************************************* //
