/*--------------------------------*- C++ -*----------------------------------*\
| =========                 |                                                 |
| \\      /  F ield         | OpenFOAM: The Open Source CFD Toolbox           |
|  \\    /   O peration     | Version:  v2012                                 |
|   \\  /    A nd           | Website:  www.openfoam.com                      |
|    \\/     M anipulation  |                                                 |
\*---------------------------------------------------------------------------*/
FoamFile
{
    version     2.0;
    format      ascii;
    class       volScalarField;
    location    "12000";
    object      Rekd;
}
// * * * * * * * * * * * * * * * * * * * * * * * * * * * * * * * * * * * * * //

dimensions      [0 0 0 0 0 0 0];


internalField   nonuniform List<scalar> 
27324
(
572.752
570.649
1094.9
566.293
1111.35
1162.21
562.095
1123.32
1165.29
912.881
556.819
1135.95
1162.09
901.886
572.788
550.094
1145.68
1158.58
884.329
560.448
316.747
542.017
1150.96
1151.48
866.098
542.002
308.787
167.081
533.448
1151.28
1139.81
845.655
522.816
295.925
162.636
87.7213
525.668
1148.13
1123.62
823.109
502.711
282.386
154.952
85.3421
47.3529
518.727
1144.26
1104.5
798.978
482.411
268.489
146.811
81.1058
46.196
27.3129
512.128
1139.33
1084.68
774.107
462.499
254.978
138.565
76.6462
44.064
26.8355
17.3672
505.362
1131.32
1063.68
748.771
443
242.289
130.746
72.2192
41.8571
25.8757
17.2207
12.0941
498.105
1117.98
1039.75
721.994
422.814
230.189
123.616
68.1375
39.7223
24.9071
16.8316
12.0779
8.9458
489.712
1097.33
1010.96
692.726
401.023
217.554
116.985
64.5341
37.8179
23.9966
16.4506
11.9246
8.96811
6.82106
477.98
1066.47
975.292
660.079
377.374
203.866
110.127
61.2811
36.1955
23.2152
16.1018
11.7797
8.89961
6.84676
5.27153
462.143
1017.79
929.685
623.137
352.045
189.328
102.818
57.9834
34.7816
22.5797
15.8159
11.6499
8.83714
6.80539
5.29234
4.10387
442.641
948.044
869.117
580.662
325.124
174.449
95.291
54.5438
33.3862
22.052
15.5989
11.5497
8.78481
6.7671
5.26193
4.11922
3.21919
419.483
858.587
793.43
533.408
296.618
159.55
87.9062
51.1105
31.972
21.5461
15.4317
11.4823
8.74792
6.73708
5.23102
4.09725
3.22902
2.55026
391.829
751.127
706.308
484.219
269.323
144.811
80.8646
47.8738
30.6123
21.0464
15.2723
11.4369
8.72844
6.71791
5.2072
4.07161
3.21562
2.5504
2.05777
327.608
626.173
610.781
434.656
245.681
132.135
74.2469
44.9224
29.3851
20.5819
15.112
11.3887
8.71994
6.70906
5.19321
4.05132
3.19685
2.54378
2.04313
1.71798
221.51
445.698
509.793
384.486
225.141
122.514
68.9286
42.2659
28.3159
20.1775
14.962
11.3316
8.70507
6.70589
5.18672
4.03989
3.17959
2.53323
2.0414
1.68681
1.51118
118.122
279.012
375.022
336.652
206.027
115.028
65.1658
40.2378
27.3879
19.8334
14.8288
11.2714
8.6785
6.69544
5.18309
4.03492
3.16967
2.51963
2.03982
1.68055
1.45445
1.43125
57.2723
160.52
248.117
269.704
191.023
108.37
62.3647
38.8803
26.718
19.532
14.7064
11.2101
8.64372
6.67229
5.17447
4.03172
3.16553
2.50923
2.03386
1.68291
1.43349
1.34795
1.43919
48.3772
102.44
153.785
194.994
162.698
103.942
59.835
37.9021
26.3056
19.3269
14.5853
11.142
8.60413
6.6375
5.15567
4.02587
3.16282
2.50399
2.02537
1.68446
1.42818
1.30059
1.3447
1.48682
46.8906
93.3297
101.895
141.246
130.045
90.5853
58.0198
36.987
26.0088
19.2142
14.5009
11.0655
8.55721
6.59661
5.12492
4.0134
3.15865
2.50076
2.01916
1.6806
1.43687
1.28251
1.2799
1.405
1.78369
46.3739
91.6378
91.4165
108.989
106.455
76.9396
50.9863
35.9004
25.6647
19.1039
14.4447
11.0077
8.50532
6.54896
5.08841
3.99068
3.1514
2.49666
2.01721
1.67534
1.44481
1.28539
1.22445
1.32531
1.64099
2.54343
46.0599
90.9206
88.9339
101.329
92.5042
68.1079
44.4844
31.5561
24.638
18.9072
14.3631
10.9558
8.46472
6.49748
5.05053
3.96171
3.13832
2.49154
2.01792
1.67479
1.44801
1.29159
1.18886
1.24193
1.42127
2.01438
3.36571
45.6156
90.2673
87.537
98.8698
88.4052
64.3998
40.7997
27.7708
21.4861
17.6857
14.1154
10.8708
8.41387
6.44553
5.01299
3.93313
3.11681
2.48583
2.01714
1.67954
1.44325
1.29295
1.1678
1.12627
1.18371
1.59222
2.60571
4.80581
45.0672
89.2353
86.3074
97.1995
86.5476
62.7396
39.891
25.802
19.1416
15.29
12.7565
10.4802
8.30398
6.37133
4.95702
3.89561
3.08819
2.46839
2.01245
1.67845
1.42927
1.28511
1.11789
0.980661
0.964546
1.26325
2.08838
3.94144
7.78872
44.4262
87.9226
85.0622
95.9744
85.0747
61.7997
38.7543
25.1456
18.1371
13.9859
10.9657
9.12583
7.63485
6.15127
4.84984
3.81702
3.03825
2.42514
1.98854
1.65478
1.38222
1.1939
0.998259
0.823425
0.787292
1.01643
1.70134
3.28551
6.57569
12.9574
43.7299
86.4268
83.8979
94.8856
83.9287
60.9466
38.3912
23.5834
17.5406
13.7731
10.4123
7.94953
6.42446
5.3471
4.38568
3.53983
2.86451
2.28105
1.86624
1.53723
1.24693
1.02309
0.835603
0.70049
0.672059
0.84626
1.4123
2.73493
5.54785
11.0815
21.3833
43.0286
84.8797
82.8497
93.9407
82.7839
60.2411
38.0756
23.3567
16.2942
13.5229
10.6662
7.90936
5.85138
4.51637
3.62772
2.95084
2.38824
1.92145
1.55862
1.26257
1.01815
0.846254
0.720833
0.63744
0.612095
0.728605
1.18168
2.2737
4.65503
9.44952
18.5267
34.6258
42.3569
83.4474
81.9388
93.0959
81.6709
59.4853
37.7491
23.2797
15.9173
12.4812
10.6873
8.36692
6.09915
4.42562
3.3056
2.54752
2.0044
1.59807
1.29211
1.05908
0.884805
0.756542
0.671344
0.613435
0.586342
0.648449
0.992426
1.88293
3.8863
8.00966
15.9916
30.4223
54.7464
41.7468
82.2516
81.1772
92.2879
80.558
58.7564
37.3993
23.173
15.8626
11.834
9.76484
8.61463
6.63645
4.7712
3.4488
2.55208
1.93404
1.50014
1.19989
0.989951
0.840317
0.730545
0.656755
0.610211
0.580612
0.597039
0.837009
1.55518
3.22471
6.75143
13.7221
26.6218
48.7877
84.8307
41.2103
81.328
80.5087
91.4385
79.4144
58.0556
37.0677
23.0201
15.8295
11.7696
9.13907
7.79622
7.02671
5.31202
3.78158
2.74311
2.03498
1.54817
1.21468
0.990243
0.840379
0.736214
0.663269
0.613962
0.581025
0.569126
0.717097
1.2803
2.66075
5.6578
11.7094
23.1575
43.2979
76.7386
128.005
40.7427
80.6164
79.8013
90.4292
78.2142
57.3646
36.7568
22.8549
15.7655
11.7576
9.03655
7.16746
6.36431
5.71475
4.19524
3.00676
2.19835
1.65411
1.27935
1.0287
0.862791
0.752436
0.67578
0.621376
0.58379
0.55743
0.630909
1.05274
2.18247
4.71317
9.93461
20.029
38.2118
69.1142
117.353
189.936
40.2639
79.9594
78.9265
89.1506
76.9511
56.6694
36.4601
22.6857
15.697
11.7393
9.02291
6.94762
5.72614
5.29951
4.55005
3.29646
2.37712
1.7685
1.35351
1.07469
0.891898
0.771888
0.689302
0.62946
0.586711
0.554434
0.574305
0.868055
1.78004
3.90071
8.38012
17.2203
33.5436
61.9134
107.092
176.5
276.618
39.7057
79.1711
77.7891
87.6051
75.6589
55.9711
36.1588
22.5211
15.6312
11.7223
9.01754
6.92371
5.44184
4.7056
4.38566
3.55891
2.56258
1.88505
1.43096
1.12347
0.921645
0.79129
0.703065
0.638405
0.590235
0.554695
0.543628
0.725721
1.44377
3.20615
7.02476
14.7194
29.272
55.1994
97.3482
163.223
260.389
394.935
39.0433
78.1636
76.359
85.8922
74.3712
55.2851
35.8426
22.3599
15.573
11.7091
9.01238
6.91893
5.39561
4.35764
3.92105
3.59095
2.73391
2.00482
1.51098
1.17603
0.953578
0.811165
0.716962
0.648299
0.595577
0.556029
0.53008
0.624316
1.1662
2.61545
5.84972
12.5064
25.3934
48.9593
88.1358
150.473
243.84
376.146
550.804
38.2858
76.8343
74.6441
84.0353
73.0905
54.605
35.5168
22.2044
15.521
11.6997
9.00857
6.91537
5.39078
4.23949
3.51252
3.3383
2.88603
2.13311
1.59405
1.23253
0.9893
0.832988
0.731621
0.65907
0.602223
0.558482
0.525767
0.557854
0.941931
2.11667
4.83579
10.561
21.896
43.1906
79.4535
138.265
227.809
356.244
530.021
750.203
37.4834
75.2946
72.8364
82.1909
71.8297
53.9213
35.1887
22.0603
15.4739
11.6913
9.00609
6.91265
5.39122
4.22689
3.34149
2.92812
2.82302
2.26985
1.68186
1.29082
1.0285
0.857198
0.747309
0.670572
0.610376
0.562074
0.525453
0.520505
0.767495
1.69917
3.96614
8.85906
18.7712
37.8814
71.3093
126.603
212.296
336.835
506.986
727.946
1000.62
36.7059
73.7667
71.155
80.5329
70.6254
53.2375
34.8717
21.9287
15.4304
11.6826
9.00278
6.91222
5.39232
4.22633
3.30592
2.68174
2.52025
2.31018
1.77599
1.34849
1.06948
0.883793
0.764146
0.68263
0.619596
0.567319
0.526538
0.502748
0.640942
1.35377
3.22487
7.37915
15.9953
33.0242
63.6984
115.501
197.313
317.903
484.433
701.995
977.144
1311.77
36.0363
72.3938
69.7534
79.0767
69.4904
52.5562
34.5612
21.8136
15.3907
11.6732
8.99822
6.91187
5.39562
4.22611
3.30028
2.5926
2.21987
2.17628
1.84407
1.40687
1.10984
0.912341
0.782492
0.695311
0.629643
0.574038
0.52878
0.496118
0.556138
1.07382
2.59694
6.10006
13.5424
28.6136
56.6222
104.961
182.872
299.485
462.292
676.581
948.169
1287.52
1692.02
35.4499
71.2551
68.6261
77.7581
68.3808
51.8769
34.2571
21.7116
15.3575
11.6637
8.9926
6.91108
5.3991
4.22832
3.29761
2.57941
2.07308
1.91189
1.84253
1.46431
1.14836
0.941479
0.802606
0.708885
0.640318
0.582189
0.532338
0.494678
0.505647
0.854118
2.07004
4.9998
11.3887
24.6438
50.0658
94.9979
168.97
281.595
440.642
651.553
919.858
1255.35
1669.52
2129.86
34.9332
70.4193
67.6584
76.5037
67.2757
51.195
33.9527
21.6036
15.331
11.6566
8.98663
6.90992
5.40182
4.2306
3.29668
2.57509
2.01839
1.69746
1.69835
1.51511
1.18651
0.969036
0.824329
0.7237
0.651622
0.591346
0.537411
0.495171
0.479337
0.690505
1.6329
4.05965
9.50772
21.096
44.0204
85.6137
155.63
264.23
419.509
627.036
891.966
1223.88
1635.36
2115.17
2572.35
34.4305
69.7271
66.7773
75.2799
66.169
50.5235
33.6436
21.4922
15.3061
11.6489
8.98192
6.90921
5.40364
4.23216
3.29667
2.5721
2.01147
1.60255
1.47974
1.47552
1.22666
0.993458
0.846591
0.7401
0.663643
0.601253
0.544075
0.496732
0.467793
0.577223
1.27699
3.26111
7.87536
17.9434
38.4825
76.8095
142.853
247.401
398.896
603.047
864.687
1192.78
1601.55
2083.67
2578.64
2909.29
33.8525
68.9495
65.7233
74.001
65.0772
49.8511
33.3333
21.3855
15.2891
11.6447
8.97929
6.9107
5.40552
4.23305
3.29696
2.57079
2.00796
1.57018
1.32
1.34897
1.2421
1.01638
0.867459
0.758145
0.676596
0.611705
0.551896
0.499801
0.463887
0.505753
0.994856
2.58921
6.46546
15.1636
33.425
68.5927
130.667
231.098
378.828
579.605
838.049
1162.36
1567.61
2052.05
2561.31
2944.22
3059.14
33.1166
67.8992
64.4429
72.63
64.0232
49.174
33.012
21.2901
15.2822
11.6431
8.97711
6.91413
5.40913
4.23437
3.29727
2.57038
2.00551
1.56437
1.25119
1.1716
1.21315
1.0374
0.885106
0.777148
0.690741
0.622637
0.560741
0.504302
0.46316
0.465132
0.780514
2.03012
5.25539
12.7255
28.8451
60.9503
119.093
215.334
359.289
556.758
812.062
1132.69
1534.05
2019.67
2542.87
2951.48
3117.76
3009.73
32.2575
66.458
63.0382
71.2265
62.9988
48.5015
32.6835
21.2028
15.2844
11.645
8.97785
6.91979
5.41451
4.23758
3.29833
2.57088
2.00462
1.56148
1.22824
1.04225
1.10686
1.05383
0.899902
0.795279
0.706232
0.634165
0.570224
0.510347
0.463819
0.444658
0.627175
1.57269
4.22298
10.6007
24.7193
53.879
108.139
200.129
340.285
534.513
786.803
1103.85
1501.08
1987.01
2521.8
2957.89
3148.86
3083.97
2795.5
31.3195
64.7669
61.4932
69.791
61.994
47.8209
32.3184
21.1218
15.2908
11.6491
8.98085
6.92811
5.42255
4.24315
3.30129
2.57228
2.00558
1.55954
1.22416
0.985262
0.9618
1.02338
0.914457
0.810065
0.722792
0.646542
0.580199
0.51763
0.465824
0.435724
0.526072
1.20626
3.35145
8.75505
21.0335
47.3604
97.8226
185.49
321.811
512.887
762.278
1075.91
1468.84
1954.03
2499
2961.24
3180.15
3133.46
2874.58
2490.46
30.4303
63.0645
60.0471
68.3751
60.9522
47.1208
31.9359
21.0305
15.2944
11.6524
8.98519
6.93824
5.43253
4.25074
3.30691
2.57535
2.00778
1.5606
1.22276
0.964923
0.848483
0.944477
0.920657
0.820855
0.739344
0.660055
0.590634
0.525963
0.469209
0.432594
0.465139
0.923152
2.62627
7.15635
17.7655
41.3836
88.1357
171.455
303.857
491.894
738.548
1048.93
1437.51
1920.94
2474.62
2962.48
3209.21
3184.04
2934.69
2564.2
2162.59
29.662
61.5247
58.7967
67.0754
59.8829
46.4105
31.5401
20.9292
15.2967
11.6539
8.9881
6.94878
5.44359
4.25997
3.31463
2.58078
2.01139
1.56314
1.22379
0.962619
0.794356
0.823675
0.908012
0.829835
0.753792
0.674847
0.601741
0.534878
0.474182
0.431988
0.431639
0.715878
2.02583
5.77334
14.8916
35.928
79.0764
158.043
286.446
471.511
715.66
1022.98
1407.23
1888.06
2448.85
2961.48
3237.03
3233.1
2997.09
2624.47
2227.54
1848.71
28.9586
60.1644
57.704
65.8349
58.7994
45.6916
31.1737
20.8249
15.288
11.6513
8.98923
6.95666
5.45434
4.26987
3.32336
2.58754
2.0165
1.56682
1.22632
0.962246
0.774088
0.716043
0.848569
0.836105
0.764066
0.690596
0.613773
0.544218
0.480579
0.43246
0.415049
0.574675
1.53858
4.59802
12.3837
30.9789
70.6199
145.289
269.594
451.731
693.615
998.123
1378.14
1855.63
2421.9
2958.24
3263.37
3281.72
3059.17
2687.57
2282.76
1904.26
1565.05
28.2757
58.9275
56.7144
64.6283
57.7187
44.9989
30.8212
20.7506
15.2724
11.6402
8.98788
6.96154
5.46164
4.27891
3.33217
2.595
2.02249
1.5711
1.22969
0.963678
0.771796
0.6561
0.751062
0.829386
0.770758
0.706068
0.627008
0.554036
0.487811
0.43513
0.407953
0.486739
1.15473
3.6069
10.2053
26.5112
62.7517
133.199
253.36
432.53
672.444
974.419
1350.4
1823.94
2394.05
2952.85
3288.27
3329.57
3121.77
2751.21
2340.47
1952.59
1611.95
1316.68
27.5568
57.6227
55.7122
63.4852
56.6709
44.3401
30.5011
20.6847
15.2672
11.6241
8.9823
6.96261
5.46481
4.28503
3.33975
2.6021
2.02862
1.57555
1.23324
0.96577
0.772065
0.631953
0.646498
0.791143
0.776465
0.718988
0.641603
0.564468
0.495605
0.439143
0.405424
0.436773
0.866238
2.77922
8.32499
22.5042
55.4465
121.78
237.785
413.923
652.115
951.946
1324.08
1793.29
2365.57
2945.28
3311.78
3376.51
3184.39
2816.01
2398.88
2003.01
1653.3
1356.06
1103.22
26.7859
56.1507
54.6082
62.3767
55.6619
43.7085
30.2177
20.6326
15.2583
11.6162
8.97626
6.96118
5.46411
4.28616
3.34552
2.60783
2.03404
1.57985
1.23633
0.968085
0.77247
0.625933
0.574086
0.71817
0.776045
0.727634
0.657268
0.575739
0.503811
0.444604
0.404923
0.410954
0.663546
2.09871
6.71043
18.9372
48.692
111.012
222.93
395.926
632.597
930.737
1299.34
1763.87
2336.88
2935.74
3333.85
3422.62
3246.6
2881.65
2458.55
2054.15
1696.33
1391
1136.19
921.826
25.9751
54.5808
53.4507
61.2967
54.7307
43.103
29.9599
20.5896
15.2566
11.6076
8.97729
6.95947
5.46184
4.28415
3.34626
2.61215
2.03821
1.58361
1.23891
0.970026
0.773134
0.625166
0.539983
0.6222
0.76096
0.733151
0.672807
0.588097
0.512471
0.451028
0.407355
0.39908
0.533615
1.5544
5.33158
15.7834
42.4781
100.876
208.826
378.617
613.839
910.832
1276.28
1735.98
2308.32
2924.49
3354.36
3467.97
3308.5
2948.22
2519.4
2106.51
1740.04
1427.3
1165.53
949.409
768.774
25.1935
52.9688
52.2707
60.2195
53.8448
42.5004
29.73
20.5491
15.2552
11.6021
8.98587
6.96408
5.46007
4.28161
3.34471
2.61237
2.0414
1.58648
1.24123
0.971505
0.774366
0.625008
0.526564
0.537209
0.713192
0.737759
0.686028
0.601763
0.521676
0.458089
0.411625
0.39435
0.459155
1.13792
4.14187
13.0195
36.7884
91.3458
195.493
362.072
595.846
892.199
1255.04
1709.81
2280.33
2911.82
3373.3
3512.41
3370.18
3015.75
2581.69
2160.06
1784.83
1464.2
1195.95
973.948
791.837
640.244
24.492
51.4871
51.1532
59.1327
52.9929
41.8955
29.4986
20.4988
15.2485
11.6009
8.99916
6.97513
5.46371
4.28033
3.3423
2.61168
2.042
1.58886
1.24357
0.972848
0.775767
0.625895
0.524824
0.485617
0.637837
0.734785
0.695185
0.616671
0.531562
0.465737
0.417671
0.392808
0.421086
0.830985
3.1406
10.6128
31.615
82.3867
182.932
346.397
578.629
874.784
1235.73
1685.6
2253.31
2898.13
3390.61
3555.9
3431.49
3084.19
2645.26
2214.86
1830.66
1502.03
1226.9
999.357
812.319
659.521
532.658
23.8311
50.1339
50.0938
58.0783
52.1711
41.3109
29.2652
20.4356
15.2367
11.599
9.01569
6.98848
5.47436
4.28375
3.34179
2.61041
2.04241
1.59026
1.24573
0.97448
0.777171
0.627339
0.525039
0.462682
0.549295
0.716086
0.701107
0.63197
0.542348
0.473989
0.424489
0.392726
0.403584
0.624287
2.32077
8.53258
26.9346
73.9828
171.116
331.677
562.293
858.482
1218.41
1663.58
2227.72
2883.76
3406.35
3598.44
3492.34
3153.25
2709.83
2270.71
1877.55
1540.74
1258.64
1025.21
833.495
676.586
548.758
442.807
23.1692
48.8787
49.0994
57.0436
51.4032
40.7516
29.0565
20.3587
15.2091
11.5959
9.02988
7.00307
5.48663
4.29354
3.34481
2.61063
2.04237
1.59172
1.24774
0.976642
0.778671
0.629163
0.525636
0.454622
0.476914
0.667178
0.705917
0.645827
0.554384
0.482788
0.432036
0.397915
0.39652
0.501925
1.66784
6.73841
22.7245
66.1125
160.037
317.958
546.995
843.25
1203.06
1644.12
2204.02
2869.12
3420.76
3639.96
3552.78
3222.42
2775.22
2327.4
1925.32
1580.32
1291.1
1051.73
855.049
694.211
562.966
456.241
367.891
22.467
47.6493
48.1921
56.044
50.6798
40.2308
28.8661
20.2898
15.1702
11.5871
9.04047
7.01432
5.49882
4.30477
3.3534
2.61306
2.04294
1.59307
1.24974
0.979156
0.780449
0.630968
0.526905
0.453823
0.434384
0.594476
0.703395
0.65618
0.567991
0.492245
0.440482
0.40389
0.393866
0.440033
1.17152
5.19987
18.9502
58.7718
149.68
305.272
532.892
829.116
1189.55
1627.49
2182.56
2854.55
3434.17
3680.55
3612.72
3291.85
2841.41
2384.92
1973.9
1620.65
1324.28
1078.86
877.166
712.164
577.618
468.058
379.087
305.514
21.7315
46.4071
47.3669
55.0944
49.9925
39.748
28.6823
20.2266
15.1339
11.5764
9.04709
7.02041
5.50814
4.31545
3.36273
2.61895
2.04445
1.59388
1.25169
0.981617
0.782487
0.632578
0.528408
0.453978
0.415256
0.512833
0.686296
0.663342
0.583096
0.502515
0.449689
0.411621
0.394735
0.41354
0.82136
3.8973
15.5844
51.9431
140.066
293.608
520.139
816.205
1177.74
1613.87
2163.72
2840.54
3446.81
3720.4
3671.96
3361.45
2908.49
2443.46
2023.28
1661.7
1358.1
1106.57
899.779
730.577
592.554
480.236
388.912
314.832
253.628
20.9707
45.2019
46.6411
54.205
49.2965
39.2907
28.5
20.1646
15.1017
11.5736
9.05207
7.02282
5.51166
4.32369
3.37113
2.62548
2.04709
1.59465
1.25321
0.98368
0.784598
0.634004
0.529818
0.454819
0.408736
0.446017
0.64168
0.669064
0.598531
0.513823
0.459637
0.420444
0.398774
0.402907
0.600422
2.79325
12.5923
45.6097
131.217
282.965
508.82
804.761
1167.5
1603.24
2148.06
2827.65
3459.01
3759.71
3730.53
3430.88
2976.28
2502.83
2073.47
1703.45
1392.56
1134.84
922.886
749.411
607.871
492.646
399.021
322.989
261.371
210.506
20.177
44.023
46.0683
53.3638
48.5932
38.8407
28.3015
20.0979
15.0704
11.5806
9.06228
7.02469
5.51211
4.32676
3.37761
2.63192
2.05033
1.59574
1.25319
0.985193
0.786472
0.635338
0.530938
0.456075
0.408083
0.40511
0.576027
0.669828
0.612287
0.526399
0.470313
0.4303
0.404918
0.398478
0.485743
1.91665
9.94335
39.729
123.183
273.355
498.987
795.036
1158.88
1595.41
2136.18
2816.47
3471.15
3798.62
3788.61
3499.8
3044.22
2562.61
2124.25
1745.88
1427.62
1163.65
946.461
768.653
623.54
505.382
409.333
331.374
268.139
216.93
174.695
19.3565
42.8357
45.5977
52.6082
47.8767
38.3854
28.0791
20.0212
15.0453
11.5914
9.07859
7.03132
5.51358
4.32739
3.38046
2.63684
2.05441
1.59706
1.25254
0.985649
0.787916
0.636772
0.53183
0.457643
0.408461
0.3852
0.501118
0.659224
0.62272
0.540434
0.481773
0.441076
0.412861
0.397143
0.439437
1.25859
7.6086
34.2485
116.011
264.831
490.63
787.289
1152.1
1590.11
2128.44
2807.73
3483.49
3837.27
3846.29
3567.73
3111.37
2622.62
2175.4
1788.86
1463.28
1193
970.492
788.287
639.55
518.413
419.911
339.932
275.088
222.536
180.014
144.975
18.5133
41.5783
45.2027
51.95
47.1683
37.9319
27.8294
19.9249
15.0205
11.6056
9.09567
7.0432
5.51753
4.32881
3.3821
2.64041
2.05851
1.59886
1.25206
0.985695
0.789036
0.638355
0.532672
0.459114
0.409225
0.37683
0.43665
0.623204
0.629807
0.555983
0.494201
0.452766
0.42225
0.399912
0.423958
0.818572
5.56671
29.101
109.763
257.48
483.762
781.639
1147.55
1587.14
2124.8
2802.33
3496.03
3875.98
3902.77
3634.02
3177.85
2682.97
2226.99
1832.22
1499.37
1222.8
994.965
808.313
655.894
531.725
430.736
348.718
282.187
228.291
184.653
149.371
120.327
17.6679
40.2628
44.8417
51.3859
46.4618
37.4744
27.5671
19.8181
14.9938
11.6185
9.11291
7.05601
5.52653
4.33274
3.38342
2.64295
2.06181
1.6016
1.25224
0.985394
0.790076
0.639792
0.533712
0.460359
0.4105
0.375378
0.392773
0.568653
0.635443
0.572934
0.507742
0.465362
0.432932
0.404629
0.418168
0.579861
3.81088
24.2087
104.502
251.421
478.415
778.149
1145.61
1586.6
2124.8
2801.12
3509.08
3914.88
3956.56
3698.15
3243.88
2743.65
2278.95
1875.6
1535.48
1252.75
1019.74
828.699
672.562
545.317
441.8
357.705
289.471
234.17
189.412
153.203
123.952
99.8968
16.8211
38.9381
44.5241
50.8804
45.7594
36.981
27.3098
19.7123
14.9696
11.6267
9.12729
7.06831
5.53671
4.33926
3.38603
2.64446
2.06471
1.60518
1.25313
0.985455
0.789978
0.640864
0.535163
0.461363
0.411954
0.375481
0.368414
0.505759
0.62709
0.589262
0.522476
0.478907
0.444745
0.411701
0.415571
0.492659
2.36689
19.503
100.276
246.791
474.673
776.809
1146.57
1588.84
2127.84
2804.2
3523.48
3951.35
4006.98
3760.08
3309.64
2804.41
2330.52
1919.25
1572.23
1283.31
1044.96
849.409
689.535
559.189
453.096
366.892
296.928
240.207
194.276
157.132
127.11
102.878
82.9718
15.9716
37.6307
44.2489
50.4351
45.0365
36.4359
27.0452
19.6169
14.9576
11.6315
9.13691
7.07875
5.54586
4.34696
3.38995
2.64643
2.06703
1.6083
1.25596
0.986247
0.789552
0.64173
0.53691
0.462193
0.413029
0.37591
0.356567
0.44562
0.606582
0.602967
0.538358
0.493496
0.457671
0.42033
0.415605
0.471971
1.33077
14.9104
97.1336
243.723
472.672
777.598
1150.53
1594.28
2133.55
2810.79
3539.42
3983.33
4054.53
3819.97
3374.64
2864.83
2381.5
1963.5
1609.33
1314.1
1070.41
870.385
706.787
573.316
464.622
376.276
304.555
246.389
199.273
161.15
130.346
105.474
85.4146
68.9555
15.1265
36.3421
44.0048
50.0245
44.3207
35.826
26.7708
19.5314
14.9555
11.6396
9.14353
7.08679
5.55345
4.35433
3.39434
2.64899
2.06824
1.61089
1.2589
0.987508
0.788888
0.642094
0.538525
0.462954
0.41367
0.377784
0.353187
0.399434
0.568069
0.61078
0.555969
0.509274
0.471683
0.430471
0.418127
0.466303
0.821165
10.3752
95.1097
242.345
472.584
780.523
1157.38
1603.17
2141.88
2819.73
3553.12
4010.75
4098.57
3877.79
3438.44
2923.83
2431.93
2007.52
1646.38
1345.13
1096.14
891.617
724.263
587.669
476.381
385.86
312.343
252.712
204.392
165.28
133.66
108.135
87.544
70.9516
57.3533
14.3373
35.0827
43.7439
49.5977
43.6164
35.1844
26.4863
19.4503
14.9588
11.6499
9.15116
7.09379
5.56093
4.36077
3.39867
2.6516
2.06915
1.61216
1.26097
0.988931
0.788783
0.64202
0.539762
0.463855
0.414017
0.379673
0.35285
0.369746
0.520027
0.612188
0.576194
0.526335
0.486787
0.441986
0.422855
0.462833
0.731729
5.77067
94.2684
242.758
474.599
785.599
1166.89
1615.37
2152.73
2825.43
3562.68
4036.45
4138.03
3932.92
3500.32
2980.15
2481.97
2050.61
1683.1
1376.15
1122.03
913.062
741.936
602.206
488.317
395.627
320.301
259.173
209.629
169.512
137.069
110.862
89.7251
72.6909
58.9763
47.7495
13.6341
33.8977
43.4556
49.0583
42.8947
34.5345
26.2096
19.3681
14.9617
11.6607
9.15924
7.10112
5.56841
4.36786
3.40277
2.65442
2.07034
1.61306
1.26247
0.99106
0.789145
0.641448
0.540624
0.46487
0.414388
0.381118
0.354144
0.353724
0.470082
0.597778
0.597205
0.544489
0.503011
0.454778
0.429646
0.461791
0.719687
2.59889
94.7005
245.03
478.528
792.003
1176.81
1627.2
2161.66
2826.68
3568.47
4060.1
4173.37
3983.6
3559.27
3034.55
2531.75
2092.77
1719.18
1406.83
1147.88
934.627
759.79
616.914
500.404
405.544
328.411
265.773
214.983
173.845
140.563
113.668
91.9628
74.4731
60.392
49.0637
39.8003
12.9293
32.8082
43.1726
48.4168
42.1272
33.9018
25.9508
19.2975
14.9554
11.6692
9.16757
7.10826
5.57529
4.37589
3.40778
2.6574
2.07186
1.61416
1.26297
0.992787
0.789919
0.641192
0.540835
0.46586
0.414844
0.382132
0.358096
0.346758
0.426582
0.572347
0.615557
0.563641
0.520443
0.468782
0.438298
0.462526
0.709526
2.5846
95.4464
247.289
482.403
797.963
1185.89
1638.56
2170.46
2826.37
3569.02
4080.04
4205.62
4028.88
3613.84
3086.55
2579.62
2133.8
1754.59
1436.97
1173.44
956.148
777.737
631.76
512.631
415.59
336.648
272.505
220.454
178.276
144.142
116.547
94.2675
76.3035
61.8424
50.2114
40.8585
33.217
12.1153
31.6075
42.9128
47.7002
41.3269
33.287
25.6973
19.2345
14.9484
11.669
9.17667
7.11707
5.58044
4.3834
3.4142
2.66079
2.07362
1.61572
1.2636
0.994093
0.791539
0.64141
0.540154
0.466532
0.416191
0.383001
0.36302
0.345101
0.39551
0.54125
0.627326
0.584339
0.539264
0.484006
0.448439
0.464962
0.702949
2.5741
96.0845
249.739
487.011
804.441
1194.72
1649.6
2179.02
2824.99
3563.84
4093.76
4235.12
4069.55
3662.13
3135.58
2625.17
2173.37
1788.99
1466.47
1198.53
977.404
795.628
646.685
524.977
425.748
344.992
279.341
226.034
182.806
147.804
119.498
96.6349
78.1915
63.3352
51.387
41.7849
34.0655
27.761
11.4197
30.1818
42.4734
46.9565
40.5276
32.7194
25.4326
19.1671
14.9394
11.6659
9.18196
7.12793
5.58664
4.38798
3.42075
2.66557
2.07546
1.61748
1.26451
0.995056
0.792854
0.642063
0.539278
0.466928
0.418277
0.383991
0.368236
0.346778
0.377293
0.502234
0.628485
0.607142
0.559613
0.50047
0.459799
0.469435
0.700613
2.55605
96.725
252.474
492.256
811.302
1202.89
1659.82
2186.8
2822.82
3554.04
4099.05
4260.72
4106.2
3703.66
3180.54
2667.94
2210.97
1821.96
1495.04
1223.08
998.277
813.302
661.553
537.376
436.009
353.429
286.264
231.703
187.426
151.549
122.52
99.0628
80.1319
64.8764
52.5987
42.7331
34.8091
28.4378
23.2335
10.8685
28.8133
41.7561
46.0755
39.7283
32.1995
25.1686
19.0879
14.9269
11.6626
9.18503
7.13952
5.59529
4.39145
3.42521
2.67123
2.07757
1.61883
1.26562
0.996221
0.793634
0.643229
0.538692
0.4668
0.420978
0.385437
0.372735
0.350241
0.36842
0.465189
0.61415
0.632325
0.581345
0.518161
0.472322
0.476218
0.705266
2.5384
97.4651
255.416
497.94
818.267
1210.32
1668.87
2193.43
2819.86
3541.07
4096.24
4279.28
4138.83
3741.32
3220.55
2706.86
2246.5
1853.13
1522.34
1246.78
1018.65
830.642
676.241
549.733
446.309
361.948
293.268
237.445
192.123
155.371
125.612
101.551
82.1245
66.4615
53.8508
43.7119
35.5699
29.0323
23.7713
19.4699
10.0987
27.7229
41.0061
45.0447
38.8839
31.6953
24.9154
19.0036
14.909
11.6598
9.18847
7.14759
5.60646
4.39666
3.42703
2.67652
2.08131
1.61994
1.26651
0.997871
0.793764
0.644223
0.538874
0.466554
0.423949
0.387512
0.376893
0.357757
0.36594
0.436006
0.593264
0.655341
0.604306
0.537102
0.485982
0.484958
0.713052
2.52414
98.324
258.383
503.652
825.077
1217.46
1676.82
2198.94
2815.77
3526.13
4084.54
4287.61
4167.87
3775.42
3256.24
2740.2
2279.03
1882.45
1548.06
1269.37
1038.3
847.554
690.642
561.928
456.57
370.503
300.339
243.254
196.882
159.257
128.769
104.098
84.1682
68.0916
55.1417
44.7254
36.3566
29.6393
24.2444
19.8959
16.3346
9.69246
26.1279
40.8185
44.0412
38.0333
31.175
24.652
18.9258
14.8935
11.6559
9.19409
7.15358
5.61559
4.40531
3.42942
2.67844
2.08629
1.62182
1.26635
0.999763
0.794188
0.644958
0.53986
0.466606
0.4268
0.390608
0.381485
0.366386
0.36716
0.418606
0.567459
0.671763
0.62845
0.55742
0.500805
0.495471
0.725211
2.5178
99.1569
261.251
509.103
832.196
1224.73
1682.79
2203.22
2811
3509.01
4070.32
4286.79
4190.62
3806.39
3288.99
2768.75
2306.43
1909.29
1572.18
1290.58
1056.98
863.836
704.669
573.883
466.696
379.022
307.438
249.119
201.696
163.196
131.979
106.7
86.2621
69.7651
56.4705
45.7713
37.1726
30.2684
24.7263
20.2712
16.6716
13.7162
20.2849
29.5732
40.3016
43.7718
37.2814
30.6735
24.3957
18.843
14.8851
11.6524
9.20123
7.16199
5.6209
4.41412
3.43448
2.67853
2.09037
1.62629
1.26604
1.00141
0.795235
0.644863
0.542564
0.467337
0.42906
0.395124
0.386929
0.376045
0.373957
0.410429
0.536053
0.676813
0.65434
0.579252
0.516837
0.507593
0.740931
2.5228
99.7989
264.188
514.548
839.847
1230.52
1685.76
2202.49
2802.38
3489.59
4049.6
4277.94
4198.17
3838.52
3315.99
2796.27
2329.09
1931.53
1594.27
1310.38
1074.47
879.28
718.158
585.517
476.62
387.425
314.506
255.008
206.557
167.182
135.236
109.349
88.4029
71.4818
57.8359
46.8494
38.0161
30.9218
25.2266
20.6521
16.9684
13.9828
11.5232
20.524
59.1021
50.3592
43.6216
36.993
30.1757
24.1715
18.7659
14.869
11.6491
9.20757
7.17356
5.62749
4.41815
3.44258
2.68063
2.09056
1.63284
1.26692
1.00107
0.797274
0.645221
0.544175
0.469733
0.43126
0.401367
0.393633
0.386336
0.383308
0.409756
0.504829
0.670602
0.68221
0.602567
0.53415
0.521149
0.759711
2.54213
100.355
266.329
518.66
845.26
1235.42
1686.88
2199.94
2792.36
3469.26
4028.81
4265.35
4200.47
3852.18
3352.42
2817.55
2351.5
1949.6
1612.37
1328.48
1090.73
893.712
730.937
596.696
486.268
395.656
321.48
260.871
211.438
171.208
138.532
112.037
90.5834
73.2383
59.2382
47.9594
38.8871
31.5982
25.7466
21.0478
17.2686
14.2174
11.7345
9.68125
19.9917
61.0325
97.7975
57.8194
37.5166
30.0072
23.9093
18.7267
14.8564
11.6374
9.21331
7.18593
5.63862
4.42128
3.44899
2.68802
2.08926
1.63765
1.27026
0.999144
0.799077
0.647264
0.544844
0.474013
0.4348
0.409182
0.401651
0.397452
0.395416
0.411303
0.481718
0.654633
0.709004
0.627309
0.552876
0.535773
0.781013
2.57737
100.784
268.301
522.026
850.175
1239.83
1687.59
2196.51
2782.33
3450.04
4008.42
4251.73
4198.02
3862.2
3369.24
2849.26
2368.24
1967.71
1626.92
1343.3
1105.58
907.091
742.856
607.278
495.531
403.661
328.31
266.652
216.299
175.25
141.862
114.759
92.7977
75.029
60.6751
49.101
39.7845
32.2976
26.286
21.4596
17.5801
14.4532
11.9202
9.8496
8.12999
19.6314
59.1912
105.047
90.0335
51.1588
31.3331
24.0042
18.6484
14.8812
11.6204
9.21164
7.19414
5.65034
4.42841
3.44987
2.69682
2.09101
1.63704
1.2757
0.998329
0.79969
0.65322
0.544977
0.480621
0.440058
0.418317
0.411225
0.409887
0.408878
0.415146
0.465882
0.634785
0.729224
0.653271
0.573076
0.551165
0.805061
2.62865
101.113
269.671
524.511
854.09
1244.53
1689.2
2193.49
2772.94
3431.86
3989.59
4239
4194.74
3869.1
3382.74
2864.18
2393.99
1980.99
1641.57
1355.07
1117.72
919.282
753.877
617.128
504.291
411.337
334.944
272.314
221.091
179.276
145.207
117.51
95.0416
76.8493
62.1418
50.2722
40.7095
33.0199
26.8447
21.8872
17.9046
14.698
12.1055
9.99683
8.26478
6.82009
19.2666
58.1048
101.442
95.8935
46.4619
41.8964
26.1293
18.9702
14.8899
11.639
9.19936
7.19935
5.6548
4.4393
3.45283
2.70354
2.10008
1.63276
1.27947
1.00275
0.798744
0.661064
0.5477
0.489224
0.447615
0.42886
0.423275
0.423642
0.423462
0.423473
0.457275
0.609803
0.738924
0.680699
0.594819
0.566982
0.831246
2.6935
101.39
270.524
526.446
857.484
1249.74
1692.65
2191.85
2764.55
3414.48
3972.35
4228.2
4192.24
3875.28
3393.68
2876.86
2406.16
2001.51
1652.18
1366.94
1127.33
929.253
763.898
626.208
512.438
418.589
341.303
277.815
225.784
183.246
148.537
120.275
97.3107
78.695
63.6336
51.4687
41.66
33.7656
27.4224
22.3305
18.2416
14.9526
12.2975
10.1428
8.3819
6.92878
5.71168
18.8953
57.298
98.948
93.2829
45.657
15.373
33.7717
21.6372
15.4964
11.7154
9.23217
7.20477
5.65835
4.44399
3.46606
2.69795
2.10762
1.63238
1.27869
1.01552
0.798453
0.669855
0.5546
0.498717
0.457899
0.442142
0.437704
0.438815
0.439038
0.435139
0.458909
0.5799
0.739867