/*--------------------------------*- C++ -*----------------------------------*\
| =========                 |                                                 |
| \\      /  F ield         | OpenFOAM: The Open Source CFD Toolbox           |
|  \\    /   O peration     | Version:  v2012                                 |
|   \\  /    A nd           | Website:  www.openfoam.com                      |
|    \\/     M anipulation  |                                                 |
\*---------------------------------------------------------------------------*/
FoamFile
{
    version     2.0;
    format      ascii;
    class       volScalarField;
    location    "12000";
    object      Res;
}
// * * * * * * * * * * * * * * * * * * * * * * * * * * * * * * * * * * * * * //

dimensions      [0 0 0 0 0 0 0];


internalField   nonuniform List<scalar> 
27324
(
1.05977e+07
1.18255e+07
1.16038e+07
1.29096e+07
1.26258e+07
1.24835e+07
1.42101e+07
1.35273e+07
1.36481e+07
1.59527e+07
1.56452e+07
1.46201e+07
1.4777e+07
1.73505e+07
1.94474e+07
1.72455e+07
1.58397e+07
1.61132e+07
1.88422e+07
2.07693e+07
1.96529e+07
1.90031e+07
1.72118e+07
1.76021e+07
2.05613e+07
2.23751e+07
2.07122e+07
1.6912e+07
2.09992e+07
1.8743e+07
1.9258e+07
2.24632e+07
2.41829e+07
2.21342e+07
1.79364e+07
1.28419e+07
2.33172e+07
2.0501e+07
2.10957e+07
2.45335e+07
2.616e+07
2.36744e+07
1.91392e+07
1.3918e+07
8.48637e+06
2.59872e+07
2.25683e+07
2.31749e+07
2.67734e+07
2.82375e+07
2.52869e+07
2.02805e+07
1.49166e+07
9.90791e+06
5.86666e+06
2.89868e+07
2.50038e+07
2.55838e+07
2.926e+07
3.03926e+07
2.68627e+07
2.13256e+07
1.56155e+07
1.09771e+07
7.81722e+06
5.15119e+06
3.23057e+07
2.78608e+07
2.83864e+07
3.21573e+07
3.27433e+07
2.83612e+07
2.21407e+07
1.60899e+07
1.15873e+07
9.01692e+06
7.09179e+06
4.97654e+06
3.59671e+07
3.12273e+07
3.16607e+07
3.55749e+07
3.55229e+07
2.99555e+07
2.27268e+07
1.62645e+07
1.1922e+07
9.69573e+06
8.25904e+06
6.63507e+06
5.0511e+06
3.99589e+07
3.52552e+07
3.55422e+07
3.95917e+07
3.88103e+07
3.18556e+07
2.3386e+07
1.62448e+07
1.19812e+07
1.00631e+07
8.98995e+06
7.67353e+06
6.29333e+06
5.15525e+06
4.42421e+07
4.01454e+07
4.02464e+07
4.43119e+07
4.25648e+07
3.40124e+07
2.43635e+07
1.65351e+07
1.18897e+07
1.01807e+07
9.41497e+06
8.56002e+06
7.06823e+06
5.99784e+06
5.20443e+06
4.88991e+07
4.60825e+07
4.59803e+07
4.99064e+07
4.6734e+07
3.62735e+07
2.55493e+07
1.73562e+07
1.22102e+07
1.01501e+07
9.6898e+06
9.1423e+06
8.18553e+06
6.45084e+06
5.79853e+06
5.05375e+06
5.37173e+07
5.34055e+07
5.27771e+07
5.64422e+07
5.14041e+07
3.85851e+07
2.67809e+07
1.84607e+07
1.30844e+07
1.04522e+07
9.82618e+06
9.62644e+06
8.913e+06
7.70013e+06
5.89998e+06
5.69432e+06
4.61618e+06
5.79387e+07
6.2546e+07
6.07694e+07
6.34791e+07
5.65334e+07
4.12015e+07
2.80377e+07
1.95301e+07
1.42243e+07
1.12443e+07
1.01031e+07
9.96262e+06
9.60076e+06
8.73614e+06
7.09569e+06
5.50601e+06
5.67471e+06
4.05992e+06
6.31413e+07
7.3904e+07
7.04615e+07
7.07854e+07
6.13575e+07
4.39862e+07
2.95807e+07
2.0453e+07
1.51948e+07
1.23596e+07
1.07499e+07
1.01967e+07
1.01844e+07
9.60565e+06
8.45009e+06
6.52489e+06
5.31919e+06
5.55854e+06
4.42659e+06
6.67339e+07
9.07128e+07
8.25127e+07
7.88566e+07
6.55775e+07
4.61548e+07
3.10892e+07
2.13517e+07
1.58762e+07
1.32877e+07
1.1805e+07
1.06272e+07
1.04083e+07
1.03987e+07
9.59377e+06
7.96395e+06
6.06766e+06
5.43452e+06
5.17784e+06
7.48488e+06
8.43704e+07
1.00107e+08
9.74667e+07
8.78259e+07
6.99534e+07
4.7653e+07
3.17886e+07
2.19872e+07
1.6139e+07
1.38579e+07
1.27448e+07
1.15228e+07
1.06104e+07
1.06708e+07
1.04738e+07
9.38397e+06
7.37872e+06
5.92461e+06
5.73459e+06
5.72056e+06
1.2946e+07
8.26391e+07
1.04101e+08
1.10393e+08
9.51217e+07
7.4513e+07
4.97036e+07
3.18174e+07
2.16301e+07
1.61191e+07
1.36561e+07
1.32756e+07
1.24261e+07
1.12134e+07
1.07039e+07
1.0854e+07
1.03635e+07
8.90782e+06
6.81672e+06
6.10237e+06
5.49262e+06
8.81007e+06
1.84567e+07
2.45812e+07
8.67383e+07
1.14135e+08
1.17108e+08
8.22983e+07
5.24226e+07
3.28179e+07
2.04253e+07
1.51549e+07
1.34146e+07
1.2806e+07
1.28917e+07
1.19746e+07
1.08999e+07
1.08323e+07
1.08383e+07
9.99738e+06
8.14433e+06
6.31115e+06
6.04759e+06
5.22044e+06
1.53183e+07
1.88496e+07
1.65659e+07
3.32464e+07
9.02573e+07
1.21261e+08
1.12547e+08
6.7683e+07
3.55605e+07
2.02967e+07
1.31591e+07
1.24719e+07
1.27252e+07
1.22255e+07
1.23582e+07
1.13966e+07
1.05562e+07
1.08523e+07
1.05103e+07
9.28406e+06
6.96406e+06
6.0766e+06
5.93615e+06
8.80985e+06
2.03819e+07
1.45896e+07
1.66694e+07
2.86971e+07
3.3123e+07
9.3797e+07
1.24042e+08
1.06422e+08
5.80116e+07
2.40957e+07
1.1638e+07
1.0582e+07
1.19512e+07
1.23557e+07
1.16033e+07
1.17691e+07
1.06138e+07
1.02988e+07
1.06452e+07
9.88181e+06
8.07324e+06
6.53269e+06
6.78461e+06
5.92006e+06
1.52627e+07
2.2719e+07
1.38909e+07
1.80054e+07
2.93473e+07
2.9101e+07
3.38068e+07
9.69722e+07
1.2551e+08
1.08514e+08
5.68394e+07
1.92155e+07
7.76651e+06
1.0085e+07
1.17756e+07
1.1698e+07
1.12867e+07
1.10513e+07
9.85457e+06
1.03643e+07
1.01704e+07
9.15509e+06
7.28832e+06
6.48339e+06
5.20386e+06
1.23506e+07
2.33255e+07
3.17546e+07
3.14445e+07
1.90985e+07
3.12201e+07
2.96787e+07
2.99515e+07
3.27152e+07
9.82239e+07
1.22877e+08
1.14342e+08
6.59008e+07
2.14807e+07
8.34138e+06
8.77312e+06
1.14433e+07
1.09789e+07
1.13761e+07
1.02498e+07
9.40089e+06
1.04925e+07
9.53964e+06
7.88597e+06
5.01985e+06
3.70582e+06
9.0647e+06
2.84292e+07
4.11043e+07
3.71868e+07
2.41225e+07
1.99479e+07
3.22272e+07
3.02483e+07
3.03404e+07
2.84905e+07
3.0385e+07
9.60361e+07
1.1449e+08
1.19598e+08
8.58479e+07
3.45458e+07
1.18425e+07
7.13733e+06
9.6715e+06
9.48782e+06
1.07332e+07
8.49698e+06
9.05517e+06
8.58196e+06
7.99584e+06
2.18967e+06
3.40087e+06
1.45415e+07
3.65285e+07
4.45715e+07
3.31991e+07
1.78025e+07
7.27873e+06
2.03761e+07
3.29369e+07
2.98544e+07
3.02449e+07
2.93016e+07
2.33857e+07
3.21321e+07
8.96737e+07
1.00187e+08
1.19693e+08
1.1075e+08
6.14007e+07
2.38895e+07
1.06433e+07
8.07325e+06
6.74474e+06
7.81518e+06
4.96619e+06
6.83036e+06
4.49695e+06
7.73246e+06
1.83283e+07
3.11541e+07
4.29148e+07
4.24783e+07
2.84577e+07
1.17444e+07
3.17107e+06
1.30427e+06
2.0427e+07
3.31613e+07
2.95832e+07
2.9803e+07
2.93378e+07
2.50152e+07
1.56035e+07
4.03833e+07
7.85256e+07
8.00218e+07
1.08818e+08
1.28361e+08
1.00204e+08
5.76819e+07
3.16733e+07
2.04215e+07
1.57128e+07
1.38062e+07
1.52867e+07
2.09212e+07
3.12879e+07
4.22665e+07
4.55351e+07
4.12201e+07
3.32157e+07
2.11574e+07
8.28793e+06
2.46288e+06
1.34699e+06
852270
2.03016e+07
3.30189e+07
2.92319e+07
2.97083e+07
2.98151e+07
2.54807e+07
1.77329e+07
9.33515e+06
5.096e+07
6.32619e+07
5.6264e+07
8.49619e+07
1.21792e+08
1.29015e+08
1.06687e+08
8.09296e+07
6.50995e+07
5.77506e+07
5.68194e+07
5.73874e+07
5.81591e+07
5.43252e+07
4.42885e+07
3.03329e+07
2.0296e+07
1.55077e+07
7.65817e+06
2.70151e+06
1.38763e+06
1.07071e+06
622013
2.00632e+07
3.27094e+07
2.89761e+07
2.97966e+07
3.03156e+07
2.62195e+07
1.84219e+07
9.9798e+06
1.14574e+07
6.07224e+07
4.66033e+07
3.50513e+07
5.20937e+07
8.26708e+07
1.07043e+08
1.12004e+08
1.03917e+08
9.22818e+07
8.16449e+07
7.06528e+07
5.82133e+07
4.42181e+07
2.88039e+07
1.54435e+07
9.25189e+06
1.23081e+07
9.01323e+06
3.42929e+06
1.55548e+06
1.02571e+06
857074
375101
1.97054e+07
3.23198e+07
2.89337e+07
3.01682e+07
3.09895e+07
2.67152e+07
1.85668e+07
1.07819e+07
5.53798e+06
1.86993e+07
6.73065e+07
3.04603e+07
1.56458e+07
2.11691e+07
3.58004e+07
5.21089e+07
6.17553e+07
6.23151e+07
5.61828e+07
4.56125e+07
3.38346e+07
2.18815e+07
1.18703e+07
4.88762e+06
3.03239e+06
9.68534e+06
1.02066e+07
4.48469e+06
1.89555e+06
1.1206e+06
854356
545886
106351
1.93571e+07
3.20393e+07
2.91944e+07
3.0889e+07
3.17196e+07
2.72268e+07
1.87042e+07
1.11693e+07
6.64132e+06
3.26865e+06
3.00049e+07
6.67345e+07
1.88076e+07
1.54178e+06
3.49198e+06
7.63743e+06
1.2852e+07
1.64086e+07
1.68405e+07
1.43568e+07
1.01165e+07
5.87238e+06
2.58203e+06
598424
595200
6.78475e+06
1.09096e+07
5.95569e+06
2.37875e+06
1.22728e+06
917496
593868
202462
79260.8
1.93263e+07
3.20703e+07
2.98429e+07
3.19016e+07
3.23671e+07
2.75931e+07
1.88084e+07
1.13826e+07
7.17543e+06
4.19523e+06
4.54723e+06
4.40351e+07
5.82396e+07
1.27176e+07
5.4062e+06
4.45603e+06
5.09855e+06
6.22409e+06
5.31526e+06
4.29097e+06
3.80636e+06
3.43109e+06
2.66703e+06
1.26753e+06
279769
3.93689e+06
1.04078e+07
7.54645e+06
3.07103e+06
1.3965e+06
957984
673992
254374
104766
71114.6
1.96833e+07
3.25972e+07
3.07356e+07
3.28937e+07
3.27743e+07
2.77539e+07
1.88453e+07
1.14999e+07
7.23982e+06
4.53597e+06
1.96466e+06
1.02068e+07
5.77846e+07
4.32464e+07
7.59096e+06
6.31073e+06
4.75492e+06
6.46647e+06
6.8829e+06
5.80906e+06
4.84404e+06
4.25352e+06
3.39917e+06
1.92773e+06
487164
1.82682e+06
8.67463e+06
8.93476e+06
3.99048e+06
1.6541e+06
1.01183e+06
729467
329137
133135
91693
44481.9
2.01374e+07
3.33656e+07
3.15261e+07
3.35669e+07
3.28808e+07
2.7727e+07
1.88415e+07
1.14975e+07
7.23703e+06
4.56962e+06
2.59848e+06
930521
2.05094e+07
6.45806e+07
2.69945e+07
2.36934e+06
2.64421e+06
4.22427e+06
6.45043e+06
6.06749e+06
5.09732e+06
4.4424e+06
3.71778e+06
2.35729e+06
655667
654015
6.2379e+06
9.65599e+06
5.14276e+06
2.03228e+06
1.09395e+06
769001
399427
176144
113717
56090.3
22574.8
2.11281e+07
3.44347e+07
3.22308e+07
3.38107e+07
3.28122e+07
2.76329e+07
1.88821e+07
1.1411e+07
7.14937e+06
4.55292e+06
2.85293e+06
1.74225e+06
2.7513e+06
3.60517e+07
5.82621e+07
1.44082e+07
1.35483e+06
1.62134e+06
4.98879e+06
6.07674e+06
5.25824e+06
4.42472e+06
3.83853e+06
2.79887e+06
1.17608e+06
157671
3.81135e+06
9.36642e+06
6.42534e+06
2.56663e+06
1.22498e+06
797128
468328
227809
143980
67466.3
27465.4
10060
2.19885e+07
3.55734e+07
3.27314e+07
3.38846e+07
3.27617e+07
2.75878e+07
1.89489e+07
1.13199e+07
7.05976e+06
4.53445e+06
2.98705e+06
2.10121e+06
748054
8.45389e+06
5.23539e+07
3.99626e+07
5.39112e+06
514083
2.94497e+06
5.76226e+06
5.64908e+06
4.64846e+06
3.95087e+06
3.17899e+06
1.69175e+06
287730
1.92199e+06
8.05627e+06
7.60836e+06
3.28467e+06
1.42315e+06
830145
521035
291929
181709
82835.2
31990
11869.2
4228.58
2.25185e+07
3.60559e+07
3.23492e+07
3.34476e+07
3.25499e+07
2.76152e+07
1.8995e+07
1.12557e+07
7.04108e+06
4.50165e+06
3.09765e+06
2.23111e+06
1.24923e+06
597354
2.0108e+07
5.91515e+07
2.02528e+07
1.60554e+06
1.42306e+06
4.59279e+06
5.92581e+06
5.0168e+06
4.12133e+06
3.46244e+06
2.27008e+06
654086
744382
6.0817e+06
8.36186e+06
4.18816e+06
1.70941e+06
885167
554523
366765
228941
101775
38038.9
13462.7
4873.32
1724.54
2.2718e+07
3.59913e+07
3.14829e+07
3.27546e+07
3.24596e+07
2.76496e+07
1.90219e+07
1.12542e+07
7.07802e+06
4.49857e+06
3.12499e+06
2.31766e+06
1.41802e+06
534319
3.43377e+06
3.78164e+07
4.91304e+07
7.91522e+06
1.07232e+06
2.65145e+06
5.61806e+06
5.41579e+06
4.3422e+06
3.65864e+06
2.75505e+06
1.15816e+06
112301
3.97389e+06
8.38923e+06
5.21926e+06
2.10911e+06
974423
574735
450378
287080
125463
45243.2
15587.4
5400.15
1954.29
703.54
2.26188e+07
3.56934e+07
3.06536e+07
3.24955e+07
3.26216e+07
2.77286e+07
1.90402e+07
1.13235e+07
7.12911e+06
4.51455e+06
3.15412e+06
2.27264e+06
1.53127e+06
879618
137949
1.15436e+07
5.23903e+07
2.8819e+07
2.45532e+06
933763
4.35468e+06
5.65772e+06
4.66639e+06
3.82588e+06
3.13153e+06
1.71988e+06
269177
2.19909e+06
7.58987e+06
6.23713e+06
2.64301e+06
1.11029e+06
598176
537785
357417
155078
54050.4
18045.3
6107.54
2122.2
785.596
300.673
2.22401e+07
3.54114e+07
3.01986e+07
3.26912e+07
3.29918e+07
2.78745e+07
1.89766e+07
1.14025e+07
7.16436e+06
4.53929e+06
3.19995e+06
2.21857e+06
1.50042e+06
1.06556e+06
418475
1.63673e+06
2.75296e+07
4.99497e+07
1.15059e+07
491592
2.36671e+06
5.39199e+06
5.07678e+06
4.04152e+06
3.39707e+06
2.26834e+06
642942
979343
6.13557e+06
7.02358e+06
3.3141e+06
1.31208e+06
635132
622854
440756
191864
64834.4
20971.9
6901.79
2353.51
837.446
330.972
139.077
2.16748e+07
3.47505e+07
3.01979e+07
3.3133e+07
3.33067e+07
2.78656e+07
1.89926e+07
1.15952e+07
7.15775e+06
4.56039e+06
3.2653e+06
2.18626e+06
1.42585e+06
1.1135e+06
644640
186714
7.4666e+06
4.49313e+07
3.1339e+07
3.03766e+06
651930
4.26869e+06
5.42921e+06
4.35328e+06
3.60494e+06
2.72896e+06
1.10783e+06
247221
4.39086e+06
7.34259e+06
4.09433e+06
1.59737e+06
693984
703685
536716
237311
78137.9
24439.3
7824.03
2605.01
913.047
346.612
149.982
75.9026
2.18401e+07
3.4813e+07
3.06229e+07
3.36434e+07
3.34727e+07
2.76557e+07
1.89299e+07
1.16699e+07
7.04458e+06
4.56764e+06
3.3359e+06
2.181e+06
1.37268e+06
1.07417e+06
729465
302799
1.01066e+06
2.16509e+07
4.80954e+07
1.28857e+07
586339
2.41161e+06
5.39564e+06
4.7715e+06
3.81277e+06
3.06433e+06
1.67268e+06
187749
2.745e+06
7.04421e+06
4.9093e+06
1.97824e+06
788011
783043
641395
293305
94648.8
28567.6
8885.92
2890.38
992.98
371.324
154.246
79.5724
50.7538
2.25213e+07
3.5662e+07
3.18231e+07
3.45121e+07
3.35481e+07
2.74125e+07
1.8853e+07
1.15927e+07
6.85063e+06
4.53215e+06
3.38202e+06
2.18343e+06
1.36322e+06
1.02383e+06
701769
465150
25486.9
5.79068e+06
3.97654e+07
3.14269e+07
3.80155e+06
722646
4.58208e+06
5.2092e+06
4.07454e+06
3.31241e+06
2.15651e+06
561343
1.46145e+06
6.14826e+06
5.63245e+06
2.45579e+06
932235
859026
754666
361973
115199
33494.7
10111.1
3210.91
1081.99
396.516
162.42
80.8643
52.3662
35.1016
2.33288e+07
3.67041e+07
3.26925e+07
3.49144e+07
3.33543e+07
2.72196e+07
1.88269e+07
1.146e+07
6.63046e+06
4.50389e+06
3.43851e+06
2.16972e+06
1.37355e+06
1.00839e+06
624231
531537
255367
921822
1.92773e+07
4.43057e+07
1.23089e+07
767178
2.96071e+06
5.41654e+06
4.43037e+06
3.50072e+06
2.59066e+06
998240
618310
4.84848e+06
6.10212e+06
3.01598e+06
1.14067e+06
933697
871946
445008
141002
39408.2
11523.2
3572.45
1179.85
424.148
170.628
83.7342
53.0381
36.324
23.6504
2.44889e+07
3.80305e+07
3.29915e+07
3.48587e+07
3.30219e+07
2.70745e+07
1.88553e+07
1.13623e+07
6.45612e+06
4.4707e+06
3.38235e+06
2.06676e+06
1.37102e+06
1.00609e+06
558024
545131
382580
277653
5.50336e+06
3.70054e+07
2.81079e+07
2.7717e+06
1.22645e+06
4.99717e+06
4.8558e+06
3.70008e+06
2.90356e+06
1.48994e+06
77916.3
3.42942e+06
6.16918e+06
3.62476e+06
1.42238e+06
1.00826e+06
990134
544457
173049
46538.7
13152.9
3979.59
1287.95
454.034
179.557
86.5235
54.2176
36.963
25.168
15.1991
2.49881e+07
3.8963e+07
3.29913e+07
3.47664e+07
3.28054e+07
2.69987e+07
1.907e+07
1.13388e+07
6.36969e+06
4.43465e+06
3.30096e+06
1.94046e+06
1.30277e+06
975942
520631
488057
473841
343177
971167
1.92183e+07
4.02648e+07
1.01884e+07
234504
3.70451e+06
5.21019e+06
3.96899e+06
3.13066e+06
1.96692e+06
356825
2.15579e+06
5.76266e+06
4.22462e+06
1.77334e+06
1.08845e+06
1.10666e+06
661173
212876
55168
15037.7
4437.97
1407.19
486.443
189.005
89.4144
55.2618
37.8701
25.5835
16.5773
9.74543
2.4874e+07
3.88472e+07
3.21785e+07
3.40995e+07
3.28615e+07
2.7141e+07
1.91994e+07
1.12664e+07
6.41313e+06
4.44601e+06
3.14946e+06
1.78e+06
1.19844e+06
888764
477053
442201
468856
446524
188007
6.22094e+06
3.58302e+07
2.29381e+07
2.02221e+06
1.9128e+06
5.19304e+06
4.33934e+06
3.30368e+06
2.38493e+06
764852
1.17193e+06
4.95318e+06
4.71268e+06
2.1776e+06
1.18401e+06
1.22387e+06
794939
261861
65666.3
17225.8
4953.03
1538.66
521.505
199.029
92.3373
56.2896
38.7311
26.3518
17.0716
10.3149
6.42719
2.47215e+07
3.84357e+07
3.14293e+07
3.37529e+07
3.27832e+07
2.7313e+07
1.93975e+07
1.14115e+07
6.48122e+06
4.52554e+06
3.01506e+06
1.59429e+06
1.07098e+06
773731
421636
422396
420455
559906
233521
1.14969e+06
2.0918e+07
3.5119e+07
6.88445e+06
463537
4.45546e+06
4.75999e+06
3.50625e+06
2.68636e+06
1.20663e+06
443607
3.89926e+06
4.95844e+06
2.6484e+06
1.32336e+06
1.34552e+06
942145
321606
78464.9
19783.5
5530.73
1683.1
559.39
209.613
95.3358
57.2983
39.5991
27.026
17.9111
10.6012
6.7957
4.35198
2.43737e+07
3.83091e+07
3.12277e+07
3.3751e+07
3.30748e+07
2.74006e+07
1.95327e+07
1.15201e+07
6.69197e+06
4.72759e+06
2.95875e+06
1.44882e+06
944116
651062
361325
441483
420905
563478
479069
42497.1
8.03348e+06
3.51285e+07
1.69814e+07
984521
2.9717e+06
5.06291e+06
3.78929e+06
2.87277e+06
1.71114e+06
124445
2.78922e+06
4.9002e+06
3.15371e+06
1.52948e+06
1.47407e+06
1.09802e+06
393602
94112.7
22789.5
6178.85
1841.02
600.274
220.776
98.391
58.2834
40.4554
27.6845
18.7146
11.1929
6.95527
4.60746
3.02769
2.47501e+07
3.82077e+07
3.13257e+07
3.38219e+07
3.31191e+07
2.74254e+07
1.95568e+07
1.15677e+07
6.87923e+06
4.9175e+06
2.97686e+06
1.40389e+06
865670
529105
300995
451231
466464
549601
605075
278289
1.82888e+06
2.38969e+07
2.88599e+07
4.17454e+06
1.34138e+06
4.94017e+06
4.15995e+06
3.04051e+06
2.1053e+06
548314
1.77887e+06
4.52946e+06
3.59812e+06
1.81285e+06
1.60101e+06
1.25235e+06
479489
113273
26339.8
6905.53
2012.58
644.219
232.511
101.504
59.2334
41.2937
28.3068
19.5283
11.8338
7.20883
4.69065
3.21434
2.17035
2.54461e+07
3.91169e+07
3.18453e+07
3.38923e+07
3.30141e+07
2.73606e+07
1.94655e+07
1.15532e+07
6.98276e+06
5.12433e+06
3.00495e+06
1.49147e+06
855458
447148
211236
396414
495194
516632
632295
491399
150355
1.14827e+07
3.35613e+07
1.09871e+07
148961
4.1074e+06
4.56885e+06
3.22979e+06
2.38276e+06
1.0204e+06
962093
3.90442e+06
3.90619e+06
2.18205e+06
1.7085e+06
1.39514e+06
580854
136783
30536
7722.11
2197.56
691.253
244.804
104.646
60.1451
42.1125
28.8981
20.3256
12.5125
7.46655
4.83423
3.25623
2.31244
1.60645
2.59586e+07
3.99308e+07
3.23407e+07
3.38956e+07
3.29748e+07
2.73718e+07
1.92884e+07
1.14098e+07
7.11236e+06
5.26858e+06
3.07606e+06
1.60086e+06
948444
448631
35065.8
256663
438373
479463
540525
562008
206879
3.72725e+06
2.73302e+07
2.11126e+07
1.86431e+06
2.67428e+06
4.85438e+06
3.48506e+06
2.58282e+06
1.47841e+06
394999
3.13102e+06
4.02671e+06
2.61961e+06
1.80509e+06
1.52529e+06
699429
165628
35487
8640.89
2396.02
741.175
257.667
107.795
61.0207
42.9163
29.478
21.0861
13.2163
7.74417
4.97782
3.34209
2.33059
1.71837
1.22912
2.66465e+07
4.0299e+07
3.23206e+07
3.37719e+07
3.27357e+07
2.7454e+07
1.91615e+07
1.13463e+07
7.08747e+06
5.29047e+06
3.13902e+06
1.76375e+06
1.07282e+06
563738
177400
88701.1
272907
417514
435095
518595
319887
759853
1.62867e+07
2.92495e+07
5.86694e+06
1.21739e+06
4.73987e+06
3.81723e+06
2.75145e+06
1.89305e+06
592904
2.34565e+06
3.95361e+06
2.9884e+06
1.91167e+06
1.64273e+06
836049
200975
41297.1
9674.71
2608.32
793.659
271.069
110.94
61.8631
43.7021
30.1664
21.8333
13.964
8.04756
5.13456
3.42767
2.38263
1.72316
1.31955
0.972488
2.63079e+07
4.04746e+07
3.2044e+07
3.36815e+07
3.27096e+07
2.7829e+07
1.9115e+07
1.12841e+07
7.08146e+06
5.24675e+06
2.97594e+06
1.87437e+06
1.20807e+06
664579
411221
213663
121297
319437
375856
401043
439890
84084.9
7.11041e+06
2.90051e+07
1.30962e+07
253555
3.98829e+06
4.1964e+06
2.93671e+06
2.16185e+06
1.13174e+06
1.69324e+06
3.67226e+06
3.29705e+06
2.07682e+06
1.74686e+06
988824
244057
48078.4
10833.4
2835.51
848.118
284.93
114.079
62.6857
44.4668
30.9471
22.5791
14.7464
8.54653
5.30902
3.5218
2.43488
1.75512
1.3167
1.04654
0.795384
2.60746e+07
3.98468e+07
3.13867e+07
3.36534e+07
3.27924e+07
2.81452e+07
1.91237e+07
1.13379e+07
7.07689e+06
5.01756e+06
2.82802e+06
1.86472e+06
1.28947e+06
762060
468335
414687
205439
208400
356032
320048
465170
229599
2.09461e+06
2.1442e+07
2.18429e+07
2.33714e+06
2.6988e+06
4.50997e+06
3.1657e+06
2.40109e+06
1.68509e+06
1.25422e+06
3.22054e+06
3.521e+06
2.31294e+06
1.88046e+06
1.15339e+06
296176
55952
12125.2
3079.34
904.07
299.094
117.237
63.4906
45.207
31.7304
23.3227
15.5491
9.11624
5.50062
3.62395
2.49316
1.78731
1.33622
1.03925
0.856301
0.672188
2.59331e+07
3.95105e+07
3.10625e+07
3.36909e+07
3.28804e+07
2.83901e+07
1.92499e+07
1.13766e+07
7.14582e+06
4.83417e+06
2.64054e+06
1.77355e+06
1.28378e+06
781305
404346
515370
334248
169666
325342
302369
413752
407042
296924
1.21945e+07
2.71026e+07
6.48789e+06
1.32285e+06
4.53979e+06
3.45462e+06
2.63807e+06
2.172e+06
1.18905e+06
2.73077e+06
3.63209e+06
2.63786e+06
2.0064e+06
1.31822e+06
358691
65068.4
13552.7
3340.63
961.067
313.334
120.466
64.29
45.9135
32.514
24.0625
16.3543
9.71911
5.70621
3.73033
2.55563
1.82366
1.35613
1.05087
0.846332
0.721931
0.586606
2.62196e+07
3.921e+07
3.08432e+07
3.38687e+07
3.30038e+07
2.85135e+07
1.93254e+07
1.15027e+07
7.38536e+06
4.72309e+06
2.50651e+06
1.64149e+06
1.17262e+06
791940
275108
378854
418867
181526
257306
327814
355257
515491
182854
5.24837e+06
2.50902e+07
1.31951e+07
303623
4.05943e+06
3.81351e+06
2.8943e+06
2.55895e+06
1.47846e+06
2.3125e+06
3.5832e+06
2.98467e+06
2.13183e+06
1.47166e+06
432871
75627.8
15115.1
3618.33
1019.19
327.423
123.811
65.0764
46.5766
33.2891
24.8075
17.1421
10.354
5.92555
3.84151
2.62004
1.8621
1.3787
1.06295
0.852827
0.710422
0.626408
0.527956
2.66533e+07
3.94031e+07
3.0366e+07
3.39991e+07
3.32173e+07
2.85921e+07
1.93602e+07
1.15963e+07
7.52681e+06
4.70125e+06
2.5118e+06
1.54921e+06
1.02565e+06
790158
332177
101059
372176
195270
145832
356398
344319
509946
357663
1.57502e+06
1.81298e+07
2.05723e+07
2.35847e+06
3.07061e+06
4.18817e+06
3.162e+06
2.92431e+06
1.97028e+06
2.04187e+06
3.40545e+06
3.25852e+06
2.24754e+06
1.60385e+06
520455
87843.7
16809.2
3908.56
1078.73
341.153
127.226
65.818
47.1796
34.0447
25.5547
17.9357
11.0367
6.1908
3.96048
2.68641
1.9014
1.4024
1.07677
0.859571
0.713369
0.614049
0.5589
0.489361
2.6903e+07
3.94518e+07
2.99825e+07
3.41193e+07
3.34534e+07
2.85833e+07
1.93971e+07
1.16491e+07
7.63663e+06
4.70436e+06
2.62681e+06
1.54496e+06
895081
708787
492129
143993
197147
274760
62243.5
337150
375890
435028
476074
208616
1.04967e+07
2.43379e+07
6.21409e+06
1.83816e+06
4.43272e+06
3.47801e+06
3.27496e+06
2.45221e+06
1.88978e+06
3.14162e+06
3.45242e+06
2.40718e+06
1.72288e+06
622973
101920
18624.5
4206
1139.57
354.3
130.532
66.4679
47.7122
34.7807
26.2887
18.7403
11.7574
6.62604
4.09244
2.75743
1.94243
1.4268
1.09127
0.867611
0.71635
0.614233
0.546001
0.512383
0.466751
2.68605e+07
3.9173e+07
2.9417e+07
3.42125e+07
3.3993e+07
2.85395e+07
1.94518e+07
1.16395e+07
7.62664e+06
4.71318e+06
2.78847e+06
1.64585e+06
841607
593140
478436
313856
11835
302671
112737
240556
401427
358429
494426
210848
4.78612e+06
2.23865e+07
1.20134e+07
430442
4.36875e+06
3.85621e+06
3.60814e+06
2.92296e+06
1.95595e+06
2.87472e+06
3.52965e+06
2.62432e+06
1.85608e+06
740773
117890
20546
4504.71
1200.99
367.051
133.576
67.0249
48.1778
35.5003
27.0079
19.5536
12.5085
7.10111
4.23702
2.83407
1.98692
1.45265
1.10634
0.876166
0.720323
0.614435
0.54393
0.498993
0.482374
0.457186
2.68589e+07
3.90834e+07
2.88732e+07
3.43557e+07
3.44135e+07
2.85189e+07
1.95198e+07
1.16534e+07
7.53367e+06
4.63074e+06
2.92748e+06
1.77179e+06
890215
561107
337306
382148
160619
218248
242528
64389.2
370555
316032
411739
392533
1.60673e+06
1.6587e+07
1.81852e+07
1.62746e+06
3.89141e+06
4.2869e+06
3.94907e+06
3.35479e+06
2.22917e+06
2.66512e+06
3.50622e+06
2.88831e+06
1.98683e+06
870415
135594
22551.2
4799.69
1261.23
379.675
136.194
67.4812
48.5862
36.1952
27.7227
20.3637
13.2787
7.60796
4.39111
2.9128
2.03503
1.481
1.12266
0.885272
0.724837
0.615587
0.541858
0.495033
0.468431
0.465804
0.458784
2.72854e+07
3.91394e+07
2.8837e+07
3.45321e+07
3.47648e+07
2.85167e+07
1.96041e+07
1.17024e+07
7.32481e+06
4.53931e+06
3.01318e+06
1.83486e+06
958443
634387
291498
256748
308488
70421.4
378998
113670
261686
325949
307841
507407
272083
1.02457e+07
2.15536e+07
4.95031e+06
3.11134e+06
4.70601e+06
4.30545e+06
3.76402e+06
2.61136e+06
2.50527e+06
3.41434e+06
3.15516e+06
2.1306e+06
1.00575e+06
154690
24616.5
5087.89
1318.62
392.254
138.289
67.7724
48.892
36.8461
28.4305
21.1833
14.0475
8.15186
4.55609
2.99558
2.08468
1.51197
1.14109
0.895392
0.72975
0.617028
0.540687
0.491067
0.462602
0.451207
0.460954
0.470992
2.76721e+07
3.98587e+07
2.9039e+07
3.45787e+07
3.50813e+07
2.85262e+07
1.97382e+07
1.18199e+07
7.13962e+06
4.48916e+06
3.04087e+06
1.88239e+06
967329
620135
360392
111562
364208
66180.6
322818
282496
106955
353091
245576
500661
213155
5.29179e+06
2.04061e+07
9.79774e+06
2.07969e+06
5.00425e+06
4.69575e+06
4.16085e+06
3.05516e+06
2.47399e+06
3.26755e+06
3.35249e+06
2.27421e+06
1.14149e+06
174789
26703.9
5366.81
1371.56
404.328
139.921
67.8249
49.0209
37.4404
29.1009
22.0216
14.8165
8.7434
4.78991
3.08519
2.13639
1.54389
1.16105
0.907001
0.735545
0.618839
0.539779
0.48772
0.456742
0.443396
0.445274
0.466781
0.493322
2.78517e+07
4.04593e+07
2.95625e+07
3.4596e+07
3.52216e+07
2.8597e+07
1.98487e+07
1.18492e+07
7.00419e+06
4.46688e+06
3.06262e+06
1.86049e+06
966722
579015
380691
97142.4
287379
205298
187745
389118
30498.9
334955
254485
419713
411758
2.18029e+06
1.60065e+07
1.51571e+07
874794
5.09703e+06
5.12337e+06
4.55763e+06
3.50109e+06
2.57507e+06
3.09586e+06
3.43019e+06
2.44557e+06
1.28014e+06
195349
28755.2
5632.21
1418.8
414.944
141.143
67.5186
48.8887
37.9481
29.7192
22.8596
15.5927
9.36092
5.14014
3.18179
2.18735
1.57317
1.1794
0.918869
0.742318
0.621519
0.539397
0.484887
0.451656
0.435673
0.435433
0.449812
0.482731
0.525688
2.79267e+07
4.08607e+07
2.99891e+07
3.46685e+07
3.52333e+07
2.88438e+07
1.97882e+07
1.18323e+07
6.85262e+06
4.56235e+06
3.10994e+06
1.82462e+06
964915
575454
331943
237932
152167
286193
52661.3
340377
205204
239522
323738
296108
514120
564403
1.09053e+07
1.80359e+07
3.08823e+06
4.99747e+06
5.57158e+06
4.96741e+06
3.93717e+06
2.76902e+06
2.89522e+06
3.44738e+06
2.66909e+06
1.42726e+06
215589
30670.6
5876.56
1459.21
423.043
141.776
66.7548
48.4429
38.2999
30.295
23.6639
16.3882
9.99257
5.51563
3.28136
2.23948
1.60462
1.19801
0.930061
0.749106
0.624923
0.539684
0.482602
0.44694
0.428817
0.425778
0.437431
0.46397
0.508757
0.568839
2.81171e+07
4.10762e+07
3.04645e+07
3.47353e+07
3.52516e+07
2.91255e+07
1.97592e+07
1.17684e+07
6.71584e+06
4.65815e+06
3.22577e+06
1.81972e+06
946736
557691
321096
221449
69329.7
254966
197239
158832
360740
101532
393586
211567
500539
163790
6.44142e+06
1.81181e+07
7.08944e+06
4.73325e+06
5.99178e+06
5.3946e+06
4.36782e+06
3.06779e+06
2.75809e+06
3.42068e+06
2.8978e+06
1.59962e+06
233914
32332
6087.47
1491.12
427.482
141.269
65.4472
47.6817
38.407
30.8267
24.4403
17.175
10.651
5.89268
3.3883
2.29222
1.6398
1.22061
0.94381
0.756917
0.628718
0.540355
0.480826
0.442736
0.422239
0.416868
0.425697
0.44888
0.487661
0.545147
0.623398
2.83113e+07
4.13186e+07
3.07348e+07
3.49648e+07
3.52335e+07
2.93894e+07
1.96903e+07
1.1601e+07
6.65102e+06
4.76652e+06
3.2812e+06
1.83107e+06
950326
557106
348919
130858
155487
123452
342854
11961.1
437815
119088
387531
207510
336781
505908
3.25414e+06
1.5451e+07
1.11217e+07
3.57973e+06
6.35747e+06
5.84784e+06
4.79203e+06
3.40058e+06
2.69892e+06
3.34333e+06
3.0793e+06
1.75945e+06
248814
33625.4
6248.1
1512.15
427.059
138.873
63.4515
46.6126
38.2475
31.2116
25.1912
17.938
11.3116
6.25288
3.49757
2.34824
1.67808
1.24497
0.958706
0.765559
0.63323
0.541863
0.479579
0.439178
0.416342
0.408604
0.414574
0.434633
0.469669
0.521183
0.59241
0.689722
2.84093e+07
4.15173e+07
3.11242e+07
3.54313e+07
3.5249e+07
2.959e+07
1.95437e+07
1.14346e+07
6.65399e+06
4.85488e+06
3.30854e+06
1.79996e+06
961574
572315
378289
134908
214194
57446.7
257720
132135
333732
297716
286118
269821
185509
685958
1.21372e+06
1.15466e+07
1.42897e+07
3.13198e+06
6.71878e+06
6.33213e+06
5.21224e+06
3.75555e+06
2.72767e+06
3.16642e+06
3.19211e+06
1.92423e+06
261210
34469.9
6336.73
1518.21
420.353
133.887
60.5174
45.2231
37.9317
31.2916
25.904
18.6906
11.9296
6.61683
3.60243
2.40663
1.71556
1.26978
0.974972
0.77547
0.6385
0.543895
0.478993
0.436242
0.411025
0.400873
0.404368
0.421221
0.452495
0.499693
0.564976
0.651353
0.768633
2.83946e+07
4.17765e+07
3.13209e+07
3.62745e+07
3.54466e+07
2.95649e+07
1.93606e+07
1.12678e+07
6.71235e+06
4.96657e+06
3.31069e+06
1.72069e+06
946692
597588
393736
185836
195749
189679
105553
246182
204602
421108
129159
345077
121299
717637
326855
7.71787e+06
1.53749e+07
5.06709e+06
7.02033e+06
6.80494e+06
5.63079e+06
4.11494e+06
2.82714e+06
2.95921e+06
3.25993e+06
2.12596e+06
273605
34764.1
6326.34
1503.13
405.932
125.82
56.4132
43.5398
37.5498
31.023
26.4764
19.4462
12.4993
6.99891
3.76914
2.46723
1.75148
1.29427
0.991935
0.786549
0.644825
0.54651
0.478967
0.43385
0.406376
0.393807
0.394612
0.408631
0.436449
0.479286
0.539422
0.61992
0.722613
0.860968
2.91383e+07
4.22762e+07
3.17861e+07
3.70755e+07
3.56839e+07
2.93201e+07
1.91823e+07
1.10902e+07
6.74896e+06
5.0818e+06
3.3698e+06
1.63525e+06
880250
623447
399075
192605
188247
210863
47949.6
209200
104546
394808
133931
374963
110687
633247
1.02515e+06
4.59555e+06
1.43057e+07
8.14454e+06
6.61919e+06
7.20837e+06
6.0459e+06
4.47209e+06
2.97835e+06
2.75273e+06
3.27155e+06
2.34462e+06
282589
34288.8
6198.4
1462.68
383.91
114.927
51.2562
41.4693
37.1453
30.588
26.8074
20.1816
13.023
7.36661
3.95951
2.52963
1.78761
1.31793
1.00832
0.797939
0.652074
0.550189
0.479515
0.43199
0.402308
0.387452
0.385768
0.396878
0.421268
0.460167
0.515264
0.589572
0.686426
0.806545
0.966407
2.96481e+07
4.38844e+07
3.25259e+07
3.77167e+07
3.58851e+07
2.89508e+07
1.91065e+07
1.10916e+07
6.78706e+06
5.11878e+06
3.43807e+06
1.61307e+06
820766
612234
444886
181934
157368
188116
127099
96115.6
199308
262749
375406
316183
279622
599183
1.59269e+06
2.5218e+06
1.18203e+07
1.1164e+07
5.93919e+06
7.52562e+06
6.479e+06
4.82901e+06
3.16907e+06
2.58028e+06
3.21482e+06
2.53519e+06
286236
33335.8
5986.38
1395.77
354.917
101.506
45.2257
38.979
36.7345
30.2432
26.9581
20.7923
13.5429
7.7127
4.14439
2.58671
1.82191
1.34204
1.02418
0.808895
0.659631
0.554602
0.481086
0.430906
0.398847
0.38166
0.377615
0.385921
0.407117
0.442034
0.492533
0.561324
0.651082
0.765489
0.903879
1.0846
3.00099e+07
4.47942e+07
3.37776e+07
3.81203e+07
3.58091e+07
2.84095e+07
1.90895e+07
1.11623e+07
6.82577e+06
5.08731e+06
3.43234e+06
1.70013e+06
778808
593193
442268
261915
120406
182366
139700
51439.6
244922
105886
504678
184785
574570
716322
1.97279e+06
1.61253e+06
8.76813e+06
1.31647e+07
5.48915e+06
7.84917e+06
6.93572e+06
5.18575e+06
3.38862e+06
2.50917e+06
3.08568e+06
2.70864e+06
288100
32199.8
5668.38
1294.6
320.357
86.668
38.8864
36.3154
36.3062
30.1861
27.0649
21.1915
14.041
8.06338
4.32642
2.64038
1.85351
1.36511
1.04049
0.8198
0.666867
0.559368
0.483327
0.430534
0.396104
0.376612
0.370101
0.375835
0.393789
0.424972
0.471077
0.534434
0.617986
0.724632
0.857574
1.0142
1.21415
3.1735e+07
4.56263e+07
3.43519e+07
3.856e+07
3.57097e+07
2.7927e+07
1.90754e+07
1.12185e+07
6.85445e+06
5.02846e+06
3.34178e+06
1.73695e+06
852267
614936
394321
363450
92480.3
223755
167301
81990.8
135053
144907
500792