/*--------------------------------*- C++ -*----------------------------------*\
| =========                 |                                                 |
| \\      /  F ield         | OpenFOAM: The Open Source CFD Toolbox           |
|  \\    /   O peration     | Version:  v2012                                 |
|   \\  /    A nd           | Website:  www.openfoam.com                      |
|    \\/     M anipulation  |                                                 |
\*---------------------------------------------------------------------------*/
FoamFile
{
    version     2.0;
    format      ascii;
    class       volScalarField;
    location    "12000";
    object      Rew;
}
// * * * * * * * * * * * * * * * * * * * * * * * * * * * * * * * * * * * * * //

dimensions      [0 0 0 0 0 0 0];


internalField   nonuniform List<scalar> 
27324
(
1.05551e+07
1.17304e+07
1.15998e+07
1.27951e+07
1.26118e+07
1.24854e+07
1.40861e+07
1.35028e+07
1.36423e+07
1.59625e+07
1.55264e+07
1.4591e+07
1.47545e+07
1.73495e+07
1.94717e+07
1.71385e+07
1.581e+07
1.60823e+07
1.88047e+07
2.07668e+07
1.9687e+07
1.89029e+07
1.7185e+07
1.75672e+07
2.05044e+07
2.2283e+07
2.06588e+07
1.69014e+07
2.0882e+07
1.87216e+07
1.92257e+07
2.23948e+07
2.40414e+07
2.18679e+07
1.76744e+07
1.26392e+07
2.317e+07
2.04796e+07
2.10725e+07
2.4468e+07
2.59884e+07
2.32913e+07
1.8436e+07
1.31339e+07
7.73308e+06
2.58138e+07
2.25399e+07
2.31551e+07
2.67283e+07
2.80711e+07
2.4836e+07
1.9343e+07
1.33556e+07
8.01907e+06
3.99598e+06
2.87989e+07
2.49664e+07
2.55552e+07
2.9225e+07
3.02733e+07
2.64242e+07
2.02653e+07
1.36537e+07
7.94953e+06
4.39641e+06
2.26199e+06
3.21083e+07
2.78171e+07
2.83437e+07
3.21038e+07
3.26451e+07
2.80205e+07
2.11076e+07
1.39288e+07
7.99842e+06
4.31457e+06
2.699e+06
1.20731e+06
3.57572e+07
3.11797e+07
3.16063e+07
3.54888e+07
3.53755e+07
2.96407e+07
2.18593e+07
1.41315e+07
8.07152e+06
4.37345e+06
2.54123e+06
1.62364e+06
323220
3.97873e+07
3.51954e+07
3.54799e+07
3.94772e+07
3.85781e+07
3.14077e+07
2.25138e+07
1.43217e+07
8.13472e+06
4.42556e+06
2.55598e+06
1.45391e+06
806763
145837
4.41356e+07
4.00802e+07
4.01582e+07
4.41769e+07
4.22547e+07
3.33532e+07
2.3185e+07
1.45239e+07
8.23994e+06
4.43219e+06
2.52283e+06
1.51142e+06
613272
347997
481387
4.88363e+07
4.60301e+07
4.58692e+07
4.97058e+07
4.63639e+07
3.54166e+07
2.39296e+07
1.48205e+07
8.37736e+06
4.45505e+06
2.46767e+06
1.46753e+06
729581
66053
14857.1
699066
5.3656e+07
5.33711e+07
5.26788e+07
5.61751e+07
5.08718e+07
3.75769e+07
2.47691e+07
1.52254e+07
8.56204e+06
4.45987e+06
2.45663e+06
1.46291e+06
691480
141174
325351
129845
875388
5.78681e+07
6.24884e+07
6.07009e+07
6.32344e+07
5.58523e+07
3.98769e+07
2.57619e+07
1.57117e+07
8.7783e+06
4.47747e+06
2.43621e+06
1.51971e+06
644649
93192.1
265342
524454
65837.9
1.08057e+06
6.25159e+07
7.37622e+07
7.03339e+07
7.06176e+07
6.07484e+07
4.24563e+07
2.68837e+07
1.6286e+07
8.9702e+06
4.51025e+06
2.43299e+06
1.53708e+06
666099
3308.76
336112
436021
543236
123383
1.29741e+06
5.62672e+07
8.9819e+07
8.21734e+07
7.85458e+07
6.51727e+07
4.48564e+07
2.8255e+07
1.68048e+07
9.17409e+06
4.49764e+06
2.47833e+06
1.54339e+06
625811
53564.8
413991
470421
434229
540401
453489
1.66442e+06
4.132e+07
9.34243e+07
9.54945e+07
8.70308e+07
6.92697e+07
4.68146e+07
2.94565e+07
1.74493e+07
9.22392e+06
4.48433e+06
2.51771e+06
1.60343e+06
541228
136163
471865
508040
452786
431850
538522
836066
2.04236e+06
2.44751e+07
7.62875e+07
9.98826e+07
9.09051e+07
7.28291e+07
4.84812e+07
3.03235e+07
1.78447e+07
9.36654e+06
4.34289e+06
2.55045e+06
1.66628e+06
486103
261689
520150
538310
460286
467621
377444
511856
1.41707e+06
1.94544e+06
1.73634e+07
4.54968e+07
8.11496e+07
9.92276e+07
7.38504e+07
4.94516e+07
3.09587e+07
1.79232e+07
9.22481e+06
4.34193e+06
2.52517e+06
1.65945e+06
490946
364966
597907
534319
479303
456824
365496
320881
245441
2.16633e+06
1.60804e+06
1.65553e+07
3.07975e+07
4.88284e+07
7.7483e+07
7.96325e+07
5.26454e+07
3.08632e+07
1.7771e+07
8.85575e+06
4.14731e+06
2.62777e+06
1.59885e+06
374620
341325
654554
552974
477944
454910
300311
462704
457026
89211.3
1.96356e+06
245459
1.66974e+07
2.91427e+07
3.22261e+07
4.99471e+07
5.99094e+07
5.13006e+07
3.33757e+07
1.69906e+07
8.44212e+06
3.98066e+06
2.56074e+06
1.59284e+06
245121
454263
593603
587538
480410
469275
321591
466867
403946
117149
169872
3.24593e+06
353664
1.80057e+07
2.94396e+07
2.99886e+07
3.45453e+07
4.3402e+07
3.82577e+07
3.20014e+07
1.86562e+07
8.26835e+06
3.67046e+06
2.49585e+06
1.43816e+06
86747.5
611631
681053
605277
521678
536959
431795
603956
119492
226485
1.11507e+06
1.24642e+06
1.83918e+06
420726
1.9088e+07
3.12406e+07
2.9853e+07
3.13787e+07
3.41462e+07
3.06313e+07
2.12062e+07
2.11585e+07
9.6543e+06
3.27606e+06
2.06958e+06
1.19451e+06
191261
863693
893276
634998
664386
653823
521458
560739
108169
452116
1.82536e+06
2.11727e+06
1.25841e+06
3.16277e+06
508739
1.99333e+07
3.2226e+07
3.02884e+07
3.06126e+07
3.06937e+07
2.9137e+07
1.82594e+07
1.01966e+07
1.40854e+07
8.58937e+06
1.71915e+06
660999
409537
1.02427e+06
1.04106e+06
797229
608282
626617
562315
227851
478750
1.66973e+06
2.52904e+06
2.19052e+06
284884
1.97135e+06
2.11562e+06
924268
2.03614e+07
3.29287e+07
2.98541e+07
3.03088e+07
2.97158e+07
2.66467e+07
2.11939e+07
9.81419e+06
3.01121e+06
8.3269e+06
1.02255e+07
3.17521e+06
125982
1.26056e+06
760624
604935
667900
76002.9
143352
1.48212e+06
1.97309e+06
3.43776e+06
1.754e+06
1.14211e+06
1.89109e+06
1.23662e+06
92173.8
74341
4993.9
2.0415e+07
3.31485e+07
2.95728e+07
2.98068e+07
2.94328e+07
2.56435e+07
1.99113e+07
1.32041e+07
5.00656e+06
1.33203e+06
3.48174e+06
8.46108e+06
5.45718e+06
1.91827e+06
844162
499075
899506
1.07858e+06
1.7072e+06
3.05596e+06
2.88735e+06
1.91593e+06
1.14105e+06
3.15677e+06
750642
122186
27967.7
77186.9
31225.2
10077.9
2.02907e+07
3.30082e+07
2.92122e+07
2.96964e+07
2.98268e+07
2.56224e+07
1.86654e+07
1.27823e+07
8.17853e+06
2.67727e+06
3.14168e+06
440688
3.31136e+06
6.07912e+06
5.21467e+06
4.15411e+06
3.32635e+06
3.03599e+06
2.96099e+06
2.31722e+06
214307
1.97874e+06
2.74148e+06
1.69134e+06
295219
436773
172432
169138
10928.8
135165
16359.4
2.00535e+07
3.27011e+07
2.89581e+07
2.97712e+07
3.03014e+07
2.62408e+07
1.8625e+07
1.13413e+07
9.02306e+06
5.01295e+06
1.34865e+06
2.57555e+06
2.66547e+06
2.36126e+06
633430
2.32542e+06
1.85814e+06
1.06947e+06
454380
1.24248e+06
1.99177e+06
2.09099e+06
1.27754e+06
232724
351983
332102
77391.9
102237
49652.7
16350.7
81615.4
13710.5
1.96961e+07
3.2311e+07
2.89204e+07
3.01443e+07
3.09567e+07
2.66971e+07
1.85997e+07
1.10627e+07
7.47557e+06
7.25424e+06
2.11669e+06
544034
824957
2.18003e+06
3.54141e+06
3.13371e+06
2.23732e+06
2.06989e+06
1.93524e+06
1.93751e+06
1.65972e+06
1.12087e+06
180385
263726
156795
504209
76587.7
243100
88005.6
19553.9
22198.6
30126.4
7468.44
1.93506e+07
3.20275e+07
2.91809e+07
3.08727e+07
3.16876e+07
2.71836e+07
1.86766e+07
1.12156e+07
7.04303e+06
5.60193e+06
4.85104e+06
1.00601e+06
374139
109107
1.18328e+06
1.77262e+06
1.94165e+06
1.93337e+06
1.6703e+06
1.10214e+06
604998
139131
105250
193687
24634.8
277569
171624
270738
132158
8730.09
34943.3
7075.22
2828.88
12808.5
1.93213e+07
3.20587e+07
2.9827e+07
3.1884e+07
3.23469e+07
2.75477e+07
1.87461e+07
1.13388e+07
7.23958e+06
4.7988e+06
4.01174e+06
2.57832e+06
514816
665661
273769
278869
390283
562546
602403
462220
223224
61632.3
39931.4
142075
55002.4
23654.5
294924
261445
168823
1362.95
29797
17209.9
5249.64
13978.5
6373.66
1.96774e+07
3.25852e+07
3.07162e+07
3.28733e+07
3.27503e+07
2.77205e+07
1.87784e+07
1.14116e+07
7.17636e+06
4.62978e+06
2.92212e+06
3.65141e+06
233046
344339
1.17737e+06
151529
74115.6
8512.23
16913.6
34021.3
114801
114396
91031.5
81839.5
124878
80226.5
283636
146805
214223
18225.3
26374.7
16233.7
2537.55
18477.1
6872.26
734.727
2.01303e+07
3.33507e+07
3.15046e+07
3.35398e+07
3.28481e+07
2.76927e+07
1.87905e+07
1.14015e+07
7.11464e+06
4.48414e+06
2.75496e+06
2.31742e+06
3.14839e+06
2.26662e+06
376225
532802
57390.3
36286.8
30443.8
89058.8
46861.2
2905.34
1190.27
19955
59860.2
34919.6
137177
34613.4
245763
42775.3
20135.8
14591.6
331.901
19908.2
9347.58
43.3135
221.529
2.11217e+07
3.44221e+07
3.22078e+07
3.37789e+07
3.27736e+07
2.75885e+07
1.88312e+07
1.13356e+07
7.01395e+06
4.39104e+06
2.74832e+06
2.03175e+06
1.94346e+06
1.83384e+06
2.14066e+06
125679
21451
27094.1
93044.8
125409
77694.7
8928.29
9653.41
4026.46
14301.3
31139.7
29758.4
200375
239176
75540.5
12577.2
10486.2
4471.19
19519.9
10559.4
1164.66
608.896
441.708
2.19838e+07
3.55658e+07
3.27098e+07
3.38497e+07
3.27133e+07
2.75304e+07
1.88874e+07
1.12471e+07
6.95063e+06
4.34909e+06
2.78224e+06
2.02501e+06
1.30202e+06
1.80186e+06
74970.9
846995
139432
20255.1
142939
137990
109290
45619.5
22556.4
23382.1
23366.3
57271.4
113844
248888
165030
113396
2510.52
6417.85
6626.06
19709.3
12480.6
1249.16
94.7198
47.4075
326.654
2.25168e+07
3.60537e+07
3.23334e+07
3.34112e+07
3.2492e+07
2.75436e+07
1.89182e+07
1.11708e+07
6.94105e+06
4.34948e+06
2.85159e+06
2.0096e+06
1.23959e+06
842338
1.75976e+06
1.44294e+06
145028
190872
189752
142509
96535.1
35022.5
9017.22
17407.5
4494.88
51300.1
85787.3
152107
25058.7
147091
11383.2
1145.41
4351.59
16556.6
14714.8
1995.87
272.659
294.812
194.617
147.303
2.27219e+07
3.5996e+07
3.1478e+07
3.27267e+07
3.24054e+07
2.75696e+07
1.89247e+07
1.11508e+07
6.96802e+06
4.36226e+06
2.91746e+06
2.01343e+06
1.18012e+06
648073
880637
799536
1.19001e+06
31750
8524.88
166966
102851
41153.7
1617.58
9027.37
13365.7
25448.4
9442.41
13981.5
128312
159792
29096.8
7880.69
538.143
11686.1
17263.4
2581.47
279.118
218.136
319.898
104.614
50.6651
2.26236e+07
3.57083e+07
3.06657e+07
3.24888e+07
3.25854e+07
2.76554e+07
1.89323e+07
1.11959e+07
6.99764e+06
4.37162e+06
2.97439e+06
1.99771e+06
1.15965e+06
679177
360995
1.06484e+06
577040
336721
295318
191665
132867
55449
2036.06
3444.78
12468
3053.04
49761.8
127461
211061
129791
48405.6
20229.2
1478.76
4126.03
19876.6
3598.83
329.653
207.031
318.894
160.654
33.695
18.4535
2.22407e+07
3.54251e+07
3.02245e+07
3.27145e+07
3.29862e+07
2.78263e+07
1.88789e+07
1.12638e+07
7.00735e+06
4.37398e+06
3.02063e+06
1.98177e+06
1.13048e+06
651587
301329
294903
1.07124e+06
1.03256e+06
50449.5
188770
174207
77347.6
6069.08
3081.71
2884.53
18565.8
41131.5
130020
169809
46474.2
66305.7
33996.6
5109.9
5049.43
23110.4
4888.08
369.144
166.839
346.056
169.935
55.5791
9.82563
15.5352
2.16747e+07
3.47544e+07
3.0222e+07
3.31729e+07
3.33435e+07
2.78586e+07
1.89267e+07
1.14721e+07
6.98935e+06
4.3691e+06
3.0642e+06
1.96152e+06
1.10954e+06
672644
245636
57172.2
637240
377902
567348
135679
172253
111870
18080
9768.13
14181.8
25553.3
11856.1
51122
33149.2
70801
75554.7
47425.7
13452.1
14712.6
26992.5
6761.2
416.148
122.836
365.842
191.021
59.506
17.4014
9.5453
24.6079
2.18363e+07
3.48156e+07
3.06349e+07
3.3682e+07
3.3534e+07
2.77069e+07
1.89189e+07
1.15869e+07
6.89326e+06
4.36456e+06
3.10784e+06
1.94048e+06
1.09215e+06
684626
233499
39715.7
123801
1.04868e+06
584641
341350
222146
156878
40756.3
14735.9
31762
21601.2
24961.5
48578
104676
168938
63214.8
58697.2
25005.5
22010.8
28483.2
9459.76
479.935
61.8958
388.469
210.604
68.3169
17.6623
11.8416
20.7725
30.0643
2.25155e+07
3.56547e+07
3.18275e+07
3.45378e+07
3.36065e+07
2.74973e+07
1.892e+07
1.15773e+07
6.74617e+06
4.35063e+06
3.14598e+06
1.92005e+06
1.0807e+06
688210
221466
38829.3
17958.8
481073
714627
921179
507757
194754
61358.1
12465.9
48113.7
7817.29
45629.9
29447
162919
187547
17461.5
65010.3
37981.8
25974.6
29079.8
13194.7
600.769
21.9199
411.254
232.541
76.8986
19.8457
10.8216
21.0834
28.4464
26.5476
2.33236e+07
3.66878e+07
3.26824e+07
3.492e+07
3.33924e+07
2.73e+07
1.89403e+07
1.15435e+07
6.60711e+06
4.38284e+06
3.23548e+06
1.90458e+06
1.07542e+06
688866
208988
55884.7
8567.23
167726
823136
108683
624485
336841
66098.2
5631.64
59977.2
9269.11
54229.7
18689.5
120844
106912
61911.9
62478.8
50476
22782.8
26394.8
17464.7
479.034
135.459
434.65
256.436
86.5946
21.9894
10.5608
19.8079
28.808
26.3713
19.7564
2.44841e+07
3.80187e+07
3.29632e+07
3.48427e+07
3.30302e+07
2.71284e+07
1.89628e+07
1.15074e+07
6.55392e+06
4.4472e+06
3.25539e+06
1.845e+06
1.08129e+06
683465
196643
69691.7
5708.74
89277.7
285532
906058
730772
351092
65340.4
38177.9
61742.9
29403.5
54105.2
37668.1
21147.9
29563.8
151674
43556.6
61801.2
10692.6
21366.3
22570.9
369.336
288.07
457.965
282.596
97.131
24.6814
10.164
18.8212
28.4068
27.0773
20.5067
13.2443
2.4985e+07
3.89546e+07
3.29644e+07
3.47235e+07
3.27753e+07
2.70129e+07
1.9143e+07
1.1476e+07
6.54646e+06
4.55103e+06
3.28391e+06
1.80767e+06
1.07416e+06
675628
186222
78965.3
6888.04
66985.6
59346.3
749234
70072.3
766870
217229
57951.8
45319.7
46864.5
35849.6
79274.8
9020.31
147068
210599
703.725
76417.5
14052.6
14246.6
27467.3
111.429
481.752
478.44
311.539
108.651
27.7401
9.91127
17.7531
28.0712
27.4395
21.1192
14.1418
8.66584
2.48789e+07
3.88479e+07
3.21619e+07
3.40527e+07
3.27961e+07
2.7096e+07
1.92214e+07
1.1359e+07
6.58096e+06
4.65298e+06
3.28129e+06
1.76709e+06
1.07342e+06
661380
175479
93273.4
2075.04
65972.1
37707.5
176862
1.05019e+06
1.04135e+06
404205
42424.4
3856.35
60068.8
13231.3
86793.1
17623.1
180751
208754
48068.5
99765.2
44337.5
5511.79
31639.8
993.192
717.328
490.705
343.591
121.176
31.2633
9.78916
16.6918
27.6384
27.8366
21.6832
14.8336
8.96418
5.78521
2.4728e+07
3.84514e+07
3.14338e+07
3.37286e+07
3.27194e+07
2.72213e+07
1.93332e+07
1.14408e+07
6.5955e+06
4.72378e+06
3.24916e+06
1.73222e+06
1.07049e+06
650104
162050
106617
1576.64
53947.6
53378.9
14065.8
832484
147190
672256
57159.3
38721.6
61605.5
12365.7
85601.8
57058.7
118399
137233
98198.1
97066.9
72701.5
5139.9
33167.8
2535.16
980.398
491.469
378.224
134.897
35.1996
9.79887
15.6208
27.1506
28.187
22.2116
15.572
9.41251
5.95415
3.94832
2.43765e+07
3.8326e+07
3.12542e+07
3.37611e+07
3.30416e+07
2.73155e+07
1.94104e+07
1.14351e+07
6.73058e+06
4.86341e+06
3.19009e+06
1.69216e+06
1.08722e+06
643383
150016
119942
6540.21
45681.1
53488.5
12976
205673
1.06402e+06
971063
355207
28953.4
40486
33560.7
62259.9
108838
26323.3
21740.1
147074
62136.8
85813.9
16815.2
33751.9
4834.27
1262.1
476.096
415.34
150.106
39.6156
9.96776
14.5462
26.5945
28.5059
22.7056
16.3105
9.9456
6.22656
4.05121
2.7622
2.47481e+07
3.82188e+07
3.13548e+07
3.38623e+07
3.31351e+07
2.73775e+07
1.94484e+07
1.14134e+07
6.77324e+06
4.96482e+06
3.13054e+06
1.65302e+06
1.10202e+06
648346
139766
129244
13623
46629.5
39608.6
6113.88
19959.6
1.0246e+06
551855
640372
13391
5308.74
49667.7
36580.3
133673
530.511
87540.5
179839
12316.7
87934.4
14309.5
33292.9
7868.89
1540.69
442.59
453.318
166.911
44.5288
10.2785
13.4846
25.9737
28.7859
23.1626
17.0437
10.554
6.45562
4.21664
2.82898
1.98963
2.54402e+07
3.91171e+07
3.18658e+07
3.39366e+07
3.3073e+07
2.73841e+07
1.94017e+07
1.14186e+07
6.79378e+06
5.00826e+06
3.05605e+06
1.66077e+06
1.09074e+06
645512
142888
134630
22001.8
44402.6
50662.1
13848.8
40836.7
240220
846887
994037
128425
37231.4
51165.8
13707.8
114092
63745.7
153205
185465
45348.1
78928
3500.08
33850.1
11380.4
1813.26
392.999
491.227
185.28
50.0002
10.7336
12.4391
25.2867
29.0243
23.5855
17.7559
11.1973
6.71433
4.34954
2.93168
2.03635
1.47986
2.59532e+07
3.99206e+07
3.23389e+07
3.39254e+07
3.30371e+07
2.74509e+07
1.93194e+07
1.13263e+07
6.95373e+06
5.05132e+06
2.95551e+06
1.65688e+06
1.10694e+06
625916
148333
137299
32636.7
45029.2
58881.7
14643.9
47800.7
99534.9
1.31785e+06
888002
433761
113.612
22347.2
8099.77
102891
117877
134595
166589
104900
64104.2
35344.5
35880.5
14835.3
2093.33
333.16
528.54
204.888
56.1432
11.3145
11.423
24.5472
29.2185
23.9886
18.4296
11.8711
6.99339
4.49855
3.01351
2.09947
1.51485
1.13832
2.66409e+07
4.02855e+07
3.23031e+07
3.37689e+07
3.27764e+07
2.75362e+07
1.92645e+07
1.13828e+07
6.98971e+06
5.10881e+06
2.90167e+06
1.6413e+06
1.11731e+06
640037
151671
133313
49364.1
41775.4
64837
13447
16134.3
57258.3
616708
141023
761701
38329.7
36010.9
25907.7
87338.7
147836
86220.9
130031
144737
13492.7
76627.8
36520.5
17803.1
2409.99
270.689
565.936
225.202
63.0575
12.0412
10.4412
23.7608
29.3615
24.461
19.0861
12.5815
7.29768
4.65616
3.10411
2.14986
1.55298
1.16608
0.906089
2.63039e+07
4.04619e+07
3.20219e+07
3.36534e+07
3.27055e+07
2.78841e+07
1.92224e+07
1.14124e+07
7.12519e+06
5.13839e+06
2.77113e+06
1.636e+06
1.09171e+06
648855
166501
129161
65828.4
35701.3
61790.4
5103.98
2655.2
1482.16
31066.9
1.3518e+06
1.00595e+06
227286
66231.3
29022.1
74126
154843
146161
89507.5
142064
9148.79
113753
28389.4
20152.7
2780.95
208.247
605.623
245.268
70.6704
12.9391
9.505
22.9363
29.4522
24.9898
19.7311
13.315
7.77238
4.82568
3.19821
2.20527
1.58426
1.18822
0.928801
0.746104
2.60775e+07
3.98428e+07
3.13669e+07
3.36203e+07
3.27528e+07
2.81391e+07
1.91943e+07
1.14703e+07
7.22712e+06
5.06449e+06
2.71081e+06
1.65638e+06
1.0797e+06
634538
178101
121886
75922
27288.7
53806.5
422.141
5482.61
4782.62
119264
1.17596e+06
562178
514804
5827.79
7388.41
53656.6
153348
199026
62999.5
112464
35571.4
112293
48537.6
22847.7
3232.11
140.93
651.607
264.975
78.8211
14.0794
8.60807
22.0705
29.4896
25.5045
20.3641
14.0613
8.31036
5.00762
3.29654
2.26287
1.61845
1.20745
0.940515
0.764893
0.635232
2.5939e+07
3.95182e+07
3.10597e+07
3.36651e+07
3.28345e+07
2.83383e+07
1.92404e+07
1.14614e+07
7.29844e+06
5.00017e+06
2.68398e+06
1.6502e+06
1.08995e+06
623869
196337
112995
73964.7
21410
47968.1
3202.72
2273.48
12883.6
26420.6
311979
671214
851122
41742.9
94732.9
25222.4
149311
126045
31094.3
96110.5
93556.3
78696.8
44396.8
25377.2
3796.16
51.6076
705.946
284.102
87.1677
15.513
7.75789
21.1696
29.4722
26.0052
20.9861
14.8034
8.88633
5.20712
3.39855
2.32327
1.65418
1.22863
0.952012
0.769603
0.650465
0.55874
2.62246e+07
3.92241e+07
3.08561e+07
3.38668e+07
3.29711e+07
2.84555e+07
1.92601e+07
1.14928e+07
7.48549e+06
4.89551e+06
2.67688e+06
1.67853e+06
1.03574e+06
635831
200647
99314.7
86697.3
1868.05
49187.3
8079.19
2539.41
13232.6
19463
160315
1.5241e+06
980007
222195
173249
2627.43
139977
103765
37734.6
95609
136907
37478.1
71443.2
32845.9
4560.07
86.8839
769.692
303.962
95.3227
17.2477
6.95773
20.2337
29.4007
26.4893
21.6048
15.5278
9.49845
5.42635
3.50847
2.38654
1.69167
1.25072
0.964916
0.776017
0.650451
0.570387
0.506901
2.6651e+07
3.94128e+07
3.03857e+07
3.40179e+07
3.32158e+07
2.85522e+07
1.92889e+07
1.15186e+07
7.52166e+06
4.81077e+06
2.69434e+06
1.70593e+06
1.02362e+06
627756
220816
76300.2
99824.8
18129.4
29034.2
11524.4
5957.98
6641.48
2743.33
136852
1.06774e+06
349851
620647
157052
4893.87
123619
81407.1
92997.5
90137.8
152934
15207.1
106781
43005.7
5656.22
315.521
840.779
325.661
103.095
19.2162
6.23619
19.2689
29.2755
26.955
22.2183
16.2566
10.1545
5.68983
3.62651
2.45314
1.73073
1.27398
0.978344
0.783269
0.653303
0.567103
0.515046
0.47346
2.68956e+07
3.94479e+07
2.99938e+07
3.41435e+07
3.34777e+07
2.85856e+07
1.93479e+07
1.15675e+07
7.54967e+06
4.70361e+06
2.74162e+06
1.71635e+06
1.01165e+06
633109
241349
73919.3
106287
25309.1
34751.9
13219.7
7409.31
9479.4
16086.2
25753.3
206643
837620
882917
71312.3
46413.5
98787.8
86066.4
76816
74422.9
144205
40134
131483
51486.3
7196.31
653.437
915.833
350.157
110.52
21.1655
5.60677
18.2859
29.098
27.4022
22.8201
16.9893
10.8413
6.10554
3.75317
2.52279
1.77166
1.2983
0.992561
0.790976
0.656577
0.56715
0.509332
0.478202
0.454776
2.68539e+07
3.9161e+07
2.94094e+07
3.42249e+07
3.40216e+07
2.85712e+07
1.94564e+07
1.15865e+07
7.53724e+06
4.62549e+06
2.79118e+06
1.7565e+06
977056
640106
260704
65548.4
111651
16962
37856.1
16179.2
684.786
22889.2
21996.7
17350
194383
1.54235e+06
893488
241298
156206
66095.1
77806.2
94092.1
12022.9
125283
67402.5
131096
73502.3
8805.85
1113.03
990.121
377.565
117.959
22.9964
5.10647
17.3076
28.8689
27.8287
23.4116
17.7255
11.5519
6.55804
3.8896
2.59446
1.81436
1.32377
1.0075
0.799292
0.66022
0.567495
0.507076
0.470484
0.455916
0.448205
2.68578e+07
3.9072e+07
2.88577e+07
3.43464e+07
3.44274e+07
2.85501e+07
1.9556e+07
1.16584e+07
7.48066e+06
4.53521e+06
2.85148e+06
1.77996e+06
962697
641605
281293
51197.1
127773
20009.9
43991.3
13146.9
10379.1
28864.4
16094.6
11534.8
157964
1.08764e+06
325251
610312
237476
27257.7
64928
88097.4
21827.5
99050.1
102211
93633.8
83712.1
9582.53
1667.73
1060
406.268
125.846
24.5406
4.68412
16.36
28.5918
28.2299
23.9986
18.4615
12.2733
7.04626
4.03887
2.6678
1.85882
1.35037
1.02323
0.808165
0.664474
0.568327
0.505026
0.466305
0.446415
0.4455
0.452077
2.72904e+07
3.91372e+07
2.88223e+07
3.4514e+07
3.47544e+07
2.85313e+07
1.9636e+07
1.17423e+07
7.32852e+06
4.48495e+06
2.92594e+06
1.78645e+06
965352
633687
286312
41784.5
114357
36077.8
42248.4
4441.16
7093.09
25870.5
12683.4
36752.9
23306.6
245416
765410
889124
235803
7404.88
56010.1
88474.2
26551.5
94849
137968
46338
108713
8410.42
2284.46
1122.85
434.478
134.381
25.8971
4.24635
15.4614
28.2599
28.6003
24.581
19.2095
12.9948
7.57283
4.20344
2.7477
1.90528
1.37856
1.04006
0.817615
0.669089
0.569488
0.503539
0.462291
0.44034
0.434342
0.445521
0.466005
2.76731e+07
3.98672e+07
2.9035e+07
3.45617e+07
3.50604e+07
2.85126e+07
1.97507e+07
1.185e+07
7.1748e+06
4.48919e+06
2.98882e+06
1.81385e+06
945430
616436
314898
44452.2
112994
26277.3
40556.2
12522.3
9286.14
17344.2
7610.45
25392.3
14647.2
211602
1.41775e+06
926485
346648
36947.8
54788.2
85740.3
37568.5
52737
143920
23408.3
137938
4417.64
2964.34
1176.16
459.984
143.241
27.2317
3.72598
14.6281
27.89
28.9404
25.146
19.9732
13.7277
8.14359
4.4317
2.83389
1.95498
1.40834
1.05803
0.827928
0.674242
0.570958
0.502345
0.458627
0.434392
0.426279
0.432463
0.455166
0.489628
2.78473e+07
4.04618e+07
2.95717e+07
3.45914e+07
3.52024e+07
2.85718e+07
1.98364e+07
1.18553e+07
7.02576e+06
4.49121e+06
3.05893e+06
1.80809e+06
934157
595106
332412
38739.9
109763
22692.7
27318.5
31206.6
7435.36
9247.71
3671.71
3594.16
16733.6
211980
1.22658e+06
516820
782613
97854.1
47596.5
74979.4
28207.6
18080.2
121084
18292.9
156676
847.8
3677.33
1222.78
481.321
151.801
28.665
3.10422
13.8257
27.5041
29.2458
25.6894
20.7449
14.4773
8.74053
4.7624
2.92492
2.00401
1.4371
1.07552
0.838572
0.680007
0.573028
0.501602
0.455501
0.429012
0.418441
0.422381
0.440171
0.474072
0.522958
2.79234e+07
4.08532e+07
2.99929e+07
3.46782e+07
3.52254e+07
2.88223e+07
1.97669e+07
1.18225e+07
6.85236e+06
4.56991e+06
3.1199e+06
1.80992e+06
924264
580745
349575
51706.8
83623.7
15026.2
21144.2
36054.8
10267.1
10625.3
9017.96
17941.7
43338.7
58828.3
494877
361066
647181
187087
37884.4
64016.9
25981
2156.19
111446
53788.6
143053
700.03
4298.24
1262.37
497.855
159.541
30.1812
2.4681
13.0216
27.1176
29.5134
26.2131
21.5172
15.2498
9.35539
5.11596
3.01865
2.05248
1.46693
1.09324
0.848781
0.685719
0.57554
0.501316
0.452854
0.424003
0.411319
0.412605
0.427564
0.456775
0.502361
0.566824
2.81188e+07
4.10698e+07
3.04565e+07
3.47392e+07
3.52603e+07
2.91127e+07
1.97346e+07
1.17524e+07
6.70721e+06
4.64774e+06
3.21102e+06
1.80723e+06
916672
539139
349606
70882.7
88763.9
15945.5
27008.4
30370.3
17039.4
14754.2
28676.5
34136
38398.9
20453.4
86009.7
949149
581156
363066
40178.3
54402.5
16790
19221.6
89205.9
95065.4
109403
24479.4
4698.67
1302.35
510.065
165.702
31.5934
1.90962
12.1918
26.7283
29.7471
26.7236
22.3021
16.0288
9.99151
5.48037
3.12021
2.10055
1.4977
1.1131
0.86098
0.69236
0.578315
0.501191
0.450556
0.419452
0.40447
0.403457
0.415717
0.441487
0.482335
0.540458
0.62191
2.83149e+07
4.13195e+07
3.07245e+07
3.49548e+07
3.524e+07
2.93951e+07
1.96729e+07
1.15729e+07
6.64162e+06
4.75964e+06
3.25568e+06
1.79182e+06
915303
521452
357014
79861
93129.6
22946.4
17649.1
44613.7
35445.7
11484.6
39262
36384.3
31415.6
29411.5
297871
1.10602e+06
633146
898781
47515.5
44350.2
9290.69
14978.8
71462.9
102438
85167.9
49897
4745.72
1334.54
519.124
169.886
32.7695
1.48242
11.37
26.3089
29.9686
27.1834
23.0897
16.8107
10.6332
5.84721
3.22893
2.15377
1.53151
1.13386
0.8736
0.699631
0.581806
0.501788
0.448589
0.415416
0.398247
0.394952
0.404386
0.427136
0.464175
0.517269
0.588997
0.68862
2.84137e+07
4.15218e+07
3.11186e+07
3.54161e+07
3.52412e+07
2.96008e+07
1.9544e+07
1.14065e+07
6.62923e+06
4.86251e+06
3.30557e+06
1.75659e+06
898326
519847
356097
118383
76195.4
16764
3919.19
21388.4
27844.4
5177.74
29833.3
20264.6
19134.3
83894.8
249583
716280
68719.8
832490
25652.6
30132.4
1721.03
17330.7
32256.5
95805.3
64957.4
77578.6
4761.14
1348.18
526.655
171.722
33.577
1.19001
10.6085
25.8308
30.2297
27.5233
23.8673
17.6014
11.2545
6.22692
3.34471
2.21277
1.56716
1.15599
0.887324
0.707744
0.585878
0.502893
0.447197
0.411835
0.392495
0.386928
0.393972
0.413553
0.446911
0.49564
0.562119
0.648884
0.767814
2.8394e+07
4.17924e+07
3.13233e+07
3.6263e+07
3.54268e+07
2.95627e+07
1.9369e+07
1.12569e+07
6.66991e+06
4.95184e+06
3.33414e+06
1.71312e+06
880842
517577
345930
139595
69542.9
13167.4
10368.8
2444.56
26835.8
39432.4
13884.8
9285.31
10058.5
68249.6
136686
243401
541535
653178
60331.6
32615.5
3337.11
15455.1
7437.11
68339.9
29700.4
77258.9
5632.67
1352.15
534.285
171.046
34.0921
1.00184
9.94354
25.3397
30.5151
27.7175
24.5736
18.3993
11.8616
6.62434
3.52185
2.27561
1.60436
1.17957
0.902195
0.716683
0.590614
0.504451
0.446365
0.40874
0.387288
0.379481
0.38396
0.400785
0.430728
0.475159
0.536452
0.617849
0.720833
0.860356
2.91287e+07
4.22864e+07
3.18176e+07
3.70809e+07
3.56655e+07
2.92966e+07
1.91821e+07
1.10992e+07
6.72156e+06
5.0252e+06
3.36865e+06
1.66266e+06
851205
534163
326781
149202
59882.8
33859.7
20213.9
8201.16
34011.6
29686.8
7611.04
31429.7
811.96
64341
152597
56252.8
893946
501163
374284
57773
8793.21
11566.1
16236.7
51901.7
19813.4
56206.7
4838.62
1385.76
544.118
168.987
34.4018
0.895848
9.4018
24.861
30.7752
27.8461
25.1542
19.1911
12.4532
7.01339
3.7221
2.34195
1.64231
1.20377
0.917815
0.726409
0.596094
0.50675
0.445957
0.406173
0.382616
0.372648
0.37479
0.388818
0.4154
0.455932
0.512233
0.587408
0.684933
0.805267
0.965946
2.9654e+07
4.38575e+07
3.25506e+07
3.77672e+07
3.58916e+07
2.89221e+07
1.90767e+07
1.10994e+07
6.79785e+06
5.07275e+06
3.37315e+06
1.63124e+06
828957
553727
329462
154801
66385.6
13842
32785.1
16367.2
22831.3
38290.6
1319.31
47552.1
2469.28
33803.3
202360
156997
720168
204516
851977
45432.5
20872.5
4356.56
22596.6
44765.8
38879.4
31193.2
1098.83
1488.17
558.998
167.519
34.5601
0.861854
8.94372
24.4178
30.9873
28.0149
25.641
19.9111
13.0384
7.39274
3.92344
2.40817
1.67949
1.22863
0.933856
0.736641
0.602264
0.509654
0.446324
0.404246
0.378533
0.366339
0.366237
0.377587
0.401074
0.437682
0.489421
0.559114
0.649514
0.764419
0.902963
1.08425
3.00492e+07
4.47943e+07
3.37321e+07
3.81625e+07
3.58775e+07
2.84133e+07
1.90499e+07
1.11281e+07
6.84316e+06
5.09341e+06
3.35934e+06
1.63851e+06
805761
576641
331612
166740
65534.8
531.181
44908.6
37001.3
24211.7
48863.9
22532.1
39933.1
17288.2
525.427
219448
171514
324201
268562
1.13112e+06
17759.9
41227.3
1638.88
16999.2
6486.65
32026.7
356.861
3499.83
1602.51
572.156
167.774
34.3411
0.846528
8.57579
24.0675
31.18
28.2951
26.0964
20.4971
13.603
7.77973
4.12497
2.47699
1.71762
1.25358
0.950515
0.747466
0.60879
0.513233
0.447283
0.402822
0.375051
0.360752
0.358287
0.367172
0.387522
0.42048
0.467875
0.532163
0.616382
0.7235
0.856811
1.01355
1.21388
3.15257e+07
4.57707e+07
3.43472e+07
3.84955e+07
3.57738e+07
2.80126e+07
1.90755e+07
1.11685e+07
6.81741e+06
5.05278e+06
3.32942e+06
1.63568e+06
809394
593857
333293
160232
80150.5
11012.8
57041.8
34362.7
35375.6
24423
31932.8
71944.1
42297
8931.92
189721
201125
68155
748378
953189
97371.8
53992.7
2996.18
13283.8
15749.6
28644
31771.1
5558.75
1548.44
582.175
169.135
33.6434
0.707874
8.35992
23.9013
31.4788
28.6279
26.5635
21.0252
14.1106
8.18025
4.33912
2.54646
1.75708
1.27959
0.967786
0.758834
0.615917
0.517224
0.448673
0.402028
0.372075
0.355685
0.351022
0.357454
0.37489
0.404392
0.447648
0.506754
0.584791
0.684821
0.809916
0.962043
1.13616
1.35247
3.38746e+07
4.79845e+07
3.51597e+07
3.8462e+07
3.55295e+07
2.77606e+07
1.90571e+07
1.11843e+07
6.76021e+06
5.04325e+06
3.30012e+06
1.65458e+06
807283
608554
352200
160933
101123
36394
62858.9
42994.1
44794.7
4963.57
22605
4335.7
92389.2
52547.2
156630
277559
13179.9
941718
509257
192129
52332.1
1240.17
14782.6
46864.9
8587.68
82600
3639.72
1586.91
578.734
167.148
31.7502
0.20774
7.58077
23.0834
31.1976
28.9144
27.1081
21.5102
14.5791
8.54479
4.56793
2.61746
1.79667
1.30613
0.985623
0.770821
0.623773
0.521645
0.450628
0.401798
0.369793
0.351273
0.344457
0.348316
0.363163
0.389368
0.428559
0.482819
0.554953
0.648127
0.765532
0.909196
1.07983
1.26956
1.49803
3.82887e+07
4.87857e+07
3.58175e+07
3.80948e+07
3.48802e+07
2.75695e+07
1.90305e+07
1.10432e+07
6.65935e+06
5.05742e+06
3.33077e+06
1.68881e+06
820510
605539
352570
136391
98397.9
46690.1
74976.5
48795.2
72089.4
8417.17
21185.4
27138.9
134759
90855.9
111335
213135
8136.29
717848
125116
645313
57701.5
489.827
20039
70980.9
4167.48
100254
4345.53
1817.45
570.623
169.617
32.2876
0.35194
7.48234
22.871
31.2923
29.1698
27.5287
22.0248
15.0732
8.84615
4.75849
2.69237
1.83663
1.33282
1.00399
0.783292
0.632032
0.526782
0.453104
0.402041
0.368069
0.3476
0.338535
0.340151
0.352223
0.375356
0.41067
0.46035
0.526799
0.613483
0.723244
0.858911
1.02134
1.20931
1.41147
1.64699
3.27815e+07
5.14241e+07
3.49808e+07
3.7856e+07
3.3743e+07
2.73431e+07
1.90075e+07
1.09316e+07
6.58329e+06
5.11396e+06
3.34615e+06
1.7693e+06
833882
590181
387773
113287
122312
56130.7
76717.6
46087.6
87286.1
31286.1
39065.5
38927.3
141439
123582
82677.8
116550
507.754
428541
219684
1.01988e+06
83995.5
692.841
28927.7
88513.1
6496.4
113766
3269.93
2001.01
577.111
169.322
29.1688
0.404123
7.13885
22.5168
31.3586
29.7387
28.1984
22.8192
15.4294
9.24591
4.89706
2.76254
1.87942
1.35942
1.02252
0.796188
0.640796
0.532301
0.456081
0.402811
0.366862
0.344473
0.333341
0.332723
0.342044
0.362223
0.393954
0.439261
0.50037
0.580557
0.683042
0.810845
0.965342
1.14568
1.34844
1.55887
1.7965
6.40474e+07
2.18916e+07
3.6854e+07
3.8641e+07
3.34374e+07
2.70775e+07
1.90371e+07
1.09471e+07
6.61786e+06
5.22891e+06
3.36462e+06
1.78797e+06
861436
542964
387547
113404
107138
71647.7
103598
52018.8
30708.1
31171.7
64976
54964.9
127219
124654
26117.5
57271
151734
194633
557100
940884
114843
5817.03
41696.9
96521.9
1015.03
127042
3913.32
2292.07
595.365
181.742
33.389
0.497129
6.5094
22.15