/*--------------------------------*- C++ -*----------------------------------*\
| =========                 |                                                 |
| \\      /  F ield         | OpenFOAM: The Open Source CFD Toolbox           |
|  \\    /   O peration     | Version:  v2012                                 |
|   \\  /    A nd           | Website:  www.openfoam.com                      |
|    \\/     M anipulation  |                                                 |
\*---------------------------------------------------------------------------*/
FoamFile
{
    version     2.0;
    format      ascii;
    class       volScalarField;
    location    "12000";
    object      rho;
}
// * * * * * * * * * * * * * * * * * * * * * * * * * * * * * * * * * * * * * //

dimensions      [1 -3 0 0 0 0 0];


internalField   nonuniform List<scalar> 
27324
(
1.03515
1.05504
1.04855
1.07112
1.0693
1.06956
1.09002
1.08604
1.09151
1.09631
1.10899
1.10574
1.10914
1.11937
1.12355
1.12763
1.12553
1.12994
1.13782
1.14706
1.14537
1.14581
1.145
1.15086
1.15955
1.16589
1.16879
1.16073
1.16469
1.16402
1.17149
1.18138
1.18807
1.18757
1.18398
1.17166
1.18628
1.18382
1.19166
1.20292
1.21033
1.20975
1.20263
1.19468
1.17943
1.21073
1.20649
1.2126
1.22399
1.23231
1.23203
1.22474
1.21313
1.20207
1.18462
1.23743
1.2322
1.23648
1.24586
1.25383
1.25412
1.24697
1.2351
1.22008
1.20675
1.18869
1.26569
1.26027
1.26349
1.27078
1.27615
1.27584
1.26913
1.25722
1.24171
1.22423
1.21037
1.19296
1.29511
1.28996
1.29299
1.2989
1.30151
1.29836
1.29101
1.27941
1.26354
1.24552
1.22714
1.21401
1.197
1.32449
1.32082
1.32425
1.32961
1.33013
1.32386
1.31369
1.30145
1.2857
1.26715
1.24794
1.22973
1.21744
1.20097
1.34914
1.35171
1.35682
1.36216
1.36136
1.35259
1.33916
1.32426
1.30795
1.28943
1.26929
1.24972
1.2319
1.22083
1.20503
1.36762
1.3779
1.38946
1.39603
1.39444
1.38395
1.36778
1.34962
1.33103
1.31211
1.29159
1.2707
1.25074
1.23395
1.22446
1.20931
1.38154
1.39794
1.41724
1.42977
1.42873
1.41715
1.39905
1.37801
1.35644
1.33563
1.31465
1.29304
1.27142
1.2513
1.23645
1.22821
1.21452
1.39036
1.41314
1.43827
1.45844
1.46281
1.45145
1.43215
1.40913
1.38474
1.36106
1.33862
1.31661
1.29379
1.27133
1.25202
1.23964
1.23227
1.22246
1.38897
1.4224
1.45389
1.48027
1.49194
1.48538
1.46623
1.44221
1.41583
1.38908
1.36406
1.34124
1.31784
1.29373
1.27094
1.25349
1.24413
1.23643
1.23561
1.2886
1.42122
1.46367
1.49666
1.51429
1.51449
1.49981
1.47622
1.44881
1.41985
1.39171
1.36692
1.34328
1.31818
1.29317
1.27105
1.25691
1.24961
1.24099
1.25917
1.04949
1.31539
1.46345
1.50709
1.53071
1.53689
1.52903
1.50944
1.48251
1.45246
1.42208
1.39431
1.36937
1.34436
1.31796
1.29268
1.27283
1.26267
1.25606
1.25255
1.3002
0.784893
1.06849
1.34903
1.50382
1.54068
1.55299
1.55189
1.53872
1.51493
1.48564
1.45428
1.42424
1.39647
1.37093
1.34461
1.31754
1.29336
1.27719
1.27093
1.26503
1.2759
1.37444
0.632903
0.796413
1.09263
1.38378
1.53293
1.56241
1.56784
1.56202
1.54398
1.5171
1.48684
1.45595
1.42554
1.39776
1.37179
1.34437
1.31773
1.29562
1.28576
1.28047
1.28019
1.32419
1.46638
0.610063
0.640712
0.8114
1.119
1.41003
1.55122
1.5765
1.57757
1.56764
1.546
1.51732
1.48773
1.45624
1.42561
1.39869
1.37199
1.34423
1.31844
1.30159
1.29643
1.28902
1.31433
1.40218
1.58513
0.607451
0.617095
0.650536
0.831169
1.14084
1.41962
1.55944
1.58472
1.5828
1.57002
1.54604
1.51713
1.48693
1.45494
1.4252
1.39919
1.37162
1.3438
1.32082
1.31049
1.30904
1.31402
1.37419
1.53304
1.67838
0.607568
0.614267
0.625545
0.663881
0.854112
1.15266
1.41383
1.55673
1.58712
1.58433
1.56966
1.54557
1.51516
1.48435
1.45255
1.42475
1.39906
1.37006
1.34397
1.32606
1.32805
1.32811
1.34853
1.49049
1.61721
1.57465
0.609801
0.614615
0.622458
0.636444
0.681308
0.877039
1.15459
1.39296
1.54072
1.5844
1.58322
1.56845
1.54259
1.51144
1.48073
1.44995
1.42511
1.39698
1.36967
1.34641
1.34445
1.34187
1.33447
1.43771
1.505
1.41691
1.34457
0.611524
0.617022
0.622922
0.633027
0.650285
0.702135
0.897958
1.14701
1.35712
1.50747
1.57154
1.57944
1.56311
1.53633
1.50748
1.47639
1.44841
1.42446
1.39498
1.37055
1.35495
1.35036
1.32575
1.35105
1.35989
1.31124
1.24267
1.24126
0.613289
0.61884
0.62522
0.633434
0.64648
0.665838
0.724419
0.918487
1.13205
1.30508
1.45519
1.54448
1.56567
1.55194
1.52594
1.49874
1.46941
1.44517
1.41753
1.38982
1.35822
1.35135
1.29625
1.233
1.20867
1.20903
1.20622
1.21655
1.23949
0.614804
0.620673
0.626999
0.635683
0.646851
0.661284
0.680563
0.748373
0.939903
1.11221
1.24004
1.37485
1.48382
1.52994
1.52793
1.50356
1.48097
1.4521
1.42723
1.39207
1.33885
1.29445
1.20284
1.09763
1.07384
1.12363
1.17672
1.20985
1.23111
1.25272
0.616039
0.622286
0.628896
0.637585
0.649117
0.661339
0.674577
0.693211
0.776484
0.963774
1.09223
1.17321
1.26795
1.37041
1.43634
1.45279
1.4495
1.41811
1.38877
1.34328
1.25957
1.16881
1.06736
0.988956
0.984009
1.06123
1.15479
1.20114
1.22664
1.24518
1.26409
0.61712
0.62363
0.630603
0.639558
0.651112
0.663845
0.674448
0.684948
0.704713
0.813514
0.989148
1.07756
1.11616
1.16095
1.21823
1.26463
1.28146
1.26998
1.23522
1.17715
1.09964
1.0305
0.969809
0.935427
0.940821
1.0123
1.12851
1.19176
1.22049
1.24027
1.25682
1.2707
0.618068
0.624809
0.63199
0.64133
0.653134
0.665861
0.676871
0.684548
0.692262
0.718873
0.860965
1.01302
1.06777
1.08426
1.09541
1.10502
1.10747
1.09744
1.07545
1.04125
1.00015
0.959964
0.93196
0.92055
0.925249
0.973516
1.0961
1.17745
1.21336
1.23426
1.25184
1.26484
1.27408
0.618794
0.625819
0.633166
0.642832
0.654952
0.667911
0.678947
0.686728
0.691247
0.698941
0.739099
0.918034
1.03723
1.06993
1.07665
1.07287
1.06076
1.04047
1.01894
0.997191
0.971603
0.945958
0.926286
0.918722
0.921179
0.946392
1.05664
1.1581
1.204
1.22796
1.24616
1.26064
1.27058
1.28296
0.619194
0.626584
0.634221
0.644153
0.656529
0.66983
0.681114
0.688788
0.693268
0.696971
0.705983
0.770072
0.979055
1.06382
1.07703
1.07627
1.06942
1.04849
1.02176
0.99706
0.975602
0.952721
0.932142
0.920925
0.92097
0.930335
1.01444
1.13152
1.19234
1.22113
1.24049
1.25555
1.26778
1.2838
1.28644
0.619365
0.627174
0.63507
0.645343
0.65792
0.671459
0.683142
0.690877
0.695242
0.698615
0.702044
0.714854
0.817663
1.03142
1.08286
1.08596
1.08253
1.06826
1.04083
1.01312
0.987443
0.964297
0.942927
0.927179
0.92249
0.923292
0.976272
1.09801
1.17736
1.21345
1.23469
1.25024
1.26416
1.28385
1.29058
1.30173
0.618993
0.627446
0.63568
0.646234
0.659085
0.672829
0.684876
0.692837
0.697261
0.700507
0.702716
0.70624
0.730586
0.881715
1.06767
1.09354
1.09165
1.08343
1.06035
1.03117
1.00353
0.978326
0.95425
0.93383
0.923616
0.921422
0.947633
1.05883
1.15808
1.20442
1.22866
1.24471
1.26021
1.28276
1.29267
1.30993
1.32488
0.618159
0.627051
0.635837
0.646744
0.659956
0.673981
0.686349
0.694489
0.699203
0.702446
0.704436
0.706043
0.711084
0.759763
0.954403
1.08269
1.09435
1.09108
1.07623
1.04828
1.0181
0.991153
0.965616
0.941628
0.925526
0.921027
0.93037
1.01766
1.13339
1.1934
1.22216
1.23912
1.25573
1.28139
1.29486
1.31449
1.33744
1.35366
0.617126
0.62639
0.635509
0.646964
0.660543
0.674949
0.687569
0.695886
0.700858
0.704377
0.706199
0.707624
0.70923
0.717434
0.81478
1.01801
1.08476
1.09302
1.08709
1.06503
1.03328
1.00379
0.976849
0.95059
0.929865
0.920938
0.922431
0.979827
1.10277
1.1796
1.21486
1.23349
1.25097
1.2795
1.29672
1.31951
1.34456
1.3704
1.38218
0.616113
0.625507
0.634826
0.646649
0.660804
0.675626
0.688521
0.697053
0.702264
0.706064
0.708044
0.709355
0.710081
0.711366
0.733884
0.89581
1.06492
1.09294
1.09287
1.08026
1.05
1.01763
0.9886
0.96057
0.935755
0.921994
0.91982
0.950298
1.06686
1.16211
1.20638
1.22772
1.24614
1.2771
1.29836
1.32421
1.35254
1.37991
1.40283
1.40832
0.61533
0.624498
0.633818
0.645796
0.660461
0.6759
0.689119
0.697975
0.703433
0.707465
0.709727
0.711158
0.711562
0.711322
0.715058
0.772881
0.984081
1.09055
1.0957
1.09114
1.06723
1.03286
1.00102
0.971282
0.943659
0.924405
0.919323
0.931349
1.0281
1.14001
1.1962
1.22164
1.2415
1.27421
1.29974
1.32875
1.36018
1.39064
1.41463
1.43211
1.43253
0.614926
0.623773
0.632685
0.644684
0.659601
0.675641
0.689343
0.698548
0.704323
0.708581
0.711121
0.712897
0.713078
0.71263
0.713286
0.723348
0.84974
1.04888
1.09718
1.09598
1.08248
1.04929
1.01421
0.982441
0.952891
0.929027
0.919286
0.921782
0.990617
1.11272
1.18365
1.21505
1.23703
1.27087
1.3009
1.33309
1.36773
1.40103
1.42795
1.44581
1.45869
1.45473
0.615175
0.623522
0.631958
0.643635
0.658567
0.674896
0.688889
0.698746
0.704869
0.709383
0.712229
0.714301
0.71466
0.713939
0.713865
0.714623
0.752035
0.950493
1.08091
1.09708
1.09274
1.06606
1.02859
0.994113
0.963153
0.935582
0.920365
0.918305
0.95897
1.08041
1.168
1.20764
1.23257
1.26746
1.30181
1.33725
1.37508
1.41145
1.44086
1.46127
1.47386
1.48273
1.47431
0.615862
0.623856
0.631798
0.642932
0.657552
0.673885
0.688058
0.69837
0.705063
0.709843
0.713036
0.715363
0.715946
0.715523
0.714845
0.714265
0.719782
0.822861
1.03747
1.09421
1.09713
1.08102
1.04437
1.00663
0.974116
0.94409
0.923081
0.91756
0.936346
1.04447
1.14851
1.19895
1.22803
1.26433
1.3024
1.34124
1.38223
1.42179
1.45385
1.47627
1.49102
1.49909
1.50435
1.48356
0.61639
0.624521
0.631932
0.642695
0.656798
0.672809
0.687036
0.697667
0.704796
0.709982
0.713527
0.716072
0.716874
0.716831
0.716064
0.71474
0.71489
0.742698
0.932332
1.08461
1.09805
1.09117
1.06112
1.02041
0.985759
0.95392
0.927849
0.91746
0.923154
1.00772
1.12459
1.18845
1.22323
1.26161
1.30263
1.34511
1.38917
1.43206
1.46682
1.49136
1.50771
1.5176
1.52189
1.51596
1.47382
0.616869
0.625257
0.632704
0.64305
0.656551
0.672019
0.68597
0.696703
0.704108
0.709558
0.713709
0.716454
0.717418
0.717771
0.717155
0.715448
0.714778
0.718562
0.811134
1.02843
1.09795
1.09507
1.07702
1.03587
0.998177
0.964707
0.934858
0.918087
0.917329
0.973938
1.09613
1.17553
1.21789
1.25939
1.30268
1.34881
1.39591
1.44219
1.4798
1.5064
1.52452
1.53565
1.54168
1.53496
1.51007
1.43937
0.616937
0.625895
0.633522
0.643939
0.65695
0.671737
0.685209
0.6957
0.703234
0.708968
0.713564
0.716569
0.717659
0.718321
0.717969
0.716302
0.714983
0.71467
0.739559
0.927943
1.07721
1.09536
1.0891
1.05297
1.01168
0.976145
0.943444
0.920682
0.915618
0.946635
1.06371
1.15962
1.21163
1.25773
1.30233
1.35244
1.40253
1.45214
1.49277
1.52144
1.5413
1.55386
1.56094
1.55655
1.53136
1.47744
1.39286
0.61607
0.626042
0.634021
0.644747
0.657795
0.671927
0.684947
0.694962
0.702361
0.708209
0.713156
0.716359
0.717715
0.718612
0.718412
0.717014
0.715307
0.714119
0.717794
0.811613
1.03442
1.09241
1.09514
1.07049
1.02665
0.988125
0.953498
0.925224
0.915227
0.927715
1.02899
1.14024
1.204
1.25649
1.30202
1.35597
1.40908
1.46188
1.50569
1.5365
1.55806
1.57206
1.58035
1.5778
1.55537
1.50009
1.4303
1.34515
0.615365
0.625419
0.63427
0.645328
0.658626
0.672679
0.685263
0.694694
0.701696
0.707474
0.712667
0.716003
0.717567
0.718787
0.718615
0.717544
0.715791
0.714035
0.713978
0.740398
0.938827
1.08419
1.09647
1.0855
1.04331
1.00083
0.964374
0.932035
0.915471
0.916913
0.994679
1.11707
1.1946
1.25535
1.3018
1.35945
1.41564
1.47139
1.51852
1.5516
1.57483
1.59028
1.59978
1.59929
1.57874
1.52575
1.45291
1.3801
1.30417
0.614673
0.624804
0.633641
0.645482
0.659295
0.673447
0.68595
0.694952
0.701406
0.706914
0.712182
0.715628
0.717469
0.718925
0.718773
0.717883
0.716429
0.71402
0.713211
0.717043
0.826847
1.04155
1.09659
1.09457
1.06116
1.01466
0.975863
0.940645
0.91728
0.912011
0.964001
1.09017
1.18324
1.25363
1.30203
1.36291
1.42227
1.48068
1.53117
1.56672
1.5916
1.60849
1.61923
1.62072
1.60227
1.55095
1.47853
1.40162
1.33566
1.27174
0.614335
0.624191
0.632856
0.644666
0.659369
0.674042
0.68669
0.695604
0.701383
0.706674
0.71179
0.715266
0.717386
0.719094
0.71907
0.718252
0.717004
0.714872
0.713049
0.712894
0.749796
0.963724
1.08733
1.0975
1.07834
1.03007
0.987883
0.950814
0.921016
0.910373
0.939448
1.06064
1.16979
1.25025
1.30311
1.36642
1.42898
1.4898
1.54361
1.58185
1.60841
1.62668
1.63867
1.64211
1.62579
1.5765
1.50385
1.42596
1.35539
1.30044
1.24612
0.614685
0.624004
0.632263
0.643862
0.658649
0.674109
0.687202
0.696298
0.701927
0.706812
0.711537
0.714957
0.717329
0.71931
0.719544
0.718839
0.717663
0.715822
0.713851
0.712516
0.720392
0.856094
1.06271
1.09783
1.09148
1.04725
1.00078
0.961742
0.927211
0.910024
0.922253
1.03023
1.15261
1.24428
1.30522
1.37008
1.43575
1.49883
1.5558
1.59695
1.62529
1.64485
1.65809
1.66342
1.64929
1.60217
1.52962
1.45015
1.3776
1.31875
1.27284
1.2259
0.615022
0.624405
0.632099
0.6432
0.65785
0.673482
0.687221
0.696815
0.702403
0.707377
0.711526
0.714626
0.717294
0.719529
0.720051
0.719638
0.718504
0.716902
0.715081
0.71261
0.714333
0.768593
0.999994
1.09464
1.09789
1.06555
1.01496
0.973173
0.935662
0.910278
0.912132
1.001
1.1321
1.2369
1.30854
1.37399
1.44251
1.50786
1.56775
1.61193
1.64224
1.66301
1.67745
1.68465
1.6727
1.62793
1.55562
1.4749
1.39978
1.33915
1.29029
1.25116
1.2098
0.615289
0.624891
0.632419
0.642935
0.657131
0.672759
0.686529
0.696882
0.70275
0.707866
0.711782
0.714397
0.717081
0.719653
0.720513
0.720486
0.719506
0.717999
0.716485
0.713751
0.713932
0.726464
0.904184
1.07786
1.09923
1.08274
1.03087
0.985199
0.945359
0.914022
0.907424
0.975119
1.10893
1.22706
1.31218
1.3782
1.44921
1.51697
1.57954
1.62673
1.65925
1.68119
1.69676
1.70576
1.69601
1.65373
1.58185
1.5
1.42256
1.35942
1.3095
1.26795
1.23404
1.19678
0.615357
0.625368
0.633013
0.643372
0.656886
0.672111
0.685756
0.696362
0.702753
0.708291
0.711932
0.714341
0.716694
0.719505
0.720771
0.721177
0.720522
0.71904
0.717806
0.715055
0.714326
0.714547
0.806346
1.03703
1.09932
1.09517
1.04872
0.99803
0.955918
0.919695
0.905498
0.954399
1.08437
1.21446
1.31562
1.38278
1.45586
1.52621
1.59126
1.64127
1.67627
1.69942
1.71599
1.72674
1.71915
1.67948
1.60827
1.5254
1.44575
1.38007
1.32848
1.28627
1.25035
1.22033
1.18608
0.614953
0.625469
0.633432
0.643978
0.657108
0.671898
0.685099
0.695706
0.702247
0.708512
0.712039
0.714293
0.716382
0.718818
0.720791
0.721525
0.721297
0.719956
0.718811
0.716375
0.714736
0.712619
0.743961
0.960794
1.09191
1.10076
1.06785
1.01206
0.96705
0.927893
0.90493
0.940189
1.05983
1.1991
1.31812
1.3879
1.46258
1.53558
1.60302
1.65554
1.69318
1.71773
1.73516
1.74754
1.74212
1.70514
1.63481
1.55109
1.46928
1.40095
1.34768
1.30437
1.26802
1.23629
1.20917
1.17711
0.614668
0.625358
0.633582
0.644497
0.657622
0.672141
0.684852
0.695106
0.701838
0.708286
0.711986
0.714271
0.716098
0.718154
0.719996
0.721559
0.721648
0.720623
0.719535
0.717314
0.7153
0.712324
0.719314
0.862744
1.07036
1.10197
1.08598
1.0277
0.97883
0.937697
0.909073
0.93235
1.03678
1.18208
1.31866
1.39372
1.46957
1.54505
1.61491
1.66958
1.70987
1.73611
1.7543
1.76814
1.76489
1.73065
1.66141
1.57704
1.49314
1.42218
1.367
1.32267
1.28549
1.2535
1.22487
1.19992
1.16945
0.61444
0.625129
0.633409
0.64475
0.658056
0.672614
0.685203
0.694842
0.701449
0.707957
0.711849
0.714284
0.715909
0.717569
0.719088
0.720653
0.721677
0.720964
0.720075
0.717874
0.716156
0.712258
0.713424
0.779203
1.02
1.10202
1.09946
1.04528
0.991407
0.948573
0.916002
0.928819
1.01699
1.16409
1.31238
1.40042
1.47704
1.55457
1.62695
1.68349
1.72625
1.75452
1.77345
1.78852
1.78745
1.75599
1.68802
1.60316
1.51737
1.44378
1.38657
1.34111
1.30315
1.27053
1.24176
1.21544
1.1921
1.16278
0.614565
0.625011
0.633163
0.644578
0.658215
0.672964
0.685707
0.694804
0.701325
0.707614
0.711638
0.714471
0.715906
0.717173
0.718243
0.719661
0.720904
0.72104
0.720516
0.718261
0.716941
0.713107
0.712754
0.732486
0.93946
1.0927
1.10607
1.06451
1.00503
0.960466
0.926208
0.92741
1.00184
1.14418
1.30338
1.40795
1.48524
1.56409
1.63912
1.69741
1.74226
1.77282
1.79266
1.80867
1.8098
1.78114
1.71458
1.62939
1.54188
1.46576
1.40636
1.35973
1.32094
1.28775
1.25848
1.2321
1.20749
1.18536
1.15686
0.614634
0.625183
0.632978
0.644304
0.658026
0.673047
0.686089
0.695129
0.70159
0.707373
0.711433
0.714555
0.716389
0.717108
0.717757
0.718562
0.720148
0.720663
0.72083
0.718705
0.71758
0.714254
0.712904
0.715548
0.845421
1.0683
1.10784
1.08359
1.02009
0.973414
0.937797
0.927358
0.992351
1.12482
1.29212
1.41556
1.49421
1.57362
1.65133
1.71143
1.75794
1.79085
1.81195
1.82864
1.83193
1.80605
1.74103
1.65568
1.56658
1.48805
1.42627
1.37842
1.33887
1.30508
1.27539
1.2486
1.22399
1.20065
1.17943
1.15151
0.614674
0.625311
0.632961
0.644029
0.657812
0.672806
0.68622
0.695353
0.701989
0.707319
0.711186
0.714638
0.716764
0.717725
0.717679
0.717969
0.719249
0.720311
0.720983
0.719375
0.718191
0.715594
0.713352
0.711756
0.771112
1.01541
1.10803
1.09916
1.03718
0.987323
0.95091
0.937531
0.987974
1.10757
1.27886
1.42131
1.50389
1.58326
1.66354
1.72561
1.77342
1.80847
1.83125
1.84855
1.85387
1.83066
1.76735
1.68193
1.59141
1.51048
1.44627
1.39707
1.35682
1.32251
1.29239
1.26529
1.24034
1.21704
1.19466
1.1741
1.14658
0.614424
0.625473
0.632996
0.643851
0.657664
0.672579
0.686101
0.695436
0.702307
0.707326
0.711005
0.714555
0.717037
0.718336
0.718475
0.717866
0.718654
0.719889
0.721086
0.720204
0.718926
0.716772
0.714493
0.711367
0.730628
0.935179
1.09872
1.10809
1.0567
1.0024
0.965918
0.948078
0.986207
1.09383
1.26478
1.42378
1.51411
1.59326
1.6757
1.73993
1.78886
1.82559
1.85039
1.86852
1.87554
1.8549
1.79349
1.70808
1.61627
1.53304
1.4664
1.41568
1.37475
1.33995
1.30947
1.28206
1.25688
1.2333
1.21097
1.18929
1.16921
1.14196
0.614189
0.62537
0.632975
0.643741
0.657718
0.672404
0.685869
0.695386
0.70249
0.707278
0.71092
0.714237
0.717053
0.718801
0.719287
0.718484
0.718434
0.719335
0.721147
0.720918
0.719806
0.717703
0.715742
0.711348
0.715639
0.845407
1.07481
1.11152
1.0781
1.01896
0.982483
0.962608
0.989462
1.08535
1.25055
1.42385
1.52485
1.60389
1.68783
1.75429
1.80437
1.84228
1.86919
1.88858
1.89695
1.87872
1.81938
1.73408
1.64103
1.55571
1.48669
1.43438
1.39269
1.35739
1.32657
1.2989
1.27349
1.24973
1.22717
1.20557
1.1844
1.16465
1.13755
0.613957
0.625253
0.632688
0.6436
0.657725
0.672448
0.68572
0.695429
0.702494
0.707248
0.710834
0.714033
0.716576
0.718935
0.719867
0.719126
0.71863
0.718902
0.72106
0.721335
0.720723
0.718439
0.71679
0.712171
0.712087
0.773745
1.02453
1.11233
1.09885
1.03745
1.00061
0.979369
0.998176
1.08062
1.23592
1.41445
1.53585
1.61537
1.69998
1.76856
1.82
1.85868
1.88744
1.90866
1.91822
1.90215
1.84496
1.75988
1.66565
1.57836
1.50712
1.4531
1.41065
1.37483
1.34367
1.31576
1.29016
1.26624
1.24353
1.22172
1.20065
1.17984
1.16031
1.13327
0.613547
0.625184
0.632576
0.643262
0.65764
0.672401
0.685675
0.695517
0.702382
0.707213
0.710898
0.713879
0.716147
0.718424
0.720059
0.719749
0.719004
0.718772
0.720276
0.721404
0.721443
0.719071
0.71746
0.71339
0.71166
0.732493
0.949039
1.10602
1.11534
1.05829
1.02029
0.998531
1.01068
1.07868
1.22339
1.40631
1.54625
1.62771
1.71222
1.78264
1.83571
1.87499
1.90508
1.92854
1.9395
1.92516
1.87017
1.78538
1.69012
1.60085
1.52752
1.4717
1.4285
1.39227
1.36078
1.33264
1.30686
1.2828
1.25997
1.23805
1.2168
1.19609
1.17553
1.15611
1.12905
0.613075
0.624954
0.632427
0.643096
0.657279
0.672235
0.685614
0.695755
0.702345
0.707137
0.711046
0.713962
0.715898
0.7178
0.719616
0.71998
0.719561
0.718761
0.71939
0.720839
0.721784
0.719751
0.717857
0.714907
0.711842
0.715102
0.863144
1.08704
1.12523
1.08165
1.04168
1.01985
1.02695
1.08011
1.21485
1.39643
1.55407
1.64076
1.72468
1.79649
1.85137
1.8914
1.92222
1.94794
1.96084
1.94781
1.89489
1.81048
1.71436
1.62315
1.54763
1.49014
1.44613
1.40959
1.37788
1.34953
1.32357
1.29939
1.27646
1.25446
1.23311
1.21224
1.19179
1.17136
1.15198
1.12482
0.612566
0.624555
0.632177
0.64298
0.65698
0.67198
0.685433
0.695844
0.702293
0.707156
0.711158
0.714224
0.715807
0.717432
0.719033
0.719879
0.72
0.718936
0.718802
0.7201
0.721852
0.72055
0.718183
0.716177
0.712484
0.709734
0.790471
1.04373
1.12884
1.10717
1.06518
1.04336
1.04646
1.08963
1.21061
1.38633
1.55812
1.65419
1.73752
1.81018
1.86685
1.90794
1.93907
1.96661
1.98206
1.97024
1.91891
1.83509
1.73818
1.64516
1.5674
1.50848
1.46359
1.42671
1.39483
1.36635
1.34028
1.316
1.29299
1.27091
1.2495
1.22857
1.20797
1.18766
1.16728
1.14786
1.12054
0.612234
0.624104
0.63172
0.642844
0.656645
0.671822
0.685219
0.695762
0.702089
0.707163
0.711316
0.714454
0.716097
0.717313
0.71855
0.719544
0.720137
0.719309
0.718524
0.719205
0.721871
0.721177
0.718697
0.717115
0.713804
0.708617
0.742839
0.977155
1.12942
1.13398
1.0911
1.06906
1.0691
1.10226
1.2091
1.37552
1.5585
1.66775
1.75089
1.82383
1.88205
1.92455
1.95587
1.98448
2.00275
1.99254
1.94213
1.85902
1.76144
1.66661
1.58687
1.52667
1.48083
1.44338
1.41129
1.3828
1.35682
1.33259
1.30953
1.2874
1.26594
1.24496
1.22431
1.20387
1.18363
1.16323
1.14371
1.11615
0.611832
0.62383
0.63123
0.642459
0.656266
0.671731
0.685282
0.695461
0.70172
0.707044
0.711433
0.714661
0.71633
0.717468
0.718375
0.71902
0.720118
0.719899
0.718468
0.718716
0.720984
0.721396
0.719609
0.717735
0.715256
0.708473
0.718617
0.901376
1.10974
1.15819
1.11959
1.09709
1.09458
1.12004
1.21025
1.36621
1.55353
1.68089
1.76484
1.8376
1.89691
1.94108
1.97273
2.00166
2.02241
2.01451
1.96457
1.88195
1.78402
1.68719
1.60605
1.5446
1.49738
1.45981
1.42785
1.39938
1.37338
1.34911
1.32605
1.30392
1.28241
1.2614
1.24072
1.22025
1.19989
1.17964
1.15915
1.13947
1.11163
0.61111
0.623467
0.630894
0.642064
0.65567
0.671638
0.685377
0.695286
0.701336
0.706749
0.711428
0.714783
0.716461
0.71762
0.718386
0.718798
0.719929
0.720201
0.719262
0.71866
0.719978
0.721423
0.720805
0.71815
0.716079
0.708647
0.709253
0.829147
1.08175
1.17676
1.15045
1.12768
1.12296
1.14116
1.21617
1.36035
1.54944
1.6919
1.77924
1.85164
1.91145
1.95731
1.98959
2.01828
2.04064
2.03554
1.98635
1.90356
1.80553
1.70689
1.62469
1.56202
1.51324
1.47625
1.44423
1.4157
1.38971
1.36549
1.34252
1.32041
1.2989
1.27788
1.25719
1.2367
1.21632
1.19596
1.17563
1.15499
1.1351
1.10691
0.610017
0.62281
0.630447
0.641719
0.655217
0.671289
0.685386
0.695178
0.70113
0.706443
0.711242
0.714771
0.71645
0.717663
0.718417
0.718723
0.719485
0.720302
0.719943
0.71884
0.718916
0.720979
0.721802
0.718487
0.716291
0.711123
0.706761
0.775228
1.03162
1.18336
1.18448
1.16116
1.15419
1.16593
1.2271
1.35874
1.54388
1.69881
1.79381
1.86608
1.92574
1.97302
2.00616
2.03434
2.05723
2.05482
2.0073
1.92375
1.82541
1.72557
1.64257
1.57835
1.52851
1.49212
1.46013
1.4318
1.40589
1.38174
1.35885
1.33684
1.31541
1.2944
1.27369
1.2532
1.23282
1.21245
1.19203
1.17157
1.15073
1.13058
1.10199
0.609459
0.621798
0.629643
0.641352
0.655128
0.671009
0.685057
0.694964
0.701082
0.706294
0.711028
0.714601
0.716446
0.717574
0.718347
0.718628
0.719166
0.7199
0.720189
0.719057
0.718427
0.720181
0.722347
0.718992
0.716109
0.713284
0.706286
0.742407
0.969834
1.18001
1.22285
1.19776
1.1883
1.19407
1.24262
1.36037
1.53432
1.70138
1.80852
1.88097
1.93986
1.98797
2.02201
2.04959
2.07214
2.07159
2.02674
1.94259
1.84316
1.74295
1.65931
1.59301
1.54329
1.50701
1.47541
1.44748
1.42182
1.39782
1.37503
1.35313
1.33183
1.3109
1.29023
1.26974
1.24937
1.22901
1.2086
1.18806
1.16741
1.14631
1.12585
1.09681
0.609595
0.621221
0.628559
0.640557
0.655177
0.670904
0.684602
0.694397
0.701039
0.706331
0.710854
0.714318
0.716374
0.717584
0.718204
0.718518
0.71893
0.71945
0.720171
0.719593
0.718226
0.71897
0.722464
0.719616
0.715984
0.714748
0.707969
0.727167
0.906063
1.15595
1.26161
1.23705
1.22535
1.22544
1.2626
1.36586
1.52448
1.70247
1.82333
1.89617
1.95383
2.00189
2.03651
2.06354
2.08523
2.08544
2.04363
1.95991
1.85882
1.75835
1.67445
1.60649
1.55758
1.521
1.48987
1.4625
1.43731
1.41364
1.39105
1.36929
1.34811
1.32732
1.30675
1.28631
1.26596
1.24562
1.22523
1.20471
1.184
1.16311
1.1417
1.1209
1.09138
0.609627
0.6215
0.628071
0.639702
0.65492
0.670841
0.684297
0.693903
0.700612
0.706399
0.71079
0.713954
0.716122
0.717686
0.718214
0.718347
0.718696
0.719163
0.719664
0.719789
0.71826
0.718229
0.721881
0.720197
0.715936
0.71558
0.714035
0.722829
0.85135
1.12372
1.29337
1.27869
1.2655
1.25992
1.28667
1.37353
1.51579
1.70313
1.8363
1.91112
1.96752
2.01447
2.04895
2.07556
2.09629
2.09633
2.0571
1.97514
1.87268
1.77143
1.68743
1.61855
1.57043
1.53396
1.50355
1.47671
1.45214
1.42902
1.40681
1.38527
1.36426
1.34362
1.3232
1.30288
1.28258
1.26227
1.24192
1.22143
1.20075
1.17981
1.15863
1.13688
1.11569
1.08566
0.607898
0.621715
0.628717
0.639382
0.654403
0.670374
0.684018
0.693692
0.700203
0.706037
0.710842
0.713741
0.715623
0.717636
0.718461
0.71826
0.718449
0.71897
0.719323
0.719697
0.71885
0.717969
0.720344
0.720312
0.717156
0.716259
0.721335
0.722106
0.814427
1.08341
1.31222
1.32341
1.30914
1.29754
1.31403
1.38363
1.51087
1.70341
1.84583
1.92501
1.98064
2.02535
2.05859
2.08508
2.10497
2.10448
2.06683
1.98749
1.88489
1.78243
1.69758
1.62895
1.5817
1.54569
1.5162
1.4901
1.46618
1.44373
1.42211
1.401
1.38024
1.35977
1.33952
1.31936
1.29919
1.27895
1.25864
1.2382
1.21757
1.19668
1.17547
1.15396
1.13182
1.11022
1.07965
0.608429
0.620525
0.629174
0.640184
0.654156
0.669718
0.683343
0.693611
0.699898
0.705524
0.710537
0.713737
0.715244
0.717132
0.718665
0.718499
0.718164
0.718733
0.71915
0.719383
0.719124
0.717996
0.718722
0.720099
0.71931
0.717209
0.729155
0.725674
0.795529
1.03067
1.31433
1.37202
1.35653
1.33832
1.34422
1.39754
1.51031
1.69612
1.85124
1.93745
1.99277
2.03411
2.0649
2.09171
2.11107
2.11012
2.07327
1.99631
1.8952
1.79149
1.70482
1.6373
1.59119
1.55592
1.52753
1.50243
1.4794
1.45767
1.43676
1.41626
1.39595
1.37577
1.3557
1.33571
1.31572
1.29562
1.27539
1.25501
1.23444
1.21361
1.19247
1.17094
1.14906
1.12649
1.10446
1.07335
0.617245
0.621761
0.628254
0.640723
0.654832
0.66933
0.682553
0.693274
0.699642
0.705062
0.70995
0.713671
0.715191
0.716491
0.718391
0.718898
0.717996
0.718231
0.71902
0.719188
0.718953
0.718416
0.717511
0.719221
0.722272
0.718937
0.73583
0.732022
0.789699
0.982233
1.29783
1.42422
1.40713
1.38218
1.37721
1.41592
1.51841
1.68626
1.85489
1.94813
2.0032
2.04016
2.06789
2.09536
2.11458
2.11347
2.07715
2.00181
1.90271
1.79867
1.71032
1.64334
1.59844
1.56462
1.53733
1.51343
1.49153
1.47076
1.45063
1.43088
1.41121
1.39149
1.37172
1.35193
1.33212
1.31221
1.29213
1.27185
1.25135
1.23059
1.20952
1.18807
1.16619
1.1439
1.12089
1.09842
1.06677
0.618704
0.631153
0.629269
0.640151
0.655334
0.669781
0.682038
0.692733
0.699085
0.704769
0.709373
0.713167
0.715335
0.716206
0.717611
0.719081
0.718324
0.717617
0.718668
0.719307
0.718379
0.718583
0.717149
0.718324
0.725571
0.72168
0.742313
0.746098
0.79348
0.946041
1.27376
1.47072
1.46022
1.42908
1.41293
1.43788
1.52687
1.67397
1.85707
1.95561
2.01056
2.04314
2.06848
2.09636
2.11575
2.11443
2.07853
2.00358
1.90654
1.80432
1.71415
1.64731
1.60278
1.57131
1.54559
1.52291
1.50233
1.48276
1.46365
1.44472
1.42581
1.40675
1.38747
1.36799
1.34839
1.32868
1.30879
1.28867
1.26828
1.24761
1.22663
1.20527
1.18348
1.16119
1.13847
1.115
1.09209
1.05993
0.63429
0.634051
0.637781
0.640718
0.654829
0.670175
0.682117
0.69216
0.698367
0.704384
0.709112
0.712474
0.715091
0.716424
0.716976
0.718376
0.718953
0.717345
0.717742
0.719469
0.717966
0.718361
0.717504
0.717972
0.72872
0.726126
0.750098
0.762398
0.801433
0.928377
1.242
1.50356
1.51502
1.47921
1.45146
1.46309
1.53892
1.66152
1.855
1.95871
2.01406
2.04451
2.06763
2.09399
2.11481
2.11365
2.07757
2.00372
1.90705
1.8078
1.7166
1.64967
1.60468
1.57488
1.55193
1.53089
1.5116
1.49342
1.47557
1.45769
1.43964
1.42136
1.40275
1.38377
1.36449
1.345
1.32532
1.30541
1.28519
1.26465
1.24377
1.22252
1.20083
1.17865
1.15594
1.13276
1.10883
1.08549
1.05286
1.26429
0.73755
0.641247
0.650023
0.654604
0.669721
0.68277
0.691997
0.697698
0.703929
0.70897
0.712147
0.714382
0.716547
0.716921
0.717259
0.719118
0.718046
0.716721
0.719324
0.718193
0.717365
0.719821
0.718558
0.731106
0.733023
0.760084
0.781966
0.819721
0.92511
1.20079
1.51722
1.57244
1.53275
1.4929
1.49113
1.55251
1.65015
1.8463
1.95901
2.01504
2.04492
2.06276
2.08724
2.1087
2.10922
2.07448
2.00081
1.90484
1.80611
1.71926
1.64941
1.60581
1.57571
1.55498
1.53704
1.51936
1.50255
1.48614
1.46956
1.45259
1.4352
1.41738
1.39908
1.38032
1.36116
1.34172
1.32202
1.30203
1.28167
1.26093
1.23979
1.21822
1.19617
1.17358
1.15042
1.12677
1.10237
1.07864
1.04557
1.24592
1.27563
0.777091
0.658976
0.663903
0.668456
0.683126
0.692506
0.697331
0.703493
0.708689
0.712164
0.71395
0.715887
0.717328
0.716748
0.717995
0.719452
0.716378
0.717911
0.719045
0.716852
0.720587
0.721183
0.733804
0.743135
0.773446
0.804294
0.843098
0.934657
1.15986
1.51866
1.63228
1.58944
1.53738
1.52147
1.56695
1.6408
1.83297
1.95104
2.00904
2.0386
2.05542
2.07783
2.10074
2.1033
2.07013
1.99772
1.90148
1.80334
1.71532
1.65302
1.60362
1.5763
1.55525
1.53981
1.52534
1.51016
1.49518
1.48008
1.46444
1.44815
1.43123
1.41375
1.39568
1.37704
1.35795
1.3385
1.31873
1.29861
1.27807
1.25708
1.23565
1.21373
1.19127
1.16823
1.14461
1.1205
1.09566
1.07155
1.03809
1.24578
1.25387
1.29407
0.841269
0.680222
0.678366
0.681796
0.693345
0.697784
0.703133
0.708401
0.712153
0.714166
0.715193
0.717211
0.717515
0.716529
0.719919
0.717212
0.715636
0.719547
0.717951
0.720584
0.726147
0.739206
0.75675
0.790836
0.829112
0.871934
0.947261
1.13275
1.50507
1.68775
1.64874
1.58515
1.55309
1.58131
1.63402
1.81369
1.93963
1.99903
2.03058
2.04657
2.06753
2.09168
2.09698
2.06598
1.99455
1.89793
1.79905
1.71109
1.64807
1.60663
1.57332
1.55559
1.53981
1.52801
1.51603
1.50269
1.48907
1.47495
1.46
1.44421
1.42764
1.41038
1.39246
1.37389
1.3548
1.33529
1.31541
1.29512
1.27435
1.25309
1.23131
1.209
1.18611
1.16261
1.13851
1.11395
1.08869
1.06425
1.03046
1.24724
1.25375
1.27086
1.31006
0.911241
0.71358
0.694614
0.692002
0.699588
0.703433
0.707939
0.711795
0.7144
0.715338
0.715996
0.718411
0.716242
0.718219
0.719001
0.714315
0.718823
0.72267
0.720318
0.734205
0.748244
0.774284
0.812444
0.856563
0.903119
0.964502
1.11804
1.48611
1.72827
1.70964
1.63624
1.58521
1.59616
1.6297
1.78923
1.92203
1.98471
2.01968
2.03777
2.05775
2.08255
2.09061
2.062
1.99195
1.89483
1.79485
1.70596
1.64294
1.60065
1.57577
1.55233
1.54001
1.52785
1.51865
1.50849
1.49652
1.48391
1.4705
1.45607
1.44064
1.42431
1.40721
1.38937
1.37082
1.35168
1.33207
1.31204
1.29154
1.27051
1.24891
1.22676
1.20403
1.18068
1.1567
1.13214
1.10714
1.08151
1.05677
1.02268
1.24774
1.2552
1.27114
1.29407
1.33672
0.983181
0.754047
0.708298
0.699707
0.70589
0.707625
0.711451
0.713791
0.716093
0.715529
0.718484
0.718132
0.715438
0.719565
0.716233
0.71697
0.729102
0.723616
0.745604
0.762798