/*--------------------------------*- C++ -*----------------------------------*\
| =========                 |                                                 |
| \\      /  F ield         | OpenFOAM: The Open Source CFD Toolbox           |
|  \\    /   O peration     | Version:  v2012                                 |
|   \\  /    A nd           | Website:  www.openfoam.com                      |
|    \\/     M anipulation  |                                                 |
\*---------------------------------------------------------------------------*/
FoamFile
{
    version     2.0;
    format      ascii;
    class       volScalarField::Internal;
    location    "12000";
    object      Rstream;
}
// * * * * * * * * * * * * * * * * * * * * * * * * * * * * * * * * * * * * * //

dimensions      [0 0 -1 0 0 0 0];


value           nonuniform List<scalar> 
27324
(
-1.86226e-09
-8.72861e-10
-1.62606e-09
-1.83074e-09
7.16919e-10
6.82002e-10
-9.36104e-10
-2.99888e-11
-9.32986e-11
6.16775e-10
-1.77823e-09
1.63014e-09
-6.99008e-10
-6.95097e-10
-1.13866e-09
-8.71744e-10
3.4115e-11
-7.76298e-10
6.11881e-10
-5.4273e-10
5.06935e-10
-1.64451e-09
7.54625e-10
-6.89895e-10
-7.27366e-10
1.1507e-09
4.66992e-10
8.22899e-10
-9.22796e-10
-7.84849e-13
-5.52283e-11
6.78112e-10
-5.40749e-10
5.19913e-10
-3.60455e-10
-3.19987e-10
-1.98638e-09
7.73232e-10
-6.07364e-10
-6.08528e-10
6.50303e-10
4.62546e-10
-1.02601e-11
3.05599e-10
2.8924e-10
-2.09409e-09
-4.15245e-14
-4.23981e-11
6.80627e-10
-5.37282e-10
5.31742e-11
-4.59814e-10
-3.14057e-10
5.42274e-10
-1.56645e-10
-1.09264e-09
3.31263e-11
-8.04133e-10
-5.955e-10
5.69511e-10
4.20569e-10
1.09833e-11
4.10554e-10
2.68856e-10
2.63099e-10
-1.94118e-10
-2.22194e-09
9.82488e-10
-8.92282e-10
7.55134e-10
-5.50208e-10
6.83326e-12
-4.23681e-10
-3.16826e-10
5.67056e-10
3.15943e-10
-1.87631e-10
-3.79338e-11
-1.1565e-09
-1.4962e-12
-1.46941e-10
7.36241e-10
1.25037e-09
3.93406e-10
-1.10775e-12
3.91398e-10
2.84019e-10
2.33104e-10
-1.60528e-10
-1.71473e-11
1.88784e-10
-1.89353e-09
1.01413e-09
-8.97425e-10
-8.95377e-10
6.81257e-10
5.72655e-10
-4.63809e-10
-3.27198e-10
5.50734e-10
3.02256e-10
-2.17382e-10
8.14831e-11
7.95741e-11
-2.68522e-10
-7.2176e-10
5.54955e-11
-3.94345e-11
8.1063e-10
-7.23329e-10
9.1091e-11
-2.3768e-11
3.99003e-10
2.34904e-10
2.29936e-10
-1.86778e-10
-2.44316e-12
-8.30037e-11
2.06253e-10
-1.35348e-10
-1.09247e-09
1.34266e-09
-7.04371e-10
-8.53094e-10
1.49336e-09
5.81721e-10
-2.3665e-12
-3.57943e-10
5.78397e-10
2.91831e-10
-2.51167e-10
5.67528e-11
-2.57799e-11
-2.02145e-10
-2.24769e-11
-4.81543e-11
-4.82897e-10
5.22117e-13
-6.5843e-10
6.80036e-10
-6.58621e-10
6.12651e-10
-5.64478e-10
-3.84715e-10
3.19674e-10
2.40446e-10
-1.92101e-10
-2.40093e-11
-1.41109e-10
1.62353e-10
-7.6825e-11
2.00862e-10
5.2294e-11
5.52233e-11
4.3663e-10
-4.77883e-10
-6.15515e-10
1.341e-09
5.36544e-10
7.25249e-12
4.81535e-10
3.22317e-10
3.36931e-10
-2.72681e-10
9.19233e-12
-5.13004e-11
-2.95438e-10
-1.53549e-10
-1.41873e-10
-1.83218e-10
1.26756e-10
2.15608e-09
3.24224e-11
-4.72919e-11
4.47738e-10
-4.25991e-10
5.7671e-10
-5.47277e-10
-4.10499e-10
6.73583e-10
3.7435e-10
-2.21863e-10
-1.74004e-11
-1.51957e-10
1.91871e-10
-9.42158e-11
2.45452e-10
1.07158e-10
1.20033e-11
1.98536e-11
-7.3643e-09
-2.0916e-11
5.78654e-11
-3.60225e-10
3.87883e-10
4.18555e-10
-2.90364e-11
4.86831e-10
3.13361e-10
3.73186e-10
-2.25979e-10
5.33461e-11
-1.70324e-11
-3.2935e-10
4.57441e-11
-1.45043e-10
-7.86532e-11
-3.6043e-11
1.06036e-11
-1.03166e-10
3.1302e-08
9.47587e-11
8.50056e-10
-1.43424e-11
-2.57622e-10
4.02742e-12
-3.34646e-10
-3.93911e-10
6.24648e-10
4.10517e-10
-3.11112e-10
1.65563e-11
-9.17867e-11
2.26178e-10
-1.013e-10
2.24123e-10
9.6357e-11
4.34691e-11
2.52833e-11
-9.78911e-11
-7.29403e-11
1.86e-08
9.18296e-10
-2.46924e-10
-4.51514e-10
-1.90917e-10
1.15882e-10
4.15022e-12
3.27727e-10
3.14952e-10
2.83216e-10
-2.527e-10
-3.6477e-11
-1.54144e-10
-3.53949e-10
6.0852e-11
-9.53703e-11
-1.76109e-10
6.93517e-11
5.04006e-11
6.53017e-14
4.40347e-12
3.46321e-11
8.1822e-09
-1.62116e-08
1.25798e-08
-4.745e-10
-8.27878e-10
-6.92727e-13
-1.58018e-10
-2.21937e-10
4.72221e-10
3.26398e-10
-3.03262e-10
7.14562e-11
-5.69015e-11
-2.92053e-10
-1.02172e-10
3.00459e-10
1.35163e-10
-2.11753e-10
4.11305e-11
-6.27951e-12
1.77444e-11
1.10289e-10
-1.93978e-10
5.27338e-10
-6.62564e-10
1.70103e-09
-1.12105e-08
2.23436e-10
2.77157e-11
2.75133e-10
8.75523e-11
1.46846e-10
2.65593e-10
-2.56271e-10
7.95019e-12
-1.60037e-10
2.62245e-10
-7.00225e-11
-1.42872e-10
-1.08999e-10
-4.76539e-11
3.11235e-12
7.9933e-12
1.08518e-10
-9.49486e-11
-1.52688e-10
-5.39811e-11
7.77311e-11
-1.18178e-09
2.06482e-09
1.11735e-08
-1.91143e-08
-1.01564e-08
4.2508e-11
3.65818e-10
3.13933e-11
1.49697e-10
-1.69658e-10
3.75932e-11
-5.12066e-11
-3.20664e-10
-1.65168e-10
-1.72471e-10
2.01221e-10
-2.68033e-10
-5.33757e-11
-1.82268e-11
-8.9242e-12
4.28386e-11
9.31695e-11
-6.52372e-11
-4.62497e-11
-1.47086e-10
-3.21274e-11
4.72141e-10
-3.46957e-09
9.23951e-09
-8.54408e-09
2.6201e-09
1.77957e-09
-4.20471e-10
-1.14035e-10
-1.36316e-10
-5.70611e-12
-1.36363e-10
1.54328e-10
-9.94165e-11
2.05685e-10
1.11427e-10
-1.15758e-11
1.65686e-11
1.42169e-11
1.30201e-10
-5.52333e-11
-3.56113e-11
1.92557e-10
-1.21083e-10
5.41281e-11
-3.64596e-10
1.62574e-10
-1.27514e-11
6.2727e-10
-5.9859e-09
-7.72223e-09
5.64875e-10
-4.61265e-09
-1.9591e-09
-2.01039e-10
2.8661e-11
-9.60404e-11
-1.31835e-10
-2.52736e-10
9.90216e-11
-1.06634e-10
-1.68434e-10
-1.02661e-10
-1.6965e-11
-2.29749e-11
2.29671e-11
3.47717e-11
-2.29138e-11
-4.60867e-11
2.35771e-10
1.46205e-10
1.7722e-11
-4.0771e-10
-1.91949e-13
-1.16223e-11
1.20518e-11
6.16032e-10
-7.4546e-10
5.40135e-09
5.01641e-09
-2.76577e-09
-3.47681e-10
1.0597e-09
2.03699e-11
-1.26836e-10
2.2048e-12
-6.44737e-11
2.26452e-10
9.42702e-11
2.69158e-11
-2.62878e-11
3.26968e-11
4.99673e-12
3.53511e-11
4.03111e-11
4.74446e-10
1.81693e-11
-7.24823e-11
7.7503e-11
2.06975e-11
-2.02066e-10
3.09856e-13
-1.44488e-10
-7.91427e-11
4.01747e-11
1.08354e-10
-2.23129e-09
-5.40558e-09
-4.16555e-09
4.79667e-09
1.4957e-09
-1.09712e-09
3.31871e-11
1.55109e-10
-1.40363e-11
3.89784e-11
-1.068e-10
-1.89397e-11
-3.73463e-11
-1.65263e-12
-4.84643e-11
-1.17522e-10
-1.02107e-10
3.44278e-11
2.65222e-10
1.52584e-10
2.57013e-11
-1.74667e-11
-5.16164e-12
-3.47825e-10
1.67323e-10
-1.48427e-10
1.3566e-10
-6.88777e-11
-5.97244e-13
4.81741e-10
2.54742e-09
-7.50887e-09
-2.76388e-09
1.4263e-09
-5.58052e-10
3.46729e-10
-8.67752e-10
1.37558e-10
-2.68846e-10
-2.25829e-10
-9.96151e-11
1.54123e-10
2.02353e-11
-3.76422e-10
3.77358e-10
1.32142e-10
5.39862e-10
-6.5365e-11
-3.31129e-11
-2.34773e-11
3.15612e-12
-2.13549e-11
-2.05208e-12
-1.67823e-10
-6.81246e-12
-1.51271e-11
1.33358e-10
1.24939e-10
5.56902e-11
-5.66853e-11
-1.0071e-09
-2.88726e-09
-2.70281e-09
1.52409e-09
-2.01813e-09
1.85221e-09
5.28259e-09
-1.93155e-10
1.03327e-09
1.34221e-09
5.44987e-10
1.09002e-10
-2.26143e-11
-6.23603e-10
4.68192e-10
6.18438e-12
-5.03857e-11
2.13942e-10
-7.48704e-11
-3.35294e-12
-1.91512e-11
-7.82717e-12
-8.11227e-13
-4.12332e-12
-2.93817e-10
1.17326e-10
-1.12709e-10
-1.29725e-10
1.17494e-10
1.23347e-11
-5.25134e-11
4.02129e-11
-1.39516e-09
-3.37424e-09
2.12251e-09
-1.97665e-10
-1.16163e-09
4.13163e-09
1.12901e-09
-3.76041e-09
-2.78015e-09
-3.89637e-10
7.85784e-10
3.05161e-10
-4.71864e-11
-6.47633e-10
-1.29723e-10
2.78667e-10
-6.16865e-11
6.04771e-11
3.8294e-12
-5.74997e-14
-1.7502e-12
9.36484e-12
-1.31027e-11
-1.19009e-11
-1.28558e-10
3.80716e-12
-9.21692e-12
1.01609e-10
-1.06686e-10
1.07459e-11
3.36778e-13
4.08907e-11
-8.96536e-11
-1.43164e-09
8.58222e-10
2.01205e-10
2.51926e-10
-8.35254e-10
4.80702e-10
7.9979e-10
1.57747e-09
-2.37253e-11
3.64111e-10
-4.68187e-10
-3.34995e-10
2.14624e-10
9.1465e-11
1.00996e-10
3.96062e-11
1.23996e-10
5.1878e-12
-2.85488e-11
-6.47174e-12
-3.01868e-13
-1.97772e-12
7.0872e-12
-5.22901e-12
-1.4652e-10
9.30918e-11
-8.75176e-11
-9.46835e-11
9.80287e-11
8.98949e-11
5.94961e-13
-5.35086e-11
8.4574e-11
-1.41731e-10
-1.5472e-12
2.34687e-10
-7.36133e-11
5.63269e-11
-6.11256e-11
3.43532e-10
-9.60873e-11
3.32751e-10
-6.32831e-11
-9.80337e-11
-1.51202e-12
-1.11274e-10
8.79637e-12
-4.53437e-12
-6.90147e-12
-7.85221e-12
-8.73817e-11
5.0657e-12
2.20146e-13
3.52863e-12
-8.02253e-13
1.27307e-11
1.21797e-11
7.56134e-12
-4.07349e-11
4.61503e-12
-9.77653e-12
9.70821e-11
-9.58701e-11
6.86086e-12
-8.96464e-11
-6.59882e-11
4.40852e-11
-3.36174e-11
-1.77845e-10
5.59163e-10
1.10188e-09
-5.76796e-11
5.20508e-11
5.28113e-11
6.08005e-11
3.54631e-11
-5.66167e-11
-5.99119e-11
9.78471e-11
5.1583e-11
-1.34819e-11
-3.27412e-11
-4.41857e-12
3.88992e-11
-1.81395e-11
-5.59383e-11
1.07935e-11
-7.35871e-13
-8.81744e-12
6.98036e-12
-1.31357e-12
7.97845e-12
2.12016e-13
3.37775e-11
3.07102e-11
-6.25349e-11
-7.34891e-11
1.45981e-10
7.14686e-11
3.04779e-12
7.11696e-11
4.44223e-11
4.85166e-11
2.27408e-13
1.55433e-10
1.88722e-09
5.51766e-10
1.89917e-11
-1.48492e-10
-1.34731e-10
-3.86627e-11
-3.5941e-11
6.18243e-11
7.52185e-11
6.60625e-11
-2.00369e-11
-6.44157e-14
-1.74214e-12
1.60078e-11
7.40392e-11
1.57627e-11
-1.46673e-11
-1.22181e-11
1.59237e-11
-5.88042e-12
8.55079e-12
1.57716e-11
3.43353e-12
-1.60498e-11
1.50722e-10
2.31477e-12
-2.61969e-12
6.38537e-11
-7.37004e-11
6.20751e-11
-6.56227e-11
-5.23338e-11
9.33795e-11
5.38572e-11
-2.47336e-11
8.01081e-11
9.1497e-10
-1.10381e-09
-8.13871e-10
-1.264e-11
2.7951e-11
-9.60841e-11
-8.03643e-11
2.69964e-11
5.77296e-11
-4.63119e-11
1.09112e-12
-2.0603e-11
3.49594e-12
3.08837e-12
5.19802e-11
-1.06037e-11
-5.02892e-12
9.47669e-12
1.8464e-11
7.86991e-12
6.09596e-12
9.9238e-12
1.50105e-11
-4.20032e-12
-4.22454e-12
1.12869e-10
8.15462e-14
2.46094e-12
-3.97202e-11
5.3727e-11
4.33457e-11
-1.05005e-13
6.43885e-11
4.04175e-11
4.69614e-11
-3.47816e-11
2.89982e-12
1.97438e-10
1.18363e-09
3.06088e-10
1.45613e-10
5.23473e-11
-3.03163e-12
6.88256e-11
7.6844e-12
5.59035e-12
5.55141e-11
-6.04179e-12
2.41279e-11
-4.64739e-12
-7.55196e-13
-2.85859e-12
5.54613e-12
1.87877e-11
5.54761e-13
-2.38928e-12
7.61766e-13
8.50094e-12
3.71356e-12
-5.2514e-12
5.09506e-13
-1.01807e-11
3.59092e-12
2.40227e-10
-7.36836e-11
4.02261e-11
-2.88284e-12
-2.92244e-11
4.60838e-12
-5.42788e-11
-4.0876e-11
8.28245e-11
4.96713e-11
-4.3303e-11
-2.69032e-12
9.53495e-13
-2.54144e-11
8.80268e-10
-3.34529e-10
-2.3317e-11
2.64587e-11
-3.88058e-12
-1.27547e-11
7.82767e-11
-1.12576e-11
-2.49884e-11
-1.49334e-11
9.5782e-12
-1.09696e-12
3.99795e-12
4.49934e-11
1.22781e-11
2.76709e-11
5.3549e-13
6.68345e-12
2.80857e-13
9.65845e-12
-9.4302e-12
-1.10941e-11
-7.90701e-12
1.58016e-12
1.92816e-11
1.11059e-10
6.99337e-14
8.67695e-12
-4.16296e-11
-3.31958e-12
1.77016e-11
-4.58261e-13
3.30007e-11
2.888e-11
3.89251e-11
-3.61196e-11
-1.2867e-11
-1.38627e-11
-2.33109e-11
-1.96532e-10
4.2277e-10
2.25297e-10
-3.0317e-11
-6.52468e-13
5.85369e-11
-2.30041e-11
-3.18396e-11
7.28975e-13
-3.98663e-12
-1.43533e-11
1.47747e-12
5.1861e-13
-3.26786e-11
-1.65768e-12
2.45894e-11
2.01898e-11
7.62997e-12
7.76047e-12
-8.11171e-12
2.43287e-11
-1.02906e-11
-1.53184e-11
1.20121e-11
-5.24428e-12
-1.48949e-11
1.33361e-10
-7.68423e-11
9.32159e-11
6.66129e-11
-3.63459e-11
5.39101e-12
-1.66049e-11
-1.96793e-11
5.73369e-11
2.90035e-11
-3.67745e-11
4.62928e-12
-9.71157e-12
-2.27875e-11
6.46676e-11
-5.03603e-11
-5.61479e-11
1.45051e-10
-3.31297e-11
2.03186e-11
9.74561e-11
6.70303e-11
-4.57637e-11
-5.70477e-12
7.77387e-12
-1.49446e-11
-4.16614e-12
3.13736e-11
-5.69099e-11
-4.22717e-12
-5.89966e-12
1.17693e-11
-8.46454e-12
-4.20159e-12
9.66359e-12
-1.16853e-11
-2.93284e-11
1.03952e-11
3.37654e-12
3.40014e-12
-1.77226e-11
-1.21152e-11
4.10502e-12
1.32367e-11
-8.02929e-11
5.54873e-11
5.25225e-12
6.8149e-15
5.89559e-12
1.76532e-11
2.034e-11
-2.367e-11
-7.90209e-12
-3.12052e-11
2.17041e-11
1.80691e-11
1.39486e-10
1.20979e-09
1.87334e-10
1.14987e-11
-2.08085e-11
3.90959e-11
1.42839e-11
-3.51612e-11
-2.90519e-11
7.17142e-12
-5.59396e-12
1.05249e-12
6.15132e-13
1.33382e-12
-1.96433e-11
4.88207e-12
-4.83449e-12
-2.41062e-11
-2.94765e-12
-1.11046e-11
-1.79415e-11
-1.63715e-12
1.03899e-11
-1.16341e-12
-1.11926e-11
1.57586e-11
-4.32981e-12
-7.51533e-11
6.64026e-12
3.52585e-11
7.6221e-11
-6.78469e-11
-3.87559e-11
2.39243e-12
-1.28138e-11
1.15841e-11
9.533e-12
-1.44739e-11
8.27572e-12
4.13881e-12
-3.38709e-11
9.91226e-13
2.67539e-11
-4.29827e-11
1.4403e-09
-6.14129e-11
2.62844e-11
3.15895e-11
7.84033e-11
-5.41164e-11
7.44432e-12
-4.90384e-12
2.21397e-11
-9.91373e-12
-3.9962e-12
-1.75269e-11
-1.1109e-11
-1.27378e-11
-1.24279e-11
-6.44e-12
-1.28737e-11
-5.81434e-12
-4.61205e-12
-6.20095e-12
-3.95333e-12
1.60514e-11
1.67571e-12
-1.90165e-12
-1.54156e-12
5.33425e-12
-8.53772e-11
-1.84101e-12
6.0051e-13
-3.14851e-11
5.39935e-11
-7.35677e-13
4.24529e-11
2.07981e-11
-8.0103e-12
1.50233e-11
-1.28405e-11
-1.17411e-11
-1.57797e-11
2.42787e-11
-9.97422e-12
8.15317e-12
7.55073e-11
4.75125e-10
2.64876e-10
-1.165e-11
6.67292e-12
4.94183e-11
6.37451e-12
9.10761e-12
3.3689e-11
-3.17448e-12
-2.59415e-12
-2.49841e-12
3.00492e-11
8.49144e-12
-1.14404e-12
-5.08148e-12
-8.0894e-13
1.977e-11
1.66485e-11
-1.63679e-11
-8.70593e-12
4.42531e-13
-6.60763e-12
-1.18136e-11
1.14678e-11
-1.39621e-12
1.78815e-11
5.08713e-12
-6.08082e-11
-2.92463e-12
-4.13406e-11
-7.91391e-12
-4.76615e-11
-3.69184e-11
3.24573e-13
-3.78904e-11
-1.11991e-11
-2.72419e-12
-4.61382e-12
2.1571e-12
-4.39999e-12
-2.62494e-11
5.97672e-12
-1.42433e-11
2.46129e-11
2.57583e-10
2.12473e-10
1.06315e-10
-6.54424e-14
2.65584e-12
-6.18538e-11
4.69497e-11
-3.32433e-11
3.22257e-11
-1.47049e-12
-3.96529e-12
-6.18227e-12
5.26387e-11
8.03688e-13
-6.09673e-12
6.99307e-12
3.13372e-12
1.61835e-12
-2.55437e-11
-1.50404e-11
4.0717e-12
2.68578e-11
-2.58261e-11
1.87384e-12
3.09132e-12
5.56544e-12
-6.0913e-14
-5.68716e-12
8.26654e-12
6.22729e-11
-6.11252e-11
4.68524e-11
-1.23907e-11
-8.97956e-12
3.73536e-11
3.04665e-11
-4.12022e-11
-1.18909e-11
2.66865e-12
8.92047e-13
-7.50675e-12
1.42902e-12
-2.78978e-12
-9.91781e-12
3.37956e-13
-9.82598e-11
6.79211e-10
3.72811e-11
1.04657e-11
9.52053e-12
-1.59485e-11
-4.52173e-11
3.58667e-11
8.17889e-13
-9.11594e-12
2.34555e-12
-2.79611e-11
-4.29191e-11
3.38839e-11
-5.38164e-12
-1.92246e-11
-7.59815e-12
1.36765e-11
5.24444e-12
-4.81435e-12
6.61489e-12
-3.62319e-12
-1.35257e-11
9.10697e-12
-1.6253e-11
9.21389e-12
-6.37738e-12
4.55886e-12
1.51105e-12
5.78987e-11
-9.49529e-13
-4.52239e-12
5.89557e-11
6.83635e-11
2.32573e-12
7.1636e-12
-3.94341e-11
-2.49913e-11
-1.98022e-11
7.19464e-12
-3.4438e-13
-2.08364e-12
5.99378e-13
-7.96655e-12
-9.64321e-13
-4.43079e-13
1.055e-11
5.15244e-10
-1.89186e-10
-1.4411e-10
-3.57584e-12
1.01185e-11
7.37314e-14
5.00392e-12
-1.83958e-11
-1.308e-11
-9.40892e-12
-7.36062e-12
-2.69422e-11
2.75613e-11
4.39526e-12
-1.21938e-11
1.84261e-11
-1.11696e-11
-2.18313e-11
-1.95446e-12
-4.35276e-12
6.86153e-12
3.77565e-12
2.00221e-12
1.84521e-12
-1.4718e-12
-2.37994e-12
-9.41539e-12
1.13126e-11
-1.43365e-11
-9.09563e-11
-2.67645e-11
-4.06817e-11
-5.35166e-11
9.20449e-11
2.60312e-11
-7.11814e-12
1.58566e-11
-4.8001e-11
-2.13805e-11
3.96793e-12
-1.59129e-12
-1.2403e-11
-1.19198e-11
-2.94626e-12
-6.54912e-12
8.111e-12
9.57976e-12
-9.23777e-12
8.17243e-10
-3.10382e-10
1.19146e-11
-1.37961e-11
-6.92919e-11
-6.49362e-13
3.22554e-12
-2.95592e-12
1.21746e-12
-3.54306e-13
9.6353e-13
-1.42768e-11
1.41358e-11
-4.41423e-13
7.13438e-12
4.63559e-12
9.34008e-12
6.09989e-13
3.28919e-12
2.57223e-11
-1.68033e-11
1.24318e-11
-9.39587e-12
-5.36576e-13
-1.01229e-11
1.51137e-11
-1.31843e-11
2.78572e-12
-4.45081e-12
1.16614e-10
2.98907e-14
1.11568e-12
1.66969e-11
-4.31107e-11
3.36903e-11
-9.42174e-14
5.36354e-12
-1.26072e-11
-1.71338e-11
1.028e-11
8.86159e-13
-6.00389e-12
2.90099e-12
1.53276e-11
1.14378e-11
-8.66994e-12
3.64612e-12
2.00112e-12
-7.80231e-11
-2.84065e-10
8.88635e-11
1.02848e-11
5.34542e-12
-3.87342e-11
1.30953e-11
2.0603e-12
5.05059e-13
1.83358e-12
-2.52737e-12
1.65593e-11
2.84551e-12
1.33891e-12
1.06475e-12
5.48481e-12
-2.16865e-11
-7.49792e-12
1.45069e-11
1.61311e-11
-9.88419e-12
1.92624e-12
3.79315e-12
-8.95724e-13
8.6372e-12
-9.22395e-12
1.53009e-11
-9.89681e-12
-1.54846e-11
1.44388e-12
1.40698e-10
2.36102e-12
5.952e-11
3.01528e-11
1.12868e-11
3.31995e-11
5.38613e-13
-9.33281e-12
-2.19962e-12
-1.09709e-11
1.12198e-11
-1.57093e-12
6.7479e-13
8.61904e-14
-4.74366e-12
7.18831e-12
7.83061e-13
-9.58415e-12
5.16848e-12
2.25254e-11
-2.26792e-10
-3.65932e-11
1.19053e-11
-1.76657e-11
1.62243e-11
-3.84891e-13
-4.27443e-12
-1.77979e-11
2.34105e-12
4.0252e-12
-1.29972e-13
5.83983e-12
1.76746e-13
9.30519e-12
8.34367e-12
-5.05808e-12
-3.04921e-11
-2.11712e-11
2.01729e-12
-7.25847e-12
-1.48206e-11
-4.12298e-12
-2.29508e-12
4.12847e-12
1.19687e-11
-5.47717e-12
3.49624e-12
-8.01687e-12
-5.03865e-12
-1.39071e-13
2.00799e-14
-4.2622e-11
1.34565e-10
-6.0736e-11
2.71116e-11
3.81787e-12
-2.94366e-11
-2.10484e-11
1.88043e-11
2.29799e-12
9.26509e-12
-1.45535e-13
1.20513e-12
-1.99012e-13
3.53757e-12
2.59208e-12
-7.45205e-12
-6.52759e-12
-4.12444e-12
-1.14471e-11
-2.53549e-10
2.60204e-10
6.06528e-11
-1.29598e-11
-4.65749e-12
-3.01578e-11
-1.34514e-11
9.8459e-12
-1.82908e-12
3.25635e-12
-6.03427e-12
-1.14021e-11
1.7251e-11
4.86451e-12
-8.11791e-13
1.41263e-12
2.41466e-12
2.75053e-11
-8.60867e-12
-5.26675e-13
-2.07952e-12
-6.50997e-12
4.33927e-12
-3.35621e-12
-5.31571e-13
2.91505e-12
-1.77636e-11
-1.16263e-11
2.03124e-12
-5.74326e-13
-2.26053e-11
-6.44366e-11
-2.48289e-12
3.53349e-11
-4.05964e-12
-2.30076e-13
-1.39159e-11
3.26873e-13
2.3634e-11
1.72172e-11
9.18803e-12
5.84576e-12
7.72075e-12
2.22346e-12
-8.28206e-12
5.83416e-12
-5.15905e-12
6.39465e-12
-3.94554e-12
-7.67425e-13
7.77355e-13
-1.55089e-10
-2.60541e-10
1.31137e-10
-4.12271e-12
-2.093e-11
1.86928e-11
1.62741e-12
-7.98741e-12
-1.96695e-12
-5.18536e-13
1.6041e-11
-8.71452e-12
2.02963e-11
1.28323e-11
4.10308e-12
8.85578e-12
-6.70998e-12
-9.45273e-12
1.13081e-11
1.32289e-11
1.88066e-12
-3.44584e-12
-9.04594e-12
-2.28532e-13
-9.01062e-13
1.17755e-12
3.12578e-12
-8.01578e-13
-1.73966e-12
1.25499e-12
1.75909e-11
-7.16219e-12
-2.03457e-10
1.00618e-10
-6.15836e-12
-3.35183e-13
-5.6995e-11
-3.73154e-11
1.88889e-11
-1.09049e-11
3.34792e-11
1.19789e-11
-2.78067e-12
6.08088e-12
6.00133e-12
2.25306e-12
-3.73254e-12
1.24384e-11
9.26343e-12
7.76787e-12
8.27129e-12
2.09007e-12
-4.48022e-12
-1.13612e-10
-3.1938e-11
4.00867e-11
2.24744e-11
-1.48239e-11
3.21568e-12
1.45485e-11
-5.62202e-12
-9.98828e-12
-4.56039e-13
-6.98851e-12
-1.52467e-11
1.52518e-11
1.20037e-11
-7.28583e-12
7.53694e-13
1.7525e-11
-2.40771e-12
-1.8947e-11
3.15332e-12
-1.48165e-11
2.95932e-12
8.36708e-12
-1.2137e-11
1.25711e-12
-9.1309e-12
-1.13698e-11
-5.41083e-12
2.90263e-12
-1.93807e-12
1.25276e-11
1.19309e-12
-5.46124e-14
7.67316e-11
-4.7325e-11
1.1558e-13
-2.12011e-12
-4.48068e-11
2.83909e-12
-9.23066e-12
-4.2012e-12
1.24385e-11
-3.30442e-12
4.66736e-12
2.53884e-12
-1.07936e-12
4.89365e-13
-1.00391e-11
-9.08497e-12
-7.78451e-12
-6.34917e-12
-1.22923e-12
-3.05525e-12
-1.10546e-10
2.41986e-10
1.62148e-11
9.4538e-12
1.58855e-11
7.05821e-12
-8.93388e-12
7.77899e-12
-4.45599e-13
-3.48212e-12
-8.82996e-12
-2.59137e-11
-2.00748e-11
-1.44743e-11
-3.11773e-11
-2.51052e-11
8.85488e-12
1.8868e-11
-5.85313e-12
4.09368e-12
-4.34695e-12
6.05718e-12
1.91193e-12
-9.81872e-12
1.99356e-12
-2.87137e-12
7.65293e-12
-8.71884e-12
2.57179e-12
1.07997e-11
-1.21218e-11
-4.42109e-12
-1.10346e-11
-5.34719e-11
-2.40443e-12
-6.03387e-11
2.19709e-13
4.92566e-13
-2.32881e-11
3.13961e-11
2.09122e-11
-2.12571e-11
6.28791e-12
-7.36635e-12
-2.0536e-13
9.51735e-12
-3.15971e-12
-1.3777e-12
9.34464e-12
8.42047e-12
-8.19721e-12
-8.94652e-12
2.55036e-12
5.02659e-12
4.91009e-11
-3.73627e-11
2.31963e-10
-2.4785e-12
5.76879e-12
-5.72785e-12
-1.83827e-11
4.35491e-13
-1.32551e-11
2.30604e-12
-8.84753e-12
4.01109e-11
1.31658e-11
9.75543e-12
-5.32352e-12
-3.50052e-11
1.34557e-11
1.39164e-11
-1.42238e-11
1.35652e-11
-1.23786e-11
2.61229e-12
6.56363e-12
1.48572e-11
-1.42118e-11
-1.20322e-11
4.24093e-12
-1.37311e-11
1.38195e-12
-9.19759e-12
7.97946e-12
-1.2401e-11
-1.92591e-11
1.39436e-11
-9.65199e-13
2.38346e-11
-3.34343e-11
-1.9439e-12
-4.4833e-12
8.37259e-12
3.72801e-11
-5.94644e-12
1.63682e-11
-1.02276e-11
-3.44649e-12
6.77756e-14
-5.39271e-12
1.8569e-11
-3.04899e-12
-7.48174e-13
-5.70762e-12
7.54263e-12
1.91925e-12
7.08445e-12
1.20488e-12
-1.56353e-11
2.87215e-11
-1.64722e-10
3.74916e-11
-2.68258e-13
-4.86979e-12
1.27432e-11
2.27331e-12
-4.71977e-12
5.51622e-12
4.11995e-13
-1.07836e-11
-8.21224e-12
-3.21492e-12
-2.77459e-11
-1.45715e-11
1.26616e-11
5.00417e-12
9.70512e-12
-7.58629e-12
-4.17759e-12
-9.72711e-12
6.98721e-12
-5.94843e-12
1.1879e-11
-1.20613e-11
-1.72649e-12
-2.13397e-12
-4.73265e-12
2.14258e-11
-5.1795e-12
-2.37951e-12
-1.49831e-12
3.75065e-12
1.03586e-12
1.42426e-10
-9.01532e-13
-5.75057e-12
2.75215e-11
-8.69135e-14
2.06781e-11
-3.75446e-12
-2.34634e-11
-1.72871e-11
-6.02029e-12
1.96633e-12
1.15155e-12
2.71597e-13
1.82825e-11
7.00141e-12
-7.78687e-12
-9.42534e-13
-8.46892e-12
-3.62317e-12
-2.78638e-12
-1.65344e-12
1.77653e-12
6.82552e-12
4.67837e-10
-5.83561e-11
3.82051e-12
-3.48486e-11
3.22182e-12
1.63597e-11
-2.50115e-13
-8.36237e-12
1.58923e-12
-1.12721e-11
1.65511e-11
-5.98113e-12
1.67708e-11
-2.60861e-11
-1.92149e-12
1.6503e-11
-3.39492e-12
1.48772e-11
-1.00682e-11
9.58593e-12
1.23847e-11
4.20768e-12
8.20183e-13
1.56723e-12
-9.59098e-13
-2.23387e-13
-4.47587e-12
1.4644e-12
1.0948e-11
-1.17135e-11
-6.07654e-12
4.84656e-13
7.96119e-12
3.80044e-12
5.92594e-11
-3.76955e-11
4.65937e-11
3.21908e-13
2.20377e-11
2.53817e-11
-1.67646e-11
-5.44538e-12
5.79984e-13
5.79056e-12
-7.06756e-12
5.30291e-13
-1.37691e-13
-1.02404e-11
8.69867e-12
8.95843e-12
5.23923e-12
-4.40544e-12
-1.50224e-12
2.32134e-12
2.87846e-12
-1.80784e-12
-9.70299e-12
-3.62989e-11
2.09619e-11
-1.19248e-12
-1.25728e-11
1.51271e-11
4.67389e-12
-1.04562e-11
-7.13619e-13
1.32833e-11
-6.90371e-12
-2.19584e-12
-1.28499e-11
-1.24949e-11
1.093e-12
3.23437e-12
4.19554e-12
-3.07581e-12
5.63128e-12
-2.70891e-13
-1.51185e-11
4.3678e-12
-1.95708e-11
-2.73494e-12
-2.18587e-11
1.53994e-13
7.84489e-12
1.15963e-11
1.88519e-11
-1.10004e-11
-1.95797e-12
2.28394e-12
-3.32537e-12
6.9373e-13
-1.76045e-12
-6.97919e-12
-2.0724e-13
-4.63302e-11
3.20905e-11
-5.53703e-12
-2.09642e-12
1.2694e-11
-4.00558e-11
1.5397e-11
6.17989e-12
-4.68489e-12
1.7672e-14
-5.68643e-12
-1.24108e-12
9.59308e-12
-3.07444e-12
1.0919e-11
-7.98671e-12
2.68317e-12
-3.38995e-12
-1.78731e-12
4.11671e-12
6.49972e-12
7.3193e-13
1.97405e-10
-1.53013e-10
4.23266e-12
-1.18679e-11
-9.10885e-13
2.01807e-11
-2.88161e-11
7.70712e-12
5.33534e-12
-5.65957e-12
-2.49299e-12
1.32066e-11
-4.30978e-12
-2.63353e-11
4.15913e-12
1.82638e-11
3.28037e-12
-1.94665e-12
-1.73436e-11
1.23132e-11
9.88591e-12
1.15746e-11
5.18087e-12
-9.04194e-12
1.51488e-11
-2.64792e-12
-1.70516e-12
2.42578e-12
2.48841e-11
-1.07785e-11
-7.58254e-12
-9.14238e-12
-5.10108e-12
1.25385e-11
3.69637e-12
-3.3048e-12
-1.03156e-10
-5.7989e-14
1.78661e-11
-2.42288e-12
-1.17302e-11
1.1849e-12
-1.1489e-11
1.34278e-11
6.58488e-12
-6.60144e-12
-4.1213e-12
1.15496e-12
-5.36325e-12
5.38906e-12
1.21028e-12
-1.46738e-11
-6.65616e-12
3.74762e-12
-3.13525e-13
2.5582e-12
6.30799e-12
-3.97449e-12
-1.53494e-12
1.06231e-10
2.58051e-10
6.49117e-11
-3.59038e-12
2.38922e-12
2.39624e-11
-1.01592e-11
-4.32399e-13
2.12019e-12
1.94317e-11
2.03036e-11
1.69698e-12
-2.4002e-11
-1.98696e-11
-5.85046e-12
-5.6776e-13
-6.28983e-12
1.16496e-11
-1.1679e-11
-1.19186e-11
-1.21339e-11
-5.67279e-12
9.47221e-12
-1.46461e-11
-7.50483e-12
4.17056e-12
1.16021e-11
1.40731e-11
-1.60228e-11
2.01627e-11
-5.39516e-12
-9.97825e-12
4.43935e-12
-1.40228e-11
4.86153e-13
-1.41566e-12
7.31524e-13
-8.2783e-11
3.55042e-11
-1.40318e-12
6.86613e-13
2.05547e-13
-8.00667e-12
-8.73935e-12
-7.3064e-12
-8.21301e-13
4.89815e-13
-6.49884e-12
-9.27205e-13
1.31508e-11
-9.49608e-12
6.38218e-13
4.85399e-12
8.19515e-12
-1.61353e-12
5.74254e-13
-1.08184e-12
5.56674e-12
9.20629e-12
1.99683e-12
-8.70311e-12
-1.57511e-11
9.54947e-12
2.31733e-12
-4.02517e-12
8.96189e-12
1.29495e-12
-1.21868e-12
2.6663e-11
1.18634e-11
1.03765e-11
7.1009e-13
1.91474e-11
-3.0554e-11
-2.08487e-11
9.81424e-12
1.15981e-11
-1.58037e-11
-6.66934e-12
-1.59953e-11
3.3009e-12
2.87221e-11
8.12406e-13
2.53453e-12
-5.43031e-12
4.6558e-12
1.33966e-11
1.72564e-11
4.82591e-12
-4.42371e-12
-1.70507e-11
1.14117e-12
-3.904e-12
-2.70066e-12
5.79998e-12
-3.32296e-12
-7.58584e-12
-1.70637e-12
-6.29117e-11
2.09471e-12
-1.27414e-11
-1.42825e-12
-1.89931e-12
-1.17756e-11
2.9711e-12
2.3171e-12
2.27971e-13
3.3377e-13
4.64066e-12
-2.0985e-12
-9.76404e-13
-1.69489e-11
7.2574e-12
1.83056e-12
-5.31523e-12
-3.777e-12
-1.45697e-12
4.35246e-12
1.34542e-12
3.79724e-12
-1.36187e-12
4.06608e-12
-7.93321e-11
-4.02449e-11
1.8443e-11
1.08586e-11
1.40907e-12
-3.57866e-11
9.89274e-12
-6.5962e-12
-4.77229e-12
2.35598e-11
4.9486e-11
-1.42685e-11
-1.41041e-11
2.18809e-12
-6.23178e-12
-2.85739e-11
1.44312e-11
-1.9508e-11
-6.54632e-12
1.09827e-11
-1.99294e-11
2.32878e-11
-1.68517e-11
-7.16433e-12
-3.93378e-12
9.19737e-12
-1.03394e-11
1.30568e-11
6.53861e-12
-1.08004e-11
4.58643e-12
6.91928e-12
-2.43895e-11
1.24089e-11
-2.73642e-12
-4.09567e-12
1.47198e-12
-7.28909e-12
4.98474e-11
4.13205e-12
-5.72673e-12
4.99132e-13
2.78657e-13
-1.03854e-12
9.84936e-12
1.28097e-13
-2.56031e-12
1.19462e-12
-2.9013e-12
1.16216e-11
-7.33408e-12
2.45983e-12
-9.24247e-12
-1.4004e-12
-5.43733e-13
2.65799e-12
1.57364e-12
3.15272e-12
6.4712e-12
6.79793e-12
-1.91813e-12
1.2128e-12
3.24321e-11
2.73136e-12
3.91052e-11
8.10934e-12
2.0074e-11
-1.20362e-11
1.37957e-11
1.79439e-11
4.07528e-12
1.51729e-11
4.60817e-11
-1.36058e-11
-2.62312e-11
2.10972e-12
2.22726e-11
-8.72703e-12
3.89475e-12
7.20722e-12
-5.84375e-12
-6.33818e-12
-1.28433e-11
-1.62269e-11
1.24116e-11
6.31919e-12
5.15884e-12
-1.35951e-12
1.21724e-11
-6.90063e-12
-6.56946e-12
-4.89669e-12
1.75165e-11
4.67504e-12
9.83362e-12
-1.40572e-12
-1.08708e-11
1.92015e-12
8.99554e-12
-9.16951e-13
-9.73252e-12
1.34529e-10
-8.23252e-12
4.42872e-12
7.05219e-14
1.28629e-14
-2.72548e-12
5.42552e-13
8.89001e-13
2.39567e-13
-2.32108e-12
4.1591e-14
1.26093e-11
-2.46147e-11
3.65729e-12
3.07954e-12
-2.18905e-12
-1.09611e-13
3.9316e-12
3.11964e-12
-1.40275e-13
7.58456e-12
7.57446e-13
-1.60639e-12
-3.91736e-12
-1.04073e-11
4.42434e-12
1.20157e-11
-1.13479e-11
3.41042e-11
6.45501e-12
-2.18851e-11
-3.51578e-12
4.74265e-14
-3.78479e-12
1.97136e-11
1.6823e-12
-1.33419e-11
7.01341e-12
2.0225e-12
-1.27294e-11
2.60241e-11
-2.13107e-11
5.60202e-13
-2.15072e-13
2.7638e-12
-1.13647e-11
-3.61546e-11
1.88125e-12
2.98609e-12
9.46785e-12
-4.66969e-12
-4.35882e-12
-9.8219e-12
-9.38306e-12
1.16133e-11
1.57481e-11
-1.04449e-11
1.05261e-11
-1.23837e-11
-1.35207e-11
-4.05075e-12
9.16817e-12
-3.97888e-12
1.25096e-12
3.23505e-11
-3.24777e-11
1.26179e-11
-2.88702e-13
2.13325e-12
4.99159e-13
-1.62018e-12
1.34702e-12
-5.73692e-13
-3.43385e-12
-1.53117e-13
1.40507e-13
-1.49111e-12
-1.39043e-12
1.16425e-12
-3.72933e-12
2.22291e-12
8.75085e-13
-7.11446e-12
-1.01703e-12
2.02877e-12
4.53575e-13
-3.37754e-13
4.68989e-12
2.30918e-12
-7.07768e-11
1.49541e-11
5.50819e-12
2.54181e-11
-1.31059e-11
2.14335e-11
-5.8555e-13
1.7047e-11
1.09197e-11
-3.02924e-11
-4.8867e-11
-4.7974e-12
1.52092e-11
2.32963e-11
2.16271e-11
-1.18806e-11
6.64487e-12
-2.88343e-11
-4.25671e-12
-4.6195e-12
1.67882e-11
-2.77638e-11
-5.55694e-12
7.89306e-13
1.33434e-11
1.57359e-11
-6.22556e-12
-1.08096e-11
-4.28898e-12
-1.87711e-12
8.35517e-12
1.30293e-11
5.99637e-12
-1.58258e-12
-9.67128e-12
-8.25085e-12
1.15734e-11
3.29829e-13
-9.16547e-12
1.7511e-12
-2.08462e-11
-1.78239e-12
2.07734e-11
-9.71656e-12
5.26494e-13
-3.54729e-12
6.332e-12
1.51378e-13
8.38259e-13
4.45913e-12
-9.99459e-14
-6.31718e-12
-6.36864e-12
-6.87664e-12
3.21607e-12
2.08288e-13
4.76175e-13
-4.10877e-13
1.08015e-12
9.33859e-13
3.25477e-13
4.21641e-12
1.18874e-12
-8.49802e-12
2.97463e-12
7.83566e-15
2.56186e-12
-6.52818e-12
-5.4456e-12
-4.79767e-12
-2.72539e-11
7.29468e-12
-1.4524e-11
2.18107e-11
1.2356e-11
-4.35586e-12
-9.77739e-12
9.29803e-12
2.76064e-11
-1.43057e-11
1.97495e-11
-1.34695e-11
9.27063e-12
1.67758e-12
-1.01139e-12
-1.85061e-11
-2.9064e-11
1.83413e-11
-1.69179e-12
7.57031e-12
-7.12046e-12
6.80711e-12
2.37069e-12
-6.08914e-12
-7.88013e-12
-8.76082e-12
3.03054e-11
4.59565e-13
-3.13075e-14
-2.26793e-12
-4.41564e-12
-2.10131e-12
8.95258e-12
-5.40476e-12
-3.29057e-12
2.20457e-12
2.50325e-11
-1.49065e-11
2.06052e-11
-5.12292e-13
-7.17927e-13
-9.95022e-13
6.94969e-12
-5.96903e-12
-3.33435e-12
2.51552e-12
5.72977e-12
-1.84666e-12
3.6802e-13
6.87336e-12
-4.95122e-12
-5.40756e-13
2.44733e-12
2.35438e-12
4.74011e-12
2.60015e-12
-8.29594e-14
2.0649e-12
-7.08451e-13
-7.41319e-12
-5.45065e-12
2.19604e-11
-2.46082e-11
-8.47416e-11
6.3943e-12
6.83641e-12
-2.75922e-11
1.45591e-11
2.44043e-11
1.7252e-11
-6.91136e-12
-1.83223e-11
-8.33512e-12
1.36809e-11
2.62804e-11
-9.29858e-12
-2.28874e-11
9.15754e-12
-1.62845e-11
-9.65065e-12
-1.67385e-11
-7.00825e-12
-1.45494e-11
-5.56112e-12
4.41278e-12
3.63786e-12
3.76594e-11
-2.85726e-11
-4.40422e-12
-3.46859e-12
1.21172e-11
6.05991e-12
-5.84345e-12
-1.06159e-11
-6.70513e-12
4.79343e-12
8.88397e-12
-2.42709e-12
-8.26306e-12
-1.50264e-11
9.19726e-12
1.17374e-12
4.58327e-12
5.71131e-11
-1.41818e-11
1.69454e-11
-1.80868e-11
1.70924e-13
-8.56454e-13
-9.38734e-13
4.75522e-12
8.74052e-12
2.23995e-12
-4.32743e-12
-1.28378e-11
1.06129e-11
6.34755e-14
2.45727e-12
2.61902e-12
-4.73683e-13
-9.82205e-13
5.99838e-14
-5.84916e-13
-2.30765e-13
2.96392e-12
-1.39561e-12
1.97281e-12
-5.80215e-13
-7.97353e-13
4.16342e-11
-3.28412e-11
-7.29836e-12
-3.7294e-11
9.27022e-12
1.80354e-11
-4.8709e-12
2.73928e-11
1.18702e-11
-7.20688e-12
-1.97051e-11
-1.32446e-11
2.55587e-11
-5.35805e-12
8.79e-12
-1.46544e-11
6.58502e-12
8.87552e-12
2.19804e-11
-1.69589e-11
-1.45473e-11
2.45823e-12
-1.26657e-11
8.89425e-12
-2.107e-11
2.30041e-11
-2.09546e-12
-8.60788e-12
-7.91538e-12
-1.3166e-12
1.21037e-11
1.48134e-11
-1.18058e-11
-7.50555e-12
-5.30129e-12
5.22484e-12
-3.73345e-12
-3.32229e-12
3.63649e-12
-3.9281e-12
1.0791e-11
2.2854e-12
-1.1524e-10
-7.98865e-13
1.47484e-11