/*--------------------------------*- C++ -*----------------------------------*\
| =========                 |                                                 |
| \\      /  F ield         | OpenFOAM: The Open Source CFD Toolbox           |
|  \\    /   O peration     | Version:  v2012                                 |
|   \\  /    A nd           | Website:  www.openfoam.com                      |
|    \\/     M anipulation  |                                                 |
\*---------------------------------------------------------------------------*/
FoamFile
{
    version     2.0;
    format      ascii;
    class       volSymmTensorField;
    location    "12000";
    object      Sp;
}
// * * * * * * * * * * * * * * * * * * * * * * * * * * * * * * * * * * * * * //

dimensions      [0 0 -1 0 0 0 0];


internalField   nonuniform List<symmTensor> 
27324
(
(-147.159 -9993.29 -1.37679e-08 708.285 9.32816e-10 -561.126)
(-112.568 -10575.7 -4.6166e-09 967.434 4.3724e-10 -854.866)
(-196.903 -22311.2 -2.73766e-08 767.799 8.23773e-10 -570.896)
(-183.64 -10994.7 -9.77525e-09 1079.56 9.17225e-10 -895.917)
(-191.171 -23488.6 8.40737e-09 1056.07 -3.63229e-10 -864.895)
(-263.264 -24717.3 1.28236e-08 852.647 -3.50307e-10 -589.382)
(-161.065 -11502.4 -5.80803e-09 1090.34 4.69186e-10 -929.274)
(-264.015 -24347.2 -2.03727e-10 1176.95 1.51203e-11 -912.933)
(-289.009 -25687.1 -1.81535e-09 1168.95 4.85443e-11 -879.94)
(-312.215 -22374.2 9.64482e-09 915.155 -3.19336e-10 -602.94)
(-142.153 -12028.4 -1.15906e-08 1045.09 8.91305e-10 -902.937)
(-249.005 -25376.7 1.98052e-08 1195.43 -8.2764e-10 -946.429)
(-361.251 -26411.8 -7.86531e-09 1294.79 3.58455e-10 -933.537)
(-363.053 -22813 -8.10905e-09 1255.57 3.60728e-10 -892.521)
(-324.633 -16282.4 -1.37811e-08 932.565 5.91662e-10 -607.932)
(-114.941 -12574.4 -5.12409e-09 971.389 4.36785e-10 -856.448)
(-231.571 -26425.7 -7.27596e-12 1150.46 -1.7053e-11 -918.884)
(-353.052 -27248.2 -9.30595e-09 1319.94 3.99041e-10 -966.893)
(-433.891 -23165.2 6.15546e-09 1384.77 -3.16845e-10 -950.876)
(-383.483 -16286.1 -4.86762e-09 1282.85 2.82625e-10 -899.363)
(-317.813 -9865.97 4.03438e-09 926.036 -2.6228e-10 -608.222)
(-97.5174 -13117.1 -1.26947e-08 936.226 8.24457e-10 -838.709)
(-203.957 -27479.4 1.04192e-08 1074.69 -3.83352e-10 -870.729)
(-335.27 -28068.4 -1.01027e-08 1275.22 3.56408e-10 -939.947)
(-426.923 -23542.5 -7.23958e-09 1410.81 3.76872e-10 -983.883)
(-455.636 -16347.6 8.25821e-09 1415.77 -5.96174e-10 -960.139)
(-376.411 -9785.34 1.71985e-09 1278.5 -2.38856e-10 -902.086)
(-313.106 -5595.29 4.06365e-09 918.675 -4.22979e-10 -605.569)
(-110.395 -13694.5 -6.90125e-09 1021.55 4.62705e-10 -911.154)
(-189.029 -28502 -7.13044e-10 1042.3 7.95808e-13 -853.273)
(-304.65 -28846.8 -1.0732e-09 1196.6 2.87628e-11 -891.947)
(-406.574 -23902.1 6.66114e-09 1364.74 -3.50838e-10 -958.162)
(-449.25 -16391.3 -3.7162e-09 1442.66 2.80011e-10 -993.411)
(-453.813 -9799.18 1.95269e-09 1418.13 -2.66596e-10 -964.32)
(-370.388 -5575.07 -1.03046e-09 1268.66 1.844e-10 -898.276)
(-309.98 -3137.01 -3.02904e-10 910.844 1.61084e-10 -600.864)
(-114.514 -14355.8 -1.28512e-08 1129.09 9.95897e-10 -1014.58)
(-210.785 -29557.3 1.08921e-08 1137.32 -3.93356e-10 -926.538)
(-286.52 -29573.5 -9.1095e-09 1160.02 3.13207e-10 -873.501)
(-371.959 -24221.4 -6.91944e-09 1282.23 3.15822e-10 -910.275)
(-428.657 -16436.8 4.8276e-09 1397.05 -3.37309e-10 -968.395)
(-448.016 -9786.43 2.65663e-09 1446.36 -2.40561e-10 -998.34)
(-451.721 -5626.13 -4.82032e-11 1414.58 5.34328e-12 -962.861)
(-362.897 -3114.96 6.85759e-10 1251.15 -1.56319e-10 -888.257)
(-300.673 -1570.06 7.28917e-10 894.442 -1.47882e-10 -593.768)
(-105.747 -15107.5 -1.4632e-08 1200.68 1.05035e-09 -1094.93)
(-229.735 -30732.4 -1.34605e-10 1262.69 1.13687e-13 -1032.95)
(-312.979 -30298.4 -7.49424e-10 1261.92 2.20552e-11 -948.94)
(-351.565 -24503.7 7.63976e-09 1243.03 -3.5277e-10 -891.461)
(-393.532 -16461.5 -3.678e-09 1315.42 2.77396e-10 -921.893)
(-430.482 -9771.83 4.39286e-10 1406.55 -2.80806e-11 -976.066)
(-446.362 -5636.03 -9.66793e-10 1444.15 2.34309e-10 -997.792)
(-445.295 -3172.69 -5.2114e-10 1402.2 1.59957e-10 -956.908)
(-343.64 -1537.22 4.28372e-10 1216.27 -2.73872e-10 -872.634)
(-291.673 -642.278 -5.67283e-10 875.494 8.14318e-11 -583.821)
(-85.3614 -15916.7 -7.07587e-09 1223.18 5.47971e-10 -1137.82)
(-234.518 -32036.6 -2.58296e-10 1351.26 -1.63709e-11 -1116.74)
(-339.714 -31093.3 -1.06447e-08 1397.18 4.15639e-10 -1057.46)
(-381.562 -24789.3 -6.70479e-09 1349.16 3.09683e-10 -967.595)
(-374.145 -16469 4.75666e-09 1278.7 -2.95813e-10 -904.56)
(-398.675 -9731.62 2.02454e-09 1331.24 -2.16801e-10 -932.567)
(-431.171 -5628.84 1.9736e-10 1410.93 -6.36646e-12 -979.757)
(-437.886 -3173.66 -3.27418e-11 1431.78 -2.05091e-10 -993.898)
(-429.656 -1626.75 3.33785e-10 1375.98 -1.36765e-10 -946.326)
(-325.08 -640.858 3.04567e-10 1172.68 -1.33923e-10 -847.596)
(-287.076 -228.906 1.92692e-10 858.558 9.57829e-11 -571.481)
(-70.0208 -16755.5 -1.56269e-08 1234.84 1.1147e-09 -1164.82)
(-223.992 -33431.4 1.32713e-08 1387.47 -5.01473e-10 -1163.48)
(-351.908 -31960.9 -1.20417e-08 1494.88 4.62705e-10 -1142.97)
(-414.809 -25137.9 7.33053e-09 1491.6 -3.92106e-10 -1076.79)
(-405.807 -16490.8 -3.68527e-09 1385.32 2.84444e-10 -979.515)
(-381.751 -9658.9 -2.91038e-10 1297.55 -2.50111e-12 -915.8)
(-400.76 -5572.16 -1.01682e-09 1342.84 2.16119e-10 -942.078)
(-424.196 -3155.73 -6.96218e-10 1407.09 1.62345e-10 -982.894)
(-423.252 -1658.15 4.73619e-10 1409.94 -2.86946e-10 -986.69)
(-418.369 -784.727 1.51431e-10 1344.09 -1.59275e-10 -925.716)
(-305.307 -223.814 -1.06212e-10 1116.38 9.48148e-11 -811.074)
(-279.749 26.568 9.37845e-11 840.902 1.82219e-11 -561.153)
(-69.462 -17618.8 -7.79255e-09 1248.89 5.80144e-10 -1179.43)
(-212.967 -34890.7 8.36735e-11 1404.13 6.82121e-13 -1191.16)
(-348.899 -32886.7 -1.73168e-09 1540.59 7.59428e-11 -1191.69)
(-434.179 -25549.5 6.48288e-09 1598.28 -3.81988e-10 -1164.1)
(-444.173 -16559.2 8.56926e-09 1532.63 -6.49379e-10 -1088.45)
(-413.104 -9581.71 1.71804e-09 1400.86 -2.0259e-10 -987.76)
(-381.257 -5458.84 -5.28416e-10 1309.04 2.72848e-12 -927.788)
(-395.957 -3089.4 2.66482e-10 1349.82 -1.97133e-10 -953.865)
(-416.098 -1674.44 4.97039e-10 1399.9 -1.45519e-10 -983.802)
(-416.113 -859.246 2.9263e-10 1388.87 -1.19144e-10 -972.757)
(-401.997 -391.286 1.32104e-10 1297.28 7.88987e-11 -895.282)
(-273.715 54.194 -1.61648e-11 1039.93 8.75389e-12 -766.21)
(-277.436 239.395 -1.60462e-10 830.114 -9.28786e-11 -552.677)
(-10.1954 -18512.7 -1.75769e-08 1047.73 9.50422e-10 -1037.53)
(-216.815 -36422.6 1.44028e-08 1423.36 -5.18639e-10 -1206.54)
(-345.425 -33879.9 -1.23873e-08 1565.87 4.66798e-10 -1220.44)
(-437.674 -25998.4 -8.80755e-09 1651.46 4.67253e-10 -1213.78)
(-468.952 -16651.1 3.87263e-09 1645.86 -3.52429e-10 -1176.91)
(-449.688 -9524.35 2.48656e-09 1544.61 -2.95813e-10 -1094.92)
(-404.935 -5327.97 -1.22327e-09 1400.64 2.37378e-10 -995.708)
(-376.85 -2971.86 -4.311e-10 1319.82 1.65869e-10 -942.974)
(-396.29 -1644.63 7.38282e-10 1362.34 -2.80352e-10 -966.048)
(-416.119 -903.268 -8.34461e-11 1397.73 -1.50408e-10 -981.611)
(-404.653 -481.551 -2.00203e-10 1359.31 1.10845e-10 -954.661)
(-374.833 -140.716 -3.11786e-11 1224.94 -4.03588e-11 -850.106)
(-243.659 275.44 -8.73968e-12 955.954 -3.96767e-11 -712.295)
(-276.424 358.863 -2.57131e-10 822.242 1.37149e-10 -545.819)
(44.4992 -19397.5 -9.41873e-09 750.313 3.6232e-10 -794.812)
(-157.787 -38034.1 8.03993e-10 1221.09 -2.8308e-11 -1063.3)
(-356.106 -34963.1 -8.07631e-10 1591.34 2.09184e-11 -1235.23)
(-440.882 -26465.5 7.53789e-09 1683.47 -4.2246e-10 -1242.59)
(-475.262 -16720.7 -4.97857e-09 1704.67 3.7744e-10 -1229.41)
(-470.6 -9459.9 -1.72804e-11 1655.79 -4.54747e-11 -1185.19)
(-435.855 -5232.78 -3.07864e-10 1535.43 1.3415e-11 -1099.57)
(-396.283 -2860.39 3.21961e-10 1399.61 -2.01339e-10 -1003.33)
(-382.277 -1556.95 6.67569e-10 1342.21 -1.21872e-10 -959.935)
(-403.866 -886.479 5.39217e-10 1383.02 -1.19485e-10 -979.154)
(-410.499 -524.761 -2.94335e-10 1388.54 9.65201e-11 -978.045)
(-391.274 -259.95 1.83263e-10 1322.13 -1.13687e-12 -930.853)
(-344.04 70.1825 3.20838e-10 1130.96 3.68345e-11 -786.922)
(-211.442 416.612 1.64732e-10 870.032 -1.05615e-10 -658.59)
(-271.402 440.458 -1.86247e-10 808.407 7.01377e-11 -537.005)
(33.4725 -20276.1 -1.8812e-08 573.282 5.48425e-10 -606.755)
(-97.3062 -39559 3.11411e-08 912.893 -6.87578e-10 -815.587)
(-292.646 -36081.2 -1.08994e-08 1382.26 3.66299e-10 -1089.61)
(-450.917 -26940 -8.04721e-09 1705.75 4.45198e-10 -1254.84)
(-471.891 -16738.2 7.9217e-09 1729.53 -7.72388e-10 -1257.64)
(-471.974 -9359.3 1.7908e-09 1713.74 -2.98542e-10 -1241.76)
(-456.713 -5161.35 8.6402e-12 1647.77 1.13687e-12 -1191.06)
(-426.201 -2820.27 -4.62478e-10 1525.6 1.81899e-10 -1099.4)
(-397.799 -1472.76 3.36286e-10 1407.86 -2.91607e-10 -1010.06)
(-392.549 -795.374 3.79146e-10 1373.03 -1.49043e-10 -980.478)
(-407.395 -507.088 -1.35742e-10 1402.56 1.26988e-10 -995.166)
(-407.519 -311.629 2.6904e-10 1381.64 -3.18323e-11 -974.117)
(-380.705 -75.6574 -6.39631e-11 1282.19 1.38698e-11 -901.483)
(-303.986 238.274 -4.59863e-11 1015.78 1.01863e-10 -711.791)
(-185.273 516.839 -3.11701e-10 801.105 1.65983e-11 -615.831)
(-249.133 492.41 -1.07494e-10 760.867 2.5743e-11 -511.734)
(-45.2155 -21039.3 -9.70249e-09 529.047 2.42437e-10 -483.831)
(-93.6169 -40887.4 -3.67436e-10 714.963 -1.13687e-13 -621.346)
(-206.836 -36987.8 -1.39516e-08 1044.26 3.4288e-10 -837.425)
(-375.227 -27354.7 8.47649e-09 1485.64 -3.57204e-10 -1110.41)
(-468.725 -16724.8 -2.93949e-09 1735.52 3.39014e-10 -1266.8)
(-462.522 -9232.6 1.90448e-09 1731.81 -3.14685e-10 -1269.28)
(-461.819 -5098.56 -9.21318e-10 1711.28 2.874e-10 -1249.46)
(-452.143 -2827.97 -4.3201e-10 1643.21 1.95314e-10 -1191.07)
(-424.441 -1460.01 7.77845e-10 1520.02 -1.65983e-10 -1095.58)
(-399.635 -693.947 8.32188e-11 1418.64 -1.20963e-10 -1019.01)
(-401.135 -413.118 -1.1272e-10 1408.84 9.72022e-11 -1007.71)
(-415.025 -310.066 -1.39153e-10 1426.19 1.37561e-11 -1011.17)
(-402.674 -141.652 2.71143e-11 1367.21 7.01448e-11 -964.532)
(-358.943 90.6962 9.99592e-11 1211.64 -8.29914e-11 -852.702)
(-258.382 382.489 -1.56575e-10 893.126 4.14389e-11 -634.744)
(-173.533 561.041 -2.94733e-11 769.881 -9.98739e-11 -596.348)
(-194.425 555.176 1.05544e-10 638.178 -2.8038e-11 -443.753)
(103.082 -21427.7 -2.03909e-08 -68.8549 -2.78604e-11 -34.2269)
(-130.26 -41914 1.56142e-08 620.924 -2.23679e-10 -490.664)
(-167.639 -37559.2 -1.35369e-08 805.969 2.49202e-10 -638.33)
(-263.173 -27565.4 -8.93488e-09 1120.12 3.21506e-10 -856.948)
(-383.787 -16695.9 8.26185e-09 1508.92 -6.94399e-10 -1125.14)
(-455.663 -9158.27 2.30466e-09 1728.04 -2.78533e-10 -1272.38)
(-457.188 -5055.48 -2.76032e-10 1731.41 -2.04636e-12 -1274.22)
(-463.098 -2848.19 7.98991e-10 1714.79 -2.46473e-10 -1251.69)
(-452.855 -1490.98 1.64846e-10 1639.58 -1.62572e-10 -1186.72)
(-418.624 -664.713 1.76442e-10 1509.18 -1.70189e-10 -1090.55)
(-399.804 -305.138 7.6966e-11 1432.88 1.35515e-10 -1033.08)
(-415.976 -234.378 -2.40391e-10 1453.22 -1.59162e-12 -1037.24)
(-421.711 -140.957 -9.93197e-11 1444.47 2.71712e-11 -1022.75)
(-397.531 8.49515 -3.36442e-11 1352.65 1.48361e-10 -955.123)
(-318.241 257.324 7.94387e-12 1101.96 7.66249e-11 -783.718)
(-219.641 484.353 6.85532e-11 791.945 6.94627e-11 -572.304)
(-183.353 562.221 -1.58423e-10 782.57 9.51559e-11 -599.217)
(-94.1328 689.545 8.83773e-11 389.403 -6.51639e-11 -295.27)
(-515.59 -21970.4 -2.12494e-08 -865.323 -1.08332e-09 1380.91)
(42.1133 -42463.3 8.73115e-11 -6.9535 -1.6211e-11 -35.1598)
(-181.706 -37918.7 -1.96815e-09 691.584 2.48974e-11 -509.878)
(-198.75 -27616.3 8.05449e-09 848.282 -2.33399e-10 -649.532)
(-269.587 -16594.3 -4.20732e-09 1146.22 2.22258e-10 -876.634)
(-378.35 -9165 2.02363e-09 1511.95 -2.96268e-10 -1133.6)
(-451.219 -5093.97 -1.74759e-09 1717.42 2.83762e-10 -1266.2)
(-462.443 -2872.95 -7.57154e-10 1737.81 2.10775e-10 -1275.37)
(-465.626 -1521.48 2.72848e-10 1714.79 -3.39242e-10 -1249.16)
(-446.186 -687.67 3.40265e-10 1625.92 -1.90767e-10 -1179.74)
(-409.804 -271.052 -4.95675e-11 1495.02 1.11527e-10 -1085.21)
(-408.166 -132.31 1.32161e-11 1459.88 8.52651e-12 -1051.71)
(-432.847 -70.2688 -1.53214e-10 1502.76 7.83302e-11 -1069.91)
(-421.495 13.1926 3.69518e-11 1456.04 -9.66338e-11 -1034.55)
(-380.463 158.134 2.33058e-11 1310.62 4.66116e-11 -930.155)
(-275.767 401.104 9.07505e-11 983.83 -1.24942e-10 -708.063)
(-198.598 529.34 2.13731e-11 743.38 -5.41149e-11 -544.782)
(-194.636 587.788 -1.2534e-11 774.799 -5.68434e-12 -580.163)
(71.5793 937.556 -5.73905e-11 -46.7769 -8.71125e-12 -24.8024)
(832.94 -19165.6 1.04537e-08 -8026.92 3.69891e-09 7193.98)
(-358.704 -43564.6 6.18456e-10 -1016.35 1.09139e-11 1375.05)
(24.6581 -38187.4 -1.31076e-08 -20.2283 -2.89155e-11 -4.42982)
(-209.881 -27724.7 -8.18545e-09 732.766 1.88265e-10 -522.885)
(-201.4 -16483.1 4.2528e-09 860.849 -2.01112e-10 -659.45)
(-277.963 -9142.33 2.43836e-09 1173.09 -2.16573e-10 -895.122)
(-385.821 -5218.95 3.94721e-10 1519.94 1.25056e-11 -1134.12)
(-448.596 -2950.54 2.29647e-10 1700.16 -2.45109e-10 -1251.57)
(-465.727 -1546.57 3.21052e-10 1738.85 -1.59616e-10 -1273.12)
(-458.793 -715.552 2.69438e-11 1702.23 -1.86901e-10 -1243.43)
(-436.177 -304.835 -2.39822e-10 1603.69 1.16074e-10 -1167.52)
(-407.186 -91.0122 2.09454e-10 1487.41 -2.96723e-11 -1080.22)
(-418.492 35.1122 -7.15623e-11 1496.8 9.66338e-12 -1078.31)
(-441.25 77.1223 -6.2478e-11 1541.53 1.65869e-10 -1100.28)
(-418.36 138.373 -4.22204e-11 1460.36 -2.19416e-11 -1042)
(-347.392 289.681 -1.1535e-10 1226.46 7.54881e-11 -879.071)
(-235.141 527.684 -3.7403e-11 870.186 4.03588e-11 -635.046)
(-201.225 532.399 -9.96749e-11 771.545 2.07478e-11 -570.32)
(-169.405 739.748 -7.13385e-11 635.855 -3.24007e-12 -466.45)
(333.488 1369.88 -4.06608e-11 -745.188 5.24025e-11 411.7)
(4747.17 -14251.9 -1.18853e-08 -19302.2 -1.56906e-08 14555)
(1408.97 -37757.1 -1.27329e-09 -8647.3 -5.36602e-11 7238.33)
(-105.922 -38386 -1.23655e-08 -1306.07 -4.42355e-10 1412)
(65.0772 -27905.5 8.38554e-09 -57.7817 7.26885e-12 -7.29554)
(-204.702 -16546.6 -3.69255e-09 719.88 1.34037e-10 -515.178)
(-207.395 -9091.9 -8.54925e-11 872.998 -1.81899e-12 -665.603)
(-299.618 -5266.76 -8.72205e-10 1213.24 1.70758e-10 -913.617)
(-394.068 -3090.73 -5.86624e-10 1524.75 2.00771e-10 -1130.68)
(-436.293 -1613.8 5.30918e-10 1665.76 -3.17186e-10 -1229.47)
(-457.849 -744.415 -5.63887e-11 1723.25 -2.04636e-10 -1265.4)
(-450.662 -361.841 -3.00872e-10 1682.49 1.59616e-10 -1231.83)
(-428.413 -126.045 1.04222e-10 1576.63 -9.89075e-12 -1148.22)
(-404.346 100.97 1.77154e-10 1485.52 4.28599e-11 -1081.18)
(-425.161 167.65 1.88109e-10 1534.63 -1.16756e-10 -1109.47)
(-438.471 177.284 -2.07791e-10 1556.2 5.53655e-11 -1117.73)
(-404.577 232.094 1.2858e-10 1432.95 -1.15506e-10 -1028.37)
(-307.313 428.474 -5.36886e-11 1113.44 -4.66116e-11 -806.128)
(-207.689 630.855 -3.45608e-11 805.012 -2.0691e-11 -597.324)
(-206.182 552.439 -2.29079e-11 825.857 -1.19371e-11 -619.675)
(-105.635 1161.37 5.37739e-11 325.981 4.72653e-11 -220.346)
(641.877 2052.82 -4.00409e-11 -1601.97 3.70193e-11 960.094)
(7598.51 -8786.73 -5.60431e-09 -23863.6 -9.3205e-09 16265.1)
(5523.89 -28773.5 -2.88128e-09 -20159.2 -4.89308e-10 14635.3)
(2186.18 -35821.2 5.23869e-10 -9626.75 1.28239e-10 7440.57)
(32.2999 -27605.4 7.55244e-09 -1551.87 2.42494e-10 1519.57)
(75.1276 -16754.4 4.39468e-09 -58.9256 9.55964e-11 -16.202)
(-194.858 -9217.16 2.25282e-09 688.499 -6.21867e-11 -493.641)
(-222.193 -5231.45 -4.29281e-10 895.168 -7.95808e-13 -672.975)
(-321.458 -3113.77 4.17003e-10 1255.81 -1.65983e-10 -934.351)
(-389.43 -1737.61 2.62844e-10 1511.2 -1.59616e-10 -1121.77)
(-413.992 -820.809 -1.7053e-11 1615.31 -1.41426e-10 -1201.32)
(-448.62 -430.423 -8.70273e-11 1698.47 1.27557e-10 -1249.85)
(-444.636 -202.728 2.27175e-10 1655.27 1.45519e-11 -1210.63)
(-412.409 92.9322 3.10596e-11 1535.14 7.65112e-11 -1122.74)
(-400.179 244.226 1.38755e-10 1491.72 1.74168e-10 -1091.55)
(-429.476 229.458 -1.29745e-10 1566.65 -2.73985e-11 -1137.17)
(-431.224 224.924 -2.43432e-10 1549.92 5.43423e-11 -1118.69)
(-377.604 329.458 -9.10347e-11 1360.04 9.09495e-11 -982.439)
(-255.368 598.553 -1.21901e-10 970.682 -3.05818e-11 -715.314)
(-204.02 658.168 -2.09184e-11 831.646 -2.44995e-11 -627.626)
(-139.795 711.877 4.54179e-11 689.923 -1.64846e-12 -550.128)
(-0.209386 1875.42 3.35376e-12 -211.621 -2.31193e-12 211.83)
(777.487 2774.62 7.09406e-11 -2217.8 -1.73657e-11 1440.31)
(557.98 -6597.7 -8.36008e-09 -4989.87 -4.09773e-09 4431.89)
(8194.13 -17334.6 4.25644e-09 -24546.9 8.15635e-09 16352.8)
(6476.37 -28813.6 -1.18234e-08 -21296.4 -6.51562e-09 14820)
(2662.7 -30112.8 1.69166e-09 -10334.7 2.61025e-10 7672.02)
(85.8229 -17791 3.82352e-09 -1827.83 4.26667e-10 1742)
(23.7753 -9532.85 5.48425e-10 -42.3202 3.69482e-13 18.5449)
(-175.149 -5367.52 -6.62567e-10 630.28 8.0604e-11 -455.13)
(-236.678 -3025.34 -5.32964e-10 921.609 1.13005e-10 -684.932)
(-332.668 -1731.13 3.89946e-10 1291.34 -2.38629e-10 -958.675)
(-380.818 -954.03 2.54886e-10 1493.03 -1.65755e-10 -1112.21)
(-393.425 -548.901 1.33809e-10 1559.64 1.49839e-10 -1166.22)
(-442.552 -300.153 2.53237e-11 1666.27 -3.61524e-11 -1223.72)
(-426.116 10.9534 1.01291e-10 1603.53 2.6489e-11 -1177.42)
(-388.165 258.396 -8.94858e-11 1480.65 1.4802e-10 -1092.49)
(-404.6 286.119 -1.63425e-11 1516.68 5.15001e-11 -1112.08)
(-431.654 230.125 6.88374e-11 1581.59 -1.52227e-10 -1149.93)
(-415.054 267.686 4.2661e-11 1507.78 -6.90079e-11 -1092.73)
(-327.594 475.901 7.7506e-11 1219.57 1.03114e-10 -891.98)
(-195.27 708.33 -4.05009e-11 826.469 -1.90425e-11 -631.199)
(-205.366 610.959 5.4456e-11 856.458 1.02318e-12 -651.092)
(-32.6558 1038.28 -3.00702e-11 299.472 -7.70228e-12 -266.816)
(198.86 2865.8 3.27418e-11 -1177.46 -5.61045e-11 978.604)
(484.678 2989.33 -5.24949e-11 -1835.05 9.60654e-11 1350.38)
(38.9079 -6628.83 -2.93949e-09 -658.002 -2.63981e-10 619.094)
(778.962 -12389.6 -4.22006e-10 -5279.52 3.30147e-10 4500.56)
(8815.56 -17583 -1.23327e-09 -25133.9 -8.76753e-10 16318.3)
(7217.32 -25102.5 6.98128e-09 -22085.6 5.80985e-09 14868.3)
(3062.98 -21103.9 2.20098e-10 -11115.9 -1.0732e-10 8052.87)
(220.047 -11813.7 1.39153e-10 -2277.81 -1.31877e-11 2057.76)
(-35.2056 -5806.3 5.62977e-10 -57.5356 -1.37518e-10 92.7411)
(-126.803 -3117.41 5.5752e-10 510.835 -4.54179e-11 -384.032)
(-255.915 -1625.07 2.72848e-11 973.039 -7.35554e-11 -717.125)
(-339.806 -974.439 2.51134e-10 1319.84 -1.34833e-10 -980.034)
(-379.69 -711.144 -3.53225e-10 1478.77 1.32445e-10 -1099.08)
(-381.803 -428.417 4.26041e-11 1508.75 -4.66116e-12 -1126.94)
(-423.334 -110.117 -9.20366e-11 1612.98 8.18545e-11 -1189.65)
(-398.026 167.678 5.11022e-11 1524.76 -1.32331e-10 -1126.74)
(-369.879 307.265 -1.63283e-10 1434.6 3.9222e-11 -1064.72)
(-412.866 240.921 -2.10463e-11 1543.33 7.20775e-11 -1130.46)
(-421.291 226.287 -4.54747e-12 1553.59 5.46834e-11 -1132.3)
(-378.276 338.516 1.10418e-11 1405 2.34195e-11 -1026.72)
(-244.717 614.725 6.25278e-12 980.507 -1.81899e-12 -735.79)
(-178.959 714.278 -6.25562e-11 789.898 -1.36424e-12 -610.939)
(-176.59 778.417 3.28839e-11 767.463 -5.57634e-11 -590.873)
(314.373 1769.82 -2.27374e-13 -660.663 4.75211e-11 346.29)
(195.003 3639.31 -5.16138e-11 -1586.25 7.70797e-11 1391.24)
(136.061 2465.67 1.48361e-11 -983.767 2.74554e-11 847.706)
(18.1484 -6747.68 -4.87307e-09 -48.147 -3.89164e-11 29.9986)
(59.8874 -12636.6 1.06211e-08 -700.277 5.94753e-10 640.39)
(1015.4 -12064.2 -4.11092e-09 -5538.77 -1.05229e-09 4523.37)
(9420.3 -16509.6 -4.59113e-09 -25674.1 -5.73709e-09 16253.8)
(7652.94 -17946.5 9.32596e-09 -22492 9.94442e-09 14839.1)
(3491.22 -14166 6.57565e-09 -11969.8 5.26143e-09 8478.58)
(520.96 -8546.68 -1.46429e-10 -3083.91 -2.22826e-11 2562.95)
(-60.6007 -3741.61 -2.82853e-10 -162.514 -1.82965e-10 223.115)
(-31.035 -1737.01 4.62933e-10 293.07 -1.72804e-11 -262.035)
(-283.842 -978.14 3.0127e-11 1032.05 -7.50333e-11 -748.212)
(-348.129 -780.174 -1.56206e-10 1327.64 8.6402e-11 -979.509)
(-389.304 -578.012 5.00222e-12 1476.19 -1.8872e-11 -1086.89)
(-364.641 -236.059 -8.21672e-11 1458.31 2.71712e-11 -1093.67)
(-404.945 4.77808 -1.61975e-10 1548.87 1.64164e-10 -1143.92)
(-364.376 225.145 -2.12694e-10 1422.38 8.83347e-11 -1058.01)
(-367.913 256.102 2.22258e-11 1422.29 8.56062e-11 -1054.38)
(-411.884 186.542 4.11831e-11 1540.41 -1.02091e-10 -1128.53)
(-396.549 246.889 -1.78488e-11 1479.31 1.34833e-10 -1082.76)
(-316.681 431.817 2.50111e-12 1211.65 2.66027e-11 -894.971)
(-204.257 792.044 4.59579e-11 834.964 6.99174e-12 -630.707)
(-184.72 696.276 -3.53282e-11 929.877 6.13909e-12 -745.156)
(43.3109 1246.15 -2.80238e-11 154.807 -2.00657e-11 -198.117)
(383.479 2762.33 7.61702e-12 -1397.71 -4.6839e-11 1014.23)
(625.177 3254.32 -2.88765e-11 -2482.3 3.26281e-11 1857.12)
(761.909 196.333 -1.63141e-11 -2229.46 2.251e-11 1467.55)
(-37.7726 -7270.05 -2.39197e-09 172.401 7.3598e-11 -134.628)
(-35.1774 -12953.5 1.10231e-09 16.7919 1.60831e-11 18.3855)
(75.8986 -12657.1 -4.50018e-09 -739.568 -2.39027e-10 663.669)
(1435.76 -12095.1 4.29827e-09 -6134.27 1.76715e-09 4698.52)
(9578.28 -11882 -2.91038e-09 -25586.6 -4.75484e-09 16008.4)
(7678.29 -11881.1 3.01225e-09 -22263.2 4.44197e-09 14584.9)
(4023.66 -11177.9 -8.03993e-10 -12990.8 -1.3406e-09 8967.09)
(996.461 -7001.63 -7.51243e-10 -4328.15 -8.97671e-10 3331.69)
(-49.3738 -2851.72 3.16959e-10 -417.358 2.10409e-10 466.732)
(37.0306 -1175.35 -1.58025e-10 54.2371 5.75966e-11 -91.2677)
(-273.221 -913.456 -2.90186e-10 991.536 7.03722e-11 -718.315)
(-368.331 -682.449 1.11925e-10 1351.14 1.47793e-12 -982.804)
(-380.805 -359.395 3.76588e-11 1443.24 6.753e-11 -1062.43)
(-371.409 -129.14 3.92478e-10 1446.56 -8.59472e-11 -1075.15)
(-380.922 38.5736 -1.18668e-10 1467.8 5.29781e-11 -1086.88)
(-338.717 229.336 6.92779e-11 1332.67 -1.05047e-10 -993.954)
(-385.715 174.44 -3.0326e-11 1465.48 -5.46834e-11 -1079.76)
(-398.669 192.55 -1.13118e-11 1496.44 6.25278e-12 -1097.78)
(-366.101 290.912 -6.84111e-11 1386.49 -5.11591e-12 -1020.39)
(-250.317 712.27 -6.77005e-11 1004.03 -3.69482e-12 -753.714)
(-148.726 769.886 -7.79039e-11 812.225 -6.11635e-11 -663.499)
(-170.539 649.962 -4.59295e-11 700.377 3.01839e-11 -529.838)
(493.101 2065.78 -7.7307e-12 -1455.63 1.81899e-11 962.528)
(1283.28 1841.32 -6.62226e-12 -3730.89 -9.61791e-11 2447.61)
(1569.06 -490.918 3.69482e-12 -5134.65 6.07088e-11 3565.59)
(1736.98 -2517.36 -4.66116e-12 -5246.13 -2.75122e-11 3509.14)
(-64.175 -7669.94 -6.44832e-09 228.516 1.82496e-10 -164.341)
(-108.188 -13718.7 5.65888e-09 250.346 -8.17977e-11 -142.158)
(-67.0217 -12929.9 -3.11411e-09 51.5658 6.34515e-12 15.4558)
(124.469 -13148 -4.15093e-09 -829.757 -3.17925e-10 705.288)
(1864.22 -9867.32 6.04996e-09 -6850.41 3.05863e-09 4986.2)
(9177.21 -5863.49 1.15233e-09 -24613.9 3.93629e-09 15436.6)
(7377.51 -8293.44 -7.13044e-10 -21306.1 -3.32875e-10 13928.6)
(4691.44 -10378.3 1.8963e-09 -14277.5 2.40107e-09 9586.06)
(1718.38 -6812.52 9.05857e-10 -6218.15 9.94078e-10 4499.77)
(110.324 -2853.69 3.44585e-10 -1097.59 1.01011e-10 987.267)
(57.8034 -1263.2 -1.0516e-11 -112.763 -1.42926e-11 54.9593)
(-175.028 -923.658 9.15179e-11 752.963 4.718e-11 -577.935)
(-391.592 -570.893 5.21823e-11 1365.27 6.51426e-11 -973.675)
(-372.403 -228.537 -7.21734e-11 1386.93 1.27898e-10 -1014.53)
(-400.464 -116.145 1.88702e-11 1490.77 -5.00222e-11 -1090.3)
(-362.539 68.2598 -8.15277e-11 1382.37 5.59339e-11 -1019.83)
(-325.604 214.935 -7.87423e-11 1288.43 8.70841e-11 -962.829)
(-405.919 118.792 7.1438e-11 1519.79 4.84306e-11 -1113.87)
(-374.296 231.114 4.475e-11 1423.84 6.36646e-12 -1049.55)
(-277.266 451.523 -3.83693e-12 1160.16 1.17097e-11 -882.891)
(-85.6635 655.666 -4.11404e-11 568.388 -9.18021e-12 -482.725)
(-136.133 173.482 2.91998e-11 586.851 -1.90994e-11 -450.717)
(686.415 718.622 -2.5743e-11 -1658.34 1.29603e-11 971.926)
(1634.87 498.664 3.01554e-11 -5012.68 2.22826e-11 3377.8)
(1956.85 -1294.88 -1.22213e-10 -6947.52 -1.22782e-10 4990.67)
(1720.36 -3733.87 -6.0254e-11 -6405.17 -8.00355e-11 4684.81)
(2000.27 -2344.02 -1.62714e-11 -5244.17 -1.15392e-11 3243.91)
(-88.3332 -7974.43 -7.55244e-09 263.876 2.04125e-10 -175.543)
(-117.143 -14054.7 8.40373e-10 286.265 0 -169.122)
(-123.008 -13104.1 -6.94854e-10 266.715 5.94014e-12 -143.707)
(-58.9619 -13352.7 4.22006e-09 46.6644 -6.0254e-12 12.2974)
(186.08 -11801.3 -3.34148e-09 -956.296 -3.13037e-10 770.216)
(2303.27 -5602.47 2.59388e-09 -7788.09 4.12001e-10 5484.82)
(8270.02 -957.128 -2.07683e-09 -22666 -2.86491e-09 14395.9)
(6869.99 -6404.52 -9.42691e-10 -19750.4 -2.59934e-09 12880.4)
(5431.32 -10301.7 8.69477e-10 -15672.4 1.44064e-09 10241.1)
(2870.37 -8196.35 4.31555e-10 -9038.29 1.84627e-10 6167.92)
(597.069 -3857.39 -3.85853e-10 -2740.45 -5.31372e-10 2143.38)
(17.1142 -1731.23 5.25233e-11 -343.124 -1.03597e-11 326.01)
(-18.7125 -999.204 -1.10845e-10 314.878 6.45741e-11 -296.165)
(-295.026 -687.408 1.72008e-10 1086.5 -4.20641e-12 -791.471)
(-313.973 -335.379 2.99138e-12 1189.8 3.21734e-11 -875.831)
(-414.331 -233.485 8.3201e-11 1440.61 -1.15847e-10 -1026.28)
(-295.42 71.3685 1.34193e-10 1156.65 -5.20686e-11 -861.228)
(-327.426 33.6316 3.75024e-11 1277.07 -1.50067e-11 -949.641)
(-314.486 32.2776 1.11626e-11 1254.77 1.26192e-11 -940.283)
(-326.239 20.9187 3.30624e-11 1232.31 -1.81899e-11 -906.07)
(5.7342 315.348 3.02336e-11 194.725 -4.31477e-12 -200.46)
(323.705 -501.96 -4.76916e-11 -517.848 -1.49214e-11 194.143)
(1017.04 -1237.07 -4.45652e-11 -2603.68 -1.75078e-11 1586.64)
(1976.51 -1379.15 -1.59957e-10 -6628.65 -2.32831e-10 4652.14)
(2260.57 -2381.47 2.96154e-11 -8176.69 -7.7307e-12 5916.12)
(2066.7 -2830.24 6.05382e-11 -6650.06 4.43379e-11 4583.36)
(1004.23 -1990.68 -1.09992e-11 -3774.29 -4.1382e-11 2770.07)
(799.931 -402.357 3.10791e-11 -1979.23 -4.37694e-12 1179.3)
(-93.4028 -8108.4 -4.15366e-09 258.065 1.01181e-10 -164.662)
(-120.751 -14261.8 1.23691e-10 298.694 -1.7053e-13 -177.943)
(-111.199 -12829.9 -4.05453e-09 287.647 7.31291e-11 -176.449)
(-86.9114 -13226.9 -3.36695e-09 222.804 4.05294e-11 -135.892)
(-38.6424 -12216.5 3.0268e-09 19.9298 -2.01155e-11 18.7126)
(260.905 -8881.29 2.12913e-09 -1168.83 -4.96243e-11 907.926)
(2746.85 -763.032 -8.73115e-10 -8918.24 1.09776e-09 6171.4)
(7049.96 2291.5 2.51248e-10 -19952.4 2.73758e-09 12902.4)
(6111.61 -5161.26 1.14278e-09 -17453.6 2.21371e-09 11342)
(6019.29 -10156.8 -1.56433e-09 -16645.5 -2.53385e-09 10626.2)
(4462.36 -10231.3 -4.62023e-10 -12780.4 -7.66704e-10 8318.05)
(1782.37 -6039.01 3.27645e-10 -6007.93 5.52063e-10 4225.56)
(318.793 -2998.94 1.63482e-10 -1607.56 -1.69393e-11 1288.77)
(84.4823 -1636.97 -2.2726e-10 -280.199 -7.5147e-11 195.716)
(-89.0326 -1169.51 -2.56762e-10 430.87 1.22213e-11 -341.837)
(-139.311 -777.865 -1.31962e-10 615.799 -1.58593e-11 -476.489)
(-281.438 -579.492 -1.27613e-11 973.999 5.38876e-11 -692.561)
(-141.347 -257.811 -1.41924e-10 641.045 1.5234e-11 -499.698)
(-243.153 -523.851 3.73461e-11 907.542 1.69393e-11 -664.389)
(6.17115 -744.159 1.54046e-11 278.817 0 -284.988)
(341.421 -1122.6 -4.33715e-11 -937.021 2.69438e-11 595.6)
(965.06 -2134.82 1.0084e-10 -2722.03 5.32054e-11 1756.97)
(1543.85 -3822.58 4.97948e-11 -4896.84 4.8658e-11 3352.99)
(2182.33 -4162.14 -5.8435e-11 -7842.14 -1.63709e-11 5659.81)
(2464.29 -3062.92 -6.71889e-11 -8710.06 -1.37334e-10 6245.77)
(1873.19 -1556.5 -5.53655e-11 -6339.84 -8.50378e-11 4466.65)
(954.021 -470.809 -7.98539e-11 -2897.93 -2.78533e-11 1943.91)
(116.24 102.31 -3.40208e-11 -727.503 2.13163e-12 611.263)
(78.2311 189.471 3.13349e-11 -314.465 9.07363e-12 236.234)
(-85.0611 -8094.62 -8.47831e-09 230.005 1.74197e-10 -144.944)
(-106.038 -14251 5.55337e-09 275.119 -8.43272e-11 -169.081)
(-104.696 -12624.1 -4.64206e-09 286.175 7.52891e-11 -181.479)
(-86.0349 -12926 4.11637e-09 267.812 -6.92069e-11 -181.777)
(-64.205 -12164 -2.18643e-09 197.457 3.52713e-11 -133.252)
(-27.6193 -9680.17 -2.27374e-10 -4.17055 2.98428e-13 31.7898)
(339.865 -5296.7 -1.31513e-09 -1501.03 -2.44881e-10 1161.16)
(3318.93 3609.6 1.93154e-10 -10348.2 -1.26875e-09 7029.31)
(5519.07 4242.45 -5.70026e-10 -16401.2 3.71438e-09 10882.2)
(4946.04 -4067.4 2.02135e-10 -14151.5 1.41699e-09 9205.48)
(6075.53 -9463.86 -5.96629e-10 -16188.8 -7.78527e-10 10113.3)
(6211.47 -11494.2 1.54614e-10 -16603.9 2.89219e-10 10392.4)
(3950.41 -9131.43 1.63709e-10 -11402.4 -1.69166e-10 7451.99)
(1749.87 -5977.61 3.13776e-10 -5692.98 4.35193e-10 3943.11)
(698.132 -4001.03 -9.004e-11 -2519.98 -6.79847e-11 1821.85)
(484.606 -2748.78 3.7744e-10 -1603.28 1.26761e-10 1118.67)
(363.168 -2366.79 1.20735e-10 -1059.41 1.09537e-10 696.238)
(377.996 -1990.18 7.27596e-12 -1172.17 4.95675e-11 794.176)
(504.158 -2206 -4.44516e-11 -1462.26 -7.52607e-11 958.1)
(772.251 -2989.6 -3.45608e-11 -2268.95 -8.41283e-12 1496.69)
(1301.46 -4106.98 9.25411e-11 -4085.88 1.83718e-10 2784.42)
(1765.16 -5241.65 -1.3506e-10 -6148.62 -1.83263e-10 4383.46)
(1891.8 -6561.24 -7.77618e-11 -7115.72 -6.45741e-11 5223.92)
(2222.86 -5862.79 -1.97588e-10 -7926.36 -2.74667e-10 5703.5)
(2312.16 -2258.47 -1.68257e-11 -7833.68 3.13776e-11 5521.52)
(1426.68 181.416 8.1144e-11 -5101.1 2.86491e-11 3674.43)
(591.594 423.568 7.38964e-12 -2023.6 1.33014e-11 1432.01)
(89.6448 429.453 -7.10543e-13 -488.817 -1.74794e-12 399.172)
(-63.1559 367.516 -3.17826e-11 -123.965 4.448e-12 187.121)
(2.43624 234.511 -1.43956e-11 -142.967 -1.95755e-12 140.531)
(-81.166 -8014.02 -3.17777e-09 215.895 8.40146e-11 -134.729)
(-77.3778 -14085.7 -3.14685e-10 221.117 3.43903e-12 -143.739)
(-86.4299 -12388 -1.14596e-10 259.761 7.5886e-12 -173.331)
(-87.9313 -12791.2 4.81305e-09 271.605 -6.83542e-11 -183.674)
(-76.9829 -12264.4 2.20462e-09 263.612 -6.34941e-11 -186.629)
(-74.186 -9831.51 1.74441e-09 198.301 -2.87059e-11 -124.115)
(-37.6631 -6471.19 -3.4288e-10 -24.3736 2.83364e-11 62.0367)
(491.933 -1837.24 3.74712e-10 -2065.08 5.05224e-10 1573.15)
(3946.31 6690.85 -3.8699e-10 -11881.9 1.42973e-09 7935.57)
(3675.23 5183.37 -1.56206e-10 -12096.4 1.34241e-09 8421.16)
(3476.49 -2917.13 2.68756e-10 -10089.5 -7.32143e-10 6613)
(5185.63 -7793.37 5.62977e-10 -13500.3 1.08776e-09 8314.72)
(6842.25 -11117.6 -3.21052e-10 -17707.2 -9.60426e-10 10864.9)
(6373.83 -11815.4 -1.52522e-09 -16941.6 -2.73212e-09 10567.8)