/*--------------------------------*- C++ -*----------------------------------*\
| =========                 |                                                 |
| \\      /  F ield         | OpenFOAM: The Open Source CFD Toolbox           |
|  \\    /   O peration     | Version:  v2012                                 |
|   \\  /    A nd           | Website:  www.openfoam.com                      |
|    \\/     M anipulation  |                                                 |
\*---------------------------------------------------------------------------*/
FoamFile
{
    version     2.0;
    format      ascii;
    class       volScalarField;
    location    "12000";
    object      T;
}
// * * * * * * * * * * * * * * * * * * * * * * * * * * * * * * * * * * * * * //

dimensions      [0 0 0 1 0 0 0];


internalField   nonuniform List<scalar> 
27324
(
160.535
161.869
158.486
162.922
159.712
155.382
164.147
160.685
156.467
151.604
165.365
161.812
157.34
152.581
147.952
166.553
162.933
158.348
153.377
148.909
145.173
167.702
164.025
159.347
154.302
149.687
146.163
143.314
168.882
165.078
160.317
155.225
150.595
146.96
144.322
142.07
170.206
166.154
161.253
156.124
151.503
147.891
145.129
143.081
141.27
171.679
167.355
162.215
156.995
152.393
148.82
146.073
143.888
142.281
140.843
173.259
168.688
163.3
157.889
153.26
149.732
147.016
144.836
143.09
141.85
140.628
174.902
170.117
164.512
158.898
154.152
150.62
147.946
145.786
144.05
142.64
141.603
140.478
176.584
171.61
165.815
160.029
155.155
151.533
148.856
146.733
145.014
143.589
142.358
141.433
140.464
178.247
173.145
167.169
161.249
156.275
152.551
149.791
147.669
145.983
144.544
143.286
142.152
141.397
140.567
179.659
174.653
168.55
162.517
157.488
153.686
150.832
148.635
146.947
145.516
144.232
143.053
142.057
141.483
140.771
180.746
175.904
169.901
163.811
158.755
154.918
151.99
149.7
147.934
146.495
145.216
143.993
142.912
142.09
141.67
141.07
181.555
176.825
171.017
165.094
160.052
156.209
153.248
150.879
149.003
147.499
146.225
144.986
143.842
142.877
142.228
141.951
141.445
182.045
177.49
171.863
166.168
161.334
157.531
154.571
152.155
150.175
148.575
147.265
146.024
144.837
143.781
142.945
142.488
142.273
141.974
181.967
177.936
172.508
166.981
162.409
158.832
155.919
153.487
151.444
149.749
148.359
147.095
145.896
144.785
143.811
143.133
142.829
142.627
142.764
176.444
177.781
172.903
167.565
163.219
159.945
157.23
154.829
152.776
151.028
149.534
148.197
147.002
145.871
144.817
143.943
143.423
143.244
143.035
144.016
162.479
172.668
172.549
167.884
163.806
160.803
158.351
156.12
154.121
152.368
150.809
149.356
148.124
147.02
145.93
144.931
144.156
143.85
143.705
143.657
146.114
144.86
159.441
168.027
167.681
164.167
161.412
159.219
157.244
155.405
153.716
152.142
150.606
149.274
148.177
147.115
146.052
145.09
144.52
144.402
144.28
144.901
149.468
133.171
142.874
155.637
163.096
164.095
161.77
159.815
158.135
156.548
154.98
153.472
151.911
150.497
149.335
148.309
147.249
146.188
145.362
145.082
144.985
145.194
147.114
153.787
131.274
131.678
140.401
151.394
158.846
161.452
160.146
158.728
157.472
156.131
154.701
153.202
151.778
150.524
149.479
148.465
147.369
146.393
145.805
145.724
145.569
146.606
150.924
158.216
131.015
129.797
129.905
137.426
147.578
155.749
159.429
158.992
158.059
157.078
155.844
154.383
153.048
151.759
150.619
149.649
148.575
147.528
146.674
146.362
146.499
146.774
149.713
156.015
160.711
131.127
129.567
128.077
127.763
134.305
144.552
153.304
157.794
158.213
157.637
156.776
155.514
154.203
152.986
151.78
150.751
149.77
148.69
147.71
147.059
147.366
147.219
148.519
154.263
158.459
157.687
131.299
129.626
127.872
125.962
125.273
131.729
142.226
150.967
156.316
157.487
157.308
156.417
155.316
154.105
152.971
151.825
150.893
149.867
148.848
147.964
148.106
147.863
147.791
152.079
154.186
151.067
148.256
131.462
129.764
127.899
125.76
123.415
122.859
130.079
140.252
148.428
154.675
156.787
156.852
156.144
155.127
154.086
152.942
151.886
151.063
149.957
149.039
148.577
148.227
147.353
148.375
148.287
146.336
142.826
142.835
131.638
129.909
128.062
125.777
123.175
120.767
121.14
129.187
138.486
145.556
152
155.404
156.255
155.779
154.865
153.889
152.779
151.956
150.954
149.914
148.72
148.323
145.984
143.094
141.427
141.169
140.807
141.478
142.712
131.803
130.072
128.216
125.957
123.178
120.471
118.542
120.419
128.937
136.892
142.325
148.199
152.866
154.799
154.991
154.129
153.325
152.291
151.445
150.094
147.857
145.781
141.642
136.446
134.461
136.571
139.184
141.214
142.312
143.226
131.949
130.218
128.37
126.088
123.35
120.492
118.18
117.05
120.722
129.179
135.556
138.971
143.241
148.042
151.099
151.885
151.837
150.747
149.661
147.796
144.17
139.817
134.665
130.338
129.481
133.486
138.191
140.698
142.129
142.923
143.652
132.082
130.343
128.5
126.228
123.467
120.619
118.176
116.511
116.277
121.786
129.854
134.58
136.115
138.188
141.075
143.482
144.48
144.169
142.725
140.095
136.224
132.567
129.148
127.079
127.042
130.889
136.811
140.26
141.854
142.715
143.342
143.934
132.186
130.457
128.617
126.348
123.6
120.735
118.3
116.471
115.475
115.969
123.68
130.881
133.865
134.366
134.871
135.469
135.735
135.442
134.506
132.797
130.642
128.42
126.812
126.107
126.222
128.832
135.242
139.547
141.523
142.455
143.124
143.68
144.121
132.273
130.548
128.732
126.448
123.721
120.862
118.405
116.609
115.424
114.713
116.268
126.179
132.203
133.646
133.823
133.663
132.997
132.034
131.056
130.005
128.736
127.412
126.378
125.977
126.007
127.38
133.249
138.584
141.079
142.179
142.876
143.498
143.971
144.39
132.35
130.627
128.817
126.537
123.809
120.966
118.51
116.714
115.52
114.585
114.211
117.528
128.874
133.531
133.855
133.897
133.54
132.561
131.376
130.263
129.096
127.883
126.763
126.103
126
126.512
131.06
137.25
140.515
141.878
142.629
143.278
143.848
144.384
144.991
132.376
130.666
128.883
126.596
123.887
121.052
118.604
116.825
115.63
114.649
113.959
114.091
119.962
131.373
134.402
134.291
134.143
133.445
132.159
130.825
129.628
128.462
127.324
126.462
126.107
126.129
129.026
135.549
139.782
141.537
142.376
143.048
143.687
144.35
145.118
145.787
132.356
130.669
128.914
126.65
123.954
121.136
118.677
116.932
115.74
114.759
114.01
113.542
114.515
123.634
133.117
134.785
134.654
134.211
133.175
131.826
130.507
129.232
127.952
126.821
126.193
126.028
127.468
133.529
138.83
141.132
142.112
142.807
143.51
144.285
145.182
146.153
146.772
132.324
130.654
128.944
126.709
124.014
121.207
118.747
117.024
115.852
114.865
114.118
113.527
113.29
116.098
127.591
134.029
134.815
134.579
133.932
132.655
131.238
129.905
128.558
127.256
126.299
126.005
126.519
131.36
137.596
140.632
141.827
142.561
143.312
144.198
145.249
146.358
147.335
148.113
132.251
130.585
128.915
126.722
124.052
121.25
118.805
117.107
115.95
114.977
114.233
113.609
113.173
113.461
119.27
130.916
134.334
134.663
134.433
133.471
131.996
130.558
129.15
127.742
126.543
125.995
126.081
129.321
136.044
139.995
141.505
142.312
143.101
144.095
145.276
146.578
147.659
148.798
149.822
132.165
130.48
128.848
126.687
124.058
121.276
118.85
117.174
116.032
115.074
114.349
113.704
113.232
113.075
114.246
124.087
133.157
134.654
134.693
134.199
132.817
131.271
129.765
128.283
126.87
126.059
125.937
127.698
134.189
139.174
141.129
142.056
142.888
143.972
145.313
146.781
148.019
149.195
150.61
151.664
132.12
130.392
128.767
126.656
124.031
121.278
118.885
117.222
116.095
115.155
114.45
113.801
113.332
113.073
113.055
116.62
129.056
134.438
134.814
134.713
133.653
132.05
130.412
128.859
127.304
126.189
125.909
126.644
132.143
138.117
140.675
141.783
142.682
143.83
145.327
146.973
148.365
149.642
151.065
152.575
153.319
132.133
130.334
128.705
126.597
124.001
121.238
118.893
117.256
116.141
115.222
114.532
113.897
113.435
113.149
112.937
113.516
121.331
132.411
134.945
134.93
134.376
132.883
131.093
129.455
127.807
126.445
125.906
126.107
130.114
136.782
140.112
141.48
142.485
143.672
145.337
147.152
148.706
150.077
151.573
153.101
154.354
154.677
132.162
130.314
128.649
126.518
123.931
121.185
118.885
117.269
116.171
115.274
114.592
113.974
113.546
113.223
112.949
112.965
115.291
127.196
133.967
134.974
134.845
133.72
131.826
130.073
128.361
126.806
125.953
125.911
128.361
135.163
139.402
141.131
142.293
143.515
145.336
147.32
149.039
150.515
152.067
153.686
154.957
155.81
155.863
132.227
130.324
128.605
126.457
123.846
121.113
118.854
117.252
116.181
115.309
114.631
114.031
113.636
113.313
113.028
112.94
113.259
119.672
131.896
134.703
135.036
134.454
132.621
130.729
128.949
127.27
126.099
125.868
127.083
133.312
138.508
140.716
142.099
143.375
145.319
147.479
149.361
150.951
152.563
154.251
155.626
156.481
157.026
157.505
132.323
130.395
128.658
126.433
123.796
121.045
118.794
117.205
116.146
115.323
114.647
114.069
113.703
113.386
113.1
112.976
112.949
114.665
126.16
134.201
135.08
134.933
133.453
131.444
129.57
127.805
126.351
125.862
126.327
131.365
137.394
140.21
141.893
143.26
145.28
147.635
149.672
151.387
153.059
154.814
156.271
157.226
157.732
158.521
160.952
132.39
130.447
128.709
126.438
123.771
121.002
118.735
117.148
116.109
115.321
114.648
114.09
113.746
113.437
113.17
113.02
112.943
113.145
118.982
131.407
134.955
135.09
134.231
132.238
130.229
128.387
126.733
125.896
125.988
129.521
136.04
139.585
141.657
143.176
145.24
147.758
149.974
151.818
153.555
155.373
156.912
157.949
158.513
159.168
161.724
166.65
132.377
130.481
128.742
126.465
123.767
120.985
118.692
117.093
116.059
115.285
114.609
114.098
113.772
113.462
113.223
113.075
112.945
112.905
114.47
125.95
133.942
135.072
134.813
133.106
130.94
129.001
127.199
126.013
125.885
127.99
134.458
138.819
141.371
143.124
145.183
147.889
150.268
152.245
154.051
155.929
157.546
158.67
159.278
159.894
162.24
167.218
173.772
132.373
130.453
128.809
126.502
123.799
121.015
118.67
117.052
116.006
115.247
114.571
114.086
113.783
113.47
113.253
113.12
112.965
112.874
113.089
119.062
131.694
134.858
135.099
133.984
131.722
129.64
127.739
126.25
125.861
126.904
132.715
137.89
141.008
143.098
145.127
148.006
150.556
152.664
154.545
156.483
158.173
159.385
160.045
160.627
162.813
167.615
174.31
181.121
132.295
130.396
128.759
126.545
123.834
121.062
118.672
117.035
115.967
115.202
114.528
114.073
113.782
113.473
113.27
113.153
112.992
112.872
112.842
114.554
126.528
134.406
135.158
134.721
132.582
130.314
128.321
126.61
125.861
126.268
130.937
136.783
140.542
143.079
145.077
148.119
150.842
153.075
155.036
157.036
158.793
160.093
160.812
161.376
163.393
168.043
174.694
181.824
187.734
132.25
130.299
128.701
126.518
123.855
121.105
118.72
117.037
115.95
115.166
114.486
114.056
113.781
113.474
113.286
113.173
113.031
112.892
112.789
113.067
119.918
132.247
135.176
135.154
133.493
131.042
128.93
127.071
125.955
125.97
129.297
135.495
139.955
143.036
145.067
148.229
151.127
153.478
155.521
157.589
159.409
160.794
161.577
162.132
163.991
168.482
175.087
182.323
188.679
193.267
132.256
130.237
128.642
126.501
123.848
121.134
118.761
117.076
115.987
115.142
114.45
114.043
113.78
113.482
113.311
113.193
113.065
112.936
112.773
112.807
115.037
128.093
134.612
135.285
134.357
131.847
129.564
127.614
126.128
125.864
127.948
134.053
139.244
142.926
145.086
148.34
151.412
153.876
155.997
158.14
160.021
161.487
162.338
162.892
164.604
168.934
175.484
182.812
189.388
194.402
197.795
132.276
130.207
128.576
126.447
123.814
121.128
118.793
117.108
116.024
115.135
114.425
114.035
113.779
113.494
113.345
113.227
113.106
113.005
112.816
112.784
113.144
121.886
133.364
135.297
135.006
132.736
130.239
128.195
126.448
125.838
126.978
132.538
138.364
142.695
145.163
148.457
151.695
154.27
156.464
158.689
160.631
162.172
163.095
163.656
165.232
169.4
175.885
183.29
190.094
195.301
199.081
201.466
132.366
130.217
128.542
126.396
123.761
121.084
118.799
117.132
116.067
115.135
114.425
114.025
113.775
113.505
113.38
113.274
113.16
113.077
112.893
112.789
112.755
116.41
130.027
135.149
135.316
133.672
130.976
128.801
126.893
125.835
126.393
131.05
137.328
142.388
145.304
148.585
151.973
154.664
156.923
159.233
161.24
162.849
163.845
164.422
165.872
169.877
176.29
183.76
190.787
196.209
200.123
202.87
204.442
132.433
130.274
128.568
126.383
123.726
121.025
118.777
117.124
116.099
115.139
114.43
114.017
113.76
113.512
113.413
113.324
113.225
113.149
112.975
112.865
112.724
113.676
124.665
134.295
135.377
134.542
131.797
129.434
127.409
126.025
126.11
129.702
136.173
141.953
145.479
148.727
152.243
155.061
157.376
159.768
161.848
163.521
164.588
165.187
166.523
170.366
176.701
184.222
191.465
197.115
201.174
204.02
205.941
206.872
132.461
130.295
128.6
126.382
123.707
120.981
118.74
117.091
116.102
115.149
114.448
114.018
113.73
113.509
113.43
113.365
113.291
113.215
113.056
112.95
112.756
112.913
118.709
132.196
135.379
135.165
132.709
130.107
127.969
126.283
125.987
128.602
134.958
141.363
145.68
148.884
152.505
155.463
157.827
160.293
162.453
164.188
165.324
165.95
167.183
170.864
177.117
184.677
192.124
198.018
202.232
205.181
207.171
208.449
208.88
132.494
130.317
128.633
126.409
123.744
120.957
118.707
117.052
116.097
115.11
114.463
114.019
113.704
113.471
113.432
113.386
113.342
113.273
113.116
113.033
112.781
112.79
114.662
128.106
135.011
135.442
133.677
130.839
128.554
126.704
125.951
127.842
133.739
140.608
145.927
149.063
152.766
155.871
158.282
160.808
163.052
164.853
166.052
166.708
167.849
171.372
177.539
185.131
192.758
198.914
203.296
206.353
208.413
209.735
210.522
210.564
132.48
130.287
128.642
126.42
123.783
120.982
118.692
117.024
116.046
115.089
114.471
114.021
113.68
113.433
113.377
113.386
113.367
113.314
113.16
113.092
112.819
112.773
113.054
122.423
133.926
135.501
134.585
131.651
129.168
127.213
126.145
127.43
132.581
139.781
145.731
149.262
153.032
156.281
158.741
161.313
163.64
165.515
166.773
167.461
168.522
171.89
177.965
185.586
193.377
199.806
204.369
207.536
209.668
211.037
211.848
212.262
212.001
132.47
130.265
128.628
126.408
123.807
121.021
118.69
117.014
116.008
115.062
114.48
114.027
113.663
113.401
113.314
113.333
113.368
113.335
113.193
113.128
112.874
112.772
112.677
117.168
131.301
135.503
135.253
132.557
129.817
127.788
126.467
127.259
131.561
138.88
145.579
149.531
153.316
156.692
159.207
161.814
164.214
166.172
167.489
168.206
169.199
172.417
178.396
186.04
193.985
200.689
205.459
208.733
210.938
212.353
213.193
213.615
213.747
213.252
132.461
130.232
128.609
126.396
123.813
121.052
118.708
117.059
115.974
115.044
114.484
114.037
113.659
113.378
113.255
113.272
113.323
113.345
113.221
113.151
112.926
112.818
112.634
114.086
126.878
135.091
135.579
133.538
130.514
128.408
126.954
127.208
130.767
137.915
145.148
149.827
153.629
157.101
159.678
162.314
164.773
166.821
168.202
168.942
169.88
172.953
178.832
186.494
194.582
201.56
206.555
209.948
212.227
213.688
214.554
214.99
215.117
215.038
214.363
132.464
130.215
128.595
126.386
123.808
121.072
118.724
117.091
115.958
115.034
114.488
114.043
113.684
113.378
113.217
113.207
113.274
113.313
113.242
113.178
112.97
112.893
112.648
112.979
121.292
133.883
135.659
134.496
131.281
129.077
127.533
127.237
130.27
136.976
144.649
150.161
153.971
157.509
160.15
162.819
165.319
167.455
168.913
169.671
170.563
173.499
179.273
186.948
195.17
202.413
207.652
211.177
213.535
215.043
215.936
216.384
216.514
216.418
216.181
215.368
132.462
130.205
128.619
126.392
123.79
121.082
118.73
117.119
115.948
115.043
114.486
114.047
113.706
113.426
113.21
113.175
113.215
113.291
113.251
113.218
113.012
112.975
112.674
112.736
116.512
131.168
135.666
135.263
132.149
129.788
128.202
127.769
130.057
136.136
144.03
150.469
154.339
157.918
160.621
163.33
165.858
168.071
169.619
170.396
171.248
174.052
179.72
187.402
195.752
203.242
208.751
212.417
214.86
216.419
217.338
217.799
217.93
217.829
217.564
217.213
216.298
132.46
130.175
128.625
126.448
123.777
121.072
118.725
117.13
115.937
115.067
114.482
114.031
113.723
113.465
113.251
113.175
113.174
113.264
113.258
113.269
113.062
113.047
112.75
112.711
113.809
126.799
135.212
135.685
133.138
130.552
128.976
128.341
130.003
135.459
143.378
150.456
154.725
158.338
161.09
163.846
166.395
168.665
170.315
171.121
171.932
174.609
180.175
187.856
196.329
204.059
209.851
213.672
216.199
217.811
218.762
219.236
219.369
219.261
218.985
218.594
218.161
217.176
132.476
130.139
128.63
126.48
123.791
121.075
118.724
117.128
115.929
115.087
114.484
114.006
113.724
113.493
113.299
113.222
113.151
113.23
113.261
113.312
113.122
113.104
112.83
112.709
112.824
121.484
134.022
135.836
134.221
131.381
129.828
129.111
130.061
135.039
142.711
150.392
155.133
158.78
161.557
164.363
166.935
169.241
170.993
171.847
172.613
175.169
180.636
188.313
196.899
204.866
210.948
214.95
217.554
219.22
220.203
220.693
220.83
220.715
220.426
220.02
219.537
219.049
218.018
132.49
130.132
128.632
126.503
123.795
121.088
118.73
117.095
115.927
115.111
114.479
113.988
113.691
113.497
113.335
113.27
113.164
113.203
113.258
113.34
113.185
113.147
112.898
112.757
112.596
116.892
131.433
135.865
135.259
132.297
130.757
129.986
130.64
134.809
142.032
150.078
155.554
159.254
162.024
164.876
167.48
169.806
171.647
172.57
173.296
175.733
181.104
188.774
197.465
205.661
212.039
216.236
218.931
220.648
221.663
222.169
222.311
222.192
221.89
221.465
220.964
220.417
219.895
218.843
132.531
130.111
128.621
126.514
123.8
121.1
118.761
117.075
115.935
115.136
114.486
113.968
113.658
113.468
113.347
113.315
113.181
113.196
113.213
113.325
113.237
113.184
112.943
112.835
112.569
114.137
127.383
135.588
136.063
133.325
131.76
130.976
131.26
134.726
141.449
149.688
155.957
159.758
162.493
165.383
168.027
170.366
172.275
173.284
173.984
176.298
181.578
189.238
198.033
206.446
213.115
217.528
220.321
222.097
223.143
223.666
223.812
223.689
223.377
222.934
222.409
221.84
221.252
220.715
219.662
132.54
130.113
128.619
126.515
123.812
121.108
118.768
117.059
115.947
115.154
114.494
113.956
113.637
113.425
113.323
113.34
113.212
113.195
113.158
113.3
113.264
113.223
112.97
112.928
112.58
112.986
122.405
134.53
136.515
134.475
132.834
132.063
132.124
134.758
141.051
149.252
156.276
160.286
162.968
165.88
168.573
170.93
172.881
173.976
174.679
176.867
182.055
189.705
198.603
207.231
214.171
218.825
221.725
223.562
224.644
225.184
225.335
225.208
224.885
224.426
223.879
223.283
222.67
222.059
221.523
220.487
132.549
130.102
128.627
126.511
123.836
121.096
118.767
117.029
115.973
115.174
114.499
113.962
113.627
113.404
113.292
113.327
113.238
113.195
113.124
113.243
113.273
113.269
112.994
113.007
112.621
112.638
117.853
132.297
136.665
135.737
133.992
133.25
133.125
135.261
140.851
148.794
156.504
160.825
163.456
166.371
169.114
171.499
173.474
174.639
175.372
177.446
182.531
190.176
199.173
208.018
215.216
220.125
223.149
225.043
226.163
226.723
226.879
226.748
226.413
225.939
225.372
224.75
224.106
223.467
222.852
222.331
221.33
132.562
130.098
128.627
126.497
123.877
121.095
118.752
117.005
115.991
115.189
114.506
113.964
113.64
113.399
113.262
113.306
113.246
113.222
113.108
113.184
113.277
113.305
113.029
113.064
112.706
112.566
114.698
128.748
136.69
137.074
135.245
134.533
134.279
135.877
140.777
148.32
156.331
161.367
163.961
166.861
169.644
172.071
174.063
175.269
176.05
178.036
182.999
190.646
199.741
208.799
216.254
221.422
224.595
226.537
227.689
228.271
228.439
228.308
227.965
227.474
226.887
226.241
225.567
224.894
224.248
223.642
223.149
222.199
132.596
130.098
128.627
126.478
123.909
121.096
118.71
116.99
116.003
115.189
114.5
113.968
113.654
113.411
113.247
113.27
113.249
113.254
113.126
113.149
113.234
113.321
113.089
113.1
112.799
112.558
113.068
124.594
135.686
138.263
136.592
135.917
135.557
136.757
140.77
147.906
156.181
161.892
164.486
167.354
170.163
172.641
174.652
175.871
176.693
178.63
183.464
191.106
200.308
209.566
217.285
222.714
226.04
228.039
229.23
229.835
230.014
229.886
229.536
229.032
228.424
227.754
227.053
226.347
225.662
225.022
224.439
223.987
223.105
132.602
130.121
128.639
126.454
123.927
121.079
118.683
116.992
116.004
115.179
114.483
113.956
113.662
113.427
113.27
113.249
113.236
113.269
113.165
113.142
113.176
113.306
113.168
113.124
112.853
112.562
112.447
120.319
134.06
139.152
138.017
137.408
136.96
137.781
141.102
147.629
155.981
162.33
165.024
167.858
170.671
173.202
175.239
176.45
177.287
179.207
183.929
191.543
200.861
210.322
218.3
224
227.473
229.549
230.786
231.414
231.604
231.479
231.126
230.609
229.983
229.289
228.56
227.824
227.103
226.42
225.8
225.254
224.855
224.054
132.6
130.109
128.679
126.466
123.914
121.046
118.655
117.008
116.005
115.16
114.455
113.945
113.662
113.44
113.279
113.239
113.214
113.258
113.215
113.139
113.118
113.283
113.233
113.143
112.864
112.725
112.284
116.931
131.3
139.476
139.573
139.017
138.477
138.969
141.573
147.502
155.749
162.608
165.565
168.375
171.172
173.745
175.816
177.006
177.827
179.736
184.387
191.955
201.382
211.061
219.299
225.263
228.889
231.059
232.35
233.008
233.211
233.088
232.731
232.206
231.564
230.847
230.09
229.323
228.568
227.847
227.18
226.593
226.096
225.76
225.056
132.624
130.087
128.695
126.49
123.876
120.993
118.612
117.02
116.013
115.147
114.424
113.928
113.662
113.434
113.278
113.23
113.198
113.243
113.235
113.162
113.09
113.224
113.27
113.173
112.858
112.861
112.251
114.783
127.938
139.285
141.341
140.752
140.106
140.3
142.289
147.627
155.372
162.715
166.108
168.909
171.668
174.264
176.366
177.53
178.309
180.191
184.81
192.348
201.851
211.77
220.28
226.487
230.29
232.556
233.909
234.608
234.833
234.715
234.353
233.819
233.163
232.427
231.644
230.845
230.056
229.298
228.589
227.951
227.409
226.973
226.712
226.117
132.769
130.112
128.693
126.502
123.821
120.957
118.587
117.019
116.008
115.134
114.395
113.909
113.661
113.44
113.279
113.217
113.183
113.203
113.239
113.188
113.073
113.143
113.279
113.211
112.847
112.954
112.351
113.773
124.382
138.081
143.156
142.578
141.842
141.761
143.19
147.825
154.965
162.757
166.652
169.452
172.159
174.749
176.869
178.009
178.732
180.555
185.162
192.712
202.269
212.418
221.228
227.673
231.677
234.046
235.454
236.203
236.459
236.355
235.993
235.449
234.78
234.026
233.22
232.392
231.569
230.772
230.023
229.339
228.742
228.255
227.892
227.716
227.244
132.837
130.222
128.692
126.457
123.73
120.923
118.584
116.995
115.987
115.125
114.386
113.89
113.654
113.453
113.285
113.199
113.178
113.176
113.211
113.208
113.097
113.088
113.275
113.244
112.845
113.006
112.741
113.479
121.182
136.283
144.633
144.469
143.687
143.342
144.274
148.167
154.57
162.791
167.126
169.986
172.643
175.189
177.302
178.42
179.086
180.829
185.409
193.021
202.647
212.99
222.117
228.811
233.025
235.513
236.987
237.783
238.079
238
237.647
237.097
236.414
235.643
234.817
233.962
233.106
232.272
231.481
230.753
230.106
229.56
229.141
228.861
228.78
228.441
132.808
130.254
128.72
126.415
123.626
120.876
118.587
116.972
115.94
115.103
114.389
113.882
113.633
113.448
113.298
113.187
113.167
113.161
113.202
113.188
113.133
113.07
113.157
113.261
112.928
113.048
113.201
113.414
118.911
134.049
145.613
146.465
145.653
145.036
145.489
148.6
154.233
162.764
167.473
170.482
173.109
175.573
177.64
178.745
179.36
181.018
185.545
193.241
202.985
213.501
222.911
229.883
234.322
236.939
238.494
239.347
239.683
239.638
239.304
238.759
238.067
237.278
236.43
235.552
234.666
233.796
232.964
232.192
231.496
230.896
230.414
230.073
229.886
229.909
229.712
132.99
130.122
128.708
126.402
123.562
120.81
118.584
116.94
115.921
115.069
114.382
113.887
113.606
113.431
113.308
113.2
113.143
113.152
113.184
113.171
113.157
113.078
113.063
113.228
113.064
113.107
113.695
113.637
117.721
131.256
145.331
148.609
147.742
146.84
146.812
149.199
154.402
162.652
167.666
170.926
173.542
175.886
177.865
178.971
179.548
181.136
185.594
193.36
203.267
213.956
223.597
230.863
235.56
238.312
239.959
240.883
241.27
241.259
240.953
240.425
239.734
238.932
238.063
237.161
236.248
235.345
234.474
233.656
232.912
232.26
231.719
231.31
231.057
230.974
231.108
231.059
133.488
130.127
128.558
126.388
123.553
120.767
118.556
116.89
115.916
115.058
114.361
113.889
113.602
113.387
113.285
113.227
113.133
113.118
113.172
113.153
113.144
113.091
112.986
113.175
113.251
113.213
114.115
114.009
117.302
128.563
144.768
150.905
149.924
148.744
148.236
149.985
154.579
162.213
167.794
171.307
173.919
176.11
177.976
179.094
179.65
181.197
185.609
193.42
203.456
214.346
224.219
231.737
236.712
239.631
241.368
242.374
242.826
242.861
242.587
242.082
241.404
240.6
239.716
238.789
237.848
236.916
236.009
235.148
234.356
233.651
233.053
232.58
232.255
232.101
232.13
232.38
232.483
133.566
130.55
128.549
126.231
123.57
120.766
118.533
116.84
115.917
115.056
114.341
113.868
113.606
113.373
113.22
113.238
113.145
113.083
113.156
113.158
113.131
113.123
112.94
113.114
113.462
113.379
114.523
114.873
117.588
126.457
143.43
152.924
152.162
150.741
149.753
150.924
154.962
161.77
167.85
171.579
174.191
176.226
177.998
179.12
179.675
181.115
185.404
193.167
203.53
214.672
224.768
232.534
237.728
240.871
242.723
243.807
244.335
244.432
244.2
243.723
243.065
242.271
241.383
240.437
239.469
238.505
237.565
236.666
235.827
235.07
234.415
233.881
233.487
233.256
233.208
233.356
233.726
233.982
134.294
130.705
129.18
126.21
123.502
120.842
118.546
116.815
115.925
115.054
114.326
113.825
113.583
113.386
113.181
113.205
113.184
113.079
113.115
113.169
113.118
113.076
113.029
113.098
113.662
113.651
115.012
115.86
118.02
125.322
141.853
154.356
154.421
152.832
151.361
151.997
155.449
161.269
167.776
171.692
174.323
176.285
177.991
179.107
179.618
181.043
185.24
192.973
203.347
214.882
225.252
233.281
238.63
241.962
244.006
245.185
245.785
245.954
245.78
245.344
244.711
243.934
243.053
242.1
241.111
240.117
239.142
238.206
237.325
236.517
235.805
235.21
234.75
234.446
234.317
234.384
234.656
235.148
235.555
153.355
135.996
129.46
126.764
123.491
120.881
118.612
116.824
115.929
115.043
114.313
113.811
113.521
113.388
113.179
113.123
113.18
113.1
113.038
113.165
113.089
112.995
113.155
113.125
113.81
114.071
115.634
117.032
119.092
124.851
139.816
155.038
156.738
155.02
153.06
153.182
156.028
160.774
167.568
171.665
174.348
176.299
177.826
178.803
179.409
180.834
184.993
192.685
203.159
214.886
225.751
233.892
239.538
242.916
245.133
246.497
247.178
247.415
247.311
246.93
246.335
245.582
244.715
243.767
242.768
241.749
240.741
239.768
238.846
237.992
237.226
236.569
236.044
235.668
235.462
235.444
235.631
236.029
236.642
237.197
155.576
151.546
135.722
127.418
124.123
120.896
118.665
116.919
115.919
115.018
114.305
113.811
113.493
113.338
113.219
113.092
113.137
113.199
113.029
113.067
113.181
112.979
113.227
113.231
113.988
114.688
116.454
118.351
120.457
125.546
137.756
154.856
159.104
157.286
154.85
154.456
156.642
160.32
167.041
171.59
174.313
176.152
177.592
178.499
179.115
180.572
184.705
192.369
202.881
214.793
225.908
234.698
240.277
243.906
246.113
247.646
248.505
248.817
248.779
248.466
247.925
247.208
246.361
245.425
244.428
243.398
242.363
241.352
240.39
239.492
238.675
237.96
237.369
236.922
236.64
236.541
236.64
236.951
237.476
238.207
238.904
155.569
154.572
150.65
135.128
125.358
121.607
118.574
117.017
115.986
114.98
114.283
113.801
113.502
113.278
113.223
113.102
113.037
113.205
113.091
112.905
113.23
112.999
113.228
113.565
114.336
115.504
117.507
119.791
122.123
126.141
136.21
154.521
161.254
159.603
156.736
155.77
157.251
159.937
166.402
171.035
173.845
175.88
177.3
178.137
178.788
180.296
184.426
192.059
202.599
214.649
226.007
235.046
241.28
244.718
247.138
248.64
249.668
250.152
250.185
249.938
249.463
248.798
247.987
247.069
246.081
245.05
244
242.96
241.957
241.015
240.151
239.381
238.726
238.209
237.851
237.671
237.686
237.907
238.344
238.995
239.84
240.674
155.635
154.582
152.497
148.29
134.524
123.639
119.108
116.98
116.067
114.975
114.249
113.765
113.519
113.274
113.153
113.167
113.037
113.107
113.216
112.815
113.207
113.201
113.241
114.063
114.909
116.55
118.788
121.358
123.88
127.06
134.951
153.697
162.804
161.924
158.712
157.093
157.871
159.633
165.544
170.498
173.405
175.534
177.009
177.796
178.452
180.02
184.158
191.776
202.337
214.505
226.071
235.355
241.801
245.811
247.983
249.683
250.669
251.321
251.523
251.346
250.937
250.337
249.576
248.692
247.72
246.696
245.643
244.585
243.549
242.563
241.65
240.828
240.114
239.529
239.096
238.836
238.766
238.9
239.246
239.809
240.583
241.538
242.503
155.681
154.643
152.468
149.751
146.54
134.373
122.867
118.092
116.051
115.125
114.225
113.717
113.477
113.322
113.147
113.15
113.158
112.927
113.255
112.86
113.091
113.707
113.413
114.731
115.81
117.841
120.291
123.046
125.727
128.42
135.268
152.535
163.587
164.255
160.782
158.39
158.457
159.414
164.511
169.728
172.828
175.139
176.73
177.499
178.132
179.75
183.898
191.524
202.113
214.391
226.134
235.633
242.288
246.456
249.107
250.547
251.721
252.326
252.695
252.684
252.344
251.811
251.114
250.278
249.338
248.328
247.279
246.215
245.158
244.135
243.175
242.301
241.53
240.881
240.375
240.035
239.881
239.928
240.185
240.658
241.345
242.238
243.299
244.391
155.673
154.692
152.525
149.74
147.024
145.113
135.012
123.383
117.641
115.332
114.449
113.717
113.443
113.32
113.229
113.015
113.224
112.884
113.124
113.4
113.096
114.164
114.033
115.61
117.071
119.38
122.002
124.86
127.655
130.115
135.664
150.849
163.93
166.557
162.964
159.64
158.931
159.12
163.346
168.843
172.202
174.703
176.465
177.252
177.838
179.479
183.638
191.293
201.925
214.32
226.227
235.91
242.752
247.067
249.812
251.677
252.593
253.381
253.701
253.854
253.68
253.216
252.586
251.813
250.92
249.94
248.903
247.84
246.774
245.727
244.727
243.801
242.973
242.263
241.688
241.27
241.032
240.991
241.159
241.542
242.141
242.949
243.957
245.121
246.338
155.632
154.665
152.553
149.803
147.053
145.426
145.756
136.368
125.012
118.227
115.163
114.124
113.526
113.233
113.283
113.026
113.121
113.309
113.03
113.876
113.145
114.675
115.041
116.813
118.681
121.173
123.91
126.805
129.651
132.052
136.715
148.892
164.049
168.639
165.1
160.768
159.24
158.903
162.139
167.861
171.558