/*--------------------------------*- C++ -*----------------------------------*\
| =========                 |                                                 |
| \\      /  F ield         | OpenFOAM: The Open Source CFD Toolbox           |
|  \\    /   O peration     | Version:  v2012                                 |
|   \\  /    A nd           | Website:  www.openfoam.com                      |
|    \\/     M anipulation  |                                                 |
\*---------------------------------------------------------------------------*/
FoamFile
{
    version     2.0;
    format      ascii;
    class       volScalarField;
    location    "12000";
    object      TuM;
}
// * * * * * * * * * * * * * * * * * * * * * * * * * * * * * * * * * * * * * //

dimensions      [0 0 0 0 0 0 0];


internalField   nonuniform List<scalar> 
27324
(
0.00755137
0.0073513
0.0143532
0.0071624
0.0142312
0.0150975
0.00695994
0.0141199
0.0147815
0.0117241
0.00675165
0.0139752
0.0144663
0.0113079
0.00727437
0.00653641
0.0137993
0.0141121
0.0108796
0.00694932
0.00398902
0.00631651
0.0135819
0.0137273
0.0104242
0.00659487
0.00379794
0.00209306
0.00609449
0.0133209
0.0133085
0.00996038
0.00622383
0.00357245
0.00199039
0.00109543
0.00587332
0.01302
0.0128599
0.00949377
0.00585678
0.00333597
0.00186174
0.00104149
0.000590369
0.00565431
0.0126865
0.0123859
0.00903166
0.00550387
0.00310468
0.00172648
0.000972003
0.000563086
0.000340403
0.00543697
0.0123193
0.011889
0.0085725
0.00517145
0.00288768
0.00159531
0.000899258
0.000527674
0.000327153
0.000216514
0.00522066
0.0119099
0.0113674
0.0081035
0.00485269
0.0026893
0.00147435
0.000829694
0.000490871
0.000310086
0.000210114
0.000150836
0.00500477
0.0114484
0.0108155
0.00761747
0.00452662
0.00250311
0.00136614
0.000766737
0.000456263
0.000292405
0.000202022
0.000147522
0.00011165
0.00478882
0.0109257
0.0102261
0.00711284
0.00418586
0.00231239
0.00126656
0.000711625
0.000425483
0.00027599
0.000193529
0.000143424
0.000109686
8.52203e-05
0.00457063
0.0103309
0.00958898
0.00658979
0.0038338
0.00211302
0.00116559
0.000661955
0.000398987
0.000261512
0.000185628
0.000138974
0.00010732
8.38771e-05
6.59528e-05
0.00434635
0.00963738
0.00889029
0.00604602
0.00347769
0.00191024
0.00106139
0.000612373
0.000375493
0.000249121
0.000178576
0.000134732
0.000104647
8.23074e-05
6.49555e-05
5.14364e-05
0.00411179
0.00882526
0.00812159
0.00547956
0.00312193
0.00171176
0.000957749
0.00056197
0.000352407
0.000238199
0.000172437
0.000130815
0.000102004
8.0487e-05
6.38303e-05
5.06763e-05
4.04221e-05
0.00386674
0.0078917
0.00728788
0.00491869
0.00277078
0.00152215
0.000859403
0.000512803
0.00032929
0.000227558
0.000166942
0.000127269
9.94759e-05
7.86191e-05
6.25089e-05
4.98472e-05
3.9845e-05
3.20316e-05
0.00361621
0.00685044
0.00640592
0.00438852
0.0024585
0.00134443
0.000768842
0.00046727
0.000307067
0.000216941
0.000161538
0.000123983
9.70887e-05
7.67704e-05
6.1113e-05
4.88774e-05
3.92248e-05
3.15989e-05
2.5758e-05
0.00330963
0.00571808
0.00549625
0.00388941
0.0022041
0.00119898
0.000687234
0.000426502
0.000286789
0.000206674
0.00015605
0.00012069
9.47985e-05
7.49665e-05
5.96927e-05
4.78268e-05
3.85195e-05
3.11172e-05
2.54396e-05
2.12569e-05
0.00286327
0.00446211
0.00459288
0.00341342
0.00199458
0.00109255
0.000623597
0.000390823
0.000268892
0.000197192
0.000150561
0.000117269
9.24817e-05
7.31843e-05
5.82733e-05
4.67339e-05
3.77359e-05
3.06031e-05
2.50545e-05
2.10078e-05
1.82221e-05
0.00216218
0.00357859
0.00371424
0.00299706
0.00181144
0.00101323
0.000579285
0.000363682
0.000253459
0.000188668
0.000145276
0.000113719
9.00614e-05
7.13737e-05
5.68481e-05
4.56194e-05
3.69017e-05
3.00229e-05
2.46825e-05
2.06785e-05
1.79467e-05
1.63955e-05
0.00135597
0.00291792
0.00315246
0.00264576
0.00168838
0.000947781
0.000547721
0.000345195
0.00024172
0.000181204
0.000140309
0.000110162
8.75134e-05
6.94907e-05
5.54046e-05
4.44916e-05
3.60359e-05
2.93881e-05
2.42694e-05
2.04081e-05
1.7611e-05
1.6155e-05
1.55106e-05
0.00119681
0.00241107
0.00277025
0.00245522
0.00158899
0.000916513
0.000522075
0.000332569
0.000233709
0.0001753
0.000135817
0.000106701
8.49156e-05
6.75095e-05
5.39292e-05
4.33541e-05
3.51534e-05
2.87175e-05
2.3815e-05
2.01242e-05
1.74031e-05
1.57315e-05
1.52989e-05
1.49196e-05
0.00116617
0.00229717
0.00238008
0.00251307
0.00162859
0.000888618
0.000512926
0.000322807
0.000228433
0.000171093
0.000132035
0.000103517
8.23655e-05
6.5473e-05
5.2411e-05
4.22116e-05
3.42661e-05
2.80308e-05
2.33268e-05
1.98193e-05
1.71864e-05
1.55076e-05
1.49182e-05
1.46802e-05
1.71744e-05
0.0011526
0.00226792
0.00223643
0.00251794
0.00186664
0.000964893
0.000507003
0.000320166
0.000224688
0.000168276
0.000129159
0.000100713
8.00391e-05
6.34564e-05
5.08623e-05
4.10686e-05
3.33829e-05
2.7341e-05
2.28225e-05
1.94789e-05
1.69838e-05
1.53543e-05
1.46018e-05
1.43235e-05
1.65142e-05
2.70748e-05
0.00113986
0.00224839
0.00218824
0.00245926
0.00210544
0.00117593
0.000562368
0.000321543
0.000223539
0.000166615
0.000127114
9.849e-05
7.796e-05
6.16042e-05
4.93296e-05
3.992e-05
3.25151e-05
2.66538e-05
2.23162e-05
1.91195e-05
1.67717e-05
1.52368e-05
1.43621e-05
1.40147e-05
1.55809e-05
2.43468e-05
4.46265e-05
0.00112499
0.00222235
0.00215203
0.00241448
0.00212396
0.00143815
0.00069347
0.000356536
0.00022712
0.000165287
0.000126059
9.69119e-05
7.62712e-05
5.99235e-05
4.79197e-05
3.87799e-05
3.16688e-05
2.59763e-05
2.18218e-05
1.87681e-05
1.65607e-05
1.51384e-05
1.42215e-05
1.36925e-05
1.46442e-05
2.11287e-05
3.80865e-05
7.28218e-05
0.00110752
0.00218926
0.00211266
0.00237199
0.0020936
0.00149019
0.000870906
0.000431027
0.000251122
0.000170149
0.000124954
9.59885e-05
7.51254e-05
5.85149e-05
4.66938e-05
3.77206e-05
3.08391e-05
2.53496e-05
2.13538e-05
1.84417e-05
1.6353e-05
1.50308e-05
1.39886e-05
1.33025e-05
1.37475e-05
1.85102e-05
3.16721e-05
6.12287e-05
0.000122997
0.00108839
0.00214933
0.00207503
0.00233216
0.00205677
0.00147979
0.000910428
0.000533987
0.00029701
0.000188316
0.000130262
9.61517e-05
7.36856e-05
5.74873e-05
4.56059e-05
3.68124e-05
3.00497e-05
2.47592e-05
2.09226e-05
1.81413e-05
1.60902e-05
1.47043e-05
1.36665e-05
1.28493e-05
1.29531e-05
1.62931e-05
2.66029e-05
5.13697e-05
0.000104695
0.000211253
0.0010686
0.00210611
0.00203923
0.00229762
0.00202057
0.00145911
0.000911293
0.000548389
0.000359329
0.00022031
0.000143891
0.00010136
7.4958e-05
5.70481e-05
4.44324e-05
3.55922e-05
2.90881e-05
2.39682e-05
2.02996e-05
1.76001e-05
1.5625e-05
1.42496e-05
1.32215e-05
1.24131e-05
1.22965e-05
1.4528e-05
2.25835e-05
4.31503e-05
8.87093e-05
0.000181956
0.000362502
0.00104909
0.00206296
0.00200728
0.00226647
0.00198596
0.00143602
0.00090399
0.00055094
0.000374757
0.000263924
0.000166295
0.000111576
7.95603e-05
5.88718e-05
4.48467e-05
3.50684e-05
2.81216e-05
2.30533e-05
1.95187e-05
1.69428e-05
1.50339e-05
1.37292e-05
1.28181e-05
1.20944e-05
1.18253e-05
1.32422e-05
1.9433e-05
3.6212e-05
7.48805e-05
0.000155887
0.000316233
0.000616418
0.00103072
0.00202344
0.00197995
0.00223881
0.00195214
0.00141303
0.000892563
0.000549539
0.000373964
0.000282492
0.000196151
0.000127313
8.74129e-05
6.26412e-05
4.648e-05
3.56583e-05
2.81759e-05
2.28914e-05
1.91445e-05
1.65026e-05
1.46682e-05
1.33867e-05
1.25368e-05
1.18725e-05
1.15558e-05
1.23523e-05
1.69005e-05
3.04303e-05
6.29559e-05
0.000132898
0.000274257
0.000544577
0.00103242
0.00101435
0.00199054
0.00195703
0.00221332
0.00191926
0.00139071
0.000881197
0.000544963
0.000373309
0.000276986
0.000215324
0.000147315
9.85276e-05
6.86215e-05
4.95312e-05
3.70402e-05
2.86747e-05
2.29559e-05
1.90094e-05
1.6279e-05
1.44458e-05
1.31699e-05
1.23606e-05
1.18397e-05
1.15033e-05
1.17654e-05
1.48963e-05
2.5642e-05
5.27274e-05
0.000112706
0.000236612
0.000478438
0.000923067
0.00169715
0.00100038
0.00196518
0.00193704
0.00218768
0.00188679
0.00136959
0.000870219
0.000539505
0.000371289
0.000276411
0.00021287
0.000164681
0.000111939
7.68717e-05
5.42851e-05
3.96524e-05
2.98659e-05
2.34628e-05
1.91672e-05
1.62698e-05
1.43675e-05
1.31535e-05
1.23859e-05
1.18781e-05
1.15144e-05
1.1448e-05
1.34037e-05
2.17103e-05
4.40197e-05
9.50777e-05
0.000203006
0.000418185
0.00082136
0.00153428
0.00274216
0.000988656
0.00194587
0.00191697
0.00215904
0.00185376
0.00134952
0.000860019
0.00053376
0.000368563
0.000275403
0.000211896
0.000165533
0.000125826
8.59951e-05
5.97769e-05
4.30124e-05
3.18011e-05
2.45228e-05
1.97591e-05
1.6598e-05
1.45439e-05
1.3252e-05
1.24477e-05
1.19234e-05
1.15452e-05
1.13155e-05
1.23499e-05
1.85114e-05
3.6662e-05
7.98007e-05
0.000173199
0.000363517
0.000727359
0.00138195
0.00250481
0.00434161
0.000977698
0.00192915
0.00189391
0.00212512
0.00182011
0.00133
0.000850655
0.000528066
0.000365725
0.000274101
0.000211327
0.000162805
0.000129681
9.61622e-05
6.60715e-05
4.67438e-05
3.40352e-05
2.57778e-05
2.04411e-05
1.69717e-05
1.47436e-05
1.33597e-05
1.25153e-05
1.19755e-05
1.15849e-05
1.1282e-05
1.16522e-05
1.59481e-05
3.05037e-05
6.66351e-05
0.000146951
0.000314193
0.000640897
0.0012393
0.0022816
0.00400423
0.00674578
0.000965562
0.00191144
0.00186594
0.00208615
0.00178675
0.00131098
0.000841566
0.000522782
0.000363005
0.000272821
0.000210585
0.000162301
0.000127305
0.000102256
7.27685e-05
5.11147e-05
3.65782e-05
2.72466e-05
2.12317e-05
1.73977e-05
1.49754e-05
1.34832e-05
1.25852e-05
1.20245e-05
1.16255e-05
1.12932e-05
1.12765e-05
1.39865e-05
2.53932e-05
5.53739e-05
0.000123964
0.000270008
0.000561663
0.00110643
0.00207002
0.00368757
0.00627835
0.0102869
0.000951305
0.00188961
0.00183279
0.00204456
0.00175451
0.00129282
0.000832522
0.000517815
0.000360646
0.000271635
0.000209834
0.000161768
0.000126619
0.000101441
7.88223e-05
5.55002e-05
3.94394e-05
2.89173e-05
2.21537e-05
1.78705e-05
1.52228e-05
1.36136e-05
1.26573e-05
1.20727e-05
1.16647e-05
1.13219e-05
1.11093e-05
1.25949e-05
2.12007e-05
4.58041e-05
0.000103966
0.000230662
0.000489456
0.000983149
0.00187126
0.00338406
0.00584179
0.00965556
0.0154082
0.000934685
0.00186084
0.00179402
0.00200161
0.00172358
0.0012755
0.000823661
0.000513207
0.000358596
0.000270655
0.000209093
0.000161223
0.000126321
9.97018e-05
8.00982e-05
6.02252e-05
4.25963e-05
3.07711e-05
2.32255e-05
1.84147e-05
1.54935e-05
1.37523e-05
1.27322e-05
1.21202e-05
1.17056e-05
1.13559e-05
1.10565e-05
1.16773e-05
1.7822e-05
3.77379e-05
8.66653e-05
0.000195874
0.000423996
0.000869309
0.00168458
0.00309633
0.00541891
0.00906954
0.0145703
0.0227099
0.000916416
0.00182711
0.00175391
0.0019605
0.00169491
0.00125901
0.000815223
0.000509097
0.000356817
0.000269831
0.000208447
0.000160682
0.000126013
9.94122e-05
7.86152e-05
6.31569e-05
4.57999e-05
3.28416e-05
2.44306e-05
1.9057e-05
1.57977e-05
1.39021e-05
1.2812e-05
1.21684e-05
1.17445e-05
1.13933e-05
1.10571e-05
1.11634e-05
1.51852e-05
3.09997e-05
7.18004e-05
0.000165285
0.000365109
0.000764553
0.00151022
0.00282363
0.00501568
0.00849654
0.0138
0.0216053
0.0330392
0.000897954
0.00179251
0.0017169
0.00192472
0.00166887
0.00124373
0.00080759
0.000505572
0.000355294
0.000269127
0.000207888
0.000160213
0.000125713
9.91834e-05
7.80118e-05
6.2643e-05
4.88362e-05
3.50181e-05
2.57507e-05
1.98045e-05
1.61522e-05
1.40647e-05
1.28966e-05
1.22183e-05
1.17832e-05
1.14308e-05
1.10805e-05
1.09176e-05
1.32633e-05
2.54269e-05
5.91182e-05
0.000138569
0.000312455
0.000668639
0.00134779
0.00256607
0.00463065
0.007948
0.0130412
0.0206022
0.0315789
0.0476188
0.000881119
0.00176
0.00168538
0.00189359
0.00164509
0.00122943
0.000800951
0.00050275
0.000354058
0.000268545
0.000207405
0.000159836
0.000125451
9.89643e-05
7.78115e-05
6.14495e-05
4.98611e-05
3.71419e-05
2.7239e-05
2.06379e-05
1.65753e-05
1.42458e-05
1.29854e-05
1.22699e-05
1.18211e-05
1.14688e-05
1.11126e-05
1.08228e-05
1.19692e-05
2.08962e-05
4.83675e-05
0.000115395
0.000265676
0.000581218
0.00119723
0.00232333
0.00426403
0.00742143
0.0123136
0.0196088
0.030268
0.0456888
0.0680357
0.000865603
0.00173133
0.00165885
0.0018645
0.00162188
0.00121573
0.000794966
0.000500704
0.000353182
0.000268112
0.000207006
0.00015954
0.000125256
9.87572e-05
7.76148e-05
6.11744e-05
4.90852e-05
3.88576e-05
2.85776e-05
2.15585e-05
1.707e-05
1.44578e-05
1.30785e-05
1.23229e-05
1.18591e-05
1.15058e-05
1.1148e-05
1.0802e-05
1.12013e-05
1.73117e-05
3.93348e-05
9.5407e-05
0.000224405
0.000502064
0.00105818
0.00209541
0.00391528
0.00691732
0.0116131
0.0186573
0.0289639
0.0439665
0.0655463
0.0958348
0.000851946
0.00170873
0.00163477
0.00183527
0.00159782
0.001202
0.000789273
0.000498814
0.000352761
0.000267879
0.000206712
0.000159329
0.000125121
9.85983e-05
7.74365e-05
6.10217e-05
4.81832e-05
3.90488e-05
2.9971e-05
2.25459e-05
1.76194e-05
1.47163e-05
1.31792e-05
1.23767e-05
1.18973e-05
1.15421e-05
1.11852e-05
1.08142e-05
1.08024e-05
1.46129e-05
3.18164e-05
7.82923e-05
0.000188213
0.000430885
0.000930364
0.00188199
0.00358441
0.00643494
0.0109406
0.0177412
0.0277174
0.0422411
0.0633231
0.0928408
0.131005
0.000838821
0.0016896
0.0016112
0.00180488
0.00157229
0.00118784
0.0007835
0.000497049
0.000352586
0.000267865
0.00020655
0.000159213
0.000125044
9.8484e-05
7.72945e-05
6.08787e-05
4.80268e-05
3.83589e-05
3.0907e-05
2.34009e-05
1.82257e-05
1.50247e-05
1.32966e-05
1.24307e-05
1.19358e-05
1.15779e-05
1.12221e-05
1.08394e-05
1.06235e-05
1.2729e-05
2.56546e-05
6.37252e-05
0.000156713
0.000367248
0.000813406
0.00168312
0.00327095
0.00597426
0.0102951
0.0168617
0.026519
0.0405906
0.0610666
0.0901423
0.127866
0.170104
0.000824689
0.00166884
0.00158352
0.00177157
0.00154543
0.00117261
0.000777278
0.000495412
0.000352709
0.000268032
0.000206566
0.000159216
0.000125032
9.8418e-05
7.71957e-05
6.07604e-05
4.79288e-05
3.78288e-05
3.0829e-05
2.42189e-05
1.88813e-05
1.53683e-05
1.34442e-05
1.24861e-05
1.19737e-05
1.16134e-05
1.12591e-05
1.08707e-05
1.05588e-05
1.1543e-05
2.07164e-05
5.14313e-05
0.000129452
0.000310818
0.000706834
0.00149837
0.00297491
0.00553455
0.00967665
0.0160174
0.0253711
0.0390028
0.058893
0.087344
0.125042
0.167426
0.207218
0.000807912
0.00164321
0.00155104
0.00173632
0.00151825
0.00115621
0.000770151
0.000493812
0.000353069
0.000268329
0.000206668
0.000159351
0.000125099
9.84053e-05
7.71448e-05
6.06782e-05
4.78445e-05
3.7723e-05
3.02915e-05
2.47352e-05
1.93674e-05
1.5741e-05
1.36276e-05
1.25483e-05
1.20099e-05
1.16488e-05
1.1295e-05
1.09044e-05
1.05477e-05
1.08787e-05
1.69115e-05
4.11492e-05
0.000106027
0.000261125
0.000610247
0.00132743
0.0026962
0.00511564
0.00908422
0.0152082
0.0242717
0.0374829
0.0567876
0.084614
0.12201
0.165109
0.205342
0.237428
0.000788084
0.00161028
0.00151693
0.00170095
0.00149186
0.0011389
0.000762125
0.000492012
0.000353514
0.000268702
0.000206866
0.000159569
0.00012525
9.8455e-05
7.71423e-05
6.06363e-05
4.7785e-05
3.76581e-05
2.99274e-05
2.45908e-05
1.98633e-05
1.61385e-05
1.38355e-05
1.26289e-05
1.20439e-05
1.16836e-05
1.13307e-05
1.09389e-05
1.05599e-05
1.05488e-05
1.41529e-05
3.26697e-05
8.60114e-05
0.000217736
0.000523139
0.00116997
0.00243456
0.00471734
0.00851754
0.014433
0.0232208
0.03603
0.0547613
0.0819363
0.118996
0.162477
0.203939
0.236665
0.257228
0.000766159
0.00157144
0.00148155
0.00166645
0.00146645
0.00112144
0.000752706
0.000489948
0.000353835
0.000269053
0.000207114
0.000159857
0.000125454
9.85648e-05
7.71889e-05
6.06355e-05
4.77572e-05
3.76088e-05
2.98671e-05
2.41608e-05
2.01305e-05
1.64466e-05
1.40568e-05
1.27366e-05
1.20775e-05
1.17166e-05
1.13662e-05
1.09735e-05
1.05807e-05
1.04047e-05
1.23266e-05
2.57981e-05
6.90601e-05
0.000180101
0.000445072
0.00102543
0.00218996
0.00433913
0.00797609
0.0136914
0.0222169
0.034645
0.0528161
0.0793256
0.115977
0.159809
0.202169
0.236447
0.257621
0.267305
0.000744801
0.001532
0.00144884
0.00163482
0.00144169
0.00110391
0.000742871
0.000487291
0.000353873
0.00026925
0.000207361
0.00016018
0.0001257
9.87142e-05
7.72799e-05
6.06712e-05
4.77641e-05
3.75823e-05
2.98416e-05
2.38271e-05
1.99948e-05
1.66681e-05
1.43025e-05
1.28655e-05
1.21182e-05
1.17465e-05
1.14019e-05
1.10074e-05
1.06071e-05
1.03529e-05
1.12425e-05
2.04017e-05
5.4879e-05
0.000147669
0.000375586
0.00089339
0.00196199
0.00398111
0.00745899
0.0129826
0.0212595
0.0333267
0.0509566
0.0767868
0.112973
0.157074
0.200356
0.235846
0.258694
0.268359
0.270811
0.000725529
0.00149521
0.00142036
0.00160609
0.00141814
0.00108719
0.000733016
0.000484395
0.000353596
0.000269239
0.000207524
0.000160498
0.000125966
9.8894e-05
7.73978e-05
6.07403e-05
4.77972e-05
3.7582e-05
2.98276e-05
2.37853e-05
1.96457e-05
1.67752e-05
1.45002e-05
1.30018e-05
1.21769e-05
1.17731e-05
1.14369e-05
1.10417e-05
1.06344e-05
1.03434e-05
1.06678e-05
1.63808e-05
4.30993e-05
0.000119799
0.000314234
0.000773237
0.00175038
0.00364292
0.00696609
0.0123057
0.020348
0.0320751
0.0491847
0.0743312
0.109994
0.154294
0.19846
0.235178
0.259452
0.270229
0.272205
0.270164
0.000707694
0.00146116
0.00139451
0.00157833
0.00139447
0.00107155
0.000724464
0.000481574
0.000353089
0.000268963
0.000207554
0.000160762
0.000126223
9.90884e-05
7.75348e-05
6.08191e-05
4.78511e-05
3.76017e-05
2.98276e-05
2.37724e-05
1.93401e-05
1.6621e-05
1.45844e-05
1.31454e-05
1.22567e-05
1.17993e-05
1.14702e-05
1.10764e-05
1.06618e-05
1.0352e-05
1.03957e-05
1.36104e-05
3.34518e-05
9.60835e-05
0.000260524
0.000664539
0.00155445
0.00332463
0.00649676
0.0116599
0.0194807
0.0308896
0.0475027
0.0719657
0.107054
0.151472
0.196505
0.234409
0.260156
0.271879
0.274463
0.271718
0.266993
0.00069053
0.00142969
0.00136977
0.00155011
0.00137053
0.00105669
0.000717059
0.000479824
0.000352506
0.000268516
0.000207444
0.000160932
0.000126438
9.92784e-05
7.76796e-05
6.09093e-05
4.79129e-05
3.76348e-05
2.98403e-05
2.37617e-05
1.92963e-05
1.63054e-05
1.45802e-05
1.32848e-05
1.23462e-05
1.18337e-05
1.15006e-05
1.11113e-05
1.06895e-05
1.03654e-05
1.02824e-05
1.1895e-05
2.57392e-05
7.60929e-05
0.000213971
0.000566692
0.00137366
0.00302578
0.00605126
0.0110442
0.0186574
0.0297686
0.0459128
0.0696992
0.104164
0.148624
0.194494
0.233555
0.260765
0.273536
0.276549
0.274149
0.26861
0.262334
0.000672827
0.00139686
0.00134413
0.00152167
0.00134626
0.00104241
0.00071052
0.000478726
0.000352381
0.000267974
0.000207255
0.000160969
0.000126597
9.94421e-05
7.78222e-05
6.10062e-05
4.79762e-05
3.76756e-05
2.98606e-05
2.3761e-05
1.92897e-05
1.60211e-05
1.44219e-05
1.32753e-05
1.24365e-05
1.1886e-05
1.15282e-05
1.1146e-05
1.07168e-05
1.03858e-05
1.02454e-05
1.09522e-05
1.98346e-05
5.93637e-05
0.000173971
0.000479194
0.00120715
0.00274609
0.00562936
0.0104583
0.0178763
0.0287115
0.0444143
0.0675397
0.101339
0.145757
0.192441
0.232615
0.261281
0.275161
0.278668
0.276438
0.271098
0.263962
0.25683
0.000654356
0.00136084
0.00131645
0.00149354
0.00132164
0.00102799
0.000704693
0.00047805
0.000352436
0.000267754
0.000207071
0.000160946
0.00012665
9.95801e-05
7.7954e-05
6.11057e-05
4.80418e-05
3.77208e-05
2.98855e-05
2.37653e-05
1.92866e-05
1.59201e-05
1.41232e-05
1.32131e-05
1.25312e-05
1.19556e-05
1.15561e-05
1.11796e-05
1.07443e-05
1.04047e-05
1.02406e-05
1.04916e-05
1.56159e-05
4.5524e-05
0.000139847
0.000401511
0.00105433
0.00248476
0.00523145
0.00990146
0.0171365
0.0277166
0.0430083
0.0654915
0.0985936
0.142886
0.190352
0.231602
0.261688
0.276752
0.280794
0.278767
0.27346
0.266448
0.258441
0.250872
0.000634876
0.00132318
0.0012882
0.00146643
0.00129831
0.00101328
0.000698979
0.000477522
0.000352679
0.000267664
0.000207102
0.00016091
0.000126661
9.96422e-05
7.8076e-05
6.12038e-05
4.81118e-05
3.77689e-05
2.99121e-05
2.37756e-05
1.92847e-05
1.59084e-05
1.38368e-05
1.30409e-05
1.25857e-05
1.20304e-05
1.15924e-05
1.1211e-05
1.07718e-05
1.04238e-05
1.02473e-05
1.02907e-05
1.28933e-05
3.43036e-05
0.00011114
0.000333025
0.000914608
0.00224109
0.00485734
0.00937426
0.0164364
0.0267829
0.0416937
0.0635617
0.0959401
0.140029
0.188231
0.230526
0.261995
0.278296
0.28293
0.281113
0.275864
0.268814
0.260894
0.252451
0.2447
0.000616023
0.00128468
0.00126018
0.00144016
0.00127633
0.000998252
0.000693264
0.000476787
0.000352901
0.000267693
0.000207332
0.00016101
0.000126663
9.96782e-05
7.81602e-05
6.13005e-05
4.81848e-05
3.78156e-05
2.99413e-05
2.37895e-05
1.92876e-05
1.59059e-05
1.36271e-05
1.27432e-05
1.25011e-05
1.21054e-05
1.16465e-05
1.124e-05
1.07991e-05
1.0442e-05
1.02633e-05
1.02143e-05
1.13538e-05
2.55831e-05
8.67988e-05
0.000273147
0.000787364
0.00201429
0.00450695
0.00887676
0.0157756
0.0259084
0.0404704
0.0617528
0.0933931
0.137201
0.186084
0.229396
0.262205
0.279794
0.285074
0.283478
0.278288
0.271223
0.263229
0.254859
0.24624
0.23846
0.000598768
0.00124914
0.00123381
0.00141461
0.0012558
0.000983404
0.000687311
0.000475553
0.00035286
0.000267816
0.000207697
0.000161216
0.00012675
9.97136e-05
7.82162e-05
6.13852e-05
4.82602e-05
3.78669e-05
2.99757e-05
2.3807e-05
1.92969e-05
1.59062e-05
1.35975e-05
1.24185e-05
1.23485e-05
1.21779e-05
1.17173e-05
1.12688e-05
1.08255e-05
1.04596e-05
1.02796e-05
1.01918e-05
1.06019e-05
1.90739e-05
6.63683e-05
0.000221246
0.000672221
0.00180332
0.0041799
0.00840984
0.0151532
0.0250916
0.0393368
0.0600689
0.090964
0.134419
0.183917
0.228219
0.262328
0.281242
0.287219
0.285859
0.280733
0.273651
0.265606
0.257145
0.248595
0.239957
0.232242
0.000582539
0.00121606
0.00120867
0.00139004
0.00123671
0.000969486
0.000681446
0.0004738
0.000352478
0.000267875
0.000208135
0.000161501
0.000126897
9.98022e-05
7.82703e-05
6.14667e-05
4.83311e-05
3.79255e-05
3.00117e-05
2.38295e-05
1.93109e-05
1.59121e-05
1.35993e-05
1.21713e-05
1.20863e-05
1.21938e-05
1.17947e-05
1.13045e-05
1.08503e-05
1.0476e-05
1.02948e-05
1.01891e-05
1.0278e-05
1.4626e-05
4.9556e-05
0.000176726
0.000568629
0.00160748
0.00387525
0.00797412
0.0145699
0.0243298
0.038292
0.0585107
0.0886667
0.131699
0.18174
0.227006
0.262375
0.282635
0.289355
0.288251
0.283198
0.276102
0.268003
0.259471
0.250824
0.242255
0.233694
0.226103
0.000566327
0.00118541
0.0011846
0.00136583
0.00121899
0.000956662
0.00067644
0.00047181
0.000351655
0.000267813
0.000208536
0.000161816
0.000127103
9.99232e-05
7.8352e-05
6.15313e-05
4.84031e-05
3.79826e-05
3.00526e-05
2.38558e-05
1.93281e-05
1.59227e-05
1.36046e-05
1.20359e-05
1.17385e-05
1.20758e-05
1.18733e-05
1.13564e-05
1.08725e-05
1.04913e-05
1.03063e-05
1.01904e-05
1.01511e-05
1.19792e-05
3.60604e-05
0.000138858
0.000476094
0.00142587
0.00359247
0.00756959
0.014027
0.0236219
0.0373331
0.0570816
0.0865117
0.129064
0.179567
0.225768
0.26236
0.283966
0.29147
0.290652
0.285677
0.278574
0.270422
0.261818
0.253091
0.244422
0.235935
0.227508
0.22008
0.00054939
0.00115543
0.00116262
0.00134196
0.00120217
0.000944792
0.000672142
0.000470133
0.000350612
0.00026758
0.000208838
0.000162107
0.000127327
0.000100082
7.84522e-05
6.15976e-05
4.84656e-05
3.80414e-05
3.00956e-05
2.38844e-05
1.93481e-05
1.5937e-05
1.36111e-05
1.20227e-05
1.14173e-05
1.18826e-05
1.19512e-05
1.14276e-05
1.08928e-05
1.05051e-05
1.03135e-05
1.02056e-05
1.01034e-05
1.06606e-05
2.56695e-05
0.000106972
0.000393846
0.00125793
0.00333074
0.00719641
0.0135255
0.0229675
0.0364572
0.0557816
0.0845108
0.126528
0.17742
0.224519
0.262297
0.285242
0.293553
0.293055
0.288167
0.28106
0.272862
0.264187
0.25538
0.246629
0.238038
0.22969
0.221437
0.214199
0.000531575
0.00112565
0.00114272
0.00131928
0.0011857
0.000933687
0.000668089
0.000468706
0.000349694
0.000267327
0.000209014
0.000162337
0.000127539
0.000100253
7.85647e-05
6.16704e-05
4.85213e-05
3.80959e-05
3.01395e-05
2.39161e-05
1.93698e-05
1.5953e-05
1.36213e-05
1.20272e-05
1.11917e-05
1.15845e-05
1.19728e-05
1.15103e-05
1.09162e-05
1.05166e-05
1.03175e-05
1.02133e-05
1.00901e-05
1.01127e-05
1.82444e-05
8.01888e-05
0.000321189
0.00110286
0.00308993
0.00685396
0.0130671
0.0223669
0.0356615
0.0546116
0.0826718
0.124112
0.175314
0.223276
0.262195
0.286462
0.295609
0.295452
0.290663
0.283562
0.275319
0.266578
0.25769
0.248855
0.240182
0.23173
0.223558
0.215504
0.208478
0.000513133
0.00109665
0.00112572
0.00129815
0.00116917
0.000922832
0.000663969
0.000467307
0.00034895
0.000267246
0.000209159
0.000162452
0.000127724
0.000100424
7.86854e-05
6.17561e-05
4.85679e-05
3.81419e-05
3.01802e-05
2.39496e-05
1.93919e-05
1.59695e-05
1.36336e-05
1.2033e-05
1.10822e-05
1.12225e-05
1.1859e-05
1.15999e-05
1.09514e-05
1.0525e-05
1.03178e-05
1.02192e-05
1.00819e-05
9.90422e-06
1.35269e-05
5.79149e-05
0.000257317
0.000960081
0.00286989
0.00654202
0.0126524
0.0218224
0.0349428
0.0535688
0.0810033
0.121831
0.173271
0.222055
0.262063
0.287626
0.29763
0.297841
0.293154
0.286069
0.277791
0.268985
0.260022
0.251104
0.242345
0.233809
0.225533
0.217562
0.209728
0.202933
0.000493966
0.00106825
0.00111214
0.00127862
0.00115261
0.00091228
0.000659302
0.000465743
0.000348274
0.000267392
0.000209369
0.000162545
0.00012783
0.00010058
7.88111e-05
6.18416e-05
4.86159e-05
3.81761e-05
3.02186e-05
2.39858e-05
1.94144e-05
1.59864e-05
1.36469e-05
1.20414e-05
1.10725e-05
1.08964e-05
1.16737e-05
1.16913e-05
1.10048e-05
1.05294e-05
1.03143e-05
1.02191e-05
1.00867e-05
9.81601e-06
1.10781e-05
4.00215e-05
0.000201559
0.00082864
0.00267104
0.00626032
0.0122816
0.0213359
0.0343008
0.0526489
0.0795139
0.119707
0.171311
0.220877
0.261913
0.288732
0.299599
0.300205
0.295643
0.288576
0.280271
0.271409
0.262373
0.253374
0.24453
0.235908
0.227548
0.219471
0.211721
0.204123
0.19758
0.000474227
0.00103982
0.00110104
0.00126084
0.00113618
0.000901781
0.000654159
0.00046384
0.000347691
0.000267651
0.000209696
0.000162688
0.000127921
0.000100701
7.89345e-05
6.19303e-05
4.86679e-05
3.82082e-05
3.02475e-05
2.40183e-05
1.94386e-05
1.60046e-05
1.36606e-05
1.20522e-05
1.10793e-05
1.06668e-05
1.1391e-05
1.17531e-05
1.10755e-05
1.05314e-05
1.03068e-05
1.02138e-05
1.00885e-05
9.76903e-06
1.01067e-05
2.65053e-05
0.000153298
0.000707481
0.00249371
0.00600932
0.0119544
0.0209102
0.0337368
0.051848
0.0782078
0.117757
0.169455
0.219761
0.261766
0.289742
0.301483
0.302534
0.298122
0.291088
0.282757
0.273843
0.264738
0.255663
0.246737
0.238031
0.229583
0.22142
0.21356
0.206046
0.198704
0.192434
0.00045393
0.00100998
0.00109191
0.00124531
0.00111977
0.000891511
0.000648518
0.000461608
0.000347107
0.000267946
0.000210053
0.000162899
0.000128034
0.000100795
7.90478e-05
6.20266e-05
4.87299e-05
3.82422e-05
3.02651e-05
2.40501e-05
1.94636e-05
1.60233e-05
1.36746e-05
1.20653e-05
1.1088e-05
1.05301e-05
1.10454e-05
1.16692e-05
1.11596e-05
1.05353e-05
1.02946e-05
1.02025e-05
1.00874e-05
9.733e-06
9.79183e-06
1.7391e-05
0.000111786
0.000595267
0.00233849
0.00578975
0.0116706
0.020546
0.0332545
0.0511624
0.0770853
0.116004
0.167717
0.218729
0.261594
0.290625
0.303302
0.304829
0.300588
0.293594
0.285248
0.276286
0.267118
0.257968
0.248963
0.240175
0.231642
0.223392
0.215444
0.207815
0.200551
0.193482
0.187513
0.000433416
0.000978749
0.00108397
0.00123212
0.00110338
0.000880968
0.000642646
0.000459234
0.000346563
0.000268225
0.000210397
0.000163141
0.000128184
0.000100905
7.91425e-05
6.21209e-05
4.8797e-05
3.82832e-05
3.02833e-05
2.40789e-05
1.94884e-05
1.60429e-05
1.36894e-05
1.20792e-05
1.10978e-05
1.05095e-05
1.0717e-05
1.15289e-05
1.12527e-05
1.0548e-05
1.02775e-05
1.01853e-05
1.008e-05
9.71287e-06
9.6727e-06
1.24361e-05
7.65503e-05
0.000490342
0.00220598
0.00560296
0.0114305
0.0202439
0.0328575
0.0505931
0.0761416
0.114466
0.166118
0.217812
0.261326
0.291401
0.30507
0.307105
0.303041
0.296095
0.287741
0.278737
0.269506
0.260287
0.251206
0.242337
0.233722
0.225386
0.217348
0.209628
0.202246
0.195249
0.188476
0.182833
0.000412861
0.00094696
0.00107713
0.00122082
0.00108719
0.000869484
0.000636703
0.00045701
0.000346168
0.000268459
0.0002107
0.000163375
0.00012837
0.00010103
7.92277e-05
6.22116e-05
4.88662e-05
3.8332e-05
3.03048e-05
2.41005e-05
1.95136e-05
1.60638e-05
1.37055e-05
1.20931e-05
1.11099e-05
1.05149e-05
1.04658e-05
1.12996e-05
1.13434e-05
1.05761e-05
1.02557e-05
1.01618e-05
1.00662e-05
9.69442e-06
9.60374e-06
1.06528e-05
4.77195e-05
0.000391305
0.00209669
0.00545053
0.0112351
0.0200039
0.0325489
0.0501435
0.0753722
0.113153
0.164685
0.216901
0.260936
0.292131
0.306806
0.309362
0.305491
0.298587
0.29023
0.28119
0.271906
0.262619
0.253466
0.244518
0.235822
0.227402
0.219277
0.211465
0.203986
0.196864
0.190154
0.183699
0.178418
0.000392465
0.000915615
0.00107099
0.00121099
0.00107091
0.000856845
0.000630516
0.000454907
0.000346078
0.000268695
0.000210939
0.000163597
0.000128554
0.000101181
7.93103e-05
6.22828e-05
4.89368e-05
3.83876e-05
3.03347e-05
2.41226e-05
1.95354e-05
1.60859e-05
1.37227e-05
1.21066e-05
1.11234e-05
1.05242e-05
1.02913e-05
1.10139e-05
1.13244e-05
1.06173e-05
1.02307e-05
1.01319e-05
1.00451e-05
9.67828e-06
9.54652e-06
1.0259e-05
2.69181e-05
0.000296813
0.00201127
0.00533394
0.0110861
0.019826
0.0323303
0.0498192
0.0747734
0.112066
0.163409
0.215927
0.260527
0.292831
0.308523
0.311604
0.307927
0.301075
0.292718
0.283646
0.274309
0.26496
0.255735
0.246716
0.23794
0.229439
0.22123
0.213327
0.205751
0.198526
0.191681
0.18528
0.179171
0.174287
0.000372366
0.000885236
0.00106567
0.00120172
0.00105467
0.000843057
0.000624187
0.000452964
0.000346129
0.000269018
0.000211173
0.000163794
0.000128732
0.000101341
7.94062e-05
6.23525e-05
4.90002e-05
3.84459e-05
3.03701e-05
2.41477e-05
1.95528e-05
1.61066e-05
1.3741e-05
1.21198e-05
1.11369e-05
1.05322e-05
1.02371e-05
1.07109e-05
1.1237e-05
1.06824e-05
1.02045e-05
1.00955e-05
1.00172e-05
9.65961e-06
9.50308e-06
1.01521e-05
1.66822e-05
0.000205517
0.00195017
0.00525463
0.0109857
0.0197112
0.0322012
0.0496233
0.0743471
0.111204
0.162128
0.214901
0.260152
0.29353
0.310226
0.313847
0.310341
0.303554
0.295196
0.286095
0.276712
0.267303
0.258015
0.248925
0.240076
0.231496
0.223203
0.215213
0.207544
0.200216
0.193261
0.186712
0.180646
0.174914
0.170465
0.00035323
0.000856023
0.00106064
0.00119204
0.00103821
0.000828483
0.00061796
0.000451201
0.000346219
0.00026933
0.000211442
0.000164006
0.000128906
0.000101505
7.95158e-05
6.24246e-05
4.90473e-05
3.85003e-05
3.04069e-05
2.41727e-05
1.95659e-05
1.61268e-05
1.37599e-05
1.21333e-05
1.11493e-05
1.05464e-05
1.02358e-05
1.04495e-05
1.10849e-05
1.07448e-05
1.01797e-05
1.00523e-05
9.98266e-06
9.63826e-06
9.46654e-06
1.00603e-05
1.49761e-05
0.000114098
0.00191406
0.00521366
0.0109364
0.0196609
0.0321609
0.0495556
0.0740855
0.110387
0.160821
0.213961
0.259825
0.294242
0.311926
0.316091
0.312737
0.306016
0.297659
0.288532
0.279106