/*--------------------------------*- C++ -*----------------------------------*\
| =========                 |                                                 |
| \\      /  F ield         | OpenFOAM: The Open Source CFD Toolbox           |
|  \\    /   O peration     | Version:  v2012                                 |
|   \\  /    A nd           | Website:  www.openfoam.com                      |
|    \\/     M anipulation  |                                                 |
\*---------------------------------------------------------------------------*/
FoamFile
{
    version     2.0;
    format      ascii;
    class       volSymmTensorField;
    location    "12000";
    object      turbulenceProperties:R;
}
// * * * * * * * * * * * * * * * * * * * * * * * * * * * * * * * * * * * * * //

dimensions      [0 2 -2 0 0 0 0];


internalField   nonuniform List<symmTensor> 
27324
(
(1.23311 0.467146 6.43592e-13 1.19312 -4.36054e-14 1.25246)
(1.17674 0.466447 2.03618e-13 1.12911 -1.92847e-14 1.20948)
(4.39526 2.44855 3.00445e-12 4.28938 -9.04053e-14 4.4363)
(1.12721 0.457043 4.06353e-13 1.0747 -3.81286e-14 1.15682)
(4.3531 2.49235 -8.92096e-13 4.22076 3.85419e-14 4.42459)
(4.77404 2.80507 -1.4553e-12 4.6474 3.97549e-14 4.81105)
(1.0714 0.44915 2.26794e-13 1.02254 -1.83209e-14 1.1014)
(4.31832 2.49406 2.08692e-14 4.17071 -1.54889e-15 4.38479)
(4.61053 2.76315 1.95276e-13 4.4537 -5.22187e-15 4.67409)
(2.81528 1.71251 -7.38207e-13 2.72134 2.44417e-14 2.83754)
(1.01496 0.439962 4.23949e-13 0.971534 -3.26012e-14 1.04279)
(4.25786 2.5006 -1.95159e-12 4.11553 8.15553e-14 4.32659)
(4.44747 2.68626 7.99957e-13 4.27904 -3.64573e-14 4.50567)
(2.63933 1.62621 5.78049e-13 2.52395 -2.57143e-14 2.67708)
(1.06189 0.659639 5.58307e-13 1.01095 -2.39697e-14 1.07336)
(0.957132 0.429482 1.75014e-13 0.920029 -1.49185e-14 0.982459)
(4.1779 2.49456 6.86843e-16 4.04744 1.60979e-15 4.24278)
(4.25802 2.60909 8.91067e-13 4.09783 -3.82091e-14 4.3168)
(2.46051 1.52971 -4.06474e-13 2.34042 2.09228e-14 2.49465)
(0.97768 0.610704 1.82528e-13 0.915195 -1.0598e-14 0.997025)
(0.315573 0.190477 -7.78896e-14 0.291558 5.0637e-15 0.321179)
(0.899389 0.417231 4.03795e-13 0.866507 -2.62244e-14 0.922964)
(4.07142 2.47218 -9.37359e-13 3.95638 3.44882e-14 4.1314)
(4.05233 2.51944 9.06823e-13 3.90778 -3.19915e-14 4.10661)
(2.272 1.43265 4.40557e-13 2.16017 -2.29342e-14 2.30589)
(0.887696 0.560768 -2.83279e-13 0.823502 2.04504e-14 0.905002)
(0.289139 0.174888 -3.07379e-14 0.259562 4.26893e-15 0.298534)
(0.0868234 0.048632 -3.53196e-14 0.0761172 3.67637e-15 0.0893654)
(0.843517 0.404899 2.04046e-13 0.81005 -1.36806e-14 0.867193)
(3.93996 2.43038 6.08017e-14 3.83496 -6.7859e-17 3.9966)
(3.82909 2.41562 8.98694e-14 3.70338 -2.40858e-15 3.87827)
(2.08556 1.33541 -3.72159e-13 1.98659 1.96014e-14 2.11637)
(0.795403 0.510663 1.15776e-13 0.736461 -8.7236e-15 0.812356)
(0.258596 0.158903 -3.16646e-14 0.22824 4.3231e-15 0.266874)
(0.0795672 0.0448421 8.2883e-15 0.0663837 -1.48319e-15 0.0838131)
(0.0239995 0.01177 1.13649e-15 0.019419 -6.04383e-16 0.0250909)
(0.789638 0.394248 3.52926e-13 0.755485 -2.73499e-14 0.814356)
(3.78991 2.37668 -8.75826e-13 3.68151 3.16295e-14 3.84746)
(3.59446 2.29969 7.08373e-13 3.48197 -2.43556e-14 3.64011)
(1.90397 1.23866 3.53852e-13 1.81937 -1.61508e-14 1.9315)
(0.708215 0.463281 -1.36069e-13 0.656757 9.50724e-15 0.723428)
(0.226989 0.14257 -3.87021e-14 0.199392 3.50453e-15 0.235007)
(0.0706536 0.0407469 3.49109e-16 0.057137 -3.86984e-17 0.0743555)
(0.0220478 0.0108001 -2.37765e-15 0.0164516 5.41989e-16 0.0238694)
(0.00707275 0.0024919 -1.15689e-15 0.00517594 2.34708e-16 0.00753793)
(0.737936 0.385214 3.73088e-13 0.704625 -2.67821e-14 0.763159)
(3.6254 2.3205 1.01636e-14 3.51271 -8.5841e-18 3.68605)
(3.35598 2.1788 5.3892e-14 3.24273 -1.58602e-15 3.40171)
(1.73185 1.14461 -3.56866e-13 1.65736 1.64785e-14 1.75707)
(0.628403 0.419196 9.36611e-14 0.584884 -7.06396e-15 0.641858)
(0.19776 0.127275 -5.72155e-15 0.173834 3.65741e-16 0.204866)
(0.0611986 0.0363032 6.22736e-15 0.0490213 -1.50924e-15 0.0647505)
(0.0195922 0.00984728 1.61749e-15 0.013858 -4.96469e-16 0.0211801)
(0.00654814 0.00225973 -6.29713e-16 0.00425504 4.02595e-16 0.00732576)
(0.00238967 0.000448201 3.95868e-16 0.00157519 -5.68256e-17 0.00259354)
(0.68808 0.376603 1.67422e-13 0.657118 -1.29655e-14 0.712982)
(3.44587 2.26126 1.82315e-14 3.33394 1.15552e-15 3.50814)
(3.11447 2.05979 7.05166e-13 2.99941 -2.75342e-14 3.16202)
(1.5705 1.05528 2.85425e-13 1.49682 -1.31833e-14 1.59544)
(0.557658 0.379155 -1.09509e-13 0.519605 6.81031e-15 0.569869)
(0.17189 0.113271 -2.35646e-14 0.151755 2.52345e-15 0.178105)
(0.0525761 0.0320654 -1.12429e-15 0.0420823 3.62674e-17 0.0557012)
(0.0168898 0.0087021 8.97773e-17 0.0117632 5.62355e-16 0.0184144)
(0.0059038 0.00214618 -4.40365e-16 0.00352161 1.80436e-16 0.00658545)
(0.00224607 0.000418679 -1.98977e-16 0.00126756 8.74934e-17 0.00258743)
(0.00098143 7.8427e-05 -6.60196e-17 0.000588917 -3.28169e-17 0.00107887)
(0.64009 0.36761 3.42849e-13 0.611461 -2.44561e-14 0.664109)
(3.24704 2.19335 -8.70697e-13 3.14131 3.29003e-14 3.30867)
(2.86897 1.94188 7.3163e-13 2.75676 -2.81131e-14 2.91703)
(1.41373 0.97075 -2.83084e-13 1.34011 1.5142e-14 1.43929)
(0.494698 0.342954 7.66415e-14 0.457449 -5.91551e-15 0.506629)
(0.1499 0.10072 3.03485e-15 0.132389 2.60808e-17 0.155469)
(0.0450979 0.028082 5.12445e-15 0.0363107 -1.08917e-15 0.047826)
(0.0144659 0.00760806 1.67849e-15 0.010051 -3.91393e-16 0.0158129)
(0.00514507 0.00194172 -5.54615e-16 0.00299837 3.36017e-16 0.00580486)
(0.00208659 0.000467743 -9.02616e-17 0.00103606 9.49373e-17 0.00238899)
(0.000936915 7.29475e-05 3.46175e-17 0.000473546 -3.09029e-17 0.00110176)
(0.000481211 -5.04135e-06 -1.77959e-17 0.000268564 -3.45765e-18 0.000534608)
(0.593892 0.358079 1.58373e-13 0.567099 -1.17907e-14 0.616451)
(3.02581 2.11248 -5.06607e-15 2.9279 -4.12995e-17 3.08503)
(2.6175 1.82242 9.59608e-14 2.5128 -4.20837e-15 2.6642)
(1.25898 0.889129 -2.25606e-13 1.18825 1.32933e-14 1.28438)
(0.434143 0.308785 -1.59794e-13 0.397281 1.21092e-14 0.446157)
(0.131039 0.0895026 -1.60481e-14 0.114095 1.89239e-15 0.136407)
(0.0389208 0.0244391 2.36571e-15 0.0313534 -1.22153e-17 0.0413676)
(0.0123965 0.0065645 -5.66234e-16 0.00868697 4.18878e-16 0.013582)
(0.00447566 0.00173781 -5.15849e-16 0.00259094 1.51026e-16 0.00506485)
(0.00186923 0.000463962 -1.58009e-16 0.000894601 6.43333e-17 0.00216979)
(0.000900675 0.00011914 -4.02235e-17 0.000383273 -2.40233e-17 0.00105087)
(0.00046237 -9.9131e-06 2.95685e-18 0.00022208 -1.60125e-18 0.000552456)
(0.000266035 -2.71669e-05 1.82094e-17 0.000140349 1.054e-17 0.00029727)
(0.54775 0.348072 3.30477e-13 0.52786 -1.78696e-14 0.567066)
(2.78061 2.01709 -7.97628e-13 2.68978 2.87224e-14 2.83543)
(2.35902 1.7001 6.21597e-13 2.26311 -2.3424e-14 2.40293)
(1.1064 0.808857 2.74018e-13 1.0414 -1.45371e-14 1.13054)
(0.374537 0.275224 -6.401e-14 0.339582 5.82524e-15 0.386239)
(0.112991 0.0788615 -2.05887e-14 0.096478 2.44933e-15 0.118333)
(0.0337995 0.0212102 4.86973e-15 0.0266117 -9.44981e-16 0.0361514)
(0.0107277 0.00560312 8.12792e-16 0.00752882 -3.12728e-16 0.0117951)
(0.00390667 0.0015212 -6.82874e-16 0.00228003 2.59311e-16 0.00443367)
(0.00167875 0.000442645 4.08926e-17 0.000789879 7.3707e-17 0.00195587)
(0.00083345 0.000136358 5.66902e-17 0.000333957 -3.13873e-17 0.000989193)
(0.000456953 2.44987e-05 5.42822e-18 0.000178431 7.0265e-18 0.000539698)
(0.000254723 -3.03506e-05 9.6302e-19 0.000122538 4.37195e-18 0.000306361)
(0.000156114 -2.51408e-05 1.80138e-17 7.9145e-05 -9.60821e-18 0.000174987)
(0.501978 0.336444 1.63365e-13 0.489736 -6.28434e-15 0.516536)
(2.5048 1.90496 -4.02685e-14 2.43574 1.41782e-15 2.55016)
(2.09203 1.57353 3.63479e-14 2.00438 -9.41443e-16 2.13159)
(0.957503 0.729312 -2.07722e-13 0.898962 1.16418e-14 0.979595)
(0.316944 0.241851 7.20111e-14 0.285413 -5.45937e-15 0.327852)
(0.0953159 0.0683299 1.24818e-16 0.0799567 3.28469e-16 0.100477)
(0.0289751 0.0183126 1.0774e-15 0.0220765 -4.69471e-17 0.0312978)
(0.00938954 0.00480199 -5.40504e-16 0.00637461 3.38006e-16 0.0104086)
(0.00345157 0.00129544 -5.55441e-16 0.00201673 1.01402e-16 0.0039322)
(0.00151396 0.000397077 -2.4153e-16 0.000713568 5.35205e-17 0.00177165)
(0.000774104 0.000138535 7.77032e-17 0.000299165 -2.54809e-17 0.000923933)
(0.00043467 4.28984e-05 -3.02431e-17 0.000151914 1.87613e-19 0.000523714)
(0.000255612 -7.43426e-06 -3.39856e-17 9.93687e-05 -3.90179e-18 0.000302525)
(0.000147756 -2.8415e-05 -1.12355e-17 7.39943e-05 7.20345e-18 0.000178254)
(9.38325e-05 -1.91662e-05 8.10442e-18 4.68454e-05 -3.05199e-18 0.00010539)
(0.456837 0.323023 2.99697e-13 0.448238 -8.73707e-15 0.467037)
(2.19284 1.76177 -1.38688e-12 2.14785 3.06215e-14 2.22483)
(1.81045 1.43709 4.34114e-13 1.74374 -1.45894e-14 1.84219)
(0.812991 0.649892 1.94128e-13 0.760964 -1.07398e-14 0.832385)
(0.263089 0.209113 -9.89666e-14 0.235586 9.64952e-15 0.272905)
(0.0786496 0.0580287 -1.11031e-14 0.065098 1.85099e-15 0.0834224)
(0.0243177 0.0156145 -2.6139e-17 0.0179511 -3.43934e-18 0.0265393)
(0.00815132 0.0041789 6.85269e-16 0.00525927 -2.69526e-16 0.00914881)
(0.00309356 0.0011091 -2.53249e-16 0.00173376 2.19602e-16 0.00355464)
(0.00138009 0.000328722 -1.56698e-16 0.000650392 6.15985e-17 0.00162308)
(0.000721148 0.00012551 3.35978e-17 0.000273163 -3.14311e-17 0.000866629)
(0.000413949 4.88002e-05 -4.21308e-17 0.000133773 4.98485e-18 0.000502677)
(0.000248235 7.66968e-06 6.48418e-18 7.96611e-05 -1.40603e-18 0.000301028)
(0.000148953 -1.56853e-05 3.02722e-18 6.20747e-05 -6.70554e-18 0.000175798)
(8.7921e-05 -2.19048e-05 1.32106e-17 4.6116e-05 -7.03473e-19 0.000106169)
(5.67176e-05 -1.32864e-05 2.90046e-18 2.94654e-05 -6.94608e-19 6.38032e-05)
(0.411828 0.306059 1.41142e-13 0.403475 -3.52673e-15 0.418209)
(1.84843 1.5823 1.42194e-14 1.81714 4.39957e-18 1.86885)
(1.51819 1.28037 4.82951e-13 1.47488 -1.18691e-14 1.54002)
(0.671813 0.568984 -1.76313e-13 0.633106 7.42994e-15 0.687105)
(0.213943 0.177853 3.12586e-14 0.190503 -3.60509e-15 0.22243)
(0.0637393 0.0484603 -9.9963e-15 0.0522216 1.65173e-15 0.0679739)
(0.02002 0.0131382 2.3741e-15 0.0144203 -7.40588e-16 0.0220497)
(0.0069665 0.00365111 5.57756e-16 0.00426125 -2.52164e-16 0.0079205)
(0.00276689 0.000991115 -5.28034e-16 0.00144691 1.12676e-16 0.00322249)
(0.00127446 0.000266388 -3.19456e-17 0.000576466 4.64345e-17 0.00151222)
(0.00067614 9.65171e-05 2.6335e-17 0.000253273 -2.27095e-17 0.000817854)
(0.000394212 4.62159e-05 2.0741e-17 0.000119774 -2.05037e-18 0.000483068)
(0.000239532 1.3737e-05 -2.62947e-18 6.78935e-05 -6.80245e-18 0.000294019)
(0.000146677 -5.73409e-06 -6.31972e-18 4.73801e-05 5.24697e-18 0.000177894)
(8.82076e-05 -1.56682e-05 6.4139e-18 4.10376e-05 -1.69749e-18 0.000103625)
(5.33917e-05 -1.47425e-05 7.74471e-19 2.86016e-05 2.62439e-18 6.4502e-05)
(3.42219e-05 -9.31925e-06 -1.77168e-18 2.02457e-05 4.7065e-19 3.84072e-05)
(0.363244 0.282646 2.6897e-13 0.365512 3.67498e-16 0.365055)
(1.48496 1.36899 -5.0999e-13 1.46043 7.30578e-15 1.49673)
(1.22769 1.10555 3.98457e-13 1.19903 -7.33521e-15 1.24154)
(0.543185 0.48888 1.58462e-13 0.518652 -5.702e-15 0.553716)
(0.16933 0.148625 -7.35461e-14 0.152482 6.18146e-15 0.17593)
(0.0508904 0.0401835 -1.01121e-14 0.041309 1.22211e-15 0.0544739)
(0.0162864 0.0109917 6.00152e-16 0.0115279 4.44923e-18 0.0180628)
(0.00587603 0.00317551 -8.90815e-16 0.00344784 2.74799e-16 0.00675525)
(0.00245658 0.000906485 -1.00223e-16 0.00118442 9.88408e-17 0.00290276)
(0.00117972 0.000236818 -6.28612e-17 0.000492903 6.06335e-17 0.00141911)
(0.000638357 6.76072e-05 -1.70528e-17 0.000232301 -3.0025e-17 0.000778667)
(0.000376065 3.33765e-05 3.42327e-17 0.000109884 2.26653e-19 0.000464537)
(0.000231154 1.3092e-05 9.22475e-18 5.7825e-05 -2.52364e-18 0.000286979)
(0.000143144 -5.14992e-07 2.03957e-18 3.70443e-05 -8.99393e-18 0.000176946)
(8.73532e-05 -1.01357e-05 -3.12901e-19 3.1413e-05 -3.01818e-18 0.000105688)
(5.3009e-05 -1.23126e-05 -1.74267e-18 2.72938e-05 -1.76579e-18 6.19739e-05)
(3.32545e-05 -9.19197e-06 2.59011e-18 1.74622e-05 -1.55574e-18 4.00536e-05)
(2.05051e-05 -7.26814e-06 -9.3154e-19 1.54084e-05 6.86859e-19 2.26252e-05)
(0.324873 0.260786 2.52229e-13 0.329024 1.28589e-14 0.302361)
(1.11743 1.12834 -2.32006e-15 1.11873 4.30762e-16 1.11948)
(0.952694 0.925377 4.80312e-14 0.931382 -6.07603e-16 0.960703)
(0.433773 0.415293 -1.21123e-13 0.418028 3.50985e-15 0.440552)
(0.133503 0.123654 3.13512e-14 0.122953 -1.65617e-15 0.138026)
(0.0398282 0.03323 -7.33716e-15 0.0329744 1.07419e-15 0.0425666)
(0.0131694 0.0092953 3.18895e-15 0.00921212 -5.178e-16 0.0146565)
(0.00493353 0.00276091 7.27627e-16 0.00281909 -2.02555e-16 0.00571476)
(0.00216578 0.000826626 -1.48239e-16 0.000981157 1.84311e-16 0.00259148)
(0.00109124 0.000226819 -1.12232e-16 0.000407777 6.29218e-17 0.00133319)
(0.000604648 5.69266e-05 1.04102e-17 0.000204596 -2.3423e-17 0.000746498)
(0.000358551 1.80447e-05 -1.80243e-18 0.000103784 -1.16286e-18 0.000446319)
(0.000222789 6.26149e-06 1.36526e-17 5.03116e-05 -6.97983e-18 0.000279557)
(0.000138802 -7.66768e-07 -2.14768e-18 2.96779e-05 5.61646e-18 0.000174434)
(8.632e-05 -5.97381e-06 -8.80421e-19 2.24363e-05 -1.76084e-18 0.000107086)
(5.25524e-05 -9.81479e-06 -2.22061e-18 2.17308e-05 3.05725e-18 6.31304e-05)
(3.25817e-05 -8.38212e-06 -3.38444e-19 1.76654e-05 8.56912e-19 3.80635e-05)
(2.10755e-05 -6.03663e-06 1.28725e-19 1.11194e-05 5.83786e-20 2.50349e-05)
(1.22035e-05 -6.34724e-06 3.88533e-19 1.30047e-05 5.89751e-20 1.2856e-05)
(0.25041 0.195155 -1.06446e-13 0.340626 -3.76644e-14 0.185638)
(0.786004 0.894316 -1.2696e-14 0.799504 -2.24047e-16 0.750412)
(0.699176 0.749332 2.57205e-13 0.700057 5.67395e-16 0.699747)
(0.342208 0.351199 1.03688e-13 0.330267 -2.38483e-15 0.346173)
(0.107493 0.10456 -2.69775e-14 0.100755 1.27575e-15 0.110399)
(0.0316445 0.0277928 -7.41263e-15 0.0272333 6.58386e-16 0.0335206)
(0.0105371 0.00798037 -6.03572e-16 0.00762297 -1.91224e-17 0.0116813)
(0.00414552 0.00245247 -1.90882e-16 0.00235949 2.03733e-16 0.00481295)
(0.00191016 0.000753724 -1.56465e-16 0.000835754 7.77895e-17 0.00230365)
(0.00100424 0.000218511 -8.22792e-18 0.000344325 5.70747e-17 0.00124385)
(0.000574423 6.05552e-05 4.76405e-17 0.000169205 -2.3058e-17 0.000719703)
(0.000342278 1.18726e-05 -2.73234e-17 9.5126e-05 3.87077e-18 0.000430076)
(0.000212771 -3.00436e-06 6.1232e-18 4.88892e-05 -8.26843e-19 0.000269228)
(0.000134412 -4.29925e-06 3.48289e-18 2.38801e-05 -9.24652e-18 0.00017115)
(8.42632e-05 -5.00798e-06 1.52804e-18 1.62689e-05 7.94107e-19 0.000106834)
(5.22598e-05 -6.80022e-06 2.70781e-18 1.53138e-05 -1.77207e-18 6.47408e-05)
(3.20967e-05 -8.05875e-06 5.71216e-19 1.52162e-05 -6.16357e-19 3.8204e-05)
(2.05829e-05 -5.30074e-06 9.92396e-19 1.08977e-05 -2.06572e-19 2.42577e-05)
(1.35183e-05 -4.88387e-06 4.70982e-19 8.2019e-06 2.13912e-20 1.54794e-05)
(7.19975e-06 -6.2322e-06 1.84984e-19 1.21071e-05 -2.38402e-19 6.84393e-06)
(0.141262 0.111594 9.3063e-14 0.329571 1.22859e-13 0.0644652)
(0.44049 0.536571 1.80949e-14 0.583401 7.62572e-16 0.357648)
(0.489181 0.584676 1.88345e-13 0.507461 6.73773e-15 0.466061)
(0.261338 0.294494 -8.8495e-14 0.262634 -7.67103e-17 0.262102)
(0.0884169 0.0907678 2.02558e-14 0.083345 -7.35271e-16 0.0901201)
(0.0262585 0.0239778 2.25467e-16 0.0234092 4.79717e-18 0.0274669)
(0.00864204 0.00691601 1.14533e-15 0.00665545 -2.24229e-16 0.00944831)
(0.00347969 0.00223863 4.24896e-16 0.00208988 -1.4542e-16 0.00401322)
(0.00168488 0.00071089 -2.33873e-16 0.000758908 1.39723e-16 0.00203428)
(0.000923552 0.000211212 1.59991e-17 0.00030471 5.80613e-17 0.00115268)
(0.000542502 6.78987e-05 5.64581e-17 0.000142221 -2.99517e-17 0.000689087)
(0.000328433 1.56813e-05 -1.29663e-17 7.89847e-05 1.23051e-18 0.000417984)
(0.000202868 -8.28167e-06 -1.45304e-17 4.78593e-05 -3.51541e-18 0.000258382)
(0.000128205 -8.96157e-06 -1.00552e-17 2.34463e-05 6.24111e-18 0.000164784)
(8.15754e-05 -6.14391e-06 7.20114e-18 1.24489e-05 -1.91873e-18 0.000105115)
(5.14954e-05 -5.2172e-06 -2.89033e-18 1.01899e-05 2.59644e-18 6.55176e-05)
(3.20058e-05 -6.28547e-06 7.8758e-19 1.11641e-05 6.83765e-19 3.93231e-05)
(2.00457e-05 -6.07263e-06 3.32683e-19 1.02974e-05 1.99172e-19 2.37963e-05)
(1.34046e-05 -3.53945e-06 1.4677e-19 6.79237e-06 7.64806e-20 1.60538e-05)
(8.96148e-06 -5.15495e-06 -2.38685e-19 7.04567e-06 -2.09796e-19 9.47064e-06)
(4.3948e-06 -6.72923e-06 1.31255e-19 1.17502e-05 -1.21351e-19 3.35167e-06)
(0.0542604 0.0421564 2.6888e-14 0.205207 4.47173e-14 0.0126803)
(0.218883 0.28455 2.84938e-14 0.472871 4.83891e-15 0.128778)
(0.286166 0.398833 -5.83276e-15 0.417692 -1.42781e-15 0.227664)
(0.201471 0.243975 -6.67481e-14 0.215472 -2.14315e-15 0.188327)
(0.071799 0.0800582 -2.09993e-14 0.0724396 -4.56793e-16 0.0722354)
(0.0226562 0.0216863 -5.30047e-15 0.0205778 1.46314e-16 0.0233592)
(0.00741727 0.00612803 5.02853e-16 0.00610841 9.32197e-19 0.00794531)
(0.00299417 0.00201701 -2.70123e-16 0.00197246 1.07519e-16 0.00339119)
(0.0014939 0.000698668 -1.05686e-16 0.000729679 6.41795e-17 0.00178836)
(0.000842658 0.000217534 4.51947e-18 0.000304843 3.74815e-17 0.00105132)
(0.000509688 7.63427e-05 1.54357e-17 0.000128866 -2.26243e-17 0.0006518)
(0.000313493 2.39819e-05 -2.68739e-17 6.50819e-05 -1.72144e-18 0.000404107)
(0.000194505 -7.28284e-06 -2.43406e-18 4.18809e-05 -5.99598e-18 0.000250172)
(0.000121584 -1.24929e-05 -7.0977e-18 2.4808e-05 -8.9092e-18 0.00015695)
(7.79234e-05 -7.60697e-06 4.3013e-18 1.17482e-05 9.08313e-19 0.000101385)
(4.99859e-05 -4.83539e-06 5.23326e-18 7.39564e-06 -1.16824e-18 6.4765e-05)
(3.17724e-05 -4.63006e-06 1.27936e-18 7.35228e-06 -1.27816e-18 4.02725e-05)
(1.98156e-05 -5.5459e-06 1.12947e-18 8.45566e-06 2.83356e-19 2.40773e-05)
(1.30523e-05 -4.09063e-06 1.30011e-19 6.61545e-06 1.52269e-19 1.56851e-05)
(8.86691e-06 -3.06953e-06 -1.95837e-19 5.28926e-06 7.10797e-21 1.06362e-05)
(6.25229e-06 -5.97253e-06 -1.06805e-20 6.92556e-06 7.36266e-21 5.57702e-06)
(3.3743e-06 -7.16516e-06 -1.83196e-19 1.11093e-05 4.48449e-20 1.66264e-06)
(0.0315566 0.0146901 1.86141e-14 0.0439092 9.12377e-15 0.0229312)
(0.107254 0.117824 -2.89312e-14 0.329797 -5.54392e-14 0.0517993)
(0.152912 0.241482 9.90902e-14 0.385671 5.46063e-14 0.0829851)
(0.133466 0.220139 -1.23669e-14 0.228484 -1.90822e-15 0.0968458)
(0.0622869 0.0772644 -1.66051e-14 0.0705977 -1.85296e-15 0.0550943)
(0.0194148 0.0202984 -1.16777e-15 0.0195556 -7.86743e-19 0.019426)
(0.00661051 0.00576912 7.1214e-16 0.00574482 -8.66347e-17 0.00691144)
(0.00266568 0.00180964 3.18797e-16 0.00197284 -6.75948e-17 0.00293381)
(0.00134975 0.000647864 -1.45934e-16 0.000741978 8.9305e-17 0.00158403)
(0.000776532 0.000237692 -6.35037e-17 0.000309671 4.12972e-17 0.000958756)
(0.000470788 9.21777e-05 -2.24708e-17 0.000142806 -2.51627e-17 0.000600564)
(0.000296645 3.37072e-05 -2.84386e-18 5.98245e-05 4.05992e-18 0.00038437)
(0.000186181 -8.17101e-07 -7.55615e-18 3.47733e-05 -1.97603e-18 0.000242227)
(0.000115535 -1.2606e-05 4.36563e-18 2.43634e-05 -7.22127e-18 0.000149896)
(7.37892e-05 -9.05574e-06 5.17243e-19 1.29803e-05 -1.62999e-18 9.61811e-05)
(4.79068e-05 -4.7246e-06 -1.41327e-18 6.57378e-06 3.1253e-18 6.26535e-05)
(3.10066e-05 -3.59707e-06 -5.73262e-19 5.16826e-06 9.27302e-19 4.01129e-05)
(1.97281e-05 -4.22913e-06 -6.88763e-19 5.97909e-06 -9.1633e-19 2.47436e-05)
(1.26197e-05 -4.25457e-06 2.43268e-19 6.48264e-06 1.14379e-19 1.52381e-05)
(8.9509e-06 -2.56493e-06 -2.28617e-19 4.49315e-06 -4.29552e-21 1.08222e-05)
(6.13294e-06 -3.20583e-06 9.28456e-20 5.10745e-06 2.37818e-20 6.85594e-06)
(4.64362e-06 -7.19733e-06 -8.22297e-20 8.1002e-06 1.40904e-19 2.68533e-06)
(3.87157e-06 -6.68851e-06 1.17455e-19 9.06187e-06 -2.14943e-19 1.9346e-06)
(0.0251165 0.0120397 5.33888e-15 0.0263822 4.79458e-16 0.0240627)
(0.0987725 0.0599025 2.04036e-15 0.128065 -1.59623e-15 0.0807788)
(0.0880734 0.11221 7.87044e-15 0.30473 5.59521e-15 0.0401927)
(0.0778876 0.15429 -4.29097e-14 0.257995 -3.57096e-14 0.0308617)
(0.0417762 0.082323 -8.58567e-16 0.0970856 4.1864e-16 0.0223114)
(0.0177201 0.0239686 -2.82324e-16 0.0227879 2.67562e-17 0.0139916)
(0.00588222 0.0058026 -5.62619e-16 0.00590454 1.37431e-16 0.00575436)
(0.00242331 0.0017619 -3.151e-16 0.00206293 2.56694e-17 0.00256869)
(0.00124321 0.000578301 -9.70967e-18 0.000805871 2.61756e-17 0.00140734)
(0.000723216 0.000230901 -5.95081e-17 0.000329951 3.19496e-17 0.000874923)
(0.000442811 0.000113425 5.63379e-17 0.000146395 -2.11245e-17 0.00055755)
(0.000274328 4.56506e-05 -4.53974e-18 7.28781e-05 4.96676e-19 0.000353728)
(0.000176586 7.7997e-06 6.51904e-18 3.23517e-05 -5.79783e-18 0.000230865)
(0.000110338 -7.76956e-06 -2.36788e-18 2.12431e-05 6.13173e-18 0.000144103)
(6.93795e-05 -9.25809e-06 4.9198e-18 1.50095e-05 -1.18178e-18 9.03154e-05)
(4.54601e-05 -4.7152e-06 4.11909e-19 7.17432e-06 -1.41067e-18 5.95046e-05)
(2.97984e-05 -2.9025e-06 5.83288e-20 4.46729e-06 -7.01403e-19 3.89183e-05)
(1.93879e-05 -2.87773e-06 -9.3867e-20 4.22822e-06 -1.9909e-19 2.49003e-05)
(1.24921e-05 -3.5546e-06 -3.61562e-20 5.40737e-06 1.05182e-20 1.53317e-05)
(8.63548e-06 -2.91421e-06 2.55225e-19 4.6826e-06 5.56603e-21 1.03979e-05)
(6.43794e-06 -2.34591e-06 -9.91022e-20 3.59285e-06 1.68054e-19 7.68647e-06)
(4.10138e-06 -4.27117e-06 5.4873e-22 6.45448e-06 -1.14685e-19 4.02436e-06)
(4.30681e-06 -7.93193e-06 1.12493e-19 8.18907e-06 -1.67996e-19 1.69959e-06)
(4.43677e-06 -5.08866e-06 -3.06189e-20 6.74788e-06 -5.66626e-20 2.96807e-06)
(0.0238355 0.0116401 8.40631e-15 0.0239499 6.71329e-17 0.0238151)
(0.0914835 0.0562307 -4.72619e-14 0.0948661 -2.64654e-15 0.0889004)
(0.0936604 0.0583798 1.98932e-14 0.125377 5.09213e-15 0.0766849)
(0.0632649 0.0928783 2.58283e-14 0.260695 3.22751e-14 0.0248219)
(0.0241427 0.0663401 -3.44738e-14 0.135575 -3.676e-14 -0.00242111)
(0.00986689 0.0268107 -1.24451e-14 0.0391285 -9.95782e-15 0.000427768)
(0.0051124 0.00830479 1.42284e-16 0.00861524 2.1652e-17 0.0031282)
(0.00225202 0.00202065 1.52754e-16 0.00230706 9.88098e-17 0.0020988)
(0.00111548 0.000597059 -1.59123e-16 0.00100408 5.93975e-18 0.00119488)
(0.000680754 0.000223376 -6.88005e-18 0.000380245 1.71352e-17 0.000786801)
(0.000417031 0.000118993 2.38247e-17 0.00016144 -1.31782e-17 0.00051333)
(0.000261038 5.85488e-05 -5.06692e-19 7.20757e-05 1.91161e-18 0.000331698)
(0.000163581 1.58597e-05 5.52044e-18 4.11049e-05 -1.82551e-18 0.000212561)
(0.000104908 -2.09614e-07 7.10583e-18 1.91947e-05 -7.20184e-18 0.000137327)
(6.58364e-05 -6.4353e-06 6.0794e-18 1.47657e-05 -2.52486e-18 8.56624e-05)
(4.25684e-05 -4.76835e-06 -4.1382e-19 9.23661e-06 -1.5939e-18 5.53496e-05)
(2.84032e-05 -2.28026e-06 -5.03414e-19 4.53868e-06 1.24794e-18 3.71633e-05)
(1.87461e-05 -2.00396e-06 1.44876e-19 3.52012e-06 -1.09441e-18 2.4316e-05)
(1.24484e-05 -2.39641e-06 -1.38802e-20 3.96675e-06 -1.47634e-19 1.56577e-05)
(8.5086e-06 -3.13085e-06 -1.81665e-19 4.4007e-06 -2.76374e-20 1.01943e-05)
(6.34005e-06 -2.0492e-06 1.03974e-19 3.05969e-06 -1.80679e-20 7.98946e-06)
(4.62618e-06 -2.93458e-06 6.59936e-20 4.36362e-06 4.7253e-20 5.19472e-06)
(3.6583e-06 -5.79779e-06 -1.59872e-20 7.39679e-06 9.83093e-20 2.33444e-06)
(3.25676e-06 -6.49142e-06 5.76001e-20 9.45527e-06 -6.50836e-20 7.99384e-07)
(4.25746e-06 -5.39167e-07 4.48016e-20 1.24723e-05 -6.18168e-20 2.31964e-06)
(0.0233981 0.012182 4.00809e-15 0.0230459 -1.23324e-16 0.0235604)
(0.0894217 0.0558574 -4.7533e-15 0.0891976 -6.93527e-17 0.0891907)
(0.0854765 0.055501 1.97331e-14 0.0890523 1.04812e-15 0.0828992)
(0.101022 0.0630311 -2.23995e-14 0.140471 -9.20911e-15 0.0840187)
(0.0261671 0.0453018 1.10962e-14 0.160238 1.81285e-14 0.00165154)
(0.00323158 0.0228948 -5.80456e-15 0.0609284 -8.55962e-15 -0.0100774)
(0.00153543 0.0103989 7.47966e-16 0.0173642 1.24717e-15 -0.00306352)
(0.00163741 0.00371886 3.99017e-16 0.00446554 4.76792e-16 0.000397072)
(0.00108646 0.000954708 -1.06112e-16 0.00120965 -7.04415e-17 0.000913673)
(0.0005897 0.000261398 3.51448e-17 0.000585874 -1.28095e-17 0.000618234)
(0.000390551 0.000134462 4.27158e-17 0.000204376 -1.03589e-17 0.000456069)
(0.000246933 6.60251e-05 -1.08284e-17 8.05794e-05 -1.42986e-19 0.000306382)
(0.000156649 2.29537e-05 -2.40517e-18 4.01521e-05 -4.31297e-18 0.000200183)
(9.79219e-05 5.35552e-06 -1.62763e-17 2.25296e-05 3.56428e-18 0.000127107)
(6.28948e-05 -1.04283e-06 3.20815e-18 1.29151e-05 -1.43225e-18 8.19801e-05)
(4.00445e-05 -4.05252e-06 -1.22419e-18 1.05099e-05 1.85625e-18 5.1623e-05)
(2.68447e-05 -2.02921e-06 3.52775e-19 5.31016e-06 6.36118e-19 3.49184e-05)
(1.79739e-05 -1.49004e-06 8.7536e-20 3.30872e-06 -4.83867e-20 2.33839e-05)
(1.22525e-05 -1.54675e-06 3.63734e-19 2.93411e-06 2.72007e-20 1.57312e-05)
(8.42972e-06 -2.71835e-06 2.58376e-19 3.64256e-06 1.41011e-20 1.03509e-05)
(6.12147e-06 -2.21262e-06 2.23892e-19 3.35973e-06 1.75781e-19 7.6009e-06)
(5.0429e-06 -1.50054e-06 1.06035e-19 3.03225e-06 -6.9684e-20 5.87239e-06)
(3.2422e-06 -4.18766e-06 1.56714e-20 7.19259e-06 -3.68738e-20 2.2906e-06)
(1.77599e-06 -3.53473e-06 1.27125e-20 1.14015e-05 1.84632e-19 -4.59117e-07)
(1.82964e-06 1.23869e-06 -9.32284e-21 1.87446e-05 -1.53181e-19 -3.20802e-06)
(3.83944e-06 1.6876e-05 3.12476e-20 5.0653e-05 1.84437e-19 -8.04081e-06)
(0.0229562 0.0125038 1.05122e-14 0.0224791 -2.9751e-16 0.0231195)
(0.0882336 0.0576852 -2.37947e-14 0.086726 3.43947e-16 0.0883764)
(0.0823017 0.054484 1.31223e-14 0.081802 -2.67372e-17 0.0819542)
(0.101425 0.0657761 2.0766e-14 0.106198 1.5905e-15 0.098519)
(0.0670346 0.0389179 -2.38617e-14 0.101406 -1.20636e-14 0.0547212)
(0.0048653 0.0124813 -2.4529e-15 0.0767945 -8.37898e-15 -0.00845885)
(-0.00122209 0.00814708 7.0046e-16 0.0269554 3.27001e-16 -0.00765759)
(-0.000345419 0.00538933 -9.84725e-16 0.00950493 -1.24685e-15 -0.00288713)
(0.000479385 0.00224762 -2.98864e-16 0.00309784 -3.2797e-16 -0.000438265)
(0.000561548 0.000622886 -7.52139e-17 0.000825205 -2.2048e-17 0.000370135)
(0.000332197 0.000180956 1.50644e-18 0.000356631 2.04744e-18 0.000332604)
(0.000219545 8.60176e-05 -8.5228e-18 0.000133124 -4.39374e-18 0.000257067)
(0.00015032 3.48022e-05 -3.18108e-18 4.32199e-05 -3.97116e-18 0.000185804)
(9.2972e-05 8.97857e-06 2.83549e-18 2.38527e-05 -5.02474e-18 0.000118199)
(6.00903e-05 2.96622e-06 -4.81925e-19 1.17903e-05 1.27751e-18 7.77081e-05)
(3.8476e-05 -1.14215e-06 1.36416e-18 9.27936e-06 -9.35911e-19 4.94741e-05)
(2.49696e-05 -2.37654e-06 8.70658e-19 7.12306e-06 -9.62893e-19 3.20154e-05)
(1.72532e-05 -8.7538e-07 -5.26429e-19 3.06252e-06 -3.56887e-19 2.24701e-05)
(1.18348e-05 -1.17631e-06 -2.27766e-19 2.68272e-06 -3.24037e-20 1.52717e-05)
(8.26527e-06 -1.66084e-06 1.41134e-20 2.97799e-06 -4.30719e-20 1.04929e-05)
(5.82049e-06 -1.83625e-06 1.15217e-19 3.98877e-06 2.571e-20 6.9325e-06)
(4.90737e-06 -3.93796e-07 -6.62822e-20 3.26623e-06 4.33548e-20 5.62146e-06)
(2.73132e-06 -1.41565e-06 5.07124e-20 7.35038e-06 -2.55312e-20 2.16888e-06)
(9.74495e-07 -9.2319e-07 -5.58276e-20 1.32813e-05 -4.12524e-20 -2.25224e-06)
(6.07643e-07 2.91576e-06 2.75195e-19 2.06581e-05 2.76475e-19 -6.22376e-06)
(2.82432e-06 1.99044e-05 3.21201e-19 4.61398e-05 4.26652e-19 -1.29785e-05)
(3.04224e-06 4.27822e-05 2.9698e-19 0.000135265 2.10609e-19 -1.96562e-05)
(0.0224265 0.0126193 1.19515e-14 0.0218692 -3.23021e-16 0.0225645)
(0.0863268 0.0574515 -3.43519e-15 0.0846778 -0 0.0865393)
(0.0798466 0.0534763 2.83562e-15 0.0782562 -2.42411e-17 0.0799311)
(0.098492 0.0646265 -2.04248e-14 0.0979808 2.91626e-17 0.0981471)
(0.0738529 0.0459881 1.30214e-14 0.0783046 1.21987e-15 0.0715766)
(0.0286184 0.0131832 -6.10367e-15 0.0523644 -9.69481e-16 0.0211318)
(-0.000882542 0.00107194 2.32595e-15 0.0337642 3.20855e-15 -0.00774328)
(-0.00143505 0.00356417 5.24616e-16 0.0133795 1.44655e-15 -0.00477991)
(-0.000753542 0.00337457 -2.84816e-16 0.00615945 -4.71913e-16 -0.00232909)
(-4.79488e-05 0.00175325 -9.23123e-17 0.00249939 -3.94929e-17 -0.000753314)
(0.000249742 0.000542675 5.42836e-17 0.000719279 7.47559e-17 3.21993e-05)
(0.000195785 0.000156524 -4.74872e-18 0.000228354 9.36638e-19 0.000167857)
(0.000122771 5.85405e-05 6.49407e-18 0.000103227 -3.78321e-18 0.000139026)
(8.56315e-05 2.56661e-05 -6.42236e-18 3.40489e-05 1.57057e-19 0.000104168)
(5.49911e-05 8.11234e-06 -7.23574e-20 1.86168e-05 -7.78229e-19 6.85817e-05)
(3.73677e-05 3.69533e-06 -1.31681e-18 8.00995e-06 1.83349e-18 4.70528e-05)
(2.35059e-05 -7.49165e-07 -1.40864e-18 8.2633e-06 5.46571e-19 2.94452e-05)
(1.59505e-05 -2.3586e-07 -2.63007e-19 4.69806e-06 1.05242e-19 2.03141e-05)
(1.1097e-05 -1.57205e-07 -5.43664e-20 3.45411e-06 -6.14607e-20 1.41449e-05)
(8.18899e-06 -7.41743e-08 -1.17234e-19 2.66262e-06 6.44985e-20 1.0245e-05)
(5.44274e-06 -8.58837e-07 -8.234e-20 4.92803e-06 1.17511e-20 6.0043e-06)
(3.82799e-06 1.12003e-06 1.06415e-19 5.70577e-06 3.32944e-20 4.11708e-06)
(2.02972e-06 2.38691e-06 8.59879e-20 9.01585e-06 3.37809e-20 9.30688e-07)
(2.2784e-07 2.44112e-06 2.83127e-19 1.54591e-05 4.12114e-19 -4.50806e-06)
(-2.29763e-07 4.72969e-06 -5.88173e-20 2.0499e-05 1.53535e-20 -7.48982e-06)
(4.1649e-07 1.14135e-05 -2.44133e-19 3.55686e-05 -1.78802e-19 -9.7325e-06)
(1.46472e-05 2.59791e-05 1.43543e-19 7.70084e-05 5.40049e-19 -8.39762e-06)
(6.14428e-05 2.01299e-05 -1.55489e-18 0.000200484 2.18978e-19 4.24632e-05)
(0.0217721 0.012422 6.3634e-15 0.0212336 -1.5501e-16 0.0218813)
(0.083882 0.0564543 -4.89623e-16 0.0822216 6.75031e-19 0.0841084)
(0.0770043 0.050649 1.60062e-14 0.0754298 -2.88694e-16 0.0772619)
(0.0952016 0.0619306 1.57647e-14 0.0937515 -1.89766e-16 0.0954309)
(0.0724667 0.0461595 -1.14367e-14 0.0722454 7.60057e-17 0.07225)
(0.0353076 0.0209821 -5.03007e-15 0.0386854 1.17238e-16 0.033779)
(0.0087967 0.000975348 1.11606e-15 0.0237076 -1.40321e-15 0.00441926)
(-0.00128874 -0.00146388 -1.60505e-16 0.0159612 -1.74885e-15 -0.00502745)
(-0.00101385 0.00184413 -4.08318e-16 0.00740606 -7.90964e-16 -0.00288267)
(-0.000740499 0.00220199 3.39144e-16 0.00417318 5.49335e-16 -0.00173926)
(-0.000294028 0.00140304 6.33582e-17 0.00207051 1.0514e-16 -0.000822765)
(3.42625e-05 0.000533773 -2.89597e-17 0.000722827 -4.87955e-17 -0.000181685)
(0.000100016 0.000170402 -9.28911e-18 0.000209473 9.62502e-19 4.49013e-05)
(6.8434e-05 5.84136e-05 8.10952e-18 8.14472e-05 2.68154e-18 6.44647e-05)