/*--------------------------------*- C++ -*----------------------------------*\
| =========                 |                                                 |
| \\      /  F ield         | OpenFOAM: The Open Source CFD Toolbox           |
|  \\    /   O peration     | Version:  v2012                                 |
|   \\  /    A nd           | Website:  www.openfoam.com                      |
|    \\/     M anipulation  |                                                 |
\*---------------------------------------------------------------------------*/
FoamFile
{
    version     2.0;
    format      ascii;
    class       volVectorField;
    location    "12000";
    object      U;
}
// * * * * * * * * * * * * * * * * * * * * * * * * * * * * * * * * * * * * * //

dimensions      [0 1 -1 0 0 0 0];


internalField   nonuniform List<vector> 
27324
(
(511.254 -0.0625078 0)
(508.634 -0.0891146 0)
(515.592 -0.202328 0)
(506.556 -0.0962494 0)
(513.225 -0.291175 0)
(521.852 -0.378696 0)
(504.126 -0.0983907 0)
(511.328 -0.316066 0)
(519.788 -0.542586 0)
(529.222 -0.600753 0)
(501.694 -0.0947408 0)
(509.118 -0.323139 0)
(518.112 -0.589599 0)
(527.382 -0.857133 0)
(536.173 -0.868862 0)
(499.311 -0.0889312 0)
(506.914 -0.311875 0)
(516.166 -0.604103 0)
(525.871 -0.931572 0)
(534.38 -1.23611 0)
(541.321 -1.18228 0)
(497.001 -0.0861341 0)
(504.768 -0.292591 0)
(514.227 -0.58333 0)
(524.11 -0.954765 0)
(532.908 -1.34368 0)
(539.483 -1.68104 0)
(544.723 -1.54527 0)
(494.62 -0.0937099 0)
(502.694 -0.284384 0)
(512.339 -0.548341 0)
(522.346 -0.923824 0)
(531.187 -1.37724 0)
(537.994 -1.8287 0)
(542.872 -2.19755 0)
(547.016 -1.9671 0)
(491.933 -0.10365 0)
(500.564 -0.309756 0)
(510.51 -0.533807 0)
(520.619 -0.869592 0)
(529.464 -1.33323 0)
(536.252 -1.87462 0)
(541.382 -2.39431 0)
(545.175 -2.7967 0)
(548.487 -2.45342 0)
(488.923 -0.110558 0)
(498.164 -0.343907 0)
(508.624 -0.581093 0)
(518.939 -0.846115 0)
(527.771 -1.25617 0)
(534.511 -1.81715 0)
(539.637 -2.45537 0)
(543.691 -3.05292 0)
(546.632 -3.48243 0)
(549.264 -3.00952 0)
(485.672 -0.113421 0)
(495.48 -0.368793 0)
(506.485 -0.645778 0)
(517.202 -0.920446 0)
(526.12 -1.22298 0)
(532.799 -1.71464 0)
(537.892 -2.38412 0)
(541.937 -3.13209 0)
(545.139 -3.81148 0)
(547.415 -4.25936 0)
(549.663 -3.64627 0)
(482.262 -0.115138 0)
(492.58 -0.379634 0)
(504.081 -0.693398 0)
(515.23 -1.02183 0)
(524.414 -1.32905 0)
(531.132 -1.67081 0)
(536.165 -2.25488 0)
(540.172 -3.04849 0)
(543.362 -3.91261 0)
(545.957 -4.67964 0)
(547.863 -5.13263 0)
(549.909 -4.37194 0)
(478.743 -0.116363 0)
(489.534 -0.386016 0)
(501.478 -0.71597 0)
(513.012 -1.09728 0)
(522.489 -1.475 0)
(529.419 -1.81366 0)
(534.466 -2.1995 0)
(538.401 -2.89178 0)
(541.573 -3.82031 0)
(544.204 -4.81126 0)
(546.462 -5.66629 0)
(548.128 -6.0932 0)
(549.884 -5.2015 0)
(475.237 -0.0989268 0)
(486.389 -0.390802 0)
(498.747 -0.728156 0)
(510.61 -1.13418 0)
(520.336 -1.58535 0)
(527.495 -2.01178 0)
(532.706 -2.38268 0)
(536.641 -2.82321 0)
(539.769 -3.63979 0)
(542.434 -4.71935 0)
(544.741 -5.84323 0)
(546.792 -6.76682 0)
(548.142 -7.13187 0)
(549.672 -6.15578 0)
(472.241 -0.0722077 0)
(483.27 -0.336756 0)
(495.94 -0.737565 0)
(508.1 -1.15563 0)
(518.008 -1.64126 0)
(525.335 -2.1634 0)
(530.727 -2.63909 0)
(534.818 -3.0478 0)
(537.967 -3.56014 0)
(540.625 -4.52485 0)
(542.981 -5.76647 0)
(545.12 -7.01555 0)
(546.918 -7.96369 0)
(547.967 -8.23917 0)
(549.293 -7.24929 0)
(469.925 -0.0547531 0)
(480.658 -0.250809 0)
(493.183 -0.63861 0)
(505.536 -1.17159 0)
(515.563 -1.67302 0)
(522.972 -2.24238 0)
(528.505 -2.83824 0)
(532.799 -3.36855 0)
(536.113 -3.82713 0)
(538.793 -4.43832 0)
(541.149 -5.57316 0)
(543.377 -6.97513 0)
(545.339 -8.34133 0)
(546.842 -9.23346 0)
(547.612 -9.41346 0)
(548.728 -8.48887 0)
(468.189 -0.0477176 0)
(478.724 -0.192007 0)
(490.896 -0.480789 0)
(503.012 -1.0198 0)
(513.035 -1.69332 0)
(520.463 -2.28369 0)
(526.079 -2.94469 0)
(530.557 -3.62529 0)
(534.092 -4.21654 0)
(536.904 -4.74324 0)
(539.261 -5.48702 0)
(541.534 -6.81238 0)
(543.622 -8.38133 0)
(545.386 -9.83 0)
(546.568 -10.5393 0)
(547.066 -10.6927 0)
(548.01 -9.79685 0)
(467.149 0.00569847 0)
(477.318 -0.163965 0)
(489.192 -0.370773 0)
(500.883 -0.770736 0)
(510.512 -1.47658 0)
(517.866 -2.30508 0)
(523.52 -2.99651 0)
(528.122 -3.76731 0)
(531.865 -4.54155 0)
(534.873 -5.20178 0)
(537.31 -5.82181 0)
(539.604 -6.7451 0)
(541.783 -8.28046 0)
(543.717 -9.98195 0)
(545.23 -11.4236 0)
(546.052 -11.8728 0)
(546.432 -12.1565 0)
(547.006 -10.976 0)
(467.32 0.116149 0)
(476.443 0.00084707 0)
(487.917 -0.31024 0)
(499.254 -0.5907 0)
(508.343 -1.11902 0)
(515.294 -2.01442 0)
(520.908 -3.01631 0)
(525.566 -3.83176 0)
(529.447 -4.72764 0)
(532.651 -5.6062 0)
(535.253 -6.34248 0)
(537.602 -7.0958 0)
(539.818 -8.25463 0)
(541.857 -9.99711 0)
(543.622 -11.8372 0)
(544.834 -13.0903 0)
(545.378 -13.2696 0)
(545.733 -13.9008 0)
(545.541 -11.5759 0)
(479.152 0.768251 0)
(476.829 0.351539 0)
(487.115 -0.000638724 0)
(498.03 -0.496036 0)
(506.67 -0.854247 0)
(513.086 -1.53499 0)
(518.362 -2.64336 0)
(522.977 -3.8412 0)
(526.906 -4.80758 0)
(530.23 -5.84479 0)
(533.035 -6.83566 0)
(535.531 -7.66135 0)
(537.751 -8.61204 0)
(539.837 -10.0694 0)
(541.751 -12.0118 0)
(543.316 -13.8623 0)
(544.241 -14.8076 0)
(544.566 -14.8586 0)
(544.931 -15.7657 0)
(543.246 -10.8158 0)
(507.579 1.68719 0)
(487.416 2.40408 0)
(487.733 0.683429 0)
(497.273 0.00579075 0)
(505.444 -0.715302 0)
(511.388 -1.16478 0)
(516.172 -2.03192 0)
(520.484 -3.3815 0)
(524.337 -4.78934 0)
(527.685 -5.94291 0)
(530.624 -7.13633 0)
(533.342 -8.24711 0)
(535.642 -9.19228 0)
(537.686 -10.4224 0)
(539.675 -12.2135 0)
(541.469 -14.3395 0)
(542.847 -16.0562 0)
(543.397 -16.5662 0)
(543.661 -16.8647 0)
(543.741 -17.2389 0)
(539.409 -7.35191 0)
(541.226 1.97325 0)
(513.723 5.37301 0)
(496.722 4.52428 0)
(497.572 1.10262 0)
(504.705 0.0158264 0)
(510.186 -0.96153 0)
(514.476 -1.5332 0)
(518.315 -2.6317 0)
(521.886 -4.23906 0)
(525.119 -5.86883 0)
(528.091 -7.25111 0)
(530.975 -8.62231 0)
(533.467 -9.85802 0)
(535.506 -10.9739 0)
(537.452 -12.5753 0)
(539.368 -14.7109 0)
(541.084 -16.9499 0)
(542.1 -18.2944 0)
(542.314 -18.55 0)
(542.52 -19.3007 0)
(541.423 -17.6013 0)
(533.178 -0.372833 0)
(562.43 0.445952 0)
(545.082 6.39924 0)
(520.988 9.89652 0)
(506.686 7.11414 0)
(504.866 1.68031 0)
(509.497 0.0214778 0)
(513.319 -1.23568 0)
(516.605 -1.97305 0)
(519.702 -3.34953 0)
(522.702 -5.22625 0)
(525.553 -7.09064 0)
(528.494 -8.75258 0)
(531.146 -10.3149 0)
(533.31 -11.6732 0)
(535.196 -13.0623 0)
(537.118 -15.1182 0)
(539.019 -17.5716 0)
(540.486 -19.7583 0)
(540.98 -20.537 0)
(541.144 -21.0566 0)
(540.751 -21.1608 0)
(537.373 -15.3836 0)
(524.887 9.39253 0)
(565.744 0.0600461 0)
(565.359 1.52276 0)
(549.529 11.6071 0)
(529.276 15.3338 0)
(515.187 10.3459 0)
(510.153 2.4576 0)
(512.704 0.0437931 0)
(515.478 -1.51776 0)
(517.924 -2.49972 0)
(520.49 -4.21064 0)
(523.2 -6.36953 0)
(526.031 -8.46447 0)
(528.712 -10.4559 0)
(531.048 -12.2059 0)
(532.974 -13.7064 0)
(534.822 -15.5401 0)
(536.795 -18.0618 0)
(538.528 -20.7323 0)
(539.555 -22.5609 0)
(539.699 -22.7415 0)
(539.941 -23.8378 0)
(538.113 -21.4575 0)
(530.366 -7.47919 0)
(516.188 15.7353 0)
(566.102 0.00591009 0)
(568.636 0.206876 0)
(568.473 2.74649 0)
(555.109 17.8289 0)
(536.447 21.8228 0)
(521.128 14.3679 0)
(514.129 3.60984 0)
(514.977 0.101123 0)
(516.783 -1.7679 0)
(518.65 -3.16121 0)
(521 -5.23201 0)
(523.778 -7.68295 0)
(526.296 -10.0127 0)
(528.698 -12.3645 0)
(530.798 -14.2772 0)
(532.576 -16.007 0)
(534.519 -18.4346 0)
(536.382 -21.339 0)
(537.872 -24.0444 0)
(538.41 -24.9706 0)
(538.129 -25.4683 0)
(537.575 -26.4625 0)
(532.458 -16.2556 0)
(520.692 -0.171263 0)
(511.174 19.8088 0)
(565.819 -0.0130569 0)
(569.033 0.0100428 0)
(571.731 0.37554 0)
(572.525 4.30405 0)
(560.668 25.1296 0)
(541.718 29.4274 0)
(525.628 19.3869 0)
(517.274 5.39755 0)
(516.462 0.283792 0)
(517.551 -1.89511 0)
(519.204 -3.95774 0)
(521.616 -6.40967 0)
(524.098 -9.21478 0)
(526.371 -11.7538 0)
(528.584 -14.4818 0)
(530.477 -16.4984 0)
(532.259 -18.6818 0)
(534.185 -21.7263 0)
(535.895 -24.8895 0)
(537 -27.1488 0)
(536.394 -27.7057 0)
(536.585 -29.505 0)
(534.358 -25.1928 0)
(523.985 -8.98178 0)
(515.64 18.1362 0)
(515.886 40.4218 0)
(565.489 -0.0173405 0)
(568.975 -0.0513488 0)
(572.193 0.00561022 0)
(575.759 0.595084 0)
(577.143 6.24884 0)
(564.84 33.5203 0)
(545.416 38.0551 0)
(529.757 25.7092 0)
(520.05 8.26941 0)
(517.838 0.738119 0)
(518.183 -1.87486 0)
(519.889 -4.78442 0)
(521.982 -7.8259 0)
(524.244 -10.9107 0)
(526.33 -13.7902 0)
(528.429 -16.7881 0)
(530.126 -18.9418 0)
(531.957 -21.9196 0)
(533.731 -25.352 0)
(535.224 -28.7044 0)
(534.871 -30.1838 0)
(535.301 -30.8833 0)
(535.429 -30.8739 0)
(528.061 -13.4524 0)
(523.81 20.5951 0)
(527.102 56.93 0)
(528.929 83.4931 0)
(565.185 -0.0201925 0)
(568.818 -0.0649617 0)
(572.253 -0.106224 0)
(576.201 6.85331e-05 0)
(580.427 0.872036 0)
(581.334 8.79183 0)
(567.09 42.7517 0)
(548.252 47.5296 0)
(534.066 33.7786 0)
(523.102 13.0102 0)
(519.186 2.04473 0)
(519.066 -1.72636 0)
(520.414 -5.41147 0)
(522.307 -9.42486 0)
(524.218 -12.8061 0)
(526.317 -16.2394 0)
(528.226 -19.2959 0)
(529.704 -21.7162 0)
(531.621 -25.72 0)
(533.167 -29.2986 0)
(533.881 -31.9959 0)
(534.594 -31.2099 0)
(536.165 -32.2951 0)
(535.016 -15.0037 0)
(534.841 24.6253 0)
(534.648 68.8629 0)
(536.8 97.4604 0)
(535.099 106.3 0)
(564.937 -0.020165 0)
(568.646 -0.0717288 0)
(572.062 -0.124889 0)
(576.21 -0.163954 0)
(580.84 -0.00539789 0)
(584.976 1.25082 0)
(584.187 12.1286 0)
(567.797 52.5349 0)
(550.491 57.5967 0)
(538.709 43.9269 0)
(527.971 20.8749 0)
(521.844 5.53388 0)
(520.226 -1.10023 0)
(521.102 -5.53058 0)
(522.774 -10.5909 0)
(524.556 -14.4584 0)
(526.545 -18.7213 0)
(528.019 -21.4163 0)
(529.77 -24.8869 0)
(531.554 -28.5541 0)
(533.566 -32.7966 0)
(534.481 -29.9338 0)
(539.034 -26.6065 0)
(544.995 -7.8789 0)
(546.946 36.0949 0)
(543.03 78.0814 0)
(540.105 99.9957 0)
(537.5 107.01 0)
(534.606 109.854 0)
(564.734 -0.0189232 0)
(568.456 -0.0681387 0)
(571.84 -0.132471 0)
(575.891 -0.192653 0)
(580.79 -0.221137 0)
(585.429 0.000499914 0)
(588.764 1.79521 0)
(585.292 16.6046 0)
(567.169 62.387 0)
(552.259 67.5898 0)
(543.59 56.1113 0)
(534.531 33.3628 0)
(526.553 13.6922 0)
(523.011 2.18965 0)
(522.618 -4.62722 0)
(524.183 -10.6795 0)
(525.624 -14.9008 0)
(527.436 -19.9989 0)
(528.955 -22.2366 0)
(531.324 -26.4013 0)
(535.49 -27.4267 0)
(539.606 -22.2812 0)
(547.615 -10.6286 0)
(557.025 13.141 0)
(558.774 47.2029 0)
(551.062 80.9172 0)
(543.065 100.265 0)
(538.232 105.803 0)
(535.606 108.644 0)
(533.32 111.354 0)
(564.558 -0.0182919 0)
(568.247 -0.0592239 0)
(571.576 -0.124812 0)
(575.604 -0.200339 0)
(580.403 -0.26971 0)
(585.352 -0.288858 0)
(589.385 0.0106979 0)
(591.28 2.63665 0)
(584.434 22.6299 0)
(565.667 71.4893 0)
(553.526 76.5065 0)
(548.307 68.9075 0)
(542.39 51.0636 0)
(534.983 30.3662 0)
(529.886 13.8704 0)
(528.569 2.41499 0)
(528.653 -4.71398 0)
(530.653 -10.0296 0)
(532.643 -12.9116 0)
(536.139 -13.3642 0)
(542.952 -10.5683 0)
(551.054 0.578055 0)
(560.123 16.6909 0)
(567.024 34.8231 0)
(567.258 51.815 0)
(557.256 76.699 0)
(545.424 97.3694 0)
(539.459 104.449 0)
(536.19 107.46 0)
(534.194 109.894 0)
(532.231 112.681 0)
(564.395 -0.0165112 0)
(568.036 -0.0546839 0)
(571.29 -0.104725 0)
(575.285 -0.187173 0)
(580.096 -0.279254 0)
(585.113 -0.362837 0)
(589.395 -0.36297 0)
(592.135 0.0467401 0)
(592.417 4.00966 0)
(582.296 30.561 0)
(563.441 78.9439 0)
(554.335 83.259 0)
(552.015 80.0632 0)
(549.557 70.1311 0)
(545.948 55.2706 0)
(542.883 39.4516 0)
(541.82 26.7755 0)
(542.738 18.6969 0)
(545.483 16.2762 0)
(550.278 17.0857 0)
(557.131 21.856 0)
(563.311 30.1865 0)
(568.811 39.5261 0)
(571.902 46.9997 0)
(571.512 52.3572 0)
(562.715 70.603 0)
(548.782 92.6218 0)
(540.749 101.965 0)
(536.953 106.219 0)
(534.755 109.079 0)
(533.045 111.602 0)
(531.364 114.232 0)
(564.249 -0.0146213 0)
(567.82 -0.0493366 0)
(571.004 -0.0936837 0)
(574.979 -0.15531 0)
(579.803 -0.261792 0)
(584.919 -0.376111 0)
(589.171 -0.477628 0)
(592.168 -0.434694 0)
(593.787 0.159519 0)
(593.049 6.38821 0)
(578.337 40.3906 0)
(560.851 84.1497 0)
(554.895 88.0366 0)
(554.208 86.4993 0)
(553.914 82.2468 0)
(553.847 75.076 0)
(554.559 65.7532 0)
(556.017 57.4307 0)
(558.228 52.0947 0)
(561.499 49.8218 0)
(565.39 49.3038 0)
(569.303 49.6267 0)
(572.101 50.0797 0)
(573.293 50.6897 0)
(573.071 51.0266 0)
(567.306 62.6768 0)
(552.751 85.7988 0)
(542.579 99.2295 0)
(537.83 104.914 0)
(535.428 108.169 0)
(533.599 110.92 0)
(532.002 113.501 0)
(530.772 115.321 0)
(564.115 -0.00826947 0)
(567.602 -0.0409781 0)
(570.722 -0.0829785 0)
(574.731 -0.139857 0)
(579.573 -0.220966 0)
(584.743 -0.355893 0)
(588.965 -0.492273 0)
(591.913 -0.606105 0)
(593.915 -0.51209 0)
(595.23 0.421889 0)
(592.381 10.5895 0)
(573.08 51.3691 0)
(558.158 86.3704 0)
(555.108 89.1241 0)
(554.915 88.122 0)
(555.57 85.7648 0)
(557.432 81.4457 0)
(560.014 75.4148 0)
(562.52 69.5739 0)
(564.963 64.7716 0)
(567.67 60.653 0)
(570.417 56.7389 0)
(572.567 53.3458 0)
(573.464 51.2983 0)
(573.491 50.5262 0)
(570.544 56.2204 0)
(557.513 77.9742 0)
(544.997 95.6646 0)
(538.947 103.439 0)
(536.133 107.256 0)
(534.233 110.114 0)
(532.465 112.944 0)
(531.159 114.852 0)
(530.346 114.919 0)
(563.977 -0.00432391 0)
(567.4 -0.0251104 0)
(570.49 -0.068712 0)
(574.556 -0.125489 0)
(579.44 -0.200498 0)
(584.595 -0.307035 0)
(588.78 -0.470662 0)
(591.733 -0.625916 0)
(593.795 -0.755657 0)
(595.456 -0.587997 0)
(595.959 1.00888 0)
(590.011 17.8108 0)
(567.314 62.0283 0)
(555.829 85.9363 0)
(554.798 88.5325 0)
(554.938 87.0984 0)
(555.973 84.6159 0)
(558.402 80.2024 0)
(561.289 74.7137 0)
(563.954 69.3931 0)
(566.624 64.3522 0)
(569.317 59.3828 0)
(571.763 54.694 0)
(573.224 51.5058 0)
(573.515 50.364 0)
(572.441 52.3207 0)
(562.531 69.6919 0)
(548.221 91.1566 0)
(540.347 101.6 0)
(536.899 106.241 0)
(534.866 109.299 0)
(533.027 112.249 0)
(531.485 114.424 0)
(530.424 114.629 0)
(529.627 112.971 0)
(563.864 0.00201767 0)
(567.25 -0.0143336 0)
(570.343 -0.048661 0)
(574.468 -0.104913 0)
(579.383 -0.185263 0)
(584.475 -0.273977 0)
(588.618 -0.404564 0)
(591.562 -0.602099 0)
(593.643 -0.780602 0)
(595.347 -0.917283 0)
(596.378 -0.63406 0)
(596.09 2.38977 0)
(585.457 29.0637 0)
(561.807 71.0533 0)
(554.429 84.6079 0)
(554.356 86.2342 0)
(554.793 85.1664 0)
(556.51 82.2227 0)
(559.571 77.0292 0)
(562.673 71.6214 0)
(565.436 66.4548 0)
(568.103 61.1749 0)
(570.659 55.9051 0)
(572.586 51.5898 0)
(573.348 50.1065 0)
(573.269 50.593 0)
(567.044 62.0191 0)
(552.252 85.3962 0)
(542.148 99.2294 0)
(537.768 105.075 0)
(535.515 108.451 0)
(533.614 111.51 0)
(531.911 113.857 0)
(530.555 114.317 0)
(529.463 112.611 0)
(528.912 109.175 0)
(563.815 0.0100269 0)
(567.192 0.00540366 0)
(570.292 -0.0227056 0)
(574.445 -0.0794003 0)
(579.36 -0.152818 0)
(584.348 -0.247652 0)
(588.498 -0.359715 0)
(591.402 -0.521127 0)
(593.481 -0.755807 0)
(595.15 -0.950363 0)
(596.283 -1.0727 0)
(597.017 -0.619809 0)
(595.4 5.67686 0)
(578.206 43.9567 0)
(557.788 77.5623 0)
(553.82 83.9049 0)
(553.93 84.7351 0)
(554.921 83.5764 0)
(557.427 79.2815 0)
(560.623 73.6453 0)
(563.675 68.1121 0)
(566.555 62.8448 0)
(569.396 57.4693 0)
(571.845 52.7528 0)
(573.198 50.0741 0)
(573.492 50.0634 0)
(570.413 56.0727 0)
(556.94 78.4497 0)
(544.473 96.0972 0)
(538.797 103.675 0)
(536.19 107.564 0)
(534.23 110.733 0)
(532.382 113.213 0)
(530.775 113.877 0)
(529.422 112.237 0)
(528.341 108.572 0)
(528.251 103.14 0)
(563.822 0.013867 0)
(567.217 0.0244334 0)
(570.309 0.00632451 0)
(574.441 -0.0383808 0)
(579.33 -0.112409 0)
(584.222 -0.207387 0)
(588.403 -0.320272 0)
(591.259 -0.460323 0)
(593.301 -0.654451 0)
(594.949 -0.92757 0)
(596.092 -1.13328 0)
(597.043 -1.19423 0)
(597.485 -0.302348 0)
(592.663 12.876 0)
(569.812 59.7811 0)
(555.46 82.1458 0)
(553.656 84.6002 0)
(554.133 84.3902 0)
(555.703 81.7385 0)
(558.764 76.4061 0)
(562.078 70.4684 0)
(565.128 64.8806 0)
(568.124 59.402 0)
(570.944 54.1941 0)
(572.948 50.7926 0)
(573.538 49.9976 0)
(572.431 52.3927 0)
(561.856 70.8009 0)
(547.451 91.9906 0)
(540.061 101.939 0)
(536.918 106.602 0)
(534.856 109.941 0)
(532.915 112.461 0)
(531.061 113.309 0)
(529.405 111.718 0)
(528.059 108.049 0)
(527.344 102.287 0)
(527.129 95.5242 0)
(563.929 0.0143081 0)
(567.391 0.0366104 0)
(570.456 0.0368865 0)
(574.513 0.00203813 0)
(579.286 -0.0615779 0)
(584.123 -0.153359 0)
(588.326 -0.267513 0)
(591.121 -0.407071 0)
(593.138 -0.573502 0)
(594.736 -0.809194 0)
(595.894 -1.11903 0)
(596.909 -1.33011 0)
(597.68 -1.26413 0)
(597.257 0.879497 0)
(586.787 26.2316 0)
(562.367 72.7297 0)
(554.473 84.9555 0)
(553.907 84.8723 0)
(554.521 83.5838 0)
(556.885 79.3487 0)
(560.37 73.2193 0)
(563.682 67.2742 0)
(566.838 61.6253 0)
(569.9 56.1133 0)
(572.435 51.7142 0)
(573.55 50.0776 0)
(573.352 50.6805 0)
(566.371 63.3737 0)
(551.145 86.7431 0)
(541.657 99.733 0)
(537.736 105.516 0)
(535.49 109.132 0)
(533.487 111.628 0)
(531.402 112.619 0)
(529.491 111.066 0)
(527.782 107.359 0)
(526.853 101.639 0)
(526.004 94.493 0)
(525.344 86.9006 0)
(564.082 0.0128524 0)
(567.644 0.039462 0)
(570.658 0.0604773 0)
(574.612 0.0522733 0)
(579.262 0.00599191 0)
(584.06 -0.0784683 0)
(588.257 -0.197291 0)
(590.992 -0.338427 0)
(592.999 -0.501298 0)
(594.551 -0.707119 0)
(595.698 -0.990134 0)
(596.757 -1.3344 0)
(597.578 -1.53306 0)
(597.904 -1.28178 0)
(595.896 4.74187 0)
(577.309 44.7452 0)
(557.352 79.8312 0)
(553.901 85.0292 0)
(553.934 84.3461 0)
(555.2 81.8722 0)
(558.508 76.1222 0)
(562.101 69.7929 0)
(565.489 63.9252 0)
(568.729 58.252 0)
(571.732 53.1414 0)
(573.409 50.3756 0)
(573.652 50.1504 0)
(569.894 57.2298 0)
(555.477 80.366 0)
(543.694 96.8905 0)
(538.69 104.238 0)
(536.143 108.284 0)
(534.073 110.743 0)
(531.811 111.788 0)
(529.585 110.282 0)
(527.559 106.553 0)
(526.324 100.818 0)
(525.38 93.7469 0)
(524.018 85.7904 0)
(523.192 77.892 0)
(564.209 0.00837978 0)
(567.887 0.0353668 0)
(570.825 0.0721689 0)
(574.663 0.0939278 0)
(579.247 0.0813857 0)
(584.038 0.0131832 0)
(588.196 -0.103028 0)
(590.887 -0.247094 0)
(592.89 -0.416051 0)
(594.401 -0.614091 0)
(595.529 -0.860581 0)
(596.603 -1.20473 0)
(597.406 -1.56054 0)
(597.909 -1.686 0)
(597.922 -0.915158 0)
(591.684 14.7887 0)
(566.817 62.9684 0)
(554.677 82.4209 0)
(553.709 84.3999 0)
(554.027 83.4728 0)
(556.599 79.0268 0)
(560.356 72.5344 0)
(564.06 66.3295 0)
(567.471 60.5242 0)
(570.797 54.9302 0)
(573.127 50.9973 0)
(573.71 50.042 0)
(572.15 53.0709 0)
(560.152 73.179 0)
(546.283 93.2325 0)
(539.837 102.684 0)
(536.841 107.367 0)
(534.647 109.839 0)
(532.28 110.818 0)
(529.75 109.361 0)
(527.384 105.608 0)
(525.838 99.8996 0)
(524.69 92.8214 0)
(523.277 85.0008 0)
(521.611 76.7681 0)
(521.214 68.9824 0)
(564.275 -0.000653028 0)
(568.047 0.0220098 0)
(570.933 0.0629892 0)
(574.7 0.117357 0)
(579.244 0.136627 0)
(584.098 0.108605 0)
(588.161 0.0183854 0)
(590.818 -0.125762 0)
(592.815 -0.302425 0)
(594.281 -0.505981 0)
(595.395 -0.739733 0)
(596.455 -1.04492 0)
(597.233 -1.4489 0)
(597.785 -1.77545 0)
(598.115 -1.76386 0)
(597.117 1.03745 0)
(582.79 33.6084 0)
(559.255 75.9336 0)
(553.605 83.5666 0)
(553.539 84.0862 0)
(554.923 81.5889 0)
(558.462 75.5315 0)
(562.533 68.9306 0)
(566.154 62.9098 0)
(569.708 57.003 0)
(572.582 52.0495 0)
(573.715 50.0338 0)
(573.289 50.8878 0)
(564.68 65.8707 0)
(549.498 88.61 0)
(541.253 100.738 0)
(537.612 106.347 0)
(535.206 108.913 0)
(532.807 109.711 0)
(529.949 108.297 0)
(527.257 104.529 0)
(525.383 98.8572 0)
(524.034 91.8131 0)
(522.459 84.0248 0)
(520.716 75.9813 0)
(519.367 67.8818 0)
(519.61 60.4734 0)
(564.287 -0.00341181 0)
(568.093 -0.00448451 0)
(570.974 0.0339751 0)
(574.75 0.101483 0)
(579.336 0.163445 0)
(584.192 0.181608 0)
(588.149 0.138242 0)
(590.795 0.0280799 0)
(592.776 -0.151598 0)
(594.189 -0.363892 0)
(595.296 -0.602465 0)
(596.339 -0.888028 0)
(597.049 -1.25458 0)
(597.661 -1.69662 0)
(598.091 -1.96171 0)
(598.033 -1.71653 0)
(594.012 8.5627 0)
(570.84 55.9473 0)
(555.53 82.5986 0)
(553.439 84.2037 0)
(553.814 83.3421 0)
(556.521 78.6355 0)
(560.863 71.79 0)
(564.772 65.4005 0)
(568.498 59.2606 0)
(571.813 53.5103 0)
(573.612 50.2818 0)
(573.706 50.0596 0)
(568.51 59.3586 0)
(553.327 82.9753 0)
(543.024 98.2629 0)
(538.497 105.167 0)
(535.764 107.94 0)
(533.355 108.482 0)
(530.196 107.084 0)
(527.178 103.312 0)
(524.967 97.6873 0)
(523.39 90.6941 0)
(521.679 82.9687 0)
(519.73 75.0108 0)
(518.303 67.1238 0)
(517.544 59.427 0)
(518.181 52.3672 0)
(564.187 -0.00333025 0)
(568.034 -0.0135355 0)
(570.962 -0.00450206 0)
(574.804 0.050272 0)
(579.49 0.142109 0)
(584.326 0.21371 0)
(588.179 0.232933 0)
(590.843 0.175947 0)
(592.769 0.0314364 0)
(594.125 -0.177836 0)
(595.233 -0.427537 0)
(596.253 -0.712392 0)
(596.899 -1.05149 0)
(597.509 -1.48488 0)
(597.955 -1.96443 0)
(598.065 -2.07198 0)
(597.513 -0.537044 0)
(585.982 26.568 0)
(560.703 72.3642 0)
(553.922 84.2204 0)
(553.362 84.0564 0)
(554.788 81.4464 0)
(559.026 74.9198 0)
(563.292 68.0228 0)
(567.207 61.605 0)
(570.82 55.3488 0)
(573.305 50.8382 0)
(573.798 49.8492 0)
(571.255 54.4329 0)
(557.608 76.4773 0)
(545.237 95.1153 0)
(539.548 103.747 0)
(536.336 106.906 0)
(533.886 107.152 0)
(530.501 105.725 0)
(527.138 101.964 0)
(524.593 96.3809 0)
(522.763 89.4653 0)
(520.908 81.8059 0)
(518.791 73.9638 0)
(517.13 66.1918 0)
(516.324 58.7124 0)
(516.029 51.3673 0)
(515.736 44.9268 0)
(564.012 -0.00491745 0)
(567.83 -0.0160567 0)
(570.822 -0.0276077 0)
(574.838 -0.0017171 0)
(579.63 0.0666836 0)
(584.45 0.187655 0)
(588.266 0.275314 0)
(590.963 0.289961 0)
(592.837 0.210066 0)
(594.092 0.040123 0)
(595.204 -0.203137 0)
(596.198 -0.498132 0)
(596.79 -0.824846 0)
(597.384 -1.23053 0)
(597.832 -1.73367 0)
(597.997 -2.13977 0)
(598.037 -2.08179 0)
(595.048 5.60234 0)
(573.168 51.6844 0)
(555.383 80.4296 0)
(553.277 84.1418 0)
(553.619 83.4525 0)
(557.077 78.2032 0)
(561.666 70.8236 0)
(565.838 64.0161 0)
(569.67 57.4279 0)
(572.77 51.8678 0)
(573.813 49.817 0)
(572.863 51.3973 0)
(562.009 69.5388 0)
(547.96 91.1648 0)
(540.827 101.986 0)
(536.948 105.775 0)
(534.383 105.74 0)
(530.87 104.226 0)
(527.124 100.485 0)
(524.261 94.9316 0)
(522.156 88.1181 0)
(520.149 80.5434 0)
(517.865 72.8117 0)
(516.008 65.1898 0)
(514.977 57.8351 0)
(514.722 50.704 0)
(513.827 44.0502 0)
(509.715 37.5939 0)
(563.826 0.00223466 0)
(567.675 -0.0226805 0)
(570.726 -0.0371823 0)
(574.87 -0.048109 0)
(579.722 -0.00905391 0)
(584.528 0.085993 0)
(588.361 0.242631 0)
(591.096 0.341537 0)
(592.897 0.348143 0)
(594.083 0.254902 0)
(595.202 0.0530595 0)
(596.17 -0.233448 0)
(596.724 -0.56273 0)
(597.297 -0.939215 0)
(597.71 -1.42486 0)
(597.916 -1.9372 0)
(598.054 -2.23623 0)
(597.62 -1.11662 0)
(587.463 23.6008 0)
(561.541 72.0142 0)
(553.607 83.5244 0)
(553.177 84.456 0)
(555.23 81.2834 0)
(559.85 73.8457 0)
(564.379 66.5058 0)
(568.411 59.6668 0)
(571.963 53.355 0)
(573.752 49.8186 0)
(573.586 49.9414 0)
(566.08 62.8436 0)
(551.219 86.3332 0)
(542.401 99.7674 0)
(537.641 104.487 0)
(534.833 104.259 0)
(531.264 102.596 0)
(527.193 98.8781 0)
(523.97 93.3355 0)
(521.572 86.644 0)
(519.401 79.1791 0)
(516.957 71.5615 0)
(514.9 64.0885 0)
(513.675 56.8918 0)
(513.275 49.9084 0)
(512.611 43.442 0)
(508.237 36.8352 0)
(499.025 30.4954 0)
(563.779 0.00886941 0)
(567.596 -0.000582455 0)
(570.695 -0.0432681 0)
(574.903 -0.0693134 0)
(579.754 -0.0759761 0)
(584.55 -0.0120859 0)
(588.428 0.113106 0)
(591.216 0.302067 0)
(592.962 0.412703 0)
(594.127 0.4155 0)
(595.268 0.298517 0)
(596.161 0.0572682 0)
(596.692 -0.255137 0)
(597.25 -0.623564 0)
(597.616 -1.05706 0)
(597.815 -1.60847 0)
(598.058 -2.09157 0)
(598.016 -2.09949 0)
(595.607 4.88296 0)
(573.448 51.1006 0)
(555.674 82.0799 0)
(553.152 84.8066 0)
(553.835 83.5761 0)
(557.855 77.0498 0)
(562.794 69.1364 0)
(567.072 62.0077 0)
(570.968 55.1935 0)
(573.493 50.4539 0)
(573.811 49.4376 0)
(569.39 57.1631 0)
(554.951 80.6499 0)
(544.327 96.9668 0)
(538.471 102.955 0)
(535.226 102.73 0)
(531.707 100.84 0)
(527.266 97.1353 0)
(523.715 91.5929 0)
(521.017 85.0337 0)
(518.664 77.7113 0)
(516.064 70.2131 0)
(513.815 62.8922 0)
(512.38 55.8558 0)
(511.861 49.0618 0)
(511.245 42.7029 0)
(507.25 36.2981 0)
(497.91 29.7816 0)
(485.047 24.1182 0)
(563.775 0.0119514 0)
(567.679 0.0182986 0)
(570.677 -0.0147859 0)
(574.899 -0.0672073 0)
(579.697 -0.104441 0)
(584.483 -0.101573 0)
(588.452 -0.014493 0)
(591.298 0.14141 0)
(593.022 0.367504 0)
(594.182 0.487472 0)
(595.332 0.47577 0)
(596.189 0.330171 0)
(596.68 0.0692337 0)
(597.231 -0.281503 0)
(597.56 -0.679725 0)
(597.733 -1.18032 0)
(598.035 -1.7628 0)
(598.065 -2.10612 0)
(597.958 -0.989251 0)
(587.098 24.421 0)
(561.069 72.4433 0)
(553.526 84.8805 0)
(553.146 84.6818 0)
(555.823 80.2132 0)
(561.036 71.9868 0)
(565.666 64.4305 0)
(569.805 57.3251 0)
(572.997 51.3528 0)
(573.864 49.3041 0)
(571.7 53.0609 0)
(558.978 74.3177 0)
(546.652 93.4668 0)
(539.505 101.078 0)
(535.576 101.152 0)
(532.164 98.9717 0)
(527.386 95.2544 0)
(523.489 89.703 0)
(520.493 83.2808 0)
(517.94 76.135 0)
(515.182 68.7684 0)
(512.749 61.5976 0)
(511.103 54.7312 0)
(510.444 48.1294 0)
(509.868 41.9059 0)
(506.155 35.6495 0)
(497.13 29.2932 0)
(483.959 23.4038 0)
(470.004 18.7544 0)
(563.93 0.0142025 0)
(567.869 0.0286628 0)
(570.855 0.0261269 0)
(574.847 -0.0326357 0)
(579.596 -0.100444 0)
(584.382 -0.139743 0)
(588.427 -0.127876 0)
(591.327 -0.0195916 0)
(593.062 0.175567 0)
(594.258 0.434832 0)
(595.41 0.550496 0)
(596.217 0.52111 0)
(596.686 0.363641 0)
(597.225 0.0628044 0)
(597.527 -0.313572 0)
(597.671 -0.742071 0)
(597.997 -1.33807 0)
(598.067 -1.82194 0)
(598.366 -1.82776 0)
(595.234 5.81599 0)
(572.272 54.2616 0)
(554.762 82.09 0)
(553.003 84.8972 0)
(554.098 82.8739 0)
(559.08 75.1042 0)
(564.171 66.9718 0)
(568.543 59.6119 0)
(572.23 52.8219 0)
(573.866 49.2798 0)
(573.035 50.6306 0)
(562.994 67.7579 0)
(549.4 89.1652 0)
(540.804 98.7539 0)
(535.919 99.5166 0)
(532.618 97.008 0)
(527.532 93.2198 0)
(523.284 87.6742 0)
(520 81.3819 0)
(517.235 74.4433 0)
(514.308 67.2281 0)
(511.702 60.205 0)
(509.843 53.5135 0)
(509.032 47.1107 0)
(508.461 41.0325 0)
(505.046 34.9512 0)
(496.285 28.718 0)
(483.176 22.9402 0)
(468.531 17.9625 0)
(455.956 14.5927 0)
(564.079 0.00941516 0)
(568.106 0.0363932 0)
(570.989 0.0514087 0)
(574.885 0.0395827 0)
(579.512 -0.0364756 0)
(584.282 -0.139517 0)
(588.318 -0.180934 0)
(591.321 -0.158614 0)
(593.074 -0.021694 0)
(594.328 0.213055 0)
(595.491 0.490823 0)
(596.251 0.599765 0)
(596.69 0.555289 0)
(597.221 0.360426 0)
(597.494 0.0269614 0)
(597.63 -0.360176 0)
(597.94 -0.86202 0)
(598.034 -1.47718 0)
(598.452 -1.7361 0)
(597.777 -0.574797 0)
(585.592 28.7592 0)
(559.549 75.7385 0)
(552.986 84.8098 0)
(553.066 84.517 0)
(556.983 78.4048 0)
(562.541 69.7012 0)
(567.209 61.9912 0)
(571.25 54.6397 0)
(573.663 49.7268 0)
(573.656 49.5182 0)
(566.62 61.5629 0)
(552.562 84.0115 0)
(542.401 95.9226 0)
(536.32 97.7794 0)
(533.005 94.9606 0)
(527.706 91.023 0)
(523.094 85.5107 0)
(519.537 79.3383 0)
(516.552 72.627 0)
(513.441 65.5917 0)
(510.669 58.7153 0)
(508.601 52.2009 0)
(507.626 46.0032 0)
(507.042 40.0848 0)
(503.904 34.1897 0)
(495.422 28.1098 0)
(482.372 22.3968 0)
(467.477 17.4895 0)
(453.9 13.7392 0)
(443.821 11.481 0)
(564.136 -0.00177379 0)
(568.235 0.0221924 0)
(571.086 0.0624911 0)
(574.876 0.0828839 0)
(579.495 0.0568719 0)
(584.212 -0.0414403 0)
(588.23 -0.183774 0)
(591.248 -0.225921 0)
(593 -0.186854 0)
(594.382 -0.0183569 0)
(595.564 0.251737 0)
(596.275 0.534419 0)
(596.695 0.629162 0)
(597.204 0.543763 0)
(597.445 0.303108 0)
(597.588 -0.0441665 0)
(597.888 -0.477257 0)
(597.964 -1.05602 0)
(598.473 -1.59663 0)
(598.221 -1.62207 0)
(594.545 8.70075 0)
(568.867 59.7837 0)
(554.19 83.6628 0)
(552.741 85.0671 0)
(554.966 81.5568 0)
(560.721 72.6885 0)
(565.812 64.4333 0)
(570.083 56.7875 0)
(573.289 50.5304 0)
(573.875 49.13 0)
(569.554 56.2858 0)
(556.03 78.1916 0)
(544.302 92.5589 0)
(536.875 95.8566 0)
(533.348 92.8257 0)
(527.897 88.6554 0)
(522.915 83.2183 0)
(519.097 77.1568 0)
(515.897 70.6763 0)
(512.583 63.8548 0)
(509.647 57.1315 0)
(507.378 50.7919 0)
(506.228 44.8051 0)
(505.613 39.0579 0)
(502.732 33.3657 0)
(494.533 27.4507 0)
(481.563 21.8272 0)
(466.436 16.9439 0)
(452.341 13.2495 0)
(441.272 10.6437 0)
(433.614 9.13383 0)
(564.115 -0.00639724 0)
(568.263 -0.00425567 0)
(571.136 0.0343146 0)
(574.949 0.0952854 0)
(579.542 0.115738 0)
(584.209 0.0719796 0)
(588.172 -0.045136 0)
(591.192 -0.232415 0)
(592.929 -0.273057 0)
(594.408 -0.212136 0)
(595.616 -0.0207189 0)
(596.289 0.294928 0)
(596.698 0.555851 0)
(597.182 0.609619 0)
(597.381 0.47413 0)
(597.524 0.187061 0)
(597.825 -0.200167 0)
(597.853 -0.706976 0)
(598.395 -1.40817 0)
(598.268 -1.67887 0)
(597.792 0.314185 0)
(581.676 36.195 0)
(557.214 78.3716 0)
(552.703 85.1419 0)
(553.423 83.9881 0)
(558.693 75.9422 0)
(564.312 66.9965 0)
(568.826 59.0613 0)
(572.603 51.9102 0)
(573.927 49.041 0)
(571.638 52.3306 0)
(559.601 71.9529 0)
(546.608 88.4358 0)
(537.705 93.6022 0)
(533.59 90.569 0)
(528.091 86.1238 0)
(522.75 80.7998 0)
(518.672 74.8465 0)
(515.27 68.5842 0)
(511.736 62.0096 0)
(508.632 55.4561 0)
(506.173 49.2873 0)
(504.841 43.5149 0)
(504.179 37.9497 0)
(501.531 32.4728 0)
(493.619 26.7387 0)
(480.744 21.2165 0)
(465.422 16.3848 0)
(450.776 12.6707 0)
(439.234 10.1539 0)
(430.653 8.35184 0)
(425.15 7.35304 0)
(563.936 -0.0116466 0)
(568.176 -0.0202799 0)
(571.149 -0.00489192 0)
(575.033 0.0522681 0)
(579.63 0.132 0)
(584.271 0.153777 0)
(588.168 0.08838 0)
(591.15 -0.0515303 0)
(592.852 -0.281751 0)
(594.42 -0.314102 0)
(595.626 -0.242674 0)
(596.306 0.00142448 0)
(596.706 0.323295 0)
(597.158 0.534132 0)
(597.317 0.536333 0)
(597.436 0.329347 0)
(597.739 -0.0266115 0)
(597.74 -0.469102 0)
(598.252 -1.12442 0)
(598.274 -1.684 0)
(598.429 -1.59798 0)
(592.015 13.9218 0)
(564.667 66.983 0)
(553.058 84.5602 0)
(552.666 85.2646 0)
(556.532 79.3289 0)
(562.662 69.748 0)
(567.504 61.4043 0)
(571.647 53.7986 0)
(573.931 49.0826 0)
(572.895 49.77 0)
(563.041 65.645 0)
(549.283 83.5102 0)
(538.752 90.8351 0)
(533.733 88.1357 0)
(528.276 83.4492 0)
(522.602 78.2546 0)