/*--------------------------------*- C++ -*----------------------------------*\
| =========                 |                                                 |
| \\      /  F ield         | OpenFOAM: The Open Source CFD Toolbox           |
|  \\    /   O peration     | Version:  v2012                                 |
|   \\  /    A nd           | Website:  www.openfoam.com                      |
|    \\/     M anipulation  |                                                 |
\*---------------------------------------------------------------------------*/
FoamFile
{
    version     2.0;
    format      ascii;
    class       volVectorField;
    location    "12000";
    object      wallShearStress;
}
// * * * * * * * * * * * * * * * * * * * * * * * * * * * * * * * * * * * * * //

dimensions      [1 -1 -2 0 0 0 0];


internalField   uniform (0 0 0);

boundaryField
{
    top
    {
        type            calculated;
        value           uniform (0 0 0);
    }
    base
    {
        type            calculated;
        value           nonuniform List<vector> 
276
(
(-93.9865 -0.222712 2.83045e-17)
(-120.202 0.00101679 -6.40163e-18)
(-198.618 0.00102183 -6.24389e-20)
(-213.166 0.000727302 3.28626e-21)
(-214.129 -0.0009204 -3.28626e-21)
(-212.884 -0.0017557 3.94351e-19)
(-210.927 0.00381724 2.89191e-19)
(-208.893 0.00122546 -6.57252e-21)
(-206.943 -0.00219949 1.24878e-18)
(-205.149 -0.00266771 -1.5774e-19)
(-203.545 -0.00214691 3.94351e-20)
(-202.105 -1.65616e-05 1.02696e-22)
(-200.798 0.000966622 -2.62901e-20)
(-199.618 0.00154445 -3.94351e-20)
(-198.56 0.000299064 3.28626e-21)
(-197.599 -0.000330996 8.54428e-20)
(-196.727 -0.00124786 3.94351e-20)
(-195.931 0.000559163 -1.97176e-20)
(-195.203 -0.000103596 -9.38227e-19)
(-194.537 0.000962742 -2.62901e-20)
(-193.929 0.000873414 6.70397e-19)
(-193.372 -0.000186254 5.73452e-19)
(-192.858 -4.09437e-05 -4.10783e-22)
(-192.382 -0.00101439 -9.20153e-19)
(-191.942 0.00123618 4.20641e-19)
(-191.54 0.000700322 1.722e-18)
(-191.17 0.000450284 -1.38023e-19)
(-190.829 0.000937076 1.97176e-19)
(-190.518 0.000283097 6.57252e-21)
(-190.233 0.000801001 -1.3145e-19)
(-189.973 0.000502584 5.25802e-20)
(-189.737 0.000701361 6.17817e-19)
(-189.523 -0.000172517 6.57252e-21)
(-189.33 -0.00019458 6.93401e-19)
(-189.156 0.000417194 -1.3145e-20)
(-189.002 -9.20762e-05 3.12195e-19)
(-188.864 0.000560655 1.3145e-20)
(-188.742 0.000254029 -6.44107e-19)
(-188.634 0.000257261 0)
(-188.538 0.000674677 -2.62901e-20)
(-188.453 0.000169598 -1.74829e-18)
(-188.378 0.000163034 -1.11733e-19)
(-188.312 0.000109356 -3.2534e-19)
(-188.255 7.26024e-05 -3.28626e-21)
(-188.205 2.43143e-05 -6.14531e-19)
(-188.161 -3.08416e-05 1.64313e-21)
(-188.124 0.000502546 1.24878e-18)
(-188.09 0.000384508 7.75557e-19)
(-188.061 0.00062772 2.89191e-18)
(-188.035 0.000663561 2.36611e-19)
(-188.014 0.000661903 -1.49853e-18)
(-187.994 -0.000706963 -0)
(-187.976 -0.000408385 0)
(-187.961 0.000705972 7.88702e-20)
(-187.947 0.00046939 4.4956e-18)
(-187.933 0.000556985 -9.99023e-19)
(-187.919 -0.000899069 9.46443e-19)
(-187.905 -0.00085286 4.20641e-19)
(-187.892 -0.000949235 -2.10321e-19)
(-187.878 0.000901356 -9.99023e-19)
(-187.864 -0.000589505 3.31255e-18)
(-187.85 -0.000722026 -2.52385e-18)
(-187.836 2.20074e-05 -6.67932e-18)
(-187.822 -0.000181275 6.61196e-18)
(-187.807 -0.000684532 -1.5774e-19)
(-187.792 -0.000145386 -3.52287e-18)
(-187.777 -9.0342e-05 -4.60076e-20)
(-187.762 -0.00058186 5.99414e-18)
(-187.746 -0.000572071 -1.76669e-17)
(-187.731 -0.000819166 -2.52385e-18)
(-187.715 0.00079718 -7.04574e-18)
(-187.699 0.000340383 0)
(-187.682 0.00034203 0)
(-187.663 -0.000547431 -1.06738e-17)
(-187.645 -0.000104585 1.38943e-17)
(-187.627 0.000347997 -5.20544e-18)
(-187.605 0.00093568 -2.10321e-19)
(-187.594 0.000917421 -1.1778e-17)
(-187.558 -0.000947482 -1.78773e-18)
(-187.53 8.91425e-05 -1.5774e-19)
(-187.508 -0.000930889 0)
(-187.485 7.70141e-05 -3.2442e-17)
(-187.462 0.00108001 -8.83347e-18)
(-187.44 0.000150354 1.14362e-18)
(-187.416 0.000154448 1.3145e-20)
(-187.39 0.000150426 1.96518e-17)
(-187.362 0.00107433 -2.45024e-17)
(-187.334 5.79353e-05 3.78249e-17)
(-187.307 0.000135008 5.25802e-20)
(-187.278 7.06148e-05 1.97176e-20)
(-187.251 0.00014915 -2.10321e-19)
(-187.224 0.00109121 -3.15481e-19)
(-187.197 0.000144957 -2.62901e-20)
(-187.168 0.0010917 2.10321e-19)
(-187.142 0.000143203 -1.32765e-18)
(-187.113 6.49787e-05 -3.83178e-18)
(-187.089 5.13163e-05 4.79794e-19)
(-187.057 4.60066e-05 -1.64313e-19)
(-187.022 0.00107521 2.18733e-17)
(-186.99 -0.000906098 5.36318e-18)
(-186.956 5.31859e-05 -2.89191e-18)
(-186.921 -0.000787036 -0)
(-186.885 4.54024e-05 2.87153e-17)
(-186.849 3.84344e-05 1.22545e-17)
(-186.815 0.000113896 3.5163e-17)
(-186.776 0.000119404 0)
(-186.738 0.000113294 -9.99023e-19)
(-186.7 -0.00078388 -0)
(-186.663 9.87613e-05 4.01712e-17)
(-186.623 0.000934812 2.10321e-19)
(-186.585 8.60665e-05 1.08578e-17)
(-186.547 -0.000912218 -5.25802e-19)
(-186.51 -0.000799125 -3.47029e-18)
(-186.47 0.000377729 -3.68061e-19)
(-186.43 5.29962e-05 -1.50839e-17)
(-186.394 0.00100019 7.99218e-18)
(-186.353 -0.000290673 -1.86922e-17)
(-186.308 0.00014908 -1.47224e-18)
(-186.272 1.84305e-05 -8.21565e-21)
(-186.235 0.000150148 -2.10321e-19)
(-186.189 0.000139472 2.82618e-18)
(-186.143 0.000294988 -9.46443e-19)
(-186.099 -0.000350094 -1.21723e-17)
(-186.057 -0.000357022 -6.83542e-19)
(-186.016 -0.000871509 6.6251e-18)
(-185.961 -3.38624e-05 2.66844e-18)
(-185.884 -0.000117337 6.70397e-19)
(-185.904 0.000110603 2.10321e-19)
(-185.861 0.000807636 -1.07264e-17)
(-185.806 0.000789782 1.0516e-19)
(-185.758 0.000792072 2.10321e-19)
(-185.699 0.000778746 3.25997e-18)
(-185.651 0.00105067 -1.28296e-17)
(-185.621 -0.000899495 4.20641e-19)
(-185.573 6.65944e-05 -3.68061e-19)
(-185.506 6.88543e-05 -5.91527e-20)
(-185.455 7.12018e-05 -1.40389e-17)
(-185.403 -0.000261968 -8.01847e-18)
(-185.353 0.000779611 -1.47224e-17)
(-185.311 9.21001e-05 -1.93495e-17)
(-185.282 9.85316e-05 3.94351e-20)
(-185.218 8.7809e-05 8.47855e-19)
(-185.153 -0.000225016 1.3145e-19)
(-185.106 9.96212e-05 -1.0516e-19)
(-185.044 -0.000211064 -6.51994e-18)
(-184.999 0.00107199 1.0516e-19)
(-184.97 -0.000200925 7.63727e-18)
(-184.893 -0.000199751 7.22977e-18)
(-184.83 0.000154419 -2.73417e-18)
(-184.775 0.000180523 -1.3145e-19)
(-184.72 0.000194539 1.3145e-20)
(-184.669 0.00020751 5.25802e-20)
(-184.599 0.000224088 -2.36611e-19)
(-184.554 0.000240283 -2.62901e-20)
(-184.509 0.000245243 -7.88702e-20)
(-184.445 0.000237068 4.10125e-18)
(-184.389 0.000903084 -1.99805e-18)
(-184.334 0.000890302 1.47224e-18)
(-184.278 -0.00011114 3.8975e-18)
(-184.21 0.000198573 -3.73319e-18)
(-184.15 -0.00105748 -1.0516e-19)
(-184.105 0.000170093 6.57252e-19)
(-184.065 0.000163357 9.59588e-19)
(-184.03 -0.000815667 3.25997e-18)
(-183.955 0.000775245 -8.93863e-19)
(-183.884 0.000180875 3.28626e-19)
(-183.829 -6.2402e-05 -4.92939e-19)
(-183.77 0.000140932 -1.02531e-18)
(-183.688 -0.000369099 1.5774e-19)
(-183.626 -0.000215443 9.46443e-19)
(-183.565 0.000104082 1.24878e-19)
(-183.508 0.000101938 1.3145e-20)
(-183.449 0.00044212 2.62901e-20)
(-183.388 -0.000537262 -3.14659e-17)
(-171.228 -0.0351254 -3.02862e-17)
(-44.9387 -0.0361841 -1.51431e-17)
(4.7221 -0.00437086 -1.26192e-17)
(20.0892 -0.00660281 -4.20641e-19)
(25.6908 -0.000337871 -3.35199e-19)
(26.6487 -0.00148182 6.30962e-19)
(26.9629 -0.00295138 -1.68257e-18)
(27.1871 -0.00569936 -1.0516e-17)
(27.4344 -0.00909708 4.20641e-18)
(27.6672 -0.0124316 -7.57154e-18)
(27.784 -0.0150656 -1.00954e-17)
(27.9799 -0.0176207 -1.68257e-18)
(29.2289 -0.0195803 1.68257e-18)
(32.8324 -0.0195424 -3.36513e-18)
(39.281 -0.0181676 1.68257e-18)
(46.1378 -0.0140911 -9.25411e-18)
(49.1063 -0.0114487 -0)
(49.4589 -0.010802 -2.52385e-18)
(48.1232 -0.00845451 -1.68257e-18)
(44.7603 -0.00764905 -1.68257e-18)
(40.16 -0.00624731 -1.68257e-18)
(34.9068 -0.00578645 -0)
(28.8349 -0.00440855 8.41283e-19)
(22.1495 -0.00158072 4.20641e-19)
(14.9382 0.000907429 1.02531e-18)
(6.71614 0.0031876 -6.30962e-19)
(-2.27613 0.00635761 -4.62705e-18)
(-11.641 0.0098699 1.68257e-18)
(-21.0394 0.0135664 -1.68257e-18)
(-30.2516 0.0174358 -8.41283e-18)
(-39.1554 0.0214074 -1.00954e-17)
(-47.4877 0.0255302 3.36513e-18)
(-55.7613 0.0298043 1.68257e-17)
(-64.0875 0.0340562 -1.00954e-17)
(-72.4594 0.0379872 1.00954e-17)
(-80.7669 0.0411431 1.34605e-17)
(-88.9833 0.0432021 -3.36513e-18)
(-97.1117 0.0438999 -3.36513e-18)
(-105.097 0.0426078 -1.34605e-17)
(-112.985 0.0389695 -2.35559e-17)
(-120.703 0.0326918 1.00954e-17)
(-128.085 0.0236203 2.35559e-17)
(-135.052 0.012231 -2.52385e-17)
(-141.741 0.000651572 -1.36492e-16)
(-148.063 -0.0147157 8.74934e-17)
(-154 -0.0299045 8.41283e-17)
(-159.716 -0.0422814 5.0477e-17)
(-165.375 -0.0490792 5.38421e-17)
(-171.119 -0.0500715 -6.73026e-18)
(-177.002 -0.0439739 6.73026e-18)
(-183.029 -0.0302965 -7.40329e-17)
(-189.105 -0.0119307 1.06002e-16)
(-195.137 0.00817189 -1.11049e-16)
(-201.019 0.0305967 3.36513e-18)
(-206.61 0.0525656 1.81717e-16)
(-211.81 0.0710846 -1.54796e-16)
(-216.62 0.0841341 -6.73026e-17)
(-221.061 0.0885911 6.73026e-18)
(-225.18 0.0830309 -2.6921e-17)
(-229.062 0.0672431 -2.01908e-17)
(-232.811 0.043185 -1.21145e-16)
(-236.544 0.0155272 2.18733e-16)
(-240.346 -0.00461493 4.20641e-19)
(-244.212 -0.0280881 2.6248e-16)
(-248.097 -0.0496899 1.34605e-17)
(-251.951 -0.0636335 2.01908e-17)
(-255.732 -0.0692506 6.73026e-18)
(-259.406 -0.064539 1.34605e-17)
(-262.988 -0.0549063 6.73026e-18)
(-266.533 -0.0396135 0)
(-270.096 -0.0206048 6.73026e-18)
(-273.945 0.00449839 -2.99497e-16)
(-278.382 0.0396831 1.11049e-16)
(-283.7 0.0247273 6.73026e-18)
(-287.945 0.0406366 9.42237e-17)
(-292.697 0.0464075 -1.34605e-17)
(-297.379 0.0621475 -1.00954e-16)
(-302.866 0.0678831 -2.6921e-17)
(-308.584 0.0617893 -6.73026e-18)
(-314.122 0.0483809 2.45655e-16)
(-319.479 0.0341521 0)
(-324.535 0.0197794 -1.68257e-18)
(-329.232 0.00444783 2.46916e-16)
(-333.578 0.00482863 -9.50649e-17)
(-337.536 -0.00992526 8.07631e-17)
(-341.107 -0.0113784 -1.68257e-18)
(-344.278 -0.0185744 6.05723e-17)
(-347.004 -0.0236234 -5.0477e-18)
(-349.287 -0.0256686 3.02862e-17)
(-351.195 -0.0267352 6.73026e-18)
(-352.769 -0.0251402 -6.05723e-17)
(-354.041 -0.021184 -7.90806e-17)
(-355.015 -0.0175678 3.36513e-18)
(-355.686 -0.0128396 5.72072e-17)
(-356.086 -0.00723086 0)
(-356.244 -0.00240709 6.30962e-19)
(-356.184 -0.0109131 8.41283e-19)
(-355.898 -0.00327856 4.20641e-19)
(-355.423 -0.00802844 -3.11275e-17)
(-354.68 0.00133046 -3.15481e-19)
(-354.405 0.00609593 5.13182e-17)
(-351.873 0.0111599 -4.1526e-17)
)
;
    }
    frontAndBack
    {
        type            empty;
    }
    inlet
    {
        type            calculated;
        value           uniform (0 0 0);
    }
    outlet
    {
        type            calculated;
        value           uniform (0 0 0);
    }
}


// ************************************************************************* //
