/*--------------------------------*- C++ -*----------------------------------*\
| =========                 |                                                 |
| \\      /  F ield         | OpenFOAM: The Open Source CFD Toolbox           |
|  \\    /   O peration     | Version:  v2012                                 |
|   \\  /    A nd           | Website:  www.openfoam.com                      |
|    \\/     M anipulation  |                                                 |
\*---------------------------------------------------------------------------*/
FoamFile
{
    version     2.0;
    format      ascii;
    class       volScalarField;
    location    "12000";
    object      xx;
}
// * * * * * * * * * * * * * * * * * * * * * * * * * * * * * * * * * * * * * //

dimensions      [0 0 0 0 0 0 0];


internalField   nonuniform List<scalar> 
27324
(
3.26953
3.14414
7.77524
3.00851
7.66636
8.20135
2.87591
7.51697
7.93331
5.66965
2.74077
7.36211
7.62211
5.39146
3.07552
2.60233
7.17898
7.31044
5.07673
2.90628
1.49413
2.46257
6.96012
6.97987
4.76779
2.70224
1.41142
0.681663
2.32675
6.70653
6.62836
4.45973
2.50093
1.30119
0.643455
0.297031
2.20124
6.43176
6.26121
4.15649
2.30499
1.1908
0.588512
0.279877
0.126481
2.0859
6.15526
5.89187
3.86316
2.12034
1.08424
0.533032
0.25441
0.119396
0.0558557
1.97829
5.87658
5.53455
3.58355
1.95041
0.986307
0.479968
0.228825
0.108761
0.0532691
0.0275179
1.87627
5.58668
5.18697
3.3158
1.79322
0.898922
0.432165
0.204797
0.0982473
0.0493049
0.026655
0.0152951
1.77847
5.27713
4.84128
3.0542
1.63984
0.819457
0.390528
0.183686
0.0886052
0.0454416
0.0252462
0.0150044
0.00917819
1.68262
4.94239
4.48993
2.79503
1.48551
0.740644
0.353357
0.165793
0.0803518
0.041957
0.0238765
0.014466
0.00906413
0.00568487
1.58111
4.5744
4.12597
2.53629
1.33047
0.660128
0.316656
0.150213
0.0735311
0.039025
0.022641
0.0139349
0.00881704
0.00562611
0.00354297
1.47215
4.14629
3.73926
2.2755
1.17709
0.579773
0.279588
0.13512
0.0677275
0.0366409
0.0216003
0.0134451
0.00856704
0.00548847
0.00350645
0.00220474
1.35792
3.65533
3.31482
2.00943
1.02657
0.502593
0.243591
0.12021
0.0622167
0.0346429
0.0207529
0.0130223
0.008331
0.00534534
0.00342227
0.00218065
0.00137751
1.23918
3.11864
2.86049
1.74769
0.879849
0.430303
0.210392
0.106154
0.0568848
0.032764
0.0200398
0.0126683
0.00811935
0.00520745
0.00333215
0.00212922
0.00136128
0.00087063
1.11398
2.5538
2.39737
1.50407
0.751169
0.363893
0.180779
0.0936464
0.0519746
0.0309574
0.0193568
0.0123595
0.00793445
0.00508061
0.00324406
0.00207244
0.00133114
0.000857989
0.000565207
0.88657
1.97132
1.9406
1.281
0.649043
0.311086
0.154958
0.0829072
0.0477082
0.0292963
0.0186799
0.0120484
0.00776603
0.00496507
0.00316232
0.00201606
0.00129699
0.000840644
0.000553589
0.000387062
0.555244
1.26305
1.50612
1.07465
0.567354
0.273864
0.135665
0.0738715
0.0441254
0.027845
0.0180304
0.0117207
0.00758899
0.00485551
0.00308613
0.00196338
0.0012616
0.00082125
0.000543751
0.000375654
0.00028798
0.25444
0.713961
1.01487
0.898019
0.497426
0.246885
0.122828
0.0673473
0.0411576
0.0266034
0.0174284
0.0113839
0.00739443
0.00473831
0.00301192
0.0019138
0.00122813
0.000799583
0.000533719
0.000368559
0.000274546
0.00023982
0.0952153
0.365761
0.618726
0.683521
0.44982
0.224788
0.113861
0.0631309
0.0390421
0.0255391
0.0168708
0.0110475
0.00718531
0.00460748
0.00293361
0.00186491
0.00119643
0.000777948
0.000521817
0.000363221
0.000267078
0.000224706
0.000221687
0.0748672
0.20931
0.349875
0.464717
0.371643
0.212651
0.106452
0.0602442
0.0376936
0.0247525
0.0163518
0.0107113
0.00696938
0.00446333
0.00284752
0.00181433
0.001165
0.000757304
0.000508536
0.000357389
0.000262481
0.000214319
0.000206491
0.000221041
0.0708031
0.185538
0.212704
0.31594
0.284944
0.18154
0.102385
0.0578261
0.0367603
0.0242259
0.0159327
0.0103835
0.00675001
0.0043127
0.00275245
0.00176023
0.00113287
0.000736987
0.000495272
0.000350013
0.000260312
0.000209081
0.000194882
0.000206619
0.00031143
0.0687884
0.178973
0.185337
0.233762
0.220029
0.150078
0.088872
0.055868
0.0359014
0.0238079
0.0156119
0.0101034
0.00653848
0.00415924
0.00265333
0.0017011
0.00109966
0.00071636
0.000482821
0.00034195
0.000257889
0.000207172
0.000184709
0.000193327
0.000275714
0.000713255
0.06717
0.174619
0.177224
0.215133
0.181565
0.126142
0.0766361
0.0488749
0.034346
0.0233671
0.0153243
0.00986927
0.00635391
0.00401218
0.00255515
0.00163927
0.0010647
0.000695567
0.000471032
0.000334628
0.000254409
0.00020581
0.000177624
0.000179843
0.000228979
0.000510354
0.00165815
0.0653863
0.170419
0.171762
0.207015
0.171222
0.111635
0.0679506
0.0431298
0.0300375
0.0217876
0.0149386
0.00964863
0.00618771
0.00387586
0.00246377
0.00157882
0.00102731
0.000674987
0.000459061
0.000328362
0.000249335
0.000203587
0.000172839
0.00016158
0.000182486
0.000357287
0.00109576
0.00419596
0.0634836
0.165516
0.166771
0.200396
0.165048
0.106287
0.0625669
0.0396459
0.02733
0.0191175
0.0134833
0.00922383
0.00601096
0.00374184
0.00237079
0.00151868
0.000988273
0.000651879
0.000446452
0.000321108
0.000242523
0.000199858
0.000163618
0.000138779
0.000142512
0.000251914
0.000742192
0.00289158
0.012155
0.0614929
0.160138
0.161899
0.194867
0.159497
0.103137
0.059177
0.0372011
0.0262736
0.0182773
0.0119565
0.00808403
0.00547204
0.00355186
0.00226333
0.00144735
0.000944361
0.00062248
0.000430136
0.000309649
0.000230033
0.000182724
0.000144079
0.000114608
0.000112082
0.000181264
0.000511745
0.00202053
0.00869591
0.0366285
0.0594758
0.15453
0.157326
0.189738
0.15457
0.100294
0.0579454
0.034012
0.0251216
0.0188062
0.0121197
0.0074109
0.00470486
0.00308553
0.00200981
0.00130817
0.000865958
0.000568013
0.000392922
0.000280658
0.000202993
0.000153333
0.000118353
9.616e-05
9.30748e-05
0.000137266
0.000361914
0.00140728
0.00619565
0.0268656
0.109844
0.0575074
0.148984
0.153117
0.184989
0.14972
0.0976075
0.0569823
0.0334221
0.0228939
0.0188707
0.0133119
0.00799604
0.00458954
0.00272219
0.00169253
0.00108371
0.000703986
0.00046424
0.000318244
0.000223907
0.000161295
0.000124388
0.000100972
8.69286e-05
8.34752e-05
0.000109852
0.000261153
0.000978592
0.00437091
0.019561
0.0826844
0.321588
0.055635
0.143837
0.149294
0.180511
0.145029
0.0948907
0.0558903
0.0331539
0.0222058
0.0173117
0.0140958
0.00922067
0.00523294
0.00288506
0.00163658
0.000972057
0.000603278
0.000389829
0.000263452
0.000186727
0.000139724
0.000110763
9.37712e-05
8.34717e-05
7.93973e-05
9.29657e-05
0.000192086
0.00067893
0.00305633
0.0140822
0.0617
0.248713
0.908487
0.053902
0.139316
0.145858
0.17616
0.140466
0.0923069
0.0547699
0.0327804
0.0220559
0.0162756
0.0131124
0.0102764
0.00625001
0.00340505
0.00184758
0.00103729
0.00060862
0.00037688
0.000249085
0.000176277
0.000133438
0.000107198
9.17751e-05
8.30773e-05
7.84656e-05
8.30315e-05
0.000144609
0.000471731
0.00211613
0.0100297
0.0455167
0.190649
0.721544
2.47697
0.052324
0.135468
0.142668
0.171767
0.135986
0.0898769
0.0537092
0.0323264
0.021921
0.0161434
0.0122304
0.00975845
0.00724399
0.00416574
0.00220809
0.00119953
0.000677658
0.00040511
0.000259137
0.000179386
0.000134757
0.000108626
9.29697e-05
8.37201e-05
7.84997e-05
7.79099e-05
0.000113207
0.00032907
0.0014528
0.00706468
0.0332094
0.144496
0.568184
2.01971
6.49859
0.0508932
0.132144
0.139447
0.16709
0.131543
0.08757
0.0527209
0.0318593
0.0217322
0.0160832
0.012064
0.009049
0.0070654
0.00491069
0.00267519
0.00142113
0.000779918
0.000453905
0.00028226
0.000190498
0.000140193
0.000111839
9.50917e-05
8.49003e-05
7.89037e-05
7.57717e-05
9.33607e-05
0.000231889
0.000989735
0.00492182
0.0239553
0.108302
0.442748
1.63336
5.42701
16.5297
0.0494891
0.12903
0.135937
0.161926
0.127124
0.0853444
0.0517953
0.0313965
0.0215367
0.016009
0.0120172
0.00874599
0.00655728
0.00496947
0.00316615
0.0016864
0.000901655
0.000510897
0.000309742
0.000203876
0.000147056
0.000115659
9.73962e-05
8.61872e-05
7.9345e-05
7.51717e-05
8.15776e-05
0.000166495
0.000670552
0.00338957
0.0170845
0.080231
0.341477
1.30821
4.49635
14.135
40.6926
0.047996
0.125777
0.131967
0.156311
0.122799
0.0831868
0.0508907
0.0309541
0.0213476
0.0159357
0.011978
0.00869439
0.00623791
0.00467957
0.00333586
0.00197282
0.00104223
0.00057553
0.000340802
0.000218826
0.000154408
0.000119616
9.97835e-05
8.76044e-05
7.98808e-05
7.51341e-05
7.55389e-05
0.000123922
0.000452963
0.00230773
0.0120383
0.0587521
0.260409
1.03825
3.69699
11.9973
35.6014
96.6433
0.0463917
0.122216
0.127494
0.150471
0.118628
0.0811177
0.0499837
0.0305264
0.0211744
0.0158682
0.0119379
0.00866428
0.00616777
0.00439087
0.00322946
0.00216216
0.00119534
0.000649299
0.000375917
0.000235816
0.000162591
0.000123813
0.000102252
8.91679e-05
8.06859e-05
7.52979e-05
7.28937e-05
9.7615e-05
0.000306641
0.00155294
0.00837783
0.0425111
0.196313
0.815917
3.01629
10.1195
30.9244
86.3632
220.063
0.0446998
0.118172
0.122554
0.144484
0.114615
0.0791238
0.0490828
0.0301151
0.0210138
0.015808
0.0118994
0.00863401
0.0061447
0.00426096
0.00300056
0.00218705
0.00136026
0.00073508
0.000415857
0.000255198
0.000171995
0.00012851
0.000104904
9.08741e-05
8.16833e-05
7.56329e-05
7.19915e-05
8.22384e-05
0.00020998
0.00103354
0.00575315
0.0303877
0.146234
0.63464
2.44051
8.48171
26.7324
76.6365
200.424
478.641
0.0429927
0.113852
0.117526
0.138694
0.110787
0.077188
0.0481998
0.0297295
0.0208636
0.0157503
0.0118637
0.00860476
0.00612635
0.00423534
0.00286263
0.00204275
0.00143729
0.000834417
0.000461492
0.000276881
0.000182712
0.000133819
0.000107793
9.27111e-05
8.28908e-05
7.61378e-05
7.18194e-05
7.42034e-05
0.000147748
0.000681345
0.00389629
0.0214405
0.107658
0.488204
1.95774
7.06058
22.9964
67.7628
181.279
443.161
988.68
0.0413667
0.109639
0.112821
0.133429
0.107183
0.0753115
0.0473576
0.0293726
0.0207217
0.0156932
0.0118279
0.00857968
0.00610867
0.00422091
0.00282136
0.00190719
0.0013815
0.0009075
0.000513868
0.000300566
0.000194612
0.000139798
0.000110951
9.46625e-05
8.42519e-05
7.68877e-05
7.19134e-05
7.0487e-05
0.0001095
0.000446271
0.00260078
0.0149235
0.0782909
0.371226
1.55611
5.83595
19.6793
59.7066
163.554
407.499
928.961
1909.69
0.0399307
0.105766
0.1087
0.128692
0.103812
0.0734678
0.0465485
0.0290517
0.0205885
0.0156361
0.0117914
0.00855632
0.00609454
0.00420655
0.00280667
0.00183956
0.00127423
0.000916587
0.000563847
0.000326776
0.00020741
0.00014645
0.00011445
9.67447e-05
8.5737e-05
7.78494e-05
7.21945e-05
6.90427e-05
8.71717e-05
0.000292648
0.00170954
0.0102399
0.0562033
0.278883
1.2252
4.78713
16.7489
52.4152
147.206
374.081
866.708
1820.72
3371.86
0.0386189
0.102346
0.105137
0.124333
0.100585
0.0716516
0.0457449
0.0287608
0.0204683
0.01558
0.0117545
0.00853391
0.00608215
0.00419517
0.0027941
0.0018231
0.00120197
0.000857251
0.000596906
0.000355241
0.000220993
0.000153636
0.000118354
9.90028e-05
8.73243e-05
7.9007e-05
7.26737e-05
6.8627e-05
7.51447e-05
0.000194827
0.00110687
0.0069169
0.0398097
0.206975
0.954825
3.896
14.1707
45.8411
132.172
342.855
807.658
1723.01
3263.52
5381.89
0.037411
0.09946
0.101918
0.12019
0.0974539
0.0698548
0.0449379
0.0284578
0.0203606
0.0155288
0.0117186
0.0085127
0.00607044
0.00418512
0.00278322
0.0018131
0.0011643
0.000787606
0.000584206
0.000384797
0.000235704
0.000161079
0.000122674
0.000101495
8.90184e-05
8.03052e-05
7.33805e-05
6.85907e-05
6.92376e-05
0.000134807
0.000706656
0.00459481
0.027794
0.151697
0.736109
3.14431
11.9157
39.9294
118.393
313.772
751.78
1628.68
3133.72
5274.98
7962.65
0.0362332
0.0968283
0.0988969
0.116199
0.0943941
0.0680969
0.0441253
0.028148
0.0202536
0.0154781
0.0116863
0.00849398
0.00605932
0.00417573
0.00277407
0.00180399
0.00115578
0.000747624
0.000536573
0.000392866
0.000252068
0.000168584
0.000127295
0.00010428
9.08357e-05
8.17109e-05
7.43151e-05
6.87562e-05
6.66643e-05
9.96858e-05
0.000447048
0.00299634
0.0191129
0.109713
0.56115
2.51546
9.95348
34.6347
105.787
286.76
699.138
1537.82
3005.78
5127.86
7875.53
11261.8
0.0349816
0.0940782
0.0956484
0.112222
0.0914184
0.0663635
0.0433179
0.0278454
0.0201571
0.0154318
0.0116586
0.00848034
0.00605008
0.00416715
0.00276633
0.00179666
0.00114936
0.000728744
0.000491946
0.000377661
0.000264549
0.000176433
0.000131967
0.000107383
9.28096e-05
8.31988e-05
7.54089e-05
6.91515e-05
6.57198e-05
8.03247e-05
0.00028313
0.00191636
0.0129238
0.0782854
0.422493
1.99417
8.25774
29.9054
94.2921
261.716
649.698
1450.85
2879.61
4981.97
7719.38
11219.1
14726.2
0.0335579
0.0909314
0.0921067
0.108206
0.088541
0.0646432
0.0425088
0.0275618
0.0200746
0.0153887
0.0116323
0.00847152
0.00604491
0.00416065
0.00275994
0.0017908
0.00114384
0.00072334
0.000468294
0.00034263
0.000268224
0.000184536
0.000136449
0.000110728
9.49801e-05
8.47633e-05
7.66435e-05
6.97681e-05
6.54402e-05
7.03446e-05
0.00018318
0.0012013
0.00857956
0.055062
0.31405
1.56552
6.80281
25.6994
83.8259
238.568
603.353
1367.97
2756.23
4836.63
7563.68
11069.1
14549.2
18071.8
0.0320085
0.087235
0.0884501
0.104256
0.0857577
0.0629246
0.0417003
0.0272963
0.0200064
0.0153506
0.0116106
0.00846688
0.00604384
0.00415786
0.00275556
0.0017866
0.00113973
0.000719495
0.000457755
0.000312266
0.000254562
0.000192399
0.000140807
0.000114078
9.73742e-05
8.64223e-05
7.79681e-05
7.06112e-05
6.54446e-05
6.55963e-05
0.000124737
0.000739609
0.005578
0.0381517
0.23021
1.21652
5.56289
21.9762
74.3217
217.207
560.065
1289.26
2636.26
4692.78
7405.97
10917.8
14575
17731
20480.1
0.0303979
0.0832235
0.0846855
0.100375
0.0830579
0.0612071
0.0408336
0.0270441
0.0199471
0.0153165
0.0115924
0.00846659
0.00604705
0.00415904
0.00275415
0.00178407
0.00113737
0.000716397
0.000454737
0.000296614
0.000229184
0.000191984
0.000145395
0.000117097
9.99635e-05
8.82123e-05
7.9364e-05
7.16284e-05
6.56719e-05
6.35506e-05
9.23233e-05
0.000449519
0.00354659
0.0259959
0.16632
0.934884
4.51487
18.6943
65.712
197.539
519.699
1214.82
2520.06
4550.39
7248.66
10760.2
14504.2
17752.9
20851.5
21746.1
0.0288881
0.0792815
0.0811896
0.0966626
0.08037
0.0594852
0.039948
0.0267724
0.0198861
0.0152827
0.0115769
0.00846914
0.0060533
0.00416325
0.00275615
0.00178363
0.00113643
0.000715037
0.000452906
0.000289464
0.000206773
0.000182307
0.000148939
0.000119716
0.000102611
9.01746e-05
8.08287e-05
7.27908e-05
6.6121e-05
6.27845e-05
7.53013e-05
0.000273787
0.0022052
0.0173778
0.118317
0.710046
3.63508
15.8195
57.9274
179.47
482.175
1144.65
2408.15
4409.83
7092.41
10600.1
14453.9
17611.6
21058.4
22196.5
22252.8
0.0275664
0.0756755
0.078102
0.0932463
0.0777105
0.0577905
0.0390582
0.0264878
0.0198214
0.0152471
0.0115597
0.00847248
0.00606116
0.00416976
0.00276053
0.00178564
0.00113685
0.000714757
0.000452118
0.000287978
0.000194868
0.000163268
0.00014959
0.000122182
0.000105041
9.23321e-05
8.23927e-05
7.40349e-05
6.68117e-05
6.25467e-05
6.68501e-05
0.000171964
0.0013354
0.011346
0.0828233
0.532382
2.90247
13.3145
50.9149
162.883
447.395
1078.75
2300.85
4272.01
6937.7
10438
14405.7
17494.9
20970.6
22504.8
22756.8
22112.7
0.0263545
0.0724267
0.0753481
0.0900101
0.0750766
0.0561192
0.0382372
0.0262037
0.0197415
0.0152045
0.0115399
0.00847212
0.00606861
0.00417723
0.00276614
0.00178877
0.00113857
0.000715323
0.000452092
0.000287116
0.000189402
0.000144725
0.000142395
0.000124398
0.000106975
9.46472e-05
8.4092e-05
7.534e-05
6.77099e-05
6.25353e-05
6.29313e-05
0.000115854
0.000788303
0.00723309
0.0570002
0.393736
2.29638
11.1468
44.6171
147.684
415.202
1017.13
2198.49
4137.54
6785.32
10274.5
14363.6
17384.1
20817.3
22828.6
23138
22650.8
21424.3
0.0252051
0.0694498
0.0728286
0.0868862
0.072493
0.0545039
0.0374527
0.0259718
0.0196523
0.0151498
0.011515
0.00846675
0.00607116
0.00418371
0.00277198
0.0017926
0.00114094
0.00071638
0.000452548
0.000286817
0.000188351
0.000133611
0.000128294
0.000124752
0.000108497
9.69594e-05
8.5966e-05
7.67144e-05
6.87244e-05
6.28735e-05
6.12912e-05
8.66134e-05
0.000456913
0.00448686
0.0385111
0.28682
1.79902
9.2809
38.9913
133.771
385.488
959.683
2101.44
4007.06
6635.79
10110.7
14325.9
17288.2
20659.1
23142.1
23535.7
23083
21979.5
20294.4
0.0240612
0.0664844
0.0703654
0.0839051
0.0700002
0.0529636
0.0367177
0.0257554
0.0195801
0.0150883
0.0114836
0.00845422
0.0060679
0.00418669
0.0027767
0.0017963
0.00114338
0.000717637
0.000453173
0.000286802
0.000187956
0.000128535
0.000111999
0.000120251
0.00010993
9.89652e-05
8.80382e-05
7.81773e-05
6.98171e-05
6.34319e-05
6.06814e-05
7.21687e-05
0.000265714
0.00269575
0.0255002
0.205531
1.39385
7.68492
33.988
121.065
358.079
906.379
2009.82
3881.31
6489.95
9946.82
14287.5
17212.8
20504.8
23450.5
23925.8
23533.1
22443.6
20851.2
18839
0.0229082
0.0634103
0.0678315
0.0810372
0.0676041
0.0514986
0.0360446
0.0255571
0.0195027
0.01504
0.0114519
0.00843726
0.00605823
0.00418408
0.00277969
0.00179911
0.00114546
0.000718911
0.000453686
0.000286914
0.000187593
0.000126906
0.000100187
0.000110307
0.000110566
0.000100435
9.02729e-05
7.97607e-05
7.09685e-05
6.4205e-05
6.04954e-05
6.54413e-05
0.000161444
0.00156252
0.0165009
0.144688
1.06689
6.32579
29.5653
109.489
332.826
857.066
1923.89
3760.66
6348.87
9784.62
14195.1
17146.8
20337.9
23750.3
24314.4
23979
22925.9
21329.1
19383.2
17173.4
0.0217576
0.0603297
0.0652893
0.0782721
0.0653531
0.0501055
0.0354269
0.025373
0.0194333
0.0149914
0.0114319
0.0084199
0.00604576
0.0041767
0.00277814
0.001801
0.00114696
0.000720002
0.000454038
0.000286969
0.00018731
0.000126454
9.43564e-05
9.62977e-05
0.000109079
0.000101516
9.25131e-05
8.15003e-05
7.21851e-05
6.51165e-05
6.08022e-05
6.25429e-05
0.000108062
0.000874417
0.0103952
0.0998685
0.805868
5.17418
25.6738
98.9937
309.566
811.628
1843.77
3645.84
6213.2
9625.63
14059.8
17084.6
20168.3
23607.4
24700
24426.6
23407
21825.1
19858.9
17693.5
15403.4
0.020676
0.0573165
0.0627868
0.0755732
0.0632124
0.0487416
0.0348643
0.0251999
0.0193653
0.014947
0.0114233
0.00841275
0.00603374
0.00416809
0.00277397
0.00180001
0.00114803
0.00072066
0.000454341
0.000286923
0.000187225
0.000126132
9.1732e-05
8.35131e-05
0.000102746
0.000102488
9.44633e-05
8.34282e-05
7.34799e-05
6.61192e-05
6.14121e-05
6.1402e-05
8.25045e-05
0.000479639
0.00630214
0.067473
0.599806
4.20305
22.2656
89.5219
288.189
769.837
1769.62
3537.21
6084.04
9471.01
13922.6
17025.6
20007.1
23381.5
25085.1
24875.1
23892.5
22322.5
20352.3
18153.7
15890.2
13617.5
0.0197184
0.0545844
0.0604352
0.0729276
0.0611787
0.0474093
0.034308
0.0250202
0.0192935
0.0149092
0.0114217
0.00841506
0.00602984
0.00416069
0.00276841
0.00179835
0.00114772
0.000721197
0.000454743
0.000286886
0.000187238
0.000126038
9.12288e-05
7.55432e-05
9.22756e-05
0.000102442
9.58882e-05
8.55374e-05
7.48724e-05
6.7206e-05
6.22906e-05
6.09928e-05
7.10875e-05
0.000262769
0.00365435
0.044492
0.439404
3.38753
19.2927
81.0296
268.589
731.481
1701.46
3435.41
5962.23
9322.66
13784.7
16969.4
19863.2
23158.6
25466.7
25324.4
24381.3
22826.6
20849
18630.8
16324.9
14065.2
11885.3
0.0188372
0.0521191
0.0582226
0.0703948
0.0592445
0.0461445
0.033761
0.0248242
0.0192171
0.0148724
0.0114247
0.00842113
0.00603504
0.00415926
0.00276442
0.00179623
0.00114736
0.000721384
0.000455103
0.000287002
0.000187291
0.000126087
9.10827e-05
7.18382e-05
7.95162e-05
0.000100125
9.68989e-05
8.77158e-05
7.63942e-05
6.83797e-05
6.32783e-05
6.09018e-05
6.63311e-05
0.000152503
0.00201988
0.0285427
0.316215
2.70692
16.7049
73.4643
250.724
696.282
1639.32
3340.82
5848.78
9181.69
13647.7
16912.7
19745.4
22939.8
25841.1
25771.5
24873.1
23335.9
21354.2
19112.8
16775.3
14467.3
12290.3
10255.7
0.0179872
0.0498667
0.056152
0.0679502
0.0574282
0.04495
0.0332599
0.0246123
0.0191195
0.0148352
0.011425
0.00842903
0.00604286
0.00416485
0.00276405
0.00179481
0.00114677
0.000721681
0.000455493
0.000287323
0.0001874
0.000126249
9.1014e-05
7.03764e-05
6.892e-05
9.34201e-05
9.77556e-05
8.97144e-05
7.80959e-05
6.96321e-05
6.43701e-05
6.16659e-05
6.45143e-05
0.000101209
0.00105999
0.0176993
0.223069
2.14216
14.4607
66.7576
234.577
664.064
1582.94
3254.35
5744.74
9049.68
13513.8
16856.1
19637.8
22706.3
26110.1
26213.7
25364.8
23849.6
21865.8
19604.1
17231.6
14883.8
12655.9
10617.1
8760.19
0.0171294
0.0477228
0.0542489
0.0656077
0.0557149
0.0438299
0.0327931
0.0244128
0.0190062
0.0147895
0.0114202
0.0084325
0.0060508
0.00417227
0.00276869
0.00179486
0.00114637
0.000721946
0.000455936
0.000287767
0.000187606
0.00012643
9.10679e-05
7.01271e-05
6.26093e-05
8.32527e-05
9.762e-05
9.12488e-05
8.00246e-05
7.09798e-05
6.5592e-05
6.25551e-05
6.38294e-05
7.95396e-05
0.000533014
0.010514
0.153677
1.67744
12.5205
60.8451
220.121
634.733
1532.03
3176.44
5650.75
8927.67
13385.6
16804.7
19535.7
22473.4
25840
26650.5
25854.9
24365.4
22383.3
20103
17697.7
15307
13034.4
10944.5
9078.72
7415.39
0.0162676
0.0456342
0.0525034
0.0633902
0.0540915
0.0427842
0.0323386
0.0242217
0.0188965
0.0147405
0.0114084
0.00842879
0.00605525
0.00417935
0.00277392
0.00179738
0.0011463
0.000721922
0.000456375
0.000288219
0.00018789
0.000126578
9.11804e-05
7.00221e-05
5.9669e-05
7.15557e-05
9.53792e-05
9.23719e-05
8.2174e-05
7.24457e-05
6.69255e-05
6.37088e-05
6.38503e-05
7.13425e-05
0.000267461
0.00590945
0.102934
1.29791
10.8533
55.6521
207.33
608.28
1486.24
3107.53
5567.51
8817.2
13264.7
16759.2
19438.7
22248.9
25549.9
27084.2
26343.2
24882.6
22905
20609
18172
15739.9
13419.8
11283.5
9368.34
7693.14
6226.36
0.015403
0.0436458
0.050929
0.0613117
0.0524991
0.0417989
0.031892
0.024031
0.0187921
0.0147026
0.0113936
0.00841834
0.00605259
0.00418397
0.00277856
0.0018004
0.00114667
0.000721765
0.000456619
0.000288585
0.000188194
0.000126695
9.12883e-05
7.00293e-05
5.85691e-05
6.18989e-05
8.91522e-05
9.32867e-05
8.43844e-05
7.40624e-05
6.8367e-05
6.50267e-05
6.44342e-05
6.83773e-05
0.000146064
0.0030644
0.0665574
0.990749
9.43024
51.1163
196.13
584.821
1445.25
3047.48
5496.42
8719.81
13153.4
16716.7
19351.9
22040
25259.5
27511.2
26828.8
25399.9
23430.1
21120.5
18654
16181.3
13814.6
11629.1
9668
7946.4
6466.31
5190.13
0.0145278
0.0417348
0.049582
0.059357
0.0509386
0.0408436
0.0314356
0.0238353
0.0186884
0.0146776
0.0113858
0.00840638
0.0060446
0.00418318
0.00278179
0.00180334
0.00114731
0.000721502
0.000456271
0.000288812
0.000188439
0.000126803
9.13493e-05
7.01066e-05
5.83822e-05
5.59474e-05
7.99045e-05
9.35364e-05
8.63735e-05
7.58631e-05
6.99148e-05
6.64982e-05
6.53711e-05
6.723e-05
9.75378e-05
0.00145864
0.0411344
0.74385
8.22812
47.1824
186.446
564.449
1409.1
2995.85
5438.77
8637.19
13054.1
16678.6
19269.3
21858.9
24959.3
27926.2
27308.2
25916.7
23957.8
21637.4
19142.9
16630.7
14217.9
11983.8
9974.14
8208.45
6685.77
5395.7
4298.21
0.0136515
0.0398569
0.0483975
0.057567
0.0494084
0.0399
0.0309544
0.0236294
0.0185932
0.0146572
0.0113862
0.0084006
0.00603712
0.00417917
0.00278198
0.0018053
0.00114848
0.000721242
0.000455643
0.000288722
0.000188605
0.000126942
9.13782e-05
7.02454e-05
5.83392e-05
5.29924e-05
6.91542e-05
9.21409e-05
8.79061e-05
7.7878e-05
7.15772e-05
6.81064e-05
6.6593e-05
6.68066e-05
8.11075e-05
0.000637816
0.0239327
0.546733
7.22479
43.8127
178.174
547.268
1378.02
2952.12
5395.22
8571.41
12968.3
16653.5
19186.7
21697.1
24631.8
28051.6
27779.1
26431.4
24487.5
22158.5
19638
17087.5
14629.2
12346.7
10288.5
8476.53
6912.73
5584.17
4473.02
3538.75
0.012778
0.037946
0.0473378
0.0559494
0.0479266
0.0389748
0.0304432
0.0233985
0.0184997
0.0146404
0.0113871
0.00840197
0.00603267
0.00417522
0.00278108
0.0018065
0.00114984
0.000721196
0.000454915
0.000288518
0.000188716
0.000127115
9.14057e-05
7.03765e-05
5.83562e-05
5.16772e-05
5.98511e-05
8.70228e-05
8.89947e-05
8.01186e-05
7.33811e-05
6.98493e-05
6.80389e-05
6.71296e-05
7.63055e-05
0.000274105
0.0127771
0.390332
6.40143
40.9795
171.244
533.24
1352.53
2915.96
5365.48
8524.77
12896.7
16646.1
19108.2
21543.2
24314.1
27702.1
28243
26941.8
25017.6
22683.5
20138.6
17551.5
15048.2
12717.2
10610.5
8752.26
7145.38
5779.25
4633.65
3686.39
2898.36
0.011925
0.0360183
0.046349
0.0544915
0.046483
0.0380563
0.0299184
0.0231539
0.0184034
0.0146215
0.0113875
0.00840449
0.00603429
0.00417382
0.00277941
0.00180702
0.00115088
0.000721751
0.000454386
0.00028821
0.000188814
0.000127261
9.14744e-05
7.04743e-05
5.84519e-05
5.13885e-05
5.34998e-05
7.92479e-05
8.98929e-05
8.25738e-05
7.53482e-05
7.17253e-05
6.96827e-05
6.78021e-05
7.47295e-05
0.000139881
0.00599571
0.267118
5.7411
38.6677
165.6
522.316
1333.07
2887.73
5348.03
8499.33
12840.5
16653.2
19039.5
21384.6
24022
27347.4
28699.8
27443
25540.3
23206.3
20642.8
18021.6
15474.6
13095.3
10940
9034.92
7384.76
5979.31
4800
3822.31
3022.2
2362.99
0.0110942
0.0341321
0.0454365
0.0531421
0.0450758
0.0371088
0.0294001
0.0229095
0.0183095
0.0145953
0.0113832
0.00840598
0.00603765
0.00417512
0.00277843
0.00180674
0.00115179
0.000722802
0.000454189
0.000287923
0.000188632
0.000127353
9.16206e-05
7.05385e-05
5.85821e-05
5.13258e-05
4.99575e-05
7.01843e-05
8.87567e-05
8.4951e-05
7.74901e-05
7.37403e-05
7.14971e-05
6.88755e-05
7.4001e-05
0.000102585
0.00232855
0.171527
5.22825
36.8689
161.23
514.394
1319.97
2868.32
5341.09
8494.59
12803.3
16663.4
18973.5
21238.9
23739.4
27043.9
29140.2
27938.2
26066.1
23734.5
21152.3
18497.2
15907.5
13480.9
11276.5
9324.41
7630.49
6185.51
4970.85
3963.18
3136.36
2466.19
1918.98
0.0102873
0.032324
0.0445925
0.0518913
0.0436745
0.0361147
0.0288765
0.0226772
0.0182298
0.0145635
0.0113717
0.00840458
0.0060397
0.0041779
0.00277861
0.00180634
0.00115239
0.000723684
0.000454755
0.000287822
0.000188379
0.000127415
9.18185e-05
7.05772e-05
5.86603e-05
5.1307e-05
4.81696e-05
6.14607e-05
8.57778e-05
8.69605e-05
7.9801e-05
7.59083e-05
7.34779e-05
7.0211e-05
7.37968e-05
9.53593e-05
0.000742007
0.0993849
4.85044
35.5782
158.157
509.4
1313.27
2858.79
5343.64
8507.34
12783.7
16695.1
18910.3
21113.3
23488.3
26819.1
29562.7
28432.2
26589.5
24261.3
21662.8
18976.7
16346.2
13873.1
11620.2
9620.59
7882.51
6397.39
5147.14
4108.07
3254.84
2561.38
2004.34
1553.33
0.00950954
0.0306004
0.0438
0.0506985
0.0423029
0.0350599
0.0283449
0.0224578
0.0181612
0.0145342
0.0113555
0.00839967
0.00603974
0.00418047
0.0027792
0.0018062
0.00115223
0.000724363
0.00045543
0.00028787
0.000188039
0.000127378
9.19943e-05
7.06057e-05
5.86721e-05
5.14961e-05
4.761e-05
5.47527e-05
8.01681e-05
8.81516e-05
8.2371e-05
7.82507e-05
7.562e-05
7.17943e-05
7.40572e-05
9.3854e-05
0.000285472
0.0478676
4.59748
34.7964
156.425
507.319
1312.8
2859.75
5355.38
8533
12760.9
16789.4
18850.9
20996.9
23304.1
26608
29967.9
28912.7
27104
24786.5
22174.8
19459.3
16789.3
14270.8
11970.7
9923.58
8140.57
6614.89
5328.47
4257.76
3376.94
2660.39
2083.18
1623.48
1254.26
0.0088014
0.0289689
0.0429993
0.0494982
0.0409636
0.0339804
0.027804
0.022244
0.0180984
0.0145063
0.0113398
0.00839328
0.00603949
0.00418216
0.00277999
0.00180606
0.00115159
0.000724446
0.000455775
0.000287966
0.00018778
0.000127251
9.21107e-05
7.06581e-05
5.86464e-05
5.16977e-05
4.74996e-05
5.04382e-05
7.31606e-05
8.83998e-05
8.53367e-05
8.07819e-05
7.79228e-05
7.36e-05
7.47248e-05
9.28466e-05
0.000229813
0.0147863
4.46502
34.5266
156.106
508.167
1318.22
2871.01
5375.46
8549.93
12727.4
16970.9
18825.6
20877.6
23176.6
26369.9
29926.9
29370.1
27605.2
25305
22685.7
19943.9
17235.7
14672.8
12326.2
10232.9
8404.9
6837.92
5514.83
4411.89
3503.23
2762.61
2165.32
1688.21
1311.41
1011.04
0.00818437
0.0274652
0.0421726
0.0481845
0.0396268
0.0329066
0.0272733
0.0220271
0.0180335
0.0144777
0.011324
0.0083873
0.00603926
0.00418446
0.00278076
0.00180621
0.00115103
0.000724356
0.000455965
0.00028834
0.000187628
0.000127029
9.21741e-05
7.07303e-05
5.86266e-05
5.18395e-05
4.76066e-05
4.80504e-05
6.58705e-05
8.62437e-05
8.84268e-05
8.34731e-05
8.03901e-05
7.561e-05
7.57686e-05
9.23801e-05
0.000225569
0.00300105
4.45532
34.7762
157.04
510.948
1325.22
2882.17
5388.22
8553.13
12683.1
17192.4
18868.7
20757.8
23088.2
26172.5
29784.2
29805.4
28088
25810.9
23190.8
20428
17684.6
15078.6
12685.8
10546.6
8675.07
7066.51
5706.11
4570.5
3633.45
2868.47
2250.29
1755.88
1364.14
1057.24
814.324
0.00758293
0.0261031
0.0413431
0.0467722
0.038265
0.0318694
0.0267666
0.021822
0.0179541
0.0144447
0.0113075
0.00838084
0.00603853
0.00418773
0.00278235
0.0018067
0.00115078
0.000724248
0.000455776
0.000288605
0.000187589
0.000126847
9.21267e-05
7.08005e-05
5.86211e-05
5.19202e-05
4.80914e-05
4.6947e-05
5.9504e-05
8.23953e-05
9.11376e-05
8.63103e-05
8.30353e-05
7.78121e-05
7.71444e-05
9.23208e-05
0.000222318
0.00297432
4.4816
35.0244
157.951
513.514
1331.62
2893.53
5398.96
8550.02
12622.9
17376.3
18961.4
20683.1
22987.8
26016.9
29662.8
30216.9
28552.4
26300.1
23684.5
20907.3
18133.5
15487
13049.1
10864.5
8949.46
7300.49
5902.36
4733.51
3767.62
2977.81
2338.47
1826.03
1419.44
1099.82
851.31
655.885
0.00690774
0.024678
0.0405245
0.0452886
0.0368924
0.0308667
0.0262706
0.0216248
0.0178705
0.0143985
0.0112913
0.00837593
0.00603579
0.0041906
0.00278509
0.0018076
0.00115077
0.000724317
0.000455659
0.000288792
0.000187784
0.000126739
9.19264e-05
7.08276e-05
5.87418e-05
5.19795e-05
4.87109e-05
4.6618e-05
5.49193e-05
7.77033e-05
9.28812e-05
8.93813e-05
8.58876e-05
8.02062e-05
7.8779e-05
9.26494e-05
0.000220592
0.00295984
4.50896
35.3435
159.353
517.108
1339.07
2906.24
5406.86
8541.65
12545.4
17452.7
19056.7
20694.2
22878
25849
29544.6
30600.1
28992.9
26771.2
24163.3
21376.4
18578.2
15895.7
13415.2
11185.7
9227.46
7538.4
6103.34
4900.92
3905.67
3090.63
2429.73
1899.01
1476.94
1144.64
885.382
685.25
528.726
0.00634694
0.0230814
0.0395089
0.0437802
0.0355477
0.029924
0.0257628
0.0214223
0.0177832
0.0143471
0.0112696
0.00837304
0.00603399
0.00419071
0.00278805
0.00180943
0.0011509
0.00072457
0.000455588
0.000288892
0.000187919
0.000126733
9.16994e-05
7.08192e-05
5.89764e-05
5.2056e-05
4.93664e-05
4.67595e-05
5.21609e-05
7.18451e-05
9.301e-05
9.2773e-05
8.89703e-05
8.27945e-05
8.06186e-05
9.34276e-05
0.000220585
0.00294534
4.54956
35.7701
161.216
521.647
1347.1
2919.59
5411.84
8528.5
12454.8
17433.5
19110.9
20742.7
22811.5
25637.2
29371.4
30948.6
29403.1
27218.6
24625.2
21832.4
19014.3
16301
13781.7
11509.8
9508.73
7779.51
6308.27
5072.49
4047.62
3206.9
2524.06
1974.65
1536.9
1191.38
921.384
712.231
551.809
426.889
0.00589167
0.0215855
0.0382105
0.0421516
0.0342269
0.0290442
0.0252528
0.021203
0.0176905
0.0142944
0.0112447
0.00837107
0.00603458
0.00418966
0.0027895
0.00181186
0.00115119
0.000724773
0.000455543
0.000289064
0.000187934
0.000126833
9.15119e-05
7.07368e-05
5.93065e-05