/*--------------------------------*- C++ -*----------------------------------*\
| =========                 |                                                 |
| \\      /  F ield         | OpenFOAM: The Open Source CFD Toolbox           |
|  \\    /   O peration     | Version:  v2012                                 |
|   \\  /    A nd           | Website:  www.openfoam.com                      |
|    \\/     M anipulation  |                                                 |
\*---------------------------------------------------------------------------*/
FoamFile
{
    version     2.0;
    format      ascii;
    class       volScalarField;
    location    "12000";
    object      yPlus;
}
// * * * * * * * * * * * * * * * * * * * * * * * * * * * * * * * * * * * * * //

dimensions      [0 0 0 0 0 0 0];


internalField   uniform 0;

boundaryField
{
    top
    {
        type            calculated;
        value           uniform 0;
    }
    base
    {
        type            calculated;
        value           nonuniform List<scalar> 
276
(
0.339023
0.380578
0.490189
0.508346
0.509545
0.508032
0.505645
0.503159
0.500767
0.49856
0.496573
0.494785
0.493156
0.491684
0.490355
0.489146
0.488051
0.487048
0.486121
0.485277
0.484515
0.483823
0.48319
0.482607
0.482072
0.481589
0.481153
0.480766
0.480428
0.480139
0.479893
0.479693
0.479533
0.479414
0.479337
0.479299
0.479293
0.479322
0.479378
0.479458
0.47956
0.479685
0.479825
0.479986
0.48016
0.480348
0.480549
0.480759
0.480977
0.481197
0.481417
0.481624
0.481822
0.48201
0.482188
0.482352
0.482503
0.482645
0.482774
0.482894
0.483004
0.483104
0.483197
0.483281
0.483358
0.483428
0.483492
0.483551
0.483604
0.483655
0.483699
0.483738
0.483771
0.4838
0.483824
0.483846
0.483864
0.483883
0.483888
0.483925
0.483975
0.484019
0.484062
0.484102
0.484136
0.484162
0.484183
0.484207
0.484235
0.484261
0.484292
0.484321
0.484353
0.484382
0.484412
0.484434
0.484461
0.484473
0.484478
0.484488
0.484488
0.484489
0.484485
0.484482
0.484482
0.484476
0.484471
0.484467
0.48446
0.48445
0.484446
0.484441
0.484434
0.484425
0.484412
0.484405
0.484387
0.484365
0.484354
0.484344
0.484322
0.484297
0.484275
0.484256
0.484237
0.484197
0.484124
0.484177
0.484147
0.4841
0.484065
0.484012
0.48397
0.483954
0.483915
0.483845
0.483796
0.483747
0.483699
0.483664
0.48364
0.483568
0.483495
0.483443
0.483372
0.483318
0.483289
0.483197
0.483117
0.483051
0.482982
0.482915
0.482821
0.48276
0.482695
0.482604
0.482519
0.482436
0.482349
0.482246
0.482149
0.48207
0.481995
0.481925
0.481798
0.481675
0.481573
0.481463
0.481316
0.481197
0.481081
0.480956
0.480864
0.480693
0.466646
0.286088
0.128671
0.248395
0.286055
0.29456
0.298942
0.302301
0.305574
0.308551
0.310783
0.313089
0.320925
0.340754
0.373335
0.407344
0.4246
0.429272
0.427653
0.416541
0.398762
0.375719
0.345455
0.306245
0.25422
0.173329
0.0958755
0.226718
0.308303
0.372938
0.427613
0.474352
0.517608
0.558637
0.59784
0.63508
0.670523
0.704403
0.736681
0.767666
0.797236
0.824974
0.850767
0.875187
0.898063
0.91941
0.939776
0.959665
0.979472
0.999295
1.01915
1.03875
1.05792
1.07642
1.09397
1.1104
1.12579
1.14025
1.15387
1.16682
1.17928
1.19144
1.20344
1.21522
1.22664
1.23764
1.24819
1.25834
1.26822
1.27802
1.28776
1.29813
1.30933
1.31926
1.32854
1.33724
1.34573
1.35441
1.36145
1.36666
1.37019
1.37184
1.37165
1.36982
1.36647
1.3617
1.35562
1.34827
1.33984
1.33056
1.32057
1.30995
1.29875
1.28701
1.27485
1.26232
1.24949
1.23635
1.22306
1.20928
1.19728
1.17533
)
;
    }
    frontAndBack
    {
        type            empty;
    }
    inlet
    {
        type            calculated;
        value           uniform 0;
    }
    outlet
    {
        type            calculated;
        value           uniform 0;
    }
}


// ************************************************************************* //
