# Wall heat-flux
# Time        	patch         	min           	max           	integral      
0             	base	1.049160e+06	1.284894e+06	6.786283e+03
