# Wall heat-flux
# Time        	patch         	min           	max           	integral      
2400          	base	-4.390970e+05	-9.205413e+03	-6.408033e+02
