# Wall heat-flux
# Time        	patch         	min           	max           	integral      
100           	base	-1.353070e+04	3.022227e+04	3.644076e+02
