# p  FACE_DATA 398
# x  y  z  p
-0.7975 0 0.025 4473.51
-0.79239 0 0.025 3650.52
-0.787056 0 0.025 2994.67
-0.781492 0 0.025 2835.87
-0.775691 0 0.025 2728.51
-0.769649 0 0.025 2701.47
-0.763362 0 0.025 2721.4
-0.756822 0 0.025 2747.8
-0.750025 0 0.025 2769.77
-0.742968 0 0.025 2780.75
-0.735648 0 0.025 2785.94
-0.72806 0 0.025 2787.34
-0.720203 0 0.025 2786.41
-0.712076 0 0.025 2784.34
-0.703677 0 0.025 2783.34
-0.695006 0 0.025 2782.83
-0.686065 0 0.025 2782.43
-0.676855 0 0.025 2781.19
-0.667379 0 0.025 2780.38
-0.65764 0 0.025 2776.51
-0.647644 0 0.025 2774.42
-0.637397 0 0.025 2775.89
-0.626906 0 0.025 2772.4
-0.616179 0 0.025 2769.4
-0.605224 0 0.025 2769.93
-0.594054 0 0.025 2767.57
-0.582678 0 0.025 2766.59
-0.57111 0 0.025 2763.38
-0.559364 0 0.025 2762.48
-0.547454 0 0.025 2761.03
-0.535396 0 0.025 2759.52
-0.523205 0 0.025 2757.92
-0.510901 0 0.025 2755.34
-0.4985 0 0.025 2754.61
-0.486021 0 0.025 2753.78
-0.473483 0 0.025 2752.57
-0.460905 0 0.025 2751.99
-0.448308 0 0.025 2750.19
-0.435709 0 0.025 2747.36
-0.42313 0 0.025 2745.96
-0.41059 0 0.025 2745.49
-0.39811 0 0.025 2745.02
-0.385706 0 0.025 2744.46
-0.373398 0 0.025 2744.46
-0.361205 0 0.025 2743.46
-0.349141 0 0.025 2741.13
-0.337226 0 0.025 2738.92
-0.325475 0 0.025 2737.56
-0.313901 0 0.025 2737.5
-0.30252 0 0.025 2737.59
-0.291343 0 0.025 2737.26
-0.280382 0 0.025 2736.75
-0.269646 0 0.025 2736.87
-0.259148 0 0.025 2736.9
-0.248893 0 0.025 2736.85
-0.23889 0 0.025 2735.99
-0.229143 0 0.025 2734.83
-0.219659 0 0.025 2732.85
-0.210441 0 0.025 2730.69
-0.201491 0 0.025 2728.58
-0.192812 0 0.025 2727.17
-0.184405 0 0.025 2726.2
-0.176269 0 0.025 2725.91
-0.168404 0 0.025 2725.91
-0.160808 0 0.025 2726.68
-0.15348 0 0.025 2727.67
-0.146415 0 0.025 2728.89
-0.13961 0 0.025 2729.91
-0.133063 0 0.025 2730.73
-0.126767 0 0.025 2730.97
-0.120718 0 0.025 2730.82
-0.11491 0 0.025 2730.28
-0.109339 0 0.025 2729.64
-0.103997 0 0.025 2728.86
-0.0988805 0 0.025 2728
-0.0939808 0 0.025 2727.03
-0.0892928 0 0.025 2726.02
-0.0848096 0 0.025 2725.01
-0.0805248 0 0.025 2724.07
-0.0764316 0 0.025 2723.22
-0.0725237 0 0.025 2722.52
-0.0687943 0 0.025 2721.97
-0.065237 0 0.025 2721.59
-0.0618454 0 0.025 2721.36
-0.058613 0 0.025 2721.24
-0.0555337 0 0.025 2721.22
-0.0526013 0 0.025 2721.23
-0.0498099 0 0.025 2721.27
-0.0471536 0 0.025 2721.32
-0.0446266 0 0.025 2721.4
-0.0422235 0 0.025 2721.46
-0.039939 0 0.025 2721.54
-0.0377676 0 0.025 2721.7
-0.0357044 0 0.025 2721.5
-0.0337445 0 0.025 2743.37
-0.0318832 0 0.025 3301.59
-0.0301159 0 0.025 5152.88
-0.0284383 0 0.025 6719.43
-0.0268461 0 0.025 7709.4
-0.0253353 0 0.025 8281.18
-0.023902 0 0.025 8717.38
-0.0225426 0 0.025 9090.48
-0.0212532 0 0.025 9400.75
-0.0200306 0 0.025 9661.04
-0.0188715 0 0.025 9883.69
-0.0177728 0 0.025 10078.2
-0.0167313 0 0.025 10258.6
-0.0157444 0 0.025 10424.9
-0.0148092 0 0.025 10581.1
-0.0139232 0 0.025 10726.8
-0.0130838 0 0.025 10861.8
-0.0122887 0 0.025 10986.4
-0.0115356 0 0.025 11099.6
-0.0108223 0 0.025 11201.8
-0.0101469 0 0.025 11293.1
-0.00950727 0 0.025 11373.8
-0.00890168 0 0.025 11444.9
-0.00832835 0 0.025 11507
-0.00778557 0 0.025 11561.4
-0.00727176 0 0.025 11609.4
-0.0067854 0 0.025 11652.5
-0.00632507 0 0.025 11692.3
-0.00588937 0 0.025 11730.4
-0.00547703 0 0.025 11768.5
-0.0050868 0 0.025 11807.9
-0.00471753 0 0.025 11850.7
-0.0043681 0 0.025 11899
-0.00403746 0 0.025 11953.1
-0.00372461 0 0.025 12014.3
-0.0034286 0 0.025 12083.8
-0.00314855 0 0.025 12164.5
-0.0028836 0 0.025 12255.3
-0.00263294 0 0.025 12351.9
-0.00239581 0 0.025 12458.7
-0.0021715 0 0.025 12574.5
-0.00195929 0 0.025 12698.9
-0.00175856 0 0.025 12831
-0.00156869 0 0.025 12969.7
-0.00138908 0 0.025 13113.5
-0.0012192 0 0.025 13260.9
-0.00105853 0 0.025 13409.2
-0.000906546 0 0.025 13555.2
-0.000762803 0 0.025 13693.6
-0.000626848 0 0.025 13816.6
-0.000498265 0 0.025 13912.4
-0.000376656 0 0.025 13969.6
-0.000261642 0 0.025 13976.9
-0.00015287 0 0.025 13969.1
-5e-05 0 0.025 13990.1
4.14519e-05 2.79596e-05 0.025 13682.7
0.000125371 8.45641e-05 0.025 13715
0.000211347 0.000142556 0.025 13684.1
0.000299429 0.000201968 0.025 13622.4
0.000389669 0.000262835 0.025 13542.4
0.000482118 0.000325193 0.025 13454.9
0.000576831 0.000389077 0.025 13364
0.000673861 0.000454524 0.025 13272.6
0.000773265 0.000521574 0.025 13184.7
0.0008751 0.000590262 0.025 13104
0.000979426 0.000660632 0.025 13033.6
0.0010863 0.000732721 0.025 12975.4
0.00119579 0.000806572 0.025 12930
0.00130795 0.000882227 0.025 12899.3
0.00142285 0.00095973 0.025 12878.6
0.00154056 0.00103912 0.025 12874.8
0.00166115 0.00112046 0.025 12885.5
0.00178467 0.00120378 0.025 12907.9
0.00191121 0.00128913 0.025 12942
0.00204083 0.00137656 0.025 12988.3
0.00217362 0.00146612 0.025 13045.2
0.00230964 0.00155787 0.025 13112.4
0.00244897 0.00165185 0.025 13190.1
0.00259169 0.00174812 0.025 13278.7
0.00273789 0.00184673 0.025 13376.5
0.00288765 0.00194774 0.025 13484.1
0.00304105 0.00205122 0.025 13601.2
0.00319818 0.00215719 0.025 13728.3
0.00335912 0.00226575 0.025 13864.7
0.00352397 0.00237695 0.025 14010.9
0.00369283 0.00249085 0.025 14167.3
0.00386579 0.00260751 0.025 14334.1
0.00404294 0.00272699 0.025 14511.3
0.00422438 0.00284938 0.025 14699.3
0.00441022 0.00297474 0.025 14898.9
0.00460056 0.00310312 0.025 15110.3
0.00479552 0.00323462 0.025 15334.5
0.00499519 0.0033693 0.025 15571.7
0.00519968 0.00350723 0.025 15823.1
0.00540911 0.00364849 0.025 16089.1
0.00562361 0.00379318 0.025 16370.8
0.00584329 0.00394134 0.025 16669.6
0.00606826 0.00409309 0.025 16986.2
0.00629865 0.00424849 0.025 17321.7
0.0065346 0.00440764 0.025 17678.1
0.00677623 0.00457063 0.025 18056.3
0.00702368 0.00473753 0.025 18458.7
0.00727707 0.00490844 0.025 18886.6
0.00753655 0.00508347 0.025 19342.1
0.00780227 0.00526269 0.025 19827.8
0.00807436 0.00544622 0.025 20345.6
0.00835298 0.00563415 0.025 20898.7
0.00863826 0.00582659 0.025 21489.1
0.00893038 0.00602362 0.025 22120.6
0.00922949 0.00622537 0.025 22795.8
0.00953574 0.00643195 0.025 23519.1
0.00984929 0.00664345 0.025 24293.2
0.0101703 0.00686 0.025 25125.7
0.0104991 0.00708171 0.025 26018.1
0.0108356 0.00730871 0.025 26977.5
0.0111801 0.0075411 0.025 28012
0.0115329 0.00777902 0.025 29128.2
0.011894 0.00802259 0.025 30333.1
0.0122637 0.00827194 0.025 31639.4
0.0126421 0.00852719 0.025 33056.3
0.0130295 0.0087885 0.025 34596
0.013426 0.00905597 0.025 36272.9
0.013832 0.00932978 0.025 38103.3
0.0142475 0.00961003 0.025 40096.5
0.0146727 0.0098969 0.025 42281.9
0.0151081 0.0101905 0.025 44669.9
0.0155536 0.010491 0.025 47276.7
0.0160097 0.0107986 0.025 50121.9
0.0164764 0.0111134 0.025 53212
0.016954 0.0114356 0.025 56558.5
0.0174427 0.0117653 0.025 60164.7
0.0179429 0.0121026 0.025 64046.5
0.0184548 0.0124479 0.025 68218.2
0.0189786 0.0128013 0.025 72715.1
0.0195146 0.0131628 0.025 77573.6
0.020063 0.0135327 0.025 82809.3
0.0206242 0.0139112 0.025 88462.2
0.0211983 0.0142984 0.025 94609.6
0.0217857 0.0146947 0.025 101349
0.0223867 0.0151 0.025 108784
0.0230015 0.0155147 0.025 116917
0.0236304 0.0159389 0.025 125788
0.0242738 0.0163729 0.025 135404
0.0249318 0.0168167 0.025 145850
0.025605 0.0172708 0.025 157042
0.0262935 0.0177352 0.025 168313
0.0269977 0.0182102 0.025 178412
0.0277178 0.0186959 0.025 185161
0.0284544 0.0191927 0.025 186959
0.0292075 0.0197008 0.025 185765
0.0299777 0.0202203 0.025 179111
0.0307653 0.0207514 0.025 172916
0.0315704 0.0212945 0.025 166723
0.0323937 0.0218499 0.025 160668
0.0332354 0.0224176 0.025 154866
0.0340959 0.022998 0.025 149468
0.0349755 0.0235913 0.025 144432
0.0358747 0.0241978 0.025 139904
0.0367938 0.0248178 0.025 136002
0.0377331 0.0254513 0.025 132900
0.0386932 0.0260989 0.025 130385
0.0396743 0.0267606 0.025 128177
0.0406769 0.0274369 0.025 126216
0.0417013 0.0281279 0.025 124760
0.042748 0.0288339 0.025 123991
0.0438175 0.0295552 0.025 123589
0.04491 0.0302922 0.025 123405
0.0460262 0.031045 0.025 123483
0.0471662 0.031814 0.025 123681
0.0483306 0.0325995 0.025 123567
0.0495199 0.0334016 0.025 123547
0.0507344 0.0342208 0.025 123941
0.0519746 0.0350573 0.025 124663
0.0532409 0.0359114 0.025 125287
0.0545339 0.0367835 0.025 125304
0.0558538 0.0376739 0.025 125054
0.0572012 0.0385827 0.025 124915
0.0585766 0.0395104 0.025 125073
0.0599804 0.0404573 0.025 125370
0.061413 0.0414236 0.025 125395
0.0628748 0.0424096 0.025 125373
0.0643665 0.0434157 0.025 125636
0.0658883 0.0444422 0.025 126323
0.0674408 0.0454894 0.025 127203
0.0690245 0.0465576 0.025 127460
0.0706398 0.0476471 0.025 127251
0.0722871 0.0487582 0.025 126791
0.0739669 0.0498912 0.025 126359
0.0756797 0.0510466 0.025 126550
0.0774258 0.0522244 0.025 126965
0.0792059 0.053425 0.025 127569
0.0810203 0.0546489 0.025 128131
0.0828694 0.0558961 0.025 128263
0.0847537 0.0571671 0.025 128295
0.0866737 0.0584622 0.025 128256
0.0886298 0.0597816 0.025 128413
0.0906224 0.0611256 0.025 128650
0.0926518 0.0624944 0.025 128913
0.0947185 0.0638884 0.025 129126
0.096823 0.065308 0.025 129102
0.0989659 0.0667532 0.025 128724
0.101147 0.0682245 0.025 128034
0.103367 0.0697219 0.025 127268
0.105626 0.0712458 0.025 126818
0.107926 0.0727965 0.025 126732
0.110265 0.074374 0.025 127330
0.112644 0.0759789 0.025 128116
0.115063 0.0776111 0.025 129152
0.117524 0.0792709 0.025 129476
0.120026 0.0809585 0.025 129628
0.122569 0.0826741 0.025 129610
0.125155 0.0844179 0.025 129272
0.127782 0.0861901 0.025 128691
0.130451 0.0879908 0.025 127831
0.133163 0.08982 0.025 127174
0.135918 0.0916781 0.025 127142
0.138716 0.0935651 0.025 127870
0.141556 0.095481 0.025 128826
0.14444 0.097426 0.025 129255
0.147367 0.0994004 0.025 128995
0.150337 0.101404 0.025 128810
0.153351 0.103437 0.025 127935
0.156408 0.105498 0.025 126544
0.159508 0.107589 0.025 126932
0.162651 0.10971 0.025 126815
0.165838 0.111859 0.025 126125
0.169069 0.114039 0.025 127029
0.172343 0.116247 0.025 125659
0.175659 0.118483 0.025 124591
0.179018 0.120749 0.025 123367
0.182421 0.123045 0.025 122223
0.185866 0.125368 0.025 122133
0.189353 0.12772 0.025 122563
0.192882 0.1301 0.025 123071
0.196453 0.132509 0.025 123109
0.200065 0.134946 0.025 122434
0.203718 0.13741 0.025 121749
0.207412 0.139901 0.025 121164
0.211146 0.14242 0.025 120026
0.214919 0.144965 0.025 119212
0.218732 0.147537 0.025 119691
0.222583 0.150134 0.025 119727
0.226472 0.152757 0.025 120792
0.230399 0.155406 0.025 121106
0.234362 0.15808 0.025 121622
0.238362 0.160777 0.025 121688
0.242396 0.163498 0.025 121988
0.246466 0.166244 0.025 121989
0.250569 0.169012 0.025 122636
0.254706 0.171801 0.025 121881
0.258874 0.174613 0.025 121503
0.263074 0.177446 0.025 120769
0.267304 0.180299 0.025 120899
0.271564 0.183172 0.025 120951
0.275852 0.186064 0.025 120653
0.280168 0.188975 0.025 120956
0.28451 0.191904 0.025 120759
0.288876 0.19485 0.025 120362
0.293268 0.197812 0.025 120634
0.297683 0.20079 0.025 119819
0.302119 0.203782 0.025 119499
0.306577 0.206788 0.025 119601
0.311054 0.209808 0.025 119375
0.315549 0.212841 0.025 119932
0.320063 0.215885 0.025 119816
0.324591 0.218939 0.025 120757
0.329134 0.222003 0.025 121526
0.333691 0.225077 0.025 121443
0.33826 0.228159 0.025 121941
0.342839 0.231248 0.025 121747
0.347428 0.234343 0.025 122121
0.352025 0.237444 0.025 121202
0.356628 0.240548 0.025 121304
0.361237 0.243658 0.025 121304
0.36585 0.246769 0.025 120494
0.370465 0.249882 0.025 121386
0.375082 0.252996 0.025 120884
0.379698 0.25611 0.025 120736
0.384313 0.259223 0.025 121271
0.388926 0.262333 0.025 120733
0.393534 0.265442 0.025 120966
0.398136 0.268546 0.025 121044
0.40273 0.271645 0.025 120576
0.407317 0.274739 0.025 120547
0.411894 0.277826 0.025 120289
0.41646 0.280906 0.025 121114
0.421014 0.283977 0.025 120756
0.425554 0.28704 0.025 120717
0.430079 0.290092 0.025 121033
0.434588 0.293133 0.025 120973
0.439079 0.296162 0.025 121429
0.443551 0.299179 0.025 121259
0.448004 0.302183 0.025 121144
0.452437 0.305172 0.025 121218
0.456846 0.308146 0.025 121434
0.461232 0.311105 0.025 121370
0.465593 0.314047 0.025 121512
0.469929 0.316971 0.025 121338
0.474238 0.319878 0.025 122114
0.47852 0.322766 0.025 121831
0.482773 0.325635 0.025 121874
0.486996 0.328483 0.025 121659
0.491189 0.331311 0.025 121292
0.49535 0.334118 0.025 122055
