# y+ ()       
# Time        	patch         	min           	max           	average       
10300         	base	7.060393e-03	2.404711e+01	5.487702e+00
