# y+ ()       
# Time        	patch         	min           	max           	average       
9200          	base	3.304009e-02	6.376105e-01	2.610071e-01
