# Wall heat-flux
# Time        	patch         	min           	max           	integral      
12800         	base	-3.785911e+06	-3.148637e+04	-9.748582e+03
