# p  FACE_DATA 317
# x  y  z  p
-2.24217 0 0.27 23911.4
-2.12942 0 0.27 23880.3
-2.02231 0 0.27 23853.3
-1.92055 0 0.27 23842.7
-1.82389 0 0.27 23839.3
-1.73207 0 0.27 23833.9
-1.64485 0 0.27 23826.6
-1.562 0 0.27 23821.7
-1.48331 0 0.27 23821.3
-1.40856 0 0.27 23818.7
-1.33756 0 0.27 23810.4
-1.27013 0 0.27 23796.8
-1.20608 0 0.27 23777.8
-1.14539 0 0.27 23757.4
-1.08787 0 0.27 23737.3
-1.03323 0 0.27 23720.4
-0.981322 0 0.27 23705.8
-0.932014 0 0.27 23693.7
-0.885173 0 0.27 23684.5
-0.84068 0 0.27 23677.7
-0.798416 0 0.27 23673.1
-0.758473 0 0.27 23670.2
-0.720912 0 0.27 23668.5
-0.685558 0 0.27 23667.9
-0.652245 0 0.27 23667.7
-0.620811 0 0.27 23667.6
-0.591171 0 0.27 23667.9
-0.563165 0 0.27 23668.3
-0.536572 0 0.27 23669.1
-0.51125 0 0.27 23670.7
-0.487059 0 0.27 23673.4
-0.463863 0 0.27 23677.1
-0.441526 0 0.27 23681.9
-0.419915 0 0.27 23687.3
-0.398896 0 0.27 23693
-0.378338 0 0.27 23698.8
-0.358104 0 0.27 23704.4
-0.33806 0 0.27 23707.7
-0.318069 0 0.27 23735.8
-0.296809 0 0.27 23752.6
-0.275112 0 0.27 23735.5
-0.255001 0 0.27 23731.1
-0.23636 0 0.27 23757.3
-0.219081 0 0.27 23748.1
-0.203066 0 0.27 23726.5
-0.188221 0 0.27 23723.8
-0.174462 0 0.27 23721.5
-0.161708 0 0.27 23721.9
-0.149886 0 0.27 23722.7
-0.138929 0 0.27 23722.2
-0.128773 0 0.27 23722.6
-0.119359 0 0.27 23722
-0.110632 0 0.27 23722.1
-0.102544 0 0.27 23722
-0.0950472 0 0.27 23722.3
-0.0880983 0 0.27 23722.1
-0.0816572 0 0.27 23722.9
-0.0756869 0 0.27 23721.3
-0.070153 0 0.27 23738.8
-0.0650234 0 0.27 24406.2
-0.0602687 0 0.27 29917.4
-0.0558616 0 0.27 39054.4
-0.0517765 0 0.27 43748.7
-0.0479899 0 0.27 46312.9
-0.04448 0 0.27 47905.7
-0.0412265 0 0.27 49214.6
-0.0382106 0 0.27 50152.7
-0.0354151 0 0.27 50941.5
-0.0328237 0 0.27 51636
-0.0304215 0 0.27 52239.9
-0.0281948 0 0.27 52769.2
-0.0261306 0 0.27 53244.8
-0.0242171 0 0.27 53673.4
-0.0224431 0 0.27 54062.5
-0.0207985 0 0.27 54416.5
-0.0192738 0 0.27 54737.8
-0.0178602 0 0.27 55030.7
-0.0165496 0 0.27 55296.6
-0.0153345 0 0.27 55538.5
-0.0142077 0 0.27 55758.8
-0.0131629 0 0.27 55959.6
-0.0121939 0 0.27 56143.3
-0.0112952 0 0.27 56312
-0.0104616 0 0.27 56467.6
-0.0096884 0 0.27 56611.9
-0.00897103 0 0.27 56746.2
-0.00830536 0 0.27 56871.7
-0.00768758 0 0.27 56989.6
-0.0071141 0 0.27 57100.5
-0.00658165 0 0.27 57205.1
-0.00608714 0 0.27 57304.3
-0.00562772 0 0.27 57398.2
-0.00520074 0 0.27 57487.3
-0.00480375 0 0.27 57571.9
-0.00443446 0 0.27 57652.1
-0.00409073 0 0.27 57728.2
-0.00377059 0 0.27 57799.8
-0.00347218 0 0.27 57871
-0.00319379 0 0.27 57937.7
-0.00293381 0 0.27 57999
-0.00269075 0 0.27 58057.8
-0.00246319 0 0.27 58113.5
-0.00224984 0 0.27 58166.5
-0.00204945 0 0.27 58216.6
-0.00186089 0 0.27 58264.2
-0.00168306 0 0.27 58308.9
-0.00151492 0 0.27 58351.5
-0.00135552 0 0.27 58391.2
-0.00120394 0 0.27 58429.1
-0.00105929 0 0.27 58463.7
-0.000920752 0 0.27 58497.1
-0.000787523 0 0.27 58526.4
-0.000658834 0 0.27 58553.6
-0.000533942 0 0.27 58576.8
-0.000412129 0 0.27 58593.4
-0.000292693 0 0.27 58610.4
-0.000174943 0 0.27 58589.4
-5.82025e-05 0 0.27 58808.8
6.0278e-05 2.68374e-05 0.27 58062.2
0.000182584 8.12915e-05 0.27 58297.4
0.000308438 0.000137325 0.27 58252.9
0.000437939 0.000194983 0.27 58233.7
0.00057119 0.00025431 0.27 58215
0.000708293 0.000315353 0.27 58207.8
0.000849358 0.000378158 0.27 58211.6
0.000994492 0.000442776 0.27 58220.8
0.00114381 0.000509256 0.27 58237.5
0.00129743 0.000577649 0.27 58257.5
0.00145545 0.000648007 0.27 58283.4
0.00161801 0.000720386 0.27 58312.3
0.00178523 0.000794839 0.27 58346
0.00195724 0.000871423 0.27 58382.5
0.00213417 0.000950195 0.27 58423.1
0.00231614 0.00103122 0.27 58466.6
0.0025033 0.00111455 0.27 58513.8
0.00269579 0.00120024 0.27 58563.9
0.00289374 0.00128838 0.27 58617.3
0.00309731 0.00137901 0.27 58673.8
0.00330663 0.00147221 0.27 58733.6
0.00352187 0.00156804 0.27 58796.8
0.00374317 0.00166657 0.27 58864
0.0039707 0.00176788 0.27 58933.2
0.00420463 0.00187202 0.27 59005.8
0.00444512 0.0019791 0.27 59081.5
0.00469233 0.00208916 0.27 59160.7
0.00494645 0.0022023 0.27 59243.4
0.00520763 0.00231859 0.27 59329.6
0.00547608 0.00243811 0.27 59419.2
0.00575197 0.00256094 0.27 59512.6
0.00603549 0.00268717 0.27 59609.5
0.00632683 0.00281688 0.27 59710.1
0.00662618 0.00295016 0.27 59814.5
0.00693375 0.0030871 0.27 59922.8
0.00724974 0.0032278 0.27 60035.1
0.00757435 0.00337232 0.27 60151.6
0.0079078 0.00352077 0.27 60272.1
0.00825029 0.00367327 0.27 60397.1
0.00860204 0.00382988 0.27 60526.4
0.00896328 0.00399071 0.27 60660.4
0.00933422 0.00415586 0.27 60799.1
0.0097151 0.00432544 0.27 60942.7
0.0101061 0.00449954 0.27 61091.4
0.0105076 0.00467828 0.27 61245.5
0.0109197 0.00486175 0.27 61404.9
0.0113426 0.00505007 0.27 61570.1
0.0117768 0.00524333 0.27 61741.1
0.0122222 0.00544166 0.27 61918.6
0.0126792 0.00564515 0.27 62102.3
0.0131482 0.00585394 0.27 62292.9
0.0136292 0.00606812 0.27 62490.4
0.0141227 0.00628781 0.27 62695.5
0.0146288 0.00651313 0.27 62908.2
0.0151477 0.00674419 0.27 63128.6
0.0156799 0.00698113 0.27 63357.5
0.0162254 0.00722403 0.27 63594.6
0.0167847 0.00747303 0.27 63840.4
0.017358 0.00772826 0.27 64095.1
0.0179454 0.00798982 0.27 64359
0.0185474 0.00825783 0.27 64632.2
0.0191641 0.00853242 0.27 64915.1
0.0197959 0.00881371 0.27 65207.7
0.0204431 0.00910183 0.27 65510.4
0.0211057 0.00939688 0.27 65823.1
0.0217843 0.00969898 0.27 66146.1
0.0224789 0.0100083 0.27 66479.5
0.02319 0.0103248 0.27 66823.1
0.0239176 0.0106488 0.27 67177.3
0.0246623 0.0109804 0.27 67541.6
0.025424 0.0113195 0.27 67916.4
0.0262032 0.0116664 0.27 68301.7
0.0270001 0.0120212 0.27 68697.5
0.0278149 0.012384 0.27 69103.9
0.0286479 0.0127549 0.27 69521.1
0.0294992 0.0131339 0.27 69948.8
0.0303692 0.0135212 0.27 70387.3
0.0312581 0.013917 0.27 70836.3
0.0321659 0.0143213 0.27 71295.7
0.0330931 0.014734 0.27 71765.5
0.0340398 0.0151555 0.27 72245.7
0.0350062 0.0155858 0.27 72735.6
0.0359924 0.0160249 0.27 73235.4
0.0369987 0.0164729 0.27 73745.7
0.0380251 0.0169299 0.27 74265.1
0.0390719 0.0173959 0.27 74793.8
0.0401391 0.0178711 0.27 75331.6
0.041227 0.0183554 0.27 75877.2
0.0423356 0.018849 0.27 76431.6
0.043465 0.0193519 0.27 76994.3
0.0446154 0.0198641 0.27 77563.3
0.0457867 0.0203856 0.27 78138.8
0.046979 0.0209164 0.27 78718.9
0.0481924 0.0214567 0.27 79302.7
0.0494267 0.0220063 0.27 79888.2
0.0506823 0.0225652 0.27 80473.4
0.0519588 0.0231335 0.27 81056.9
0.0532563 0.0237113 0.27 81636.4
0.0545749 0.0242983 0.27 82210.7
0.0559142 0.0248946 0.27 82776.7
0.0572744 0.0255002 0.27 83333.3
0.0586552 0.0261149 0.27 83878.2
0.0600565 0.0267388 0.27 84411.3
0.0614781 0.0273718 0.27 84932.6
0.0629198 0.0280137 0.27 85441.9
0.0643815 0.0286645 0.27 85942.5
0.0658629 0.029324 0.27 86434.5
0.0673636 0.0299922 0.27 86921.2
0.0688836 0.030669 0.27 87403.5
0.0704223 0.0313541 0.27 87883.3
0.0719795 0.0320474 0.27 88362.9
0.0735549 0.0327488 0.27 88841.4
0.075148 0.0334581 0.27 89319.3
0.0767585 0.0341751 0.27 89796.8
0.0783859 0.0348996 0.27 90271.4
0.0800297 0.0356315 0.27 90743.5
0.0816895 0.0363706 0.27 91211.8
0.0833647 0.0371164 0.27 91668.4
0.085055 0.0378689 0.27 92113.5
0.0867595 0.0386278 0.27 92538.6
0.0884779 0.0393929 0.27 92940.5
0.0902095 0.0401639 0.27 93317
0.0919538 0.0409405 0.27 93666.3
0.09371 0.0417224 0.27 93987.9
0.0954776 0.0425094 0.27 94285.2
0.0972558 0.0433011 0.27 94563.6
0.0990439 0.0440972 0.27 94827.6
0.100841 0.0448975 0.27 95076.3
0.102647 0.0457015 0.27 95313.7
0.104461 0.046509 0.27 95559.7
0.106282 0.0473197 0.27 95801.3
0.108109 0.0481331 0.27 96062
0.109941 0.048949 0.27 96319.2
0.111779 0.0497671 0.27 96573.8
0.11362 0.0505868 0.27 96835.8
0.115464 0.051408 0.27 97128.7
0.117311 0.0522302 0.27 97403.2
0.11916 0.0530531 0.27 97659.7
0.121009 0.0538763 0.27 97954.4
0.122857 0.0546995 0.27 98214.8
0.124705 0.0555223 0.27 98444.1
0.126552 0.0563444 0.27 98661
0.128395 0.0571653 0.27 98858.6
0.130236 0.0579847 0.27 99033.7
0.132072 0.0588023 0.27 99187.2
0.133904 0.0596177 0.27 99319.3
0.13573 0.0604306 0.27 99416.6
0.137549 0.0612407 0.27 99474.6
0.139361 0.0620475 0.27 99513.8
0.141165 0.0628508 0.27 99518
0.14296 0.0636503 0.27 99567.2
0.144747 0.0644455 0.27 99601.9
0.146523 0.0652363 0.27 99628.8
0.148288 0.0660222 0.27 99662.4
0.150042 0.0668031 0.27 99703.3
0.151784 0.0675785 0.27 99794.2
0.153513 0.0683483 0.27 99864.8
0.155228 0.0691121 0.27 99980.5
0.15693 0.0698698 0.27 100143
0.158617 0.070621 0.27 100313
0.160289 0.0713654 0.27 100520
0.161946 0.072103 0.27 100720
0.163586 0.0728334 0.27 100920
0.165211 0.0735564 0.27 101137
0.166817 0.0742718 0.27 101341
0.168406 0.0749795 0.27 101548
0.169978 0.0756793 0.27 101748
0.171532 0.0763709 0.27 101910
0.173067 0.0770543 0.27 102061
0.174583 0.0777293 0.27 102180
0.17608 0.0783958 0.27 102314
0.177557 0.0790535 0.27 102453
0.179014 0.0797025 0.27 102495
0.180452 0.0803425 0.27 102523
0.18187 0.0809736 0.27 102592
0.183266 0.0815956 0.27 102652
0.184643 0.0822085 0.27 102739
0.185999 0.0828122 0.27 102782
0.187334 0.0834066 0.27 102799
0.188648 0.0839917 0.27 102835
0.189942 0.0845675 0.27 102840
0.191214 0.0851339 0.27 102933
0.192465 0.085691 0.27 103009
0.193695 0.0862387 0.27 103065
0.194904 0.086777 0.27 103095
0.196093 0.0873059 0.27 103183
0.197259 0.0878254 0.27 103311
0.198405 0.0883357 0.27 103343
0.19953 0.0888366 0.27 103451
0.200635 0.0893284 0.27 103660
0.201718 0.0898108 0.27 103771
0.202782 0.0902841 0.27 103855
0.203824 0.0907483 0.27 104000
0.204846 0.0912035 0.27 104114
0.205848 0.0916496 0.27 104262
0.206831 0.0920869 0.27 104437
0.207793 0.0925153 0.27 104591
0.208735 0.092935 0.27 104781
0.209658 0.093346 0.27 104640
