# p  FACE_DATA 235
# x  y  z  p
-0.57565 0 0.0205 3390.16
-0.556783 0 0.0205 2890.36
-0.538647 0 0.0205 2858.04
-0.521213 0 0.0205 2807.28
-0.504453 0 0.0205 2826.82
-0.48834 0 0.0205 2845.81
-0.472849 0 0.0205 2832.12
-0.457957 0 0.0205 2829.44
-0.443638 0 0.0205 2840.84
-0.429872 0 0.0205 2852.79
-0.416636 0 0.0205 2846.63
-0.40391 0 0.0205 2853.2
-0.391674 0 0.0205 2848.88
-0.379908 0 0.0205 2847.07
-0.368594 0 0.0205 2837.03
-0.357715 0 0.0205 2833.89
-0.347254 0 0.0205 2808.58
-0.337194 0 0.0205 2811.43
-0.327521 0 0.0205 2824.28
-0.318219 0 0.0205 2828.98
-0.309273 0 0.0205 2814.72
-0.300671 0 0.0205 2815.85
-0.292398 0 0.0205 2815.98
-0.284442 0 0.0205 2819.1
-0.27679 0 0.0205 2810.84
-0.269431 0 0.0205 2817.99
-0.262355 0 0.0205 2805.74
-0.255549 0 0.0205 2824.67
-0.249003 0 0.0205 2821.85
-0.242707 0 0.0205 2824.14
-0.236652 0 0.0205 2809.55
-0.230829 0 0.0205 2802.14
-0.225228 0 0.0205 2801.48
-0.219841 0 0.0205 2810.96
-0.21466 0 0.0205 2818.93
-0.209676 0 0.0205 2822.39
-0.204883 0 0.0205 2826.14
-0.200177 0 0.0205 2825.95
-0.1955 0 0.0205 2824.56
-0.190906 0 0.0205 2822.08
-0.186428 0 0.0205 2820.25
-0.182051 0 0.0205 2818.81
-0.177762 0 0.0205 2817.72
-0.17358 0 0.0205 2816.92
-0.169482 0 0.0205 2816.24
-0.165477 0 0.0205 2815.58
-0.161572 0 0.0205 2815.18
-0.157735 0 0.0205 2814.88
-0.153994 0 0.0205 2814.57
-0.150346 0 0.0205 2814.34
-0.146761 0 0.0205 2814.29
-0.143265 0 0.0205 2814.39
-0.139847 0 0.0205 2814.6
-0.136496 0 0.0205 2814.67
-0.133229 0 0.0205 2814.78
-0.130025 0 0.0205 2814.89
-0.126893 0 0.0205 2814.98
-0.123837 0 0.0205 2815.17
-0.120834 0 0.0205 2815.33
-0.117903 0 0.0205 2815.48
-0.115044 0 0.0205 2815.64
-0.112234 0 0.0205 2815.72
-0.109492 0 0.0205 2815.75
-0.106804 0 0.0205 2815.83
-0.104153 0 0.0205 2815.84
-0.101546 0 0.0205 2815.86
-0.0989719 0 0.0205 2815.91
-0.0964343 0 0.0205 2815.91
-0.0939374 0 0.0205 2815.94
-0.0914684 0 0.0205 2816.01
-0.0890386 0 0.0205 2816.1
-0.0866475 0 0.0205 2816.18
-0.0842832 0 0.0205 2816.24
-0.0819566 0 0.0205 2816.22
-0.0796635 0 0.0205 2816.15
-0.0774002 0 0.0205 2815.99
-0.0751735 0 0.0205 2815.82
-0.0729758 0 0.0205 2815.7
-0.0708106 0 0.0205 2815.57
-0.0686812 0 0.0205 2815.5
-0.0665768 0 0.0205 2815.45
-0.0645079 0 0.0205 2815.4
-0.0624742 0 0.0205 2815.37
-0.0604652 0 0.0205 2815.37
-0.0584911 0 0.0205 2815.43
-0.0565486 0 0.0205 2815.54
-0.054634 0 0.0205 2815.56
-0.0527543 0 0.0205 2815.6
-0.050906 0 0.0205 2815.65
-0.0490962 0 0.0205 2815.68
-0.0473279 0 0.0205 2815.73
-0.04559 0 0.0205 2815.79
-0.0438927 0 0.0205 2815.83
-0.0422356 0 0.0205 2815.86
-0.0406076 0 0.0205 2815.85
-0.039019 0 0.0205 2815.83
-0.0374658 0 0.0205 2815.81
-0.0359442 0 0.0205 2815.74
-0.0344609 0 0.0205 2815.7
-0.0330083 0 0.0205 2815.64
-0.0315898 0 0.0205 2815.56
-0.0302086 0 0.0205 2815.56
-0.0288534 0 0.0205 2815.56
-0.0275349 0 0.0205 2815.53
-0.0262527 0 0.0205 2815.54
-0.0249956 0 0.0205 2815.49
-0.023774 0 0.0205 2815.4
-0.0225842 0 0.0205 2815.39
-0.021422 0 0.0205 2815.39
-0.0202944 0 0.0205 2815.36
-0.0191938 0 0.0205 2815.32
-0.0181234 0 0.0205 2815.28
-0.0170867 0 0.0205 2815.28
-0.016072 0 0.0205 2815.27
-0.0150901 0 0.0205 2815.22
-0.0141406 0 0.0205 2815.22
-0.013212 0 0.0205 2815.25
-0.012315 0 0.0205 2815.29
-0.0114453 0 0.0205 2815.35
-0.010599 0 0.0205 2815.39
-0.00978278 0 0.0205 2815.43
-0.0089888 0 0.0205 2815.51
-0.0082203 0 0.0205 2815.57
-0.00748044 0 0.0205 2815.65
-0.00675745 0 0.0205 2815.75
-0.00606198 0 0.0205 2815.75
-0.0053934 0 0.0205 2815.79
-0.00473991 0 0.0205 2815.82
-0.004112 0 0.0205 2815.78
-0.00350529 0 0.0205 2815.84
-0.00291537 0 0.0205 2815.85
-0.00234888 0 0.0205 2816.03
-0.0017977 0 0.0205 2816.06
-0.00126472 0 0.0205 2813.81
-0.0007527 0 0.0205 3202.13
-0.00025 0 0.0205 2946.49
0.00020726 0.000139798 0.0205 42221.5
0.00062196 0.000419517 0.0205 116157
0.00103721 0.000699604 0.0205 118605
0.00145336 0.000980299 0.0205 126823
0.00187079 0.00126186 0.0205 132154
0.00228985 0.00154452 0.0205 139143
0.00271091 0.00182854 0.0205 132727
0.00313435 0.00211415 0.0205 136170
0.00356054 0.00240162 0.0205 126616
0.00398984 0.00269118 0.0205 130045
0.00442264 0.0029831 0.0205 129866
0.00485931 0.00327765 0.0205 136937
0.00530023 0.00357505 0.0205 127452
0.00574579 0.00387559 0.0205 128747
0.00619639 0.00417951 0.0205 130808
0.00665241 0.0044871 0.0205 132154
0.00711424 0.00479861 0.0205 140185
0.00758231 0.00511434 0.0205 135544
0.00805703 0.00543453 0.0205 133223
0.00853879 0.00575948 0.0205 127979
0.00902802 0.00608948 0.0205 138151
0.00952516 0.0064248 0.0205 139062
0.0100306 0.00676576 0.0205 136870
0.0105449 0.00711263 0.0205 138819
0.0110684 0.00746574 0.0205 142846
0.0116016 0.00782537 0.0205 141187
0.0121449 0.00819186 0.0205 134705
0.0126989 0.00856552 0.0205 137133
0.013264 0.00894669 0.0205 136543
0.0138407 0.00933568 0.0205 139459
0.0144295 0.00973285 0.0205 139545
0.015031 0.0101386 0.0205 139475
0.0156456 0.0105531 0.0205 140350
0.016274 0.0109769 0.0205 143390
0.0169165 0.0114103 0.0205 141607
0.0175739 0.0118537 0.0205 139689
0.0182466 0.0123075 0.0205 145372
0.0189354 0.0127721 0.0205 149904
0.0196407 0.0132478 0.0205 156955
0.0203631 0.0137352 0.0205 161517
0.0211035 0.0142345 0.0205 160571
0.0218623 0.0147463 0.0205 151743
0.0226403 0.0152711 0.0205 161870
0.023438 0.0158092 0.0205 159847
0.0242564 0.0163611 0.0205 148104
0.0250958 0.0169274 0.0205 155725
0.0259573 0.0175084 0.0205 159898
0.0268416 0.0181049 0.0205 154517
0.0277493 0.0187172 0.0205 161539
0.0286813 0.0193458 0.0205 152916
0.0296385 0.0199914 0.0205 167930
0.0306216 0.0206545 0.0205 153969
0.0316314 0.0213357 0.0205 154919
0.032669 0.0220355 0.0205 155409
0.0337352 0.0227547 0.0205 162878
0.034831 0.0234938 0.0205 155161
0.0359572 0.0242533 0.0205 144626
0.0371148 0.0250343 0.0205 154639
0.038305 0.0258371 0.0205 155047
0.0395287 0.0266625 0.0205 151506
0.040787 0.0275112 0.0205 155668
0.0420811 0.0283841 0.0205 144247
0.043412 0.0292818 0.0205 142739
0.0447809 0.0302051 0.0205 135502
0.046189 0.0311548 0.0205 136523
0.0476375 0.0321318 0.0205 144838
0.0491277 0.0331371 0.0205 134463
0.0506609 0.0341713 0.0205 123501
0.0522386 0.0352353 0.0205 128928
0.0538619 0.0363303 0.0205 131272
0.0555324 0.0374571 0.0205 126400
0.0572515 0.0386166 0.0205 130993
0.0590207 0.03981 0.0205 129258
0.0608417 0.0410383 0.0205 122256
0.0627159 0.0423024 0.0205 117958
0.064645 0.0436036 0.0205 113902
0.0666306 0.044943 0.0205 115455
0.0686746 0.0463217 0.0205 112366
0.0707788 0.0477409 0.0205 112544
0.0729449 0.0492019 0.0205 120260
0.0751749 0.0507061 0.0205 124020
0.0774706 0.0522546 0.0205 127244
0.0798342 0.0538489 0.0205 118608
0.0822678 0.0554903 0.0205 115169
0.0847732 0.0571803 0.0205 124217
0.087353 0.0589204 0.0205 114417
0.0900092 0.060712 0.0205 113454
0.0927443 0.0625568 0.0205 115562
0.0955605 0.0644564 0.0205 122460
0.0984604 0.0664124 0.0205 126947
0.101446 0.0684266 0.0205 127403
0.104521 0.0705006 0.0205 127965
0.107688 0.0726364 0.0205 125167
0.110949 0.0748358 0.0205 136199
0.114306 0.0771006 0.0205 113716
0.117764 0.079433 0.0205 115676
0.121326 0.081835 0.0205 110352
0.124992 0.0843085 0.0205 98780.7
0.128769 0.0868559 0.0205 123165
