# wallHeatFlux  FACE_DATA 235
# x  y  z  wallHeatFlux
-0.57565 0 0.0205 -365821
-0.556783 0 0.0205 -167518
-0.538647 0 0.0205 -168951
-0.521213 0 0.0205 -145118
-0.504453 0 0.0205 -151753
-0.48834 0 0.0205 -158335
-0.472849 0 0.0205 -156265
-0.457957 0 0.0205 -155256
-0.443638 0 0.0205 -146180
-0.429872 0 0.0205 -147029
-0.416636 0 0.0205 -149099
-0.40391 0 0.0205 -157804
-0.391674 0 0.0205 -159927
-0.379908 0 0.0205 -161573
-0.368594 0 0.0205 -158335
-0.357715 0 0.0205 -136519
-0.347254 0 0.0205 -140288
-0.337194 0 0.0205 -141084
-0.327521 0 0.0205 -142411
-0.318219 0 0.0205 -140819
-0.309273 0 0.0205 -142836
-0.300671 0 0.0205 -147188
-0.292398 0 0.0205 -142146
-0.284442 0 0.0205 -138377
-0.27679 0 0.0205 -142464
-0.269431 0 0.0205 -135882
-0.262355 0 0.0205 -144375
-0.255549 0 0.0205 -144694
-0.249003 0 0.0205 -144959
-0.242707 0 0.0205 -142305
-0.236652 0 0.0205 -140447
-0.230829 0 0.0205 -139067
-0.225228 0 0.0205 -137953
-0.219841 0 0.0205 -137634
-0.21466 0 0.0205 -138006
-0.209676 0 0.0205 -137793
-0.204883 0 0.0205 -138218
-0.200177 0 0.0205 -137687
-0.1955 0 0.0205 -137369
-0.190906 0 0.0205 -137156
-0.186428 0 0.0205 -137103
-0.182051 0 0.0205 -136944
-0.177762 0 0.0205 -136785
-0.17358 0 0.0205 -136679
-0.169482 0 0.0205 -136572
-0.165477 0 0.0205 -136519
-0.161572 0 0.0205 -136413
-0.157735 0 0.0205 -136360
-0.153994 0 0.0205 -136360
-0.150346 0 0.0205 -136307
-0.146761 0 0.0205 -136254
-0.143265 0 0.0205 -136254
-0.139847 0 0.0205 -136254
-0.136496 0 0.0205 -136307
-0.133229 0 0.0205 -136307
-0.130025 0 0.0205 -136307
-0.126893 0 0.0205 -136307
-0.123837 0 0.0205 -136307
-0.120834 0 0.0205 -136307
-0.117903 0 0.0205 -136307
-0.115044 0 0.0205 -136360
-0.112234 0 0.0205 -136360
-0.109492 0 0.0205 -136413
-0.106804 0 0.0205 -136413
-0.104153 0 0.0205 -136413
-0.101546 0 0.0205 -136413
-0.0989719 0 0.0205 -136413
-0.0964343 0 0.0205 -136413
-0.0939374 0 0.0205 -136413
-0.0914684 0 0.0205 -136413
-0.0890386 0 0.0205 -136413
-0.0866475 0 0.0205 -136466
-0.0842832 0 0.0205 -136466
-0.0819566 0 0.0205 -136466
-0.0796635 0 0.0205 -136466
-0.0774002 0 0.0205 -136466
-0.0751735 0 0.0205 -136466
-0.0729758 0 0.0205 -136413
-0.0708106 0 0.0205 -136413
-0.0686812 0 0.0205 -136413
-0.0665768 0 0.0205 -136360
-0.0645079 0 0.0205 -136360
-0.0624742 0 0.0205 -136360
-0.0604652 0 0.0205 -136360
-0.0584911 0 0.0205 -136360
-0.0565486 0 0.0205 -136360
-0.054634 0 0.0205 -136360
-0.0527543 0 0.0205 -136360
-0.050906 0 0.0205 -136360
-0.0490962 0 0.0205 -136360
-0.0473279 0 0.0205 -136413
-0.04559 0 0.0205 -136413
-0.0438927 0 0.0205 -136413
-0.0422356 0 0.0205 -136413
-0.0406076 0 0.0205 -136413
-0.039019 0 0.0205 -136413
-0.0374658 0 0.0205 -136413
-0.0359442 0 0.0205 -136413
-0.0344609 0 0.0205 -136413
-0.0330083 0 0.0205 -136413
-0.0315898 0 0.0205 -136413
-0.0302086 0 0.0205 -136413
-0.0288534 0 0.0205 -136413
-0.0275349 0 0.0205 -136413
-0.0262527 0 0.0205 -136413
-0.0249956 0 0.0205 -136413
-0.023774 0 0.0205 -136413
-0.0225842 0 0.0205 -136413
-0.021422 0 0.0205 -136413
-0.0202944 0 0.0205 -136413
-0.0191938 0 0.0205 -136413
-0.0181234 0 0.0205 -136360
-0.0170867 0 0.0205 -136360
-0.016072 0 0.0205 -136360
-0.0150901 0 0.0205 -136307
-0.0141406 0 0.0205 -136360
-0.013212 0 0.0205 -136307
-0.012315 0 0.0205 -136307
-0.0114453 0 0.0205 -136360
-0.010599 0 0.0205 -136360
-0.00978278 0 0.0205 -136360
-0.0089888 0 0.0205 -136360
-0.0082203 0 0.0205 -136307
-0.00748044 0 0.0205 -136360
-0.00675745 0 0.0205 -136360
-0.00606198 0 0.0205 -136360
-0.0053934 0 0.0205 -136413
-0.00473991 0 0.0205 -136414
-0.004112 0 0.0205 -136413
-0.00350529 0 0.0205 -136466
-0.00291537 0 0.0205 -136413
-0.00234888 0 0.0205 -136467
-0.0017977 0 0.0205 -136466
-0.00126472 0 0.0205 -134874
-0.0007527 0 0.0205 -128856
-0.00025 0 0.0205 -18482.8
0.00020726 0.000139798 0.0205 -1.20247e+06
0.00062196 0.000419517 0.0205 -3.50533e+06
0.00103721 0.000699604 0.0205 -2.99526e+06
0.00145336 0.000980299 0.0205 -3.26143e+06
0.00187079 0.00126186 0.0205 -3.72421e+06
0.00228985 0.00154452 0.0205 -3.87853e+06
0.00271091 0.00182854 0.0205 -3.67683e+06
0.00313435 0.00211415 0.0205 -3.66766e+06
0.00356054 0.00240162 0.0205 -3.19803e+06
0.00398984 0.00269118 0.0205 -3.36557e+06
0.00442264 0.0029831 0.0205 -3.35789e+06
0.00485931 0.00327765 0.0205 -3.61134e+06
0.00530023 0.00357505 0.0205 -3.13285e+06
0.00574579 0.00387559 0.0205 -3.26814e+06
0.00619639 0.00417951 0.0205 -3.23431e+06
0.00665241 0.0044871 0.0205 -3.3537e+06
0.00711424 0.00479861 0.0205 -3.87604e+06
0.00758231 0.00511434 0.0205 -3.55759e+06
0.00805703 0.00543453 0.0205 -3.46863e+06
0.00853879 0.00575948 0.0205 -3.12908e+06
0.00902802 0.00608948 0.0205 -3.7436e+06
0.00952516 0.0064248 0.0205 -3.90358e+06
0.0100306 0.00676576 0.0205 -3.68132e+06
0.0105449 0.00711263 0.0205 -3.73479e+06
0.0110684 0.00746574 0.0205 -3.96081e+06
0.0116016 0.00782537 0.0205 -3.69726e+06
0.0121449 0.00819186 0.0205 -3.35529e+06
0.0126989 0.00856552 0.0205 -3.50375e+06
0.013264 0.00894669 0.0205 -3.41046e+06
0.0138407 0.00933568 0.0205 -3.59537e+06
0.0144295 0.00973285 0.0205 -3.53223e+06
0.015031 0.0101386 0.0205 -3.71811e+06
0.0156456 0.0105531 0.0205 -3.62577e+06
0.016274 0.0109769 0.0205 -3.78283e+06
0.0169165 0.0114103 0.0205 -3.83058e+06
0.0175739 0.0118537 0.0205 -3.54341e+06
0.0182466 0.0123075 0.0205 -3.86158e+06
0.0189354 0.0127721 0.0205 -4.12098e+06
0.0196407 0.0132478 0.0205 -4.60306e+06
0.0203631 0.0137352 0.0205 -4.8171e+06
0.0211035 0.0142345 0.0205 -4.73977e+06
0.0218623 0.0147463 0.0205 -4.22903e+06
0.0226403 0.0152711 0.0205 -4.79832e+06
0.023438 0.0158092 0.0205 -4.74521e+06
0.0242564 0.0163611 0.0205 -4.30283e+06
0.0250958 0.0169274 0.0205 -4.54159e+06
0.0259573 0.0175084 0.0205 -4.60761e+06
0.0268416 0.0181049 0.0205 -4.55954e+06
0.0277493 0.0187172 0.0205 -4.79499e+06
0.0286813 0.0193458 0.0205 -4.42518e+06
0.0296385 0.0199914 0.0205 -5.12701e+06
0.0306216 0.0206545 0.0205 -4.58101e+06
0.0316314 0.0213357 0.0205 -4.60746e+06
0.032669 0.0220355 0.0205 -4.85256e+06
0.0337352 0.0227547 0.0205 -5.04195e+06
0.034831 0.0234938 0.0205 -4.69506e+06
0.0359572 0.0242533 0.0205 -4.22307e+06
0.0371148 0.0250343 0.0205 -4.93279e+06
0.038305 0.0258371 0.0205 -4.74953e+06
0.0395287 0.0266625 0.0205 -4.54884e+06
0.040787 0.0275112 0.0205 -4.95286e+06
0.0420811 0.0283841 0.0205 -4.4435e+06
0.043412 0.0292818 0.0205 -4.47716e+06
0.0447809 0.0302051 0.0205 -4.02288e+06
0.046189 0.0311548 0.0205 -4.11903e+06
0.0476375 0.0321318 0.0205 -4.53618e+06
0.0491277 0.0331371 0.0205 -3.90623e+06
0.0506609 0.0341713 0.0205 -3.45519e+06
0.0522386 0.0352353 0.0205 -3.77014e+06
0.0538619 0.0363303 0.0205 -3.8899e+06
0.0555324 0.0374571 0.0205 -3.61702e+06
0.0572515 0.0386166 0.0205 -3.89354e+06
0.0590207 0.03981 0.0205 -3.7731e+06
0.0608417 0.0410383 0.0205 -3.69857e+06
0.0627159 0.0423024 0.0205 -3.30274e+06
0.064645 0.0436036 0.0205 -3.02783e+06
0.0666306 0.044943 0.0205 -3.03197e+06
0.0686746 0.0463217 0.0205 -2.74829e+06
0.0707788 0.0477409 0.0205 -2.90494e+06
0.0729449 0.0492019 0.0205 -3.23163e+06
0.0751749 0.0507061 0.0205 -3.59598e+06
0.0774706 0.0522546 0.0205 -3.78805e+06
0.0798342 0.0538489 0.0205 -3.19885e+06
0.0822678 0.0554903 0.0205 -3.19566e+06
0.0847732 0.0571803 0.0205 -3.52979e+06
0.087353 0.0589204 0.0205 -3.0703e+06
0.0900092 0.060712 0.0205 -2.91913e+06
0.0927443 0.0625568 0.0205 -3.08519e+06
0.0955605 0.0644564 0.0205 -3.36475e+06
0.0984604 0.0664124 0.0205 -3.77416e+06
0.101446 0.0684266 0.0205 -4.37074e+06
0.104521 0.0705006 0.0205 -4.09339e+06
0.107688 0.0726364 0.0205 -4.00038e+06
0.110949 0.0748358 0.0205 -4.24553e+06
0.114306 0.0771006 0.0205 -2.83674e+06
0.117764 0.079433 0.0205 -3.31108e+06
0.121326 0.081835 0.0205 -2.94416e+06
0.124992 0.0843085 0.0205 -1.8186e+06
0.128769 0.0868559 0.0205 -3.76767e+06
