# Wall heat-flux
# Time        	patch         	min           	max           	integral      
13000         	base	-3.791010e+06	-3.163114e+04	-9.760234e+03
