# wallHeatFlux  FACE_DATA 398
# x  y  z  wallHeatFlux
-0.7975 0 0.025 -653671
-0.79239 0 0.025 -120082
-0.787056 0 0.025 -71270.9
-0.781492 0 0.025 -63856.4
-0.775691 0 0.025 -65236.8
-0.769649 0 0.025 -65910.1
-0.763362 0 0.025 -66367.4
-0.756822 0 0.025 -66239.4
-0.750025 0 0.025 -65701.5
-0.742968 0 0.025 -64919.4
-0.735648 0 0.025 -63981.5
-0.72806 0 0.025 -63021.3
-0.720203 0 0.025 -62051.1
-0.712076 0 0.025 -61156.3
-0.703677 0 0.025 -60335
-0.695006 0 0.025 -59560.9
-0.686065 0 0.025 -58834.1
-0.676855 0 0.025 -58186.7
-0.667379 0 0.025 -57447.3
-0.65764 0 0.025 -56761
-0.647644 0 0.025 -56210.4
-0.637397 0 0.025 -55636.9
-0.626906 0 0.025 -55027
-0.616179 0 0.025 -54545.7
-0.605224 0 0.025 -54016.7
-0.594054 0 0.025 -53539.2
-0.582678 0 0.025 -53020.3
-0.57111 0 0.025 -52547.7
-0.559364 0 0.025 -52111.8
-0.547454 0 0.025 -51769.3
-0.535396 0 0.025 -51339.2
-0.523205 0 0.025 -50904.7
-0.510901 0 0.025 -50508
-0.4985 0 0.025 -50149.7
-0.486021 0 0.025 -49875.9
-0.473483 0 0.025 -49583.8
-0.460905 0 0.025 -49229.5
-0.448308 0 0.025 -48885.1
-0.435709 0 0.025 -48576.4
-0.42313 0 0.025 -48291.6
-0.41059 0 0.025 -48054
-0.39811 0 0.025 -47857.7
-0.385706 0 0.025 -47627.2
-0.373398 0 0.025 -47369.8
-0.361205 0 0.025 -47100.6
-0.349141 0 0.025 -46850.7
-0.337226 0 0.025 -46638.4
-0.325475 0 0.025 -46452.3
-0.313901 0 0.025 -46287.5
-0.30252 0 0.025 -46132.6
-0.291343 0 0.025 -45989.7
-0.280382 0 0.025 -45836
-0.269646 0 0.025 -45681.3
-0.259148 0 0.025 -45516.5
-0.248893 0 0.025 -45364.2
-0.23889 0 0.025 -45217.8
-0.229143 0 0.025 -45076.2
-0.219659 0 0.025 -44931
-0.210441 0 0.025 -44785.7
-0.201491 0 0.025 -44638.2
-0.192812 0 0.025 -44493.8
-0.184405 0 0.025 -44359.4
-0.176269 0 0.025 -44255.3
-0.168404 0 0.025 -44169
-0.160808 0 0.025 -44104.2
-0.15348 0 0.025 -44069.2
-0.146415 0 0.025 -44045.7
-0.13961 0 0.025 -44026.2
-0.133063 0 0.025 -44003.3
-0.126767 0 0.025 -43970.6
-0.120718 0 0.025 -43927.8
-0.11491 0 0.025 -43880.4
-0.109339 0 0.025 -43822.9
-0.103997 0 0.025 -43753.9
-0.0988805 0 0.025 -43678.4
-0.0939808 0 0.025 -43600.2
-0.0892928 0 0.025 -43518.1
-0.0848096 0 0.025 -43436.1
-0.0805248 0 0.025 -43359.8
-0.0764316 0 0.025 -43289.3
-0.0725237 0 0.025 -43224
-0.0687943 0 0.025 -43164.9
-0.065237 0 0.025 -43110.6
-0.0618454 0 0.025 -43057.2
-0.058613 0 0.025 -43008.4
-0.0555337 0 0.025 -42971.3
-0.0526013 0 0.025 -42933.5
-0.0498099 0 0.025 -42901.4
-0.0471536 0 0.025 -42874.7
-0.0446266 0 0.025 -42853.4
-0.0422235 0 0.025 -42832
-0.039939 0 0.025 -42810.7
-0.0377676 0 0.025 -42794.4
-0.0357044 0 0.025 -42784.4
-0.0337445 0 0.025 -42773.4
-0.0318832 0 0.025 -42736
-0.0301159 0 0.025 -41658.5
-0.0284383 0 0.025 -34870.8
-0.0268461 0 0.025 -32826.9
-0.0253353 0 0.025 -50496.1
-0.023902 0 0.025 -63015.5
-0.0225426 0 0.025 -70747.1
-0.0212532 0 0.025 -76369.7
-0.0200306 0 0.025 -81352.4
-0.0188715 0 0.025 -85709.7
-0.0177728 0 0.025 -89424.4
-0.0167313 0 0.025 -92753.7
-0.0157444 0 0.025 -95826.5
-0.0148092 0 0.025 -98673.2
-0.0139232 0 0.025 -101371
-0.0130838 0 0.025 -103826
-0.0122887 0 0.025 -106006
-0.0115356 0 0.025 -107912
-0.0108223 0 0.025 -109569
-0.0101469 0 0.025 -111012
-0.00950727 0 0.025 -112286
-0.00890168 0 0.025 -113421
-0.00832835 0 0.025 -114483
-0.00778557 0 0.025 -115536
-0.00727176 0 0.025 -116635
-0.0067854 0 0.025 -117816
-0.00632507 0 0.025 -119104
-0.00588937 0 0.025 -120519
-0.00547703 0 0.025 -122052
-0.0050868 0 0.025 -123708
-0.00471753 0 0.025 -125485
-0.0043681 0 0.025 -127386
-0.00403746 0 0.025 -129438
-0.00372461 0 0.025 -131604
-0.0034286 0 0.025 -133890
-0.00314855 0 0.025 -136350
-0.0028836 0 0.025 -139017
-0.00263294 0 0.025 -141810
-0.00239581 0 0.025 -144464
-0.0021715 0 0.025 -147279
-0.00195929 0 0.025 -150229
-0.00175856 0 0.025 -153274
-0.00156869 0 0.025 -156423
-0.00138908 0 0.025 -159689
-0.0012192 0 0.025 -163034
-0.00105853 0 0.025 -166464
-0.000906546 0 0.025 -169946
-0.000762803 0 0.025 -173337
-0.000626848 0 0.025 -176364
-0.000498265 0 0.025 -178164
-0.000376656 0 0.025 -176832
-0.000261642 0 0.025 -168610
-0.00015287 0 0.025 -146429
-5e-05 0 0.025 -94999.1
4.14519e-05 2.79596e-05 0.025 -67467
0.000125371 8.45641e-05 0.025 -81162.1
0.000211347 0.000142556 0.025 -96492.3
0.000299429 0.000201968 0.025 -107482
0.000389669 0.000262835 0.025 -116729
0.000482118 0.000325193 0.025 -125572
0.000576831 0.000389077 0.025 -133924
0.000673861 0.000454524 0.025 -141516
0.000773265 0.000521574 0.025 -148262
0.0008751 0.000590262 0.025 -154217
0.000979426 0.000660632 0.025 -159486
0.0010863 0.000732721 0.025 -164184
0.00119579 0.000806572 0.025 -168532
0.00130795 0.000882227 0.025 -172558
0.00142285 0.00095973 0.025 -176317
0.00154056 0.00103912 0.025 -179947
0.00166115 0.00112046 0.025 -183459
0.00178467 0.00120378 0.025 -186936
0.00191121 0.00128913 0.025 -190404
0.00204083 0.00137656 0.025 -193828
0.00217362 0.00146612 0.025 -197306
0.00230964 0.00155787 0.025 -200852
0.00244897 0.00165185 0.025 -204407
0.00259169 0.00174812 0.025 -208056
0.00273789 0.00184673 0.025 -211817
0.00288765 0.00194774 0.025 -215712
0.00304105 0.00205122 0.025 -219706
0.00319818 0.00215719 0.025 -223831
0.00335912 0.00226575 0.025 -228153
0.00352397 0.00237695 0.025 -232615
0.00369283 0.00249085 0.025 -237296
0.00386579 0.00260751 0.025 -242166
0.00404294 0.00272699 0.025 -247267
0.00422438 0.00284938 0.025 -252633
0.00441022 0.00297474 0.025 -258271
0.00460056 0.00310312 0.025 -264185
0.00479552 0.00323462 0.025 -270384
0.00499519 0.0033693 0.025 -276976
0.00519968 0.00350723 0.025 -283862
0.00540911 0.00364849 0.025 -291206
0.00562361 0.00379318 0.025 -298949
0.00584329 0.00394134 0.025 -307110
0.00606826 0.00409309 0.025 -315829
0.00629865 0.00424849 0.025 -325059
0.0065346 0.00440764 0.025 -334925
0.00677623 0.00457063 0.025 -345399
0.00702368 0.00473753 0.025 -356440
0.00727707 0.00490844 0.025 -368294
0.00753655 0.00508347 0.025 -380972
0.00780227 0.00526269 0.025 -394687
0.00807436 0.00544622 0.025 -409241
0.00835298 0.00563415 0.025 -424833
0.00863826 0.00582659 0.025 -441848
0.00893038 0.00602362 0.025 -460676
0.00922949 0.00622537 0.025 -480305
0.00953574 0.00643195 0.025 -501243
0.00984929 0.00664345 0.025 -524957
0.0101703 0.00686 0.025 -551729
0.0104991 0.00708171 0.025 -580480
0.0108356 0.00730871 0.025 -614807
0.0111801 0.0075411 0.025 -652090
0.0115329 0.00777902 0.025 -691306
0.011894 0.00802259 0.025 -736830
0.0122637 0.00827194 0.025 -782141
0.0126421 0.00852719 0.025 -827400
0.0130295 0.0087885 0.025 -870794
0.013426 0.00905597 0.025 -915103
0.013832 0.00932978 0.025 -959172
0.0142475 0.00961003 0.025 -1.00223e+06
0.0146727 0.0098969 0.025 -1.04194e+06
0.0151081 0.0101905 0.025 -1.08526e+06
0.0155536 0.010491 0.025 -1.13086e+06
0.0160097 0.0107986 0.025 -1.17755e+06
0.0164764 0.0111134 0.025 -1.22805e+06
0.016954 0.0114356 0.025 -1.28156e+06
0.0174427 0.0117653 0.025 -1.33479e+06
0.0179429 0.0121026 0.025 -1.39154e+06
0.0184548 0.0124479 0.025 -1.45885e+06
0.0189786 0.0128013 0.025 -1.50477e+06
0.0195146 0.0131628 0.025 -1.55437e+06
0.020063 0.0135327 0.025 -1.61379e+06
0.0206242 0.0139112 0.025 -1.6513e+06
0.0211983 0.0142984 0.025 -1.67802e+06
0.0217857 0.0146947 0.025 -1.71128e+06
0.0223867 0.0151 0.025 -1.73987e+06
0.0230015 0.0155147 0.025 -1.76369e+06
0.0236304 0.0159389 0.025 -1.79376e+06
0.0242738 0.0163729 0.025 -1.79581e+06
0.0249318 0.0168167 0.025 -1.8116e+06
0.025605 0.0172708 0.025 -1.82086e+06
0.0262935 0.0177352 0.025 -1.79571e+06
0.0269977 0.0182102 0.025 -1.76585e+06
0.0277178 0.0186959 0.025 -1.72477e+06
0.0284544 0.0191927 0.025 -1.736e+06
0.0292075 0.0197008 0.025 -1.67851e+06
0.0299777 0.0202203 0.025 -1.62815e+06
0.0307653 0.0207514 0.025 -1.59599e+06
0.0315704 0.0212945 0.025 -1.56849e+06
0.0323937 0.0218499 0.025 -1.54436e+06
0.0332354 0.0224176 0.025 -1.5182e+06
0.0340959 0.022998 0.025 -1.49438e+06
0.0349755 0.0235913 0.025 -1.46122e+06
0.0358747 0.0241978 0.025 -1.45839e+06
0.0367938 0.0248178 0.025 -1.4233e+06
0.0377331 0.0254513 0.025 -1.39972e+06
0.0386932 0.0260989 0.025 -1.38232e+06
0.0396743 0.0267606 0.025 -1.36463e+06
0.0406769 0.0274369 0.025 -1.35511e+06
0.0417013 0.0281279 0.025 -1.33903e+06
0.042748 0.0288339 0.025 -1.33966e+06
0.0438175 0.0295552 0.025 -1.32565e+06
0.04491 0.0302922 0.025 -1.31215e+06
0.0460262 0.031045 0.025 -1.31301e+06
0.0471662 0.031814 0.025 -1.31874e+06
0.0483306 0.0325995 0.025 -1.31009e+06
0.0495199 0.0334016 0.025 -1.31312e+06
0.0507344 0.0342208 0.025 -1.30858e+06
0.0519746 0.0350573 0.025 -1.30445e+06
0.0532409 0.0359114 0.025 -1.30647e+06
0.0545339 0.0367835 0.025 -1.29225e+06
0.0558538 0.0376739 0.025 -1.29103e+06
0.0572012 0.0385827 0.025 -1.29052e+06
0.0585766 0.0395104 0.025 -1.2889e+06
0.0599804 0.0404573 0.025 -1.29697e+06
0.061413 0.0414236 0.025 -1.27879e+06
0.0628748 0.0424096 0.025 -1.30354e+06
0.0643665 0.0434157 0.025 -1.3068e+06
0.0658883 0.0444422 0.025 -1.28088e+06
0.0674408 0.0454894 0.025 -1.27061e+06
0.0690245 0.0465576 0.025 -1.27035e+06
0.0706398 0.0476471 0.025 -1.26425e+06
0.0722871 0.0487582 0.025 -1.26059e+06
0.0739669 0.0498912 0.025 -1.25896e+06
0.0756797 0.0510466 0.025 -1.26922e+06
0.0774258 0.0522244 0.025 -1.28148e+06
0.0792059 0.053425 0.025 -1.2755e+06
0.0810203 0.0546489 0.025 -1.29675e+06
0.0828694 0.0558961 0.025 -1.26697e+06
0.0847537 0.0571671 0.025 -1.30908e+06
0.0866737 0.0584622 0.025 -1.26895e+06
0.0886298 0.0597816 0.025 -1.26881e+06
0.0906224 0.0611256 0.025 -1.28003e+06
0.0926518 0.0624944 0.025 -1.24604e+06
0.0947185 0.0638884 0.025 -1.28803e+06
0.096823 0.065308 0.025 -1.24673e+06
0.0989659 0.0667532 0.025 -1.33338e+06
0.101147 0.0682245 0.025 -1.67685e+06
0.103367 0.0697219 0.025 -1.5832e+06
0.105626 0.0712458 0.025 -1.19487e+06
0.107926 0.0727965 0.025 -1.19075e+06
0.110265 0.074374 0.025 -1.22807e+06
0.112644 0.0759789 0.025 -1.82328e+06
0.115063 0.0776111 0.025 -1.2325e+06
0.117524 0.0792709 0.025 -1.70027e+06
0.120026 0.0809585 0.025 -1.86867e+06
0.122569 0.0826741 0.025 -1.66004e+06
0.125155 0.0844179 0.025 -1.48344e+06
0.127782 0.0861901 0.025 -1.28758e+06
0.130451 0.0879908 0.025 -1.24178e+06
0.133163 0.08982 0.025 -1.22004e+06
0.135918 0.0916781 0.025 -1.18967e+06
0.138716 0.0935651 0.025 -1.19131e+06
0.141556 0.095481 0.025 -1.20102e+06
0.14444 0.097426 0.025 -1.57882e+06
0.147367 0.0994004 0.025 -2.34418e+06
0.150337 0.101404 0.025 -1.65844e+06
0.153351 0.103437 0.025 -1.60808e+06
0.156408 0.105498 0.025 -2.24955e+06
0.159508 0.107589 0.025 -1.02089e+06
0.162651 0.10971 0.025 -1.50553e+06
0.165838 0.111859 0.025 -3.63714e+06
0.169069 0.114039 0.025 -1.60474e+06
0.172343 0.116247 0.025 -1.96912e+06
0.175659 0.118483 0.025 -1.87278e+06
0.179018 0.120749 0.025 -1.86915e+06
0.182421 0.123045 0.025 -1.93835e+06
0.185866 0.125368 0.025 -1.69928e+06
0.189353 0.12772 0.025 -1.73407e+06
0.192882 0.1301 0.025 -1.83845e+06
0.196453 0.132509 0.025 -1.73704e+06
0.200065 0.134946 0.025 -2.15361e+06
0.203718 0.13741 0.025 -1.92928e+06
0.207412 0.139901 0.025 -920932
0.211146 0.14242 0.025 -983404
0.214919 0.144965 0.025 -1.6111e+06
0.218732 0.147537 0.025 -985373
0.222583 0.150134 0.025 -1.94175e+06
0.226472 0.152757 0.025 -974811
0.230399 0.155406 0.025 -1.82285e+06
0.234362 0.15808 0.025 -1.71765e+06
0.238362 0.160777 0.025 -2.35633e+06
0.242396 0.163498 0.025 -1.94228e+06
0.246466 0.166244 0.025 -2.10402e+06
0.250569 0.169012 0.025 -927253
0.254706 0.171801 0.025 -1.52614e+06
0.258874 0.174613 0.025 -1.52937e+06
0.263074 0.177446 0.025 -1.9473e+06
0.267304 0.180299 0.025 -1.57418e+06
0.271564 0.183172 0.025 -945414
0.275852 0.186064 0.025 -1.61814e+06
0.280168 0.188975 0.025 -921039
0.28451 0.191904 0.025 -1.64401e+06
0.288876 0.19485 0.025 -2.2757e+06
0.293268 0.197812 0.025 -1.59961e+06
0.297683 0.20079 0.025 -1.91777e+06
0.302119 0.203782 0.025 -2.23455e+06
0.306577 0.206788 0.025 -1.38596e+06
0.311054 0.209808 0.025 -1.56805e+06
0.315549 0.212841 0.025 -1.16241e+06
0.320063 0.215885 0.025 -2.02427e+06
0.324591 0.218939 0.025 -1.42044e+06
0.329134 0.222003 0.025 -1.40634e+06
0.333691 0.225077 0.025 -2.21805e+06
0.33826 0.228159 0.025 -1.77518e+06
0.342839 0.231248 0.025 -1.82288e+06
0.347428 0.234343 0.025 -871276
0.352025 0.237444 0.025 -1.92703e+06
0.356628 0.240548 0.025 -1.40688e+06
0.361237 0.243658 0.025 -1.15172e+06
0.36585 0.246769 0.025 -2.57939e+06
0.370465 0.249882 0.025 -1.01538e+06
0.375082 0.252996 0.025 -1.43438e+06
0.379698 0.25611 0.025 -2.63111e+06
0.384313 0.259223 0.025 -1.36603e+06
0.388926 0.262333 0.025 -1.69914e+06
0.393534 0.265442 0.025 -1.40141e+06
0.398136 0.268546 0.025 -877601
0.40273 0.271645 0.025 -1.62338e+06
0.407317 0.274739 0.025 -1.67433e+06
0.411894 0.277826 0.025 -2.11497e+06
0.41646 0.280906 0.025 -832173
0.421014 0.283977 0.025 -1.58324e+06
0.425554 0.28704 0.025 -1.86412e+06
0.430079 0.290092 0.025 -1.47798e+06
0.434588 0.293133 0.025 -1.81757e+06
0.439079 0.296162 0.025 -1.27319e+06
0.443551 0.299179 0.025 -1.65415e+06
0.448004 0.302183 0.025 -1.68614e+06
0.452437 0.305172 0.025 -1.64515e+06
0.456846 0.308146 0.025 -1.52932e+06
0.461232 0.311105 0.025 -1.55476e+06
0.465593 0.314047 0.025 -1.44068e+06
0.469929 0.316971 0.025 -1.93264e+06
0.474238 0.319878 0.025 -988237
0.47852 0.322766 0.025 -1.1084e+06
0.482773 0.325635 0.025 -879787
0.486996 0.328483 0.025 -1.32216e+06
0.491189 0.331311 0.025 -2.0161e+06
0.49535 0.334118 0.025 -1.27974e+06
