# wallHeatFlux  FACE_DATA 398
# x  y  z  wallHeatFlux
-0.7975 0 0.025 -653677
-0.79239 0 0.025 -120050
-0.787056 0 0.025 -71318.6
-0.781492 0 0.025 -64572
-0.775691 0 0.025 -65915.8
-0.769649 0 0.025 -66472.7
-0.763362 0 0.025 -66792.2
-0.756822 0 0.025 -66542.2
-0.750025 0 0.025 -65951.3
-0.742968 0 0.025 -65057.7
-0.735648 0 0.025 -64018.7
-0.72806 0 0.025 -62978.7
-0.720203 0 0.025 -62024.5
-0.712076 0 0.025 -61124.3
-0.703677 0 0.025 -60308.4
-0.695006 0 0.025 -59518.2
-0.686065 0 0.025 -58764.7
-0.676855 0 0.025 -58095.9
-0.667379 0 0.025 -57388.5
-0.65764 0 0.025 -56702.1
-0.647644 0 0.025 -56130.1
-0.637397 0 0.025 -55562
-0.626906 0 0.025 -54973.4
-0.616179 0 0.025 -54481.4
-0.605224 0 0.025 -53952.4
-0.594054 0 0.025 -53490.9
-0.582678 0 0.025 -52993.5
-0.57111 0 0.025 -52520.9
-0.559364 0 0.025 -52084.9
-0.547454 0 0.025 -51726.3
-0.535396 0 0.025 -51317.7
-0.523205 0 0.025 -50936.9
-0.510901 0 0.025 -50540.2
-0.4985 0 0.025 -50149.7
-0.486021 0 0.025 -49843.6
-0.473483 0 0.025 -49567.6
-0.460905 0 0.025 -49256.4
-0.448308 0 0.025 -48955.1
-0.435709 0 0.025 -48646.4
-0.42313 0 0.025 -48329.2
-0.41059 0 0.025 -48059.4
-0.39811 0 0.025 -47836.2
-0.385706 0 0.025 -47627.2
-0.373398 0 0.025 -47412.8
-0.361205 0 0.025 -47202.7
-0.349141 0 0.025 -47006.5
-0.337226 0 0.025 -46783.4
-0.325475 0 0.025 -46549
-0.313901 0 0.025 -46309
-0.30252 0 0.025 -46100.4
-0.291343 0 0.025 -45936
-0.280382 0 0.025 -45814.5
-0.269646 0 0.025 -45718.9
-0.259148 0 0.025 -45634.4
-0.248893 0 0.025 -45535.7
-0.23889 0 0.025 -45405.3
-0.229143 0 0.025 -45258.3
-0.219659 0 0.025 -45091.7
-0.210441 0 0.025 -44930.2
-0.201491 0 0.025 -44766.7
-0.192812 0 0.025 -44627.6
-0.184405 0 0.025 -44509.2
-0.176269 0 0.025 -44421.1
-0.168404 0 0.025 -44340.1
-0.160808 0 0.025 -44286
-0.15348 0 0.025 -44235
-0.146415 0 0.025 -44184.7
-0.13961 0 0.025 -44111.8
-0.133063 0 0.025 -44035.4
-0.126767 0 0.025 -43949.2
-0.120718 0 0.025 -43863.7
-0.11491 0 0.025 -43778.8
-0.109339 0 0.025 -43694.6
-0.103997 0 0.025 -43620.3
-0.0988805 0 0.025 -43544.7
-0.0939808 0 0.025 -43477.2
-0.0892928 0 0.025 -43421.8
-0.0848096 0 0.025 -43371.9
-0.0805248 0 0.025 -43343.8
-0.0764316 0 0.025 -43321.3
-0.0725237 0 0.025 -43315
-0.0687943 0 0.025 -43309.4
-0.065237 0 0.025 -43308.6
-0.0618454 0 0.025 -43308.7
-0.058613 0 0.025 -43308.1
-0.0555337 0 0.025 -43308.5
-0.0526013 0 0.025 -43313.7
-0.0498099 0 0.025 -43313.8
-0.0471536 0 0.025 -43313.9
-0.0446266 0 0.025 -43314
-0.0422235 0 0.025 -43314.1
-0.039939 0 0.025 -43308.9
-0.0377676 0 0.025 -43308.7
-0.0357044 0 0.025 -43304.2
-0.0337445 0 0.025 -43304
-0.0318832 0 0.025 -43250.6
-0.0301159 0 0.025 -41889
-0.0284383 0 0.025 -35020.9
-0.0268461 0 0.025 -35057.5
-0.0253353 0 0.025 -52855.7
-0.023902 0 0.025 -64195.5
-0.0225426 0 0.025 -71144
-0.0212532 0 0.025 -76477
-0.0200306 0 0.025 -81207.6
-0.0188715 0 0.025 -85200
-0.0177728 0 0.025 -88801.8
-0.0167313 0 0.025 -92045.2
-0.0157444 0 0.025 -94972.9
-0.0148092 0 0.025 -97776.6
-0.0139232 0 0.025 -100474
-0.0130838 0 0.025 -102977
-0.0122887 0 0.025 -105189
-0.0115356 0 0.025 -107111
-0.0108223 0 0.025 -108790
-0.0101469 0 0.025 -110249
-0.00950727 0 0.025 -111517
-0.00890168 0 0.025 -112625
-0.00832835 0 0.025 -113649
-0.00778557 0 0.025 -114659
-0.00727176 0 0.025 -115704
-0.0067854 0 0.025 -116831
-0.00632507 0 0.025 -118071
-0.00588937 0 0.025 -119447
-0.00547703 0 0.025 -120969
-0.0050868 0 0.025 -122630
-0.00471753 0 0.025 -124433
-0.0043681 0 0.025 -126383
-0.00403746 0 0.025 -128510
-0.00372461 0 0.025 -130756
-0.0034286 0 0.025 -133150
-0.00314855 0 0.025 -135723
-0.0028836 0 0.025 -138502
-0.00263294 0 0.025 -141371
-0.00239581 0 0.025 -144117
-0.0021715 0 0.025 -147018
-0.00195929 0 0.025 -150038
-0.00175856 0 0.025 -153132
-0.00156869 0 0.025 -156314
-0.00138908 0 0.025 -159601
-0.0012192 0 0.025 -162941
-0.00105853 0 0.025 -166354
-0.000906546 0 0.025 -169796
-0.000762803 0 0.025 -173134
-0.000626848 0 0.025 -176080
-0.000498265 0 0.025 -177750
-0.000376656 0 0.025 -176295
-0.000261642 0 0.025 -168070
-0.00015287 0 0.025 -146020
-5e-05 0 0.025 -94409.5
4.14519e-05 2.79596e-05 0.025 -66615.5
0.000125371 8.45641e-05 0.025 -80019.1
0.000211347 0.000142556 0.025 -95443
0.000299429 0.000201968 0.025 -106721
0.000389669 0.000262835 0.025 -116165
0.000482118 0.000325193 0.025 -125153
0.000576831 0.000389077 0.025 -133631
0.000673861 0.000454524 0.025 -141332
0.000773265 0.000521574 0.025 -148149
0.0008751 0.000590262 0.025 -154158
0.000979426 0.000660632 0.025 -159459
0.0010863 0.000732721 0.025 -164179
0.00119579 0.000806572 0.025 -168532
0.00130795 0.000882227 0.025 -172569
0.00142285 0.00095973 0.025 -176338
0.00154056 0.00103912 0.025 -179979
0.00166115 0.00112046 0.025 -183491
0.00178467 0.00120378 0.025 -186968
0.00191121 0.00128913 0.025 -190436
0.00204083 0.00137656 0.025 -193844
0.00217362 0.00146612 0.025 -197311
0.00230964 0.00155787 0.025 -200836
0.00244897 0.00165185 0.025 -204369
0.00259169 0.00174812 0.025 -207993
0.00273789 0.00184673 0.025 -211716
0.00288765 0.00194774 0.025 -215584
0.00304105 0.00205122 0.025 -219552
0.00319818 0.00215719 0.025 -223645
0.00335912 0.00226575 0.025 -227946
0.00352397 0.00237695 0.025 -232386
0.00369283 0.00249085 0.025 -237041
0.00386579 0.00260751 0.025 -241889
0.00404294 0.00272699 0.025 -246970
0.00422438 0.00284938 0.025 -252303
0.00441022 0.00297474 0.025 -257905
0.00460056 0.00310312 0.025 -263775
0.00479552 0.00323462 0.025 -269927
0.00499519 0.0033693 0.025 -276476
0.00519968 0.00350723 0.025 -283326
0.00540911 0.00364849 0.025 -290627
0.00562361 0.00379318 0.025 -298359
0.00584329 0.00394134 0.025 -306510
0.00606826 0.00409309 0.025 -315255
0.00629865 0.00424849 0.025 -324474
0.0065346 0.00440764 0.025 -334319
0.00677623 0.00457063 0.025 -344819
0.00702368 0.00473753 0.025 -355899
0.00727707 0.00490844 0.025 -367816
0.00753655 0.00508347 0.025 -380504
0.00780227 0.00526269 0.025 -394278
0.00807436 0.00544622 0.025 -408991
0.00835298 0.00563415 0.025 -424589
0.00863826 0.00582659 0.025 -441614
0.00893038 0.00602362 0.025 -460671
0.00922949 0.00622537 0.025 -480528
0.00953574 0.00643195 0.025 -501551
0.00984929 0.00664345 0.025 -525457
0.0101703 0.00686 0.025 -552261
0.0104991 0.00708171 0.025 -581021
0.0108356 0.00730871 0.025 -615915
0.0111801 0.0075411 0.025 -652659
0.0115329 0.00777902 0.025 -691636
0.011894 0.00802259 0.025 -735671
0.0122637 0.00827194 0.025 -780328
0.0126421 0.00852719 0.025 -824844
0.0130295 0.0087885 0.025 -868151
0.013426 0.00905597 0.025 -911716
0.013832 0.00932978 0.025 -954652
0.0142475 0.00961003 0.025 -997185
0.0146727 0.0098969 0.025 -1.03901e+06
0.0151081 0.0101905 0.025 -1.08167e+06
0.0155536 0.010491 0.025 -1.12622e+06
0.0160097 0.0107986 0.025 -1.17122e+06
0.0164764 0.0111134 0.025 -1.21978e+06
0.016954 0.0114356 0.025 -1.2711e+06
0.0174427 0.0117653 0.025 -1.32063e+06
0.0179429 0.0121026 0.025 -1.37486e+06
0.0184548 0.0124479 0.025 -1.43839e+06
0.0189786 0.0128013 0.025 -1.48014e+06
0.0195146 0.0131628 0.025 -1.5293e+06
0.020063 0.0135327 0.025 -1.58706e+06
0.0206242 0.0139112 0.025 -1.62495e+06
0.0211983 0.0142984 0.025 -1.65408e+06
0.0217857 0.0146947 0.025 -1.68993e+06
0.0223867 0.0151 0.025 -1.72106e+06
0.0230015 0.0155147 0.025 -1.74702e+06
0.0236304 0.0159389 0.025 -1.77801e+06
0.0242738 0.0163729 0.025 -1.77993e+06
0.0249318 0.0168167 0.025 -1.79426e+06
0.025605 0.0172708 0.025 -1.80162e+06
0.0262935 0.0177352 0.025 -1.77641e+06
0.0269977 0.0182102 0.025 -1.74899e+06
0.0277178 0.0186959 0.025 -1.71168e+06
0.0284544 0.0191927 0.025 -1.72665e+06
0.0292075 0.0197008 0.025 -1.67285e+06
0.0299777 0.0202203 0.025 -1.6238e+06
0.0307653 0.0207514 0.025 -1.59267e+06
0.0315704 0.0212945 0.025 -1.56183e+06
0.0323937 0.0218499 0.025 -1.53633e+06
0.0332354 0.0224176 0.025 -1.50768e+06
0.0340959 0.022998 0.025 -1.48325e+06
0.0349755 0.0235913 0.025 -1.44994e+06
0.0358747 0.0241978 0.025 -1.44985e+06
0.0367938 0.0248178 0.025 -1.41252e+06
0.0377331 0.0254513 0.025 -1.388e+06
0.0386932 0.0260989 0.025 -1.36962e+06
0.0396743 0.0267606 0.025 -1.35448e+06
0.0406769 0.0274369 0.025 -1.34402e+06
0.0417013 0.0281279 0.025 -1.33046e+06
0.042748 0.0288339 0.025 -1.33165e+06
0.0438175 0.0295552 0.025 -1.31866e+06
0.04491 0.0302922 0.025 -1.30786e+06
0.0460262 0.031045 0.025 -1.30786e+06
0.0471662 0.031814 0.025 -1.31424e+06
0.0483306 0.0325995 0.025 -1.30681e+06
0.0495199 0.0334016 0.025 -1.31064e+06
0.0507344 0.0342208 0.025 -1.30672e+06
0.0519746 0.0350573 0.025 -1.30388e+06
0.0532409 0.0359114 0.025 -1.30713e+06
0.0545339 0.0367835 0.025 -1.29301e+06
0.0558538 0.0376739 0.025 -1.29165e+06
0.0572012 0.0385827 0.025 -1.29083e+06
0.0585766 0.0395104 0.025 -1.28909e+06
0.0599804 0.0404573 0.025 -1.29752e+06
0.061413 0.0414236 0.025 -1.28002e+06
0.0628748 0.0424096 0.025 -1.3061e+06
0.0643665 0.0434157 0.025 -1.31132e+06
0.0658883 0.0444422 0.025 -1.28438e+06
0.0674408 0.0454894 0.025 -1.27432e+06
0.0690245 0.0465576 0.025 -1.27331e+06
0.0706398 0.0476471 0.025 -1.26856e+06
0.0722871 0.0487582 0.025 -1.26508e+06
0.0739669 0.0498912 0.025 -1.26346e+06
0.0756797 0.0510466 0.025 -1.27358e+06
0.0774258 0.0522244 0.025 -1.28506e+06
0.0792059 0.053425 0.025 -1.2759e+06
0.0810203 0.0546489 0.025 -1.29955e+06
0.0828694 0.0558961 0.025 -1.27059e+06
0.0847537 0.0571671 0.025 -1.31384e+06
0.0866737 0.0584622 0.025 -1.27355e+06
0.0886298 0.0597816 0.025 -1.27364e+06
0.0906224 0.0611256 0.025 -1.28511e+06
0.0926518 0.0624944 0.025 -1.25115e+06
0.0947185 0.0638884 0.025 -1.29408e+06
0.096823 0.065308 0.025 -1.25338e+06
0.0989659 0.0667532 0.025 -1.34184e+06
0.101147 0.0682245 0.025 -1.68858e+06
0.103367 0.0697219 0.025 -1.59323e+06
0.105626 0.0712458 0.025 -1.20119e+06
0.107926 0.0727965 0.025 -1.19612e+06
0.110265 0.074374 0.025 -1.23458e+06
0.112644 0.0759789 0.025 -1.83557e+06
0.115063 0.0776111 0.025 -1.23867e+06
0.117524 0.0792709 0.025 -1.71054e+06
0.120026 0.0809585 0.025 -1.87999e+06
0.122569 0.0826741 0.025 -1.66977e+06
0.125155 0.0844179 0.025 -1.49179e+06
0.127782 0.0861901 0.025 -1.29328e+06
0.130451 0.0879908 0.025 -1.24989e+06
0.133163 0.08982 0.025 -1.22744e+06
0.135918 0.0916781 0.025 -1.19728e+06
0.138716 0.0935651 0.025 -1.19827e+06
0.141556 0.095481 0.025 -1.20757e+06
0.14444 0.097426 0.025 -1.58958e+06
0.147367 0.0994004 0.025 -2.3445e+06
0.150337 0.101404 0.025 -1.6681e+06
0.153351 0.103437 0.025 -1.617e+06
0.156408 0.105498 0.025 -2.25368e+06
0.159508 0.107589 0.025 -1.02613e+06
0.162651 0.10971 0.025 -1.51621e+06
0.165838 0.111859 0.025 -3.65306e+06
0.169069 0.114039 0.025 -1.60595e+06
0.172343 0.116247 0.025 -1.98217e+06
0.175659 0.118483 0.025 -1.88063e+06
0.179018 0.120749 0.025 -1.87692e+06
0.182421 0.123045 0.025 -1.94751e+06
0.185866 0.125368 0.025 -1.70682e+06
0.189353 0.12772 0.025 -1.74176e+06
0.192882 0.1301 0.025 -1.84836e+06
0.196453 0.132509 0.025 -1.74544e+06
0.200065 0.134946 0.025 -2.16958e+06
0.203718 0.13741 0.025 -1.93997e+06
0.207412 0.139901 0.025 -926826
0.211146 0.14242 0.025 -988761
0.214919 0.144965 0.025 -1.62e+06
0.218732 0.147537 0.025 -990267
0.222583 0.150134 0.025 -1.94401e+06
0.226472 0.152757 0.025 -979572
0.230399 0.155406 0.025 -1.83553e+06
0.234362 0.15808 0.025 -1.72958e+06
0.238362 0.160777 0.025 -2.35798e+06
0.242396 0.163498 0.025 -1.95071e+06
0.246466 0.166244 0.025 -2.11296e+06
0.250569 0.169012 0.025 -933249
0.254706 0.171801 0.025 -1.53531e+06
0.258874 0.174613 0.025 -1.5376e+06
0.263074 0.177446 0.025 -1.95942e+06
0.267304 0.180299 0.025 -1.58429e+06
0.271564 0.183172 0.025 -950330
0.275852 0.186064 0.025 -1.62821e+06
0.280168 0.188975 0.025 -925063
0.28451 0.191904 0.025 -1.65399e+06
0.288876 0.19485 0.025 -2.27853e+06
0.293268 0.197812 0.025 -1.61127e+06
0.297683 0.20079 0.025 -1.91852e+06
0.302119 0.203782 0.025 -2.23284e+06
0.306577 0.206788 0.025 -1.41738e+06
0.311054 0.209808 0.025 -1.58334e+06
0.315549 0.212841 0.025 -1.16744e+06
0.320063 0.215885 0.025 -2.01408e+06
0.324591 0.218939 0.025 -1.42282e+06
0.329134 0.222003 0.025 -1.41341e+06
0.333691 0.225077 0.025 -2.21974e+06
0.33826 0.228159 0.025 -1.7848e+06
0.342839 0.231248 0.025 -1.8316e+06
0.347428 0.234343 0.025 -876461
0.352025 0.237444 0.025 -1.93568e+06
0.356628 0.240548 0.025 -1.41656e+06
0.361237 0.243658 0.025 -1.15635e+06
0.36585 0.246769 0.025 -2.57153e+06
0.370465 0.249882 0.025 -1.02558e+06
0.375082 0.252996 0.025 -1.44238e+06
0.379698 0.25611 0.025 -2.64229e+06
0.384313 0.259223 0.025 -1.38786e+06
0.388926 0.262333 0.025 -1.71115e+06
0.393534 0.265442 0.025 -1.4105e+06
0.398136 0.268546 0.025 -881614
0.40273 0.271645 0.025 -1.63047e+06
0.407317 0.274739 0.025 -1.68671e+06
0.411894 0.277826 0.025 -2.12098e+06
0.41646 0.280906 0.025 -837538
0.421014 0.283977 0.025 -1.59548e+06
0.425554 0.28704 0.025 -1.88723e+06
0.430079 0.290092 0.025 -1.48414e+06
0.434588 0.293133 0.025 -1.82516e+06
0.439079 0.296162 0.025 -1.2811e+06
0.443551 0.299179 0.025 -1.66717e+06
0.448004 0.302183 0.025 -1.69697e+06
0.452437 0.305172 0.025 -1.65471e+06
0.456846 0.308146 0.025 -1.53724e+06
0.461232 0.311105 0.025 -1.56242e+06
0.465593 0.314047 0.025 -1.44781e+06
0.469929 0.316971 0.025 -1.9192e+06
0.474238 0.319878 0.025 -994627
0.47852 0.322766 0.025 -1.11419e+06
0.482773 0.325635 0.025 -884103
0.486996 0.328483 0.025 -1.3301e+06
0.491189 0.331311 0.025 -2.01976e+06
0.49535 0.334118 0.025 -1.28871e+06
