# Wall heat-flux
# Time        	patch         	min           	max           	integral      
800           	base	-2.572803e+06	-6.066939e+04	-3.352794e+03
