/*--------------------------------*- C++ -*----------------------------------*\
| =========                 |                                                 |
| \\      /  F ield         | OpenFOAM: The Open Source CFD Toolbox           |
|  \\    /   O peration     | Version:  v2012                                 |
|   \\  /    A nd           | Website:  www.openfoam.com                      |
|    \\/     M anipulation  |                                                 |
\*---------------------------------------------------------------------------*/
FoamFile
{
    version     2.0;
    format      ascii;
    class       volScalarField;
    location    "0";
    object      wallHeatFlux;
}
// * * * * * * * * * * * * * * * * * * * * * * * * * * * * * * * * * * * * * //

dimensions      [1 0 -3 0 0 0 0];


internalField   uniform 0;

boundaryField
{
    base
    {
        type            calculated;
        value           nonuniform List<scalar> 
298
(
1.2191e+06
1.21418e+06
1.21246e+06
1.21354e+06
1.21766e+06
1.22147e+06
1.22507e+06
1.22807e+06
1.23049e+06
1.23232e+06
1.23365e+06
1.23472e+06
1.23559e+06
1.23626e+06
1.23674e+06
1.23711e+06
1.23738e+06
1.23756e+06
1.23766e+06
1.2377e+06
1.23767e+06
1.23765e+06
1.23757e+06
1.23749e+06
1.23736e+06
1.2372e+06
1.23703e+06
1.23683e+06
1.23659e+06
1.23637e+06
1.23617e+06
1.23594e+06
1.2357e+06
1.23545e+06
1.23522e+06
1.23497e+06
1.23468e+06
1.2345e+06
1.23427e+06
1.23403e+06
1.23386e+06
1.23362e+06
1.23342e+06
1.23321e+06
1.233e+06
1.23279e+06
1.23267e+06
1.23254e+06
1.23231e+06
1.23219e+06
1.23209e+06
1.23192e+06
1.23174e+06
1.23171e+06
1.23158e+06
1.2315e+06
1.23141e+06
1.23134e+06
1.23127e+06
1.2312e+06
1.23114e+06
1.23109e+06
1.23101e+06
1.23108e+06
1.231e+06
1.23092e+06
1.23102e+06
1.23089e+06
1.23094e+06
1.23094e+06
1.23096e+06
1.23098e+06
1.23107e+06
1.23103e+06
1.23106e+06
1.23103e+06
1.23113e+06
1.23122e+06
1.23124e+06
1.23128e+06
1.23135e+06
1.23141e+06
1.23147e+06
1.23154e+06
1.23162e+06
1.23168e+06
1.23179e+06
1.23186e+06
1.23197e+06
1.23204e+06
1.23215e+06
1.23225e+06
1.23235e+06
1.23246e+06
1.23258e+06
1.23269e+06
1.23281e+06
1.23294e+06
1.23308e+06
1.23319e+06
1.23335e+06
1.23347e+06
1.23363e+06
1.23378e+06
1.23395e+06
1.2341e+06
1.23425e+06
1.23444e+06
1.23462e+06
1.23481e+06
1.23501e+06
1.23521e+06
1.23544e+06
1.23562e+06
1.23587e+06
1.23613e+06
1.23636e+06
1.23665e+06
1.23693e+06
1.23725e+06
1.23754e+06
1.23787e+06
1.23826e+06
1.23866e+06
1.23909e+06
1.23957e+06
1.2401e+06
1.24068e+06
1.24133e+06
1.24205e+06
1.24288e+06
1.2439e+06
1.24497e+06
1.24639e+06
1.24811e+06
1.25011e+06
1.25234e+06
1.25541e+06
1.25928e+06
1.26378e+06
1.26904e+06
1.27625e+06
1.28576e+06
1.29716e+06
1.31083e+06
1.32168e+06
1.33111e+06
1.32945e+06
1.31474e+06
1.24461e+06
1.2545e+06
1.25888e+06
1.25705e+06
1.25378e+06
1.24816e+06
1.24332e+06
1.23976e+06
1.23717e+06
1.23552e+06
1.23311e+06
1.23125e+06
1.23032e+06
1.2294e+06
1.22961e+06
1.2297e+06
1.22863e+06
1.22863e+06
1.22916e+06
1.22863e+06
1.22504e+06
1.225e+06
1.22557e+06
1.22249e+06
1.22143e+06
1.22394e+06
1.22398e+06
1.22091e+06
1.22091e+06
1.22091e+06
1.2209e+06
1.22091e+06
1.22091e+06
1.22091e+06
1.22091e+06
1.22091e+06
1.22091e+06
1.22394e+06
1.22397e+06
1.22091e+06
1.2209e+06
1.22394e+06
1.22397e+06
1.22091e+06
1.22091e+06
1.22091e+06
1.22091e+06
1.22394e+06
1.22397e+06
1.22091e+06
1.22091e+06
1.22394e+06
1.22397e+06
1.22091e+06
1.22091e+06
1.22091e+06
1.22091e+06
1.22091e+06
1.22394e+06
1.22703e+06
1.22397e+06
1.22091e+06
1.22091e+06
1.22091e+06
1.22091e+06
1.22091e+06
1.22091e+06
1.22091e+06
1.22395e+06
1.22397e+06
1.22395e+06
1.22397e+06
1.22395e+06
1.22397e+06
1.22091e+06
1.22091e+06
1.22091e+06
1.22091e+06
1.22091e+06
1.22091e+06
1.22395e+06
1.22397e+06
1.22091e+06
1.22091e+06
1.22091e+06
1.22091e+06
1.22091e+06
1.22091e+06
1.22091e+06
1.22395e+06
1.24876e+06
1.23926e+06
1.20884e+06
1.20884e+06
1.20884e+06
1.21403e+06
1.21403e+06
1.23913e+06
1.23926e+06
1.20884e+06
1.20884e+06
1.20884e+06
1.20884e+06
1.20884e+06
1.20884e+06
1.23914e+06
1.23925e+06
1.21403e+06
1.25011e+06
1.24459e+06
1.23915e+06
1.23924e+06
1.20884e+06
1.24451e+06
1.2502e+06
1.21928e+06
1.21928e+06
1.21403e+06
1.19855e+06
1.1885e+06
1.1885e+06
1.23992e+06
1.29767e+06
1.23987e+06
1.1885e+06
1.18851e+06
1.23992e+06
1.27274e+06
1.21787e+06
1.23992e+06
1.23987e+06
1.1885e+06
1.27081e+06
1.33273e+06
1.27275e+06
1.21786e+06
1.18851e+06
1.2178e+06
1.21787e+06
1.27081e+06
1.27084e+06
1.1885e+06
1.1885e+06
1.23991e+06
1.23988e+06
1.23991e+06
1.29767e+06
1.29767e+06
1.23988e+06
)
;
    }
    frontAndBack
    {
        type            empty;
    }
    inlet
    {
        type            calculated;
        value           uniform 0;
    }
    outlet
    {
        type            calculated;
        value           uniform 0;
    }
    top
    {
        type            calculated;
        value           uniform 0;
    }
}


// ************************************************************************* //
