# y+ ()       
# Time        	patch         	min           	max           	average       
3700          	base	3.239485e-03	2.545693e+01	5.452148e+00
