# p  FACE_DATA 398
# x  y  z  p
-0.7975 0 0.025 4472.58
-0.79239 0 0.025 3682.1
-0.787056 0 0.025 2933.51
-0.781492 0 0.025 2837.29
-0.775691 0 0.025 2790.77
-0.769649 0 0.025 2789.69
-0.763362 0 0.025 2817
-0.756822 0 0.025 2840.59
-0.750025 0 0.025 2855.26
-0.742968 0 0.025 2862.21
-0.735648 0 0.025 2866.82
-0.72806 0 0.025 2868.26
-0.720203 0 0.025 2868.51
-0.712076 0 0.025 2866.96
-0.703677 0 0.025 2865.69
-0.695006 0 0.025 2864.56
-0.686065 0 0.025 2863.73
-0.676855 0 0.025 2863.05
-0.667379 0 0.025 2860.37
-0.65764 0 0.025 2855.98
-0.647644 0 0.025 2854.25
-0.637397 0 0.025 2854.33
-0.626906 0 0.025 2849.81
-0.616179 0 0.025 2848.59
-0.605224 0 0.025 2846.43
-0.594054 0 0.025 2844.56
-0.582678 0 0.025 2841.75
-0.57111 0 0.025 2840.08
-0.559364 0 0.025 2838.11
-0.547454 0 0.025 2837.32
-0.535396 0 0.025 2834.48
-0.523205 0 0.025 2832.79
-0.510901 0 0.025 2830.75
-0.4985 0 0.025 2828.8
-0.486021 0 0.025 2828.1
-0.473483 0 0.025 2826.44
-0.460905 0 0.025 2824.55
-0.448308 0 0.025 2823.01
-0.435709 0 0.025 2821
-0.42313 0 0.025 2819.06
-0.41059 0 0.025 2818.78
-0.39811 0 0.025 2818.69
-0.385706 0 0.025 2817.2
-0.373398 0 0.025 2814.89
-0.361205 0 0.025 2813.51
-0.349141 0 0.025 2812.39
-0.337226 0 0.025 2810.86
-0.325475 0 0.025 2809.47
-0.313901 0 0.025 2808.91
-0.30252 0 0.025 2809.14
-0.291343 0 0.025 2809.18
-0.280382 0 0.025 2808.07
-0.269646 0 0.025 2806.53
-0.259148 0 0.025 2804.93
-0.248893 0 0.025 2803.8
-0.23889 0 0.025 2802.69
-0.229143 0 0.025 2801.88
-0.219659 0 0.025 2801.19
-0.210441 0 0.025 2800.77
-0.201491 0 0.025 2799.89
-0.192812 0 0.025 2798.86
-0.184405 0 0.025 2797.62
-0.176269 0 0.025 2796.84
-0.168404 0 0.025 2796.19
-0.160808 0 0.025 2795.94
-0.15348 0 0.025 2795.83
-0.146415 0 0.025 2796.04
-0.13961 0 0.025 2796.37
-0.133063 0 0.025 2796.93
-0.126767 0 0.025 2797.39
-0.120718 0 0.025 2797.72
-0.11491 0 0.025 2797.65
-0.109339 0 0.025 2797.29
-0.103997 0 0.025 2796.59
-0.0988805 0 0.025 2795.73
-0.0939808 0 0.025 2794.75
-0.0892928 0 0.025 2793.8
-0.0848096 0 0.025 2792.88
-0.0805248 0 0.025 2792.01
-0.0764316 0 0.025 2791.19
-0.0725237 0 0.025 2790.41
-0.0687943 0 0.025 2789.68
-0.065237 0 0.025 2788.97
-0.0618454 0 0.025 2788.35
-0.058613 0 0.025 2787.75
-0.0555337 0 0.025 2787.2
-0.0526013 0 0.025 2786.69
-0.0498099 0 0.025 2786.25
-0.0471536 0 0.025 2785.87
-0.0446266 0 0.025 2785.59
-0.0422235 0 0.025 2785.38
-0.039939 0 0.025 2785.25
-0.0377676 0 0.025 2785.17
-0.0357044 0 0.025 2785.24
-0.0337445 0 0.025 2784.85
-0.0318832 0 0.025 2787.7
-0.0301159 0 0.025 2852.63
-0.0284383 0 0.025 3422.93
-0.0268461 0 0.025 4652.7
-0.0253353 0 0.025 5781.54
-0.023902 0 0.025 6628.83
-0.0225426 0 0.025 7275.82
-0.0212532 0 0.025 7790.44
-0.0200306 0 0.025 8228.72
-0.0188715 0 0.025 8616.35
-0.0177728 0 0.025 8952.48
-0.0167313 0 0.025 9248.59
-0.0157444 0 0.025 9515.2
-0.0148092 0 0.025 9754.98
-0.0139232 0 0.025 9972.82
-0.0130838 0 0.025 10173.3
-0.0122887 0 0.025 10358.9
-0.0115356 0 0.025 10531.1
-0.0108223 0 0.025 10690.8
-0.0101469 0 0.025 10839
-0.00950727 0 0.025 10976.2
-0.00890168 0 0.025 11103.1
-0.00832835 0 0.025 11220
-0.00778557 0 0.025 11327.3
-0.00727176 0 0.025 11425.5
-0.0067854 0 0.025 11515.4
-0.00632507 0 0.025 11597.8
-0.00588937 0 0.025 11673.8
-0.00547703 0 0.025 11744.7
-0.0050868 0 0.025 11811.8
-0.00471753 0 0.025 11876.2
-0.0043681 0 0.025 11939.5
-0.00403746 0 0.025 12003.7
-0.00372461 0 0.025 12069.4
-0.0034286 0 0.025 12137.5
-0.00314855 0 0.025 12208.5
-0.0028836 0 0.025 12283.9
-0.00263294 0 0.025 12367.8
-0.00239581 0 0.025 12454
-0.0021715 0 0.025 12543.4
-0.00195929 0 0.025 12637.4
-0.00175856 0 0.025 12735.4
-0.00156869 0 0.025 12836.6
-0.00138908 0 0.025 12940.1
-0.0012192 0 0.025 13045.1
-0.00105853 0 0.025 13150.4
-0.000906546 0 0.025 13254.4
-0.000762803 0 0.025 13354.6
-0.000626848 0 0.025 13447.2
-0.000498265 0 0.025 13526.4
-0.000376656 0 0.025 13584.4
-0.000261642 0 0.025 13614.9
-0.00015287 0 0.025 13621.4
-5e-05 0 0.025 13709.8
4.14519e-05 2.79596e-05 0.025 13299.8
0.000125371 8.45641e-05 0.025 13398
0.000211347 0.000142556 0.025 13365.7
0.000299429 0.000201968 0.025 13301.4
0.000389669 0.000262835 0.025 13226.9
0.000482118 0.000325193 0.025 13152
0.000576831 0.000389077 0.025 13082.2
0.000673861 0.000454524 0.025 13021.2
0.000773265 0.000521574 0.025 12971.6
0.0008751 0.000590262 0.025 12934.5
0.000979426 0.000660632 0.025 12911
0.0010863 0.000732721 0.025 12898.1
0.00119579 0.000806572 0.025 12899.6
0.00130795 0.000882227 0.025 12913.2
0.00142285 0.00095973 0.025 12937.7
0.00154056 0.00103912 0.025 12972.9
0.00166115 0.00112046 0.025 13018.7
0.00178467 0.00120378 0.025 13074.9
0.00191121 0.00128913 0.025 13140.2
0.00204083 0.00137656 0.025 13215.3
0.00217362 0.00146612 0.025 13299.2
0.00230964 0.00155787 0.025 13392.2
0.00244897 0.00165185 0.025 13493
0.00259169 0.00174812 0.025 13602.7
0.00273789 0.00184673 0.025 13720.7
0.00288765 0.00194774 0.025 13846.9
0.00304105 0.00205122 0.025 13981.6
0.00319818 0.00215719 0.025 14124.9
0.00335912 0.00226575 0.025 14276.6
0.00352397 0.00237695 0.025 14437.3
0.00369283 0.00249085 0.025 14607.2
0.00386579 0.00260751 0.025 14786.6
0.00404294 0.00272699 0.025 14975.9
0.00422438 0.00284938 0.025 15175.5
0.00441022 0.00297474 0.025 15386.2
0.00460056 0.00310312 0.025 15608.6
0.00479552 0.00323462 0.025 15843.6
0.00499519 0.0033693 0.025 16091.4
0.00519968 0.00350723 0.025 16353.8
0.00540911 0.00364849 0.025 16631.2
0.00562361 0.00379318 0.025 16924.8
0.00584329 0.00394134 0.025 17235.9
0.00606826 0.00409309 0.025 17565.6
0.00629865 0.00424849 0.025 17915.3
0.0065346 0.00440764 0.025 18286.9
0.00677623 0.00457063 0.025 18681.3
0.00702368 0.00473753 0.025 19101.3
0.00727707 0.00490844 0.025 19548
0.00753655 0.00508347 0.025 20024
0.00780227 0.00526269 0.025 20531.9
0.00807436 0.00544622 0.025 21073.5
0.00835298 0.00563415 0.025 21652.3
0.00863826 0.00582659 0.025 22270.7
0.00893038 0.00602362 0.025 22932.3
0.00922949 0.00622537 0.025 23639.8
0.00953574 0.00643195 0.025 24397.1
0.00984929 0.00664345 0.025 25207.3
0.0101703 0.00686 0.025 26076.2
0.0104991 0.00708171 0.025 27005.2
0.0108356 0.00730871 0.025 28000.8
0.0111801 0.0075411 0.025 29068.9
0.0115329 0.00777902 0.025 30215.6
0.011894 0.00802259 0.025 31448
0.0122637 0.00827194 0.025 32776.2
0.0126421 0.00852719 0.025 34202.4
0.0130295 0.0087885 0.025 35746.3
0.013426 0.00905597 0.025 37413.8
0.013832 0.00932978 0.025 39214.9
0.0142475 0.00961003 0.025 41164.4
0.0146727 0.0098969 0.025 43270.7
0.0151081 0.0101905 0.025 45550
0.0155536 0.010491 0.025 48020.3
0.0160097 0.0107986 0.025 50704.3
0.0164764 0.0111134 0.025 53609.6
0.016954 0.0114356 0.025 56765
0.0174427 0.0117653 0.025 60181.4
0.0179429 0.0121026 0.025 63886
0.0184548 0.0124479 0.025 67888.8
0.0189786 0.0128013 0.025 72212.7
0.0195146 0.0131628 0.025 76896.1
0.020063 0.0135327 0.025 81957.9
0.0206242 0.0139112 0.025 87432.1
0.0211983 0.0142984 0.025 93392.7
0.0217857 0.0146947 0.025 99890.3
0.0223867 0.0151 0.025 106932
0.0230015 0.0155147 0.025 114488
0.0236304 0.0159389 0.025 122720
0.0242738 0.0163729 0.025 131690
0.0249318 0.0168167 0.025 141285
0.025605 0.0172708 0.025 150958
0.0262935 0.0177352 0.025 159543
0.0269977 0.0182102 0.025 165819
0.0277178 0.0186959 0.025 168769
0.0284544 0.0191927 0.025 169139
0.0292075 0.0197008 0.025 167168
0.0299777 0.0202203 0.025 165049
0.0307653 0.0207514 0.025 162125
0.0315704 0.0212945 0.025 159070
0.0323937 0.0218499 0.025 155896
0.0332354 0.0224176 0.025 152400
0.0340959 0.022998 0.025 148641
0.0349755 0.0235913 0.025 144798
0.0358747 0.0241978 0.025 141226
0.0367938 0.0248178 0.025 138000
0.0377331 0.0254513 0.025 135314
0.0386932 0.0260989 0.025 133178
0.0396743 0.0267606 0.025 131540
0.0406769 0.0274369 0.025 130254
0.0417013 0.0281279 0.025 129258
0.042748 0.0288339 0.025 128552
0.0438175 0.0295552 0.025 128037
0.04491 0.0302922 0.025 127491
0.0460262 0.031045 0.025 126905
0.0471662 0.031814 0.025 126457
0.0483306 0.0325995 0.025 126824
0.0495199 0.0334016 0.025 127310
0.0507344 0.0342208 0.025 127424
0.0519746 0.0350573 0.025 127108
0.0532409 0.0359114 0.025 126728
0.0545339 0.0367835 0.025 126880
0.0558538 0.0376739 0.025 127258
0.0572012 0.0385827 0.025 127401
0.0585766 0.0395104 0.025 127186
0.0599804 0.0404573 0.025 126813
0.061413 0.0414236 0.025 126656
0.0628748 0.0424096 0.025 127175
0.0643665 0.0434157 0.025 127961
0.0658883 0.0444422 0.025 128246
0.0674408 0.0454894 0.025 128239
0.0690245 0.0465576 0.025 128016
0.0706398 0.0476471 0.025 127823
0.0722871 0.0487582 0.025 127797
0.0739669 0.0498912 0.025 128166
0.0756797 0.0510466 0.025 128655
0.0774258 0.0522244 0.025 129158
0.0792059 0.053425 0.025 129511
0.0810203 0.0546489 0.025 129675
0.0828694 0.0558961 0.025 129639
0.0847537 0.0571671 0.025 129548
0.0866737 0.0584622 0.025 129448
0.0886298 0.0597816 0.025 129357
0.0906224 0.0611256 0.025 129592
0.0926518 0.0624944 0.025 129925
0.0947185 0.0638884 0.025 130285
0.096823 0.065308 0.025 130374
0.0989659 0.0667532 0.025 130393
0.101147 0.0682245 0.025 129766
0.103367 0.0697219 0.025 129220
0.105626 0.0712458 0.025 128925
0.107926 0.0727965 0.025 128428
0.110265 0.074374 0.025 128020
0.112644 0.0759789 0.025 127320
0.115063 0.0776111 0.025 127622
0.117524 0.0792709 0.025 127808
0.120026 0.0809585 0.025 128517
0.122569 0.0826741 0.025 129579
0.125155 0.0844179 0.025 130282
0.127782 0.0861901 0.025 130308
0.130451 0.0879908 0.025 129655
0.133163 0.08982 0.025 129252
0.135918 0.0916781 0.025 128835
0.138716 0.0935651 0.025 129070
0.141556 0.095481 0.025 129513
0.14444 0.097426 0.025 129867
0.147367 0.0994004 0.025 129286
0.150337 0.101404 0.025 129661
0.153351 0.103437 0.025 128777
0.156408 0.105498 0.025 127224
0.159508 0.107589 0.025 127745
0.162651 0.10971 0.025 126713
0.165838 0.111859 0.025 124381
0.169069 0.114039 0.025 127449
0.172343 0.116247 0.025 125596
0.175659 0.118483 0.025 125258
0.179018 0.120749 0.025 124541
0.182421 0.123045 0.025 123470
0.185866 0.125368 0.025 122904
0.189353 0.12772 0.025 122295
0.192882 0.1301 0.025 122092
0.196453 0.132509 0.025 122231
0.200065 0.134946 0.025 121545
0.203718 0.13741 0.025 121578
0.207412 0.139901 0.025 121895
0.211146 0.14242 0.025 121155
0.214919 0.144965 0.025 120437
0.218732 0.147537 0.025 121280
0.222583 0.150134 0.025 121117
0.226472 0.152757 0.025 122550
0.230399 0.155406 0.025 122166
0.234362 0.15808 0.025 122205
0.238362 0.160777 0.025 120922
0.242396 0.163498 0.025 120861
0.246466 0.166244 0.025 120128
0.250569 0.169012 0.025 121123
0.254706 0.171801 0.025 120350
0.258874 0.174613 0.025 120431
0.263074 0.177446 0.025 120022
0.267304 0.180299 0.025 120778
0.271564 0.183172 0.025 121328
0.275852 0.186064 0.025 120818
0.280168 0.188975 0.025 121408
0.28451 0.191904 0.025 121011
0.288876 0.19485 0.025 120339
0.293268 0.197812 0.025 121032
0.297683 0.20079 0.025 119911
0.302119 0.203782 0.025 119401
0.306577 0.206788 0.025 120340
0.311054 0.209808 0.025 119485
0.315549 0.212841 0.025 120254
0.320063 0.215885 0.025 119585
0.324591 0.218939 0.025 121090
0.329134 0.222003 0.025 121600
0.333691 0.225077 0.025 121053
0.33826 0.228159 0.025 121931
0.342839 0.231248 0.025 121553
0.347428 0.234343 0.025 122523
0.352025 0.237444 0.025 121074
0.356628 0.240548 0.025 121344
0.361237 0.243658 0.025 121348
0.36585 0.246769 0.025 119757
0.370465 0.249882 0.025 122035
0.375082 0.252996 0.025 120889
0.379698 0.25611 0.025 120049
0.384313 0.259223 0.025 121413
0.388926 0.262333 0.025 120569
0.393534 0.265442 0.025 120970
0.398136 0.268546 0.025 121284
0.40273 0.271645 0.025 120544
0.407317 0.274739 0.025 120407
0.411894 0.277826 0.025 119994
0.41646 0.280906 0.025 121431
0.421014 0.283977 0.025 120572
0.425554 0.28704 0.025 120327
0.430079 0.290092 0.025 120879
0.434588 0.293133 0.025 120630
0.439079 0.296162 0.025 121420
0.443551 0.299179 0.025 121059
0.448004 0.302183 0.025 120971
0.452437 0.305172 0.025 121093
0.456846 0.308146 0.025 121406
0.461232 0.311105 0.025 121279
0.465593 0.314047 0.025 121453
0.469929 0.316971 0.025 121048
0.474238 0.319878 0.025 122185
0.47852 0.322766 0.025 121844
0.482773 0.325635 0.025 121947
0.486996 0.328483 0.025 121510
0.491189 0.331311 0.025 120772
0.49535 0.334118 0.025 122060
