# p  FACE_DATA 398
# x  y  z  p
-0.7975 0 0.025 4472.57
-0.79239 0 0.025 3684.47
-0.787056 0 0.025 2930.25
-0.781492 0 0.025 2836.21
-0.775691 0 0.025 2793.33
-0.769649 0 0.025 2792.64
-0.763362 0 0.025 2818.47
-0.756822 0 0.025 2841.22
-0.750025 0 0.025 2855.1
-0.742968 0 0.025 2860.95
-0.735648 0 0.025 2864.07
-0.72806 0 0.025 2864.75
-0.720203 0 0.025 2865.04
-0.712076 0 0.025 2863.38
-0.703677 0 0.025 2861.9
-0.695006 0 0.025 2860.81
-0.686065 0 0.025 2859.47
-0.676855 0 0.025 2858.71
-0.667379 0 0.025 2854.69
-0.65764 0 0.025 2850.87
-0.647644 0 0.025 2850.63
-0.637397 0 0.025 2848.53
-0.626906 0 0.025 2844.46
-0.616179 0 0.025 2844.91
-0.605224 0 0.025 2841.75
-0.594054 0 0.025 2839.78
-0.582678 0 0.025 2837.12
-0.57111 0 0.025 2835.99
-0.559364 0 0.025 2833.31
-0.547454 0 0.025 2832.01
-0.535396 0 0.025 2829.58
-0.523205 0 0.025 2829.35
-0.510901 0 0.025 2827.74
-0.4985 0 0.025 2824.23
-0.486021 0 0.025 2822.31
-0.473483 0 0.025 2821.51
-0.460905 0 0.025 2820.03
-0.448308 0 0.025 2819.86
-0.435709 0 0.025 2818.24
-0.42313 0 0.025 2815
-0.41059 0 0.025 2812.67
-0.39811 0 0.025 2812.53
-0.385706 0 0.025 2812.47
-0.373398 0 0.025 2811.39
-0.361205 0 0.025 2809.7
-0.349141 0 0.025 2807.96
-0.337226 0 0.025 2806.37
-0.325475 0 0.025 2805.15
-0.313901 0 0.025 2805.09
-0.30252 0 0.025 2805.72
-0.291343 0 0.025 2806.19
-0.280382 0 0.025 2805.52
-0.269646 0 0.025 2803.01
-0.259148 0 0.025 2799.19
-0.248893 0 0.025 2795.7
-0.23889 0 0.025 2793.23
-0.229143 0 0.025 2792.31
-0.219659 0 0.025 2793.07
-0.210441 0 0.025 2795.8
-0.201491 0 0.025 2798.78
-0.192812 0 0.025 2801.47
-0.184405 0 0.025 2802.79
-0.176269 0 0.025 2803.33
-0.168404 0 0.025 2802.32
-0.160808 0 0.025 2800.36
-0.15348 0 0.025 2797.41
-0.146415 0 0.025 2793.88
-0.13961 0 0.025 2790.01
-0.133063 0 0.025 2786.55
-0.126767 0 0.025 2783.58
-0.120718 0 0.025 2781.34
-0.11491 0 0.025 2779.75
-0.109339 0 0.025 2778.83
-0.103997 0 0.025 2778.42
-0.0988805 0 0.025 2778.38
-0.0939808 0 0.025 2778.85
-0.0892928 0 0.025 2779.64
-0.0848096 0 0.025 2780.72
-0.0805248 0 0.025 2782.07
-0.0764316 0 0.025 2783.59
-0.0725237 0 0.025 2785.21
-0.0687943 0 0.025 2786.87
-0.065237 0 0.025 2788.51
-0.0618454 0 0.025 2790.13
-0.058613 0 0.025 2791.68
-0.0555337 0 0.025 2793.12
-0.0526013 0 0.025 2794.34
-0.0498099 0 0.025 2795.34
-0.0471536 0 0.025 2796.12
-0.0446266 0 0.025 2796.71
-0.0422235 0 0.025 2797.1
-0.039939 0 0.025 2797.34
-0.0377676 0 0.025 2797.46
-0.0357044 0 0.025 2797.5
-0.0337445 0 0.025 2797.34
-0.0318832 0 0.025 2798.12
-0.0301159 0 0.025 2842.26
-0.0284383 0 0.025 3433.49
-0.0268461 0 0.025 4849.51
-0.0253353 0 0.025 6056.5
-0.023902 0 0.025 6896.52
-0.0225426 0 0.025 7496.17
-0.0212532 0 0.025 7967.81
-0.0200306 0 0.025 8375.26
-0.0188715 0 0.025 8727.8
-0.0177728 0 0.025 9043.37
-0.0167313 0 0.025 9323.6
-0.0157444 0 0.025 9574.21
-0.0148092 0 0.025 9801.2
-0.0139232 0 0.025 10010.5
-0.0130838 0 0.025 10205.2
-0.0122887 0 0.025 10386.6
-0.0115356 0 0.025 10555.2
-0.0108223 0 0.025 10711.8
-0.0101469 0 0.025 10857.2
-0.00950727 0 0.025 10991.2
-0.00890168 0 0.025 11113.6
-0.00832835 0 0.025 11224.6
-0.00778557 0 0.025 11324.7
-0.00727176 0 0.025 11414.8
-0.0067854 0 0.025 11495.8
-0.00632507 0 0.025 11569.1
-0.00588937 0 0.025 11636.5
-0.00547703 0 0.025 11699.5
-0.0050868 0 0.025 11760
-0.00471753 0 0.025 11819.5
-0.0043681 0 0.025 11879
-0.00403746 0 0.025 11940.2
-0.00372461 0 0.025 12005.3
-0.0034286 0 0.025 12074
-0.00314855 0 0.025 12146.7
-0.0028836 0 0.025 12225.7
-0.00263294 0 0.025 12314.7
-0.00239581 0 0.025 12403.9
-0.0021715 0 0.025 12498.5
-0.00195929 0 0.025 12598
-0.00175856 0 0.025 12701.9
-0.00156869 0 0.025 12809.2
-0.00138908 0 0.025 12919.2
-0.0012192 0 0.025 13030.8
-0.00105853 0 0.025 13143
-0.000906546 0 0.025 13253.9
-0.000762803 0 0.025 13360.8
-0.000626848 0 0.025 13459.6
-0.000498265 0 0.025 13544.1
-0.000376656 0 0.025 13605.9
-0.000261642 0 0.025 13638.3
-0.00015287 0 0.025 13647.8
-5e-05 0 0.025 13733.1
4.14519e-05 2.79596e-05 0.025 13326.4
0.000125371 8.45641e-05 0.025 13424.4
0.000211347 0.000142556 0.025 13392.6
0.000299429 0.000201968 0.025 13328.5
0.000389669 0.000262835 0.025 13252.7
0.000482118 0.000325193 0.025 13175.2
0.000576831 0.000389077 0.025 13101.5
0.000673861 0.000454524 0.025 13035.3
0.000773265 0.000521574 0.025 12979.6
0.0008751 0.000590262 0.025 12936
0.000979426 0.000660632 0.025 12906.7
0.0010863 0.000732721 0.025 12887.6
0.00119579 0.000806572 0.025 12884.6
0.00130795 0.000882227 0.025 12894.9
0.00142285 0.00095973 0.025 12917
0.00154056 0.00103912 0.025 12950.7
0.00166115 0.00112046 0.025 12995.6
0.00178467 0.00120378 0.025 13051.3
0.00191121 0.00128913 0.025 13116.5
0.00204083 0.00137656 0.025 13191.9
0.00217362 0.00146612 0.025 13276.5
0.00230964 0.00155787 0.025 13370.4
0.00244897 0.00165185 0.025 13472.5
0.00259169 0.00174812 0.025 13583.7
0.00273789 0.00184673 0.025 13703.5
0.00288765 0.00194774 0.025 13831.7
0.00304105 0.00205122 0.025 13968.7
0.00319818 0.00215719 0.025 14114.4
0.00335912 0.00226575 0.025 14269
0.00352397 0.00237695 0.025 14432.6
0.00369283 0.00249085 0.025 14605.6
0.00386579 0.00260751 0.025 14788.3
0.00404294 0.00272699 0.025 14981.2
0.00422438 0.00284938 0.025 15184.6
0.00441022 0.00297474 0.025 15399.2
0.00460056 0.00310312 0.025 15625.8
0.00479552 0.00323462 0.025 15865.2
0.00499519 0.0033693 0.025 16117.8
0.00519968 0.00350723 0.025 16385
0.00540911 0.00364849 0.025 16667.4
0.00562361 0.00379318 0.025 16966.3
0.00584329 0.00394134 0.025 17282.9
0.00606826 0.00409309 0.025 17618.3
0.00629865 0.00424849 0.025 17974
0.0065346 0.00440764 0.025 18351.9
0.00677623 0.00457063 0.025 18753.1
0.00702368 0.00473753 0.025 19180.2
0.00727707 0.00490844 0.025 19634.6
0.00753655 0.00508347 0.025 20119
0.00780227 0.00526269 0.025 20635.8
0.00807436 0.00544622 0.025 21187
0.00835298 0.00563415 0.025 21775.9
0.00863826 0.00582659 0.025 22405.3
0.00893038 0.00602362 0.025 23078.1
0.00922949 0.00622537 0.025 23797.4
0.00953574 0.00643195 0.025 24566.9
0.00984929 0.00664345 0.025 25389.7
0.0101703 0.00686 0.025 26272.2
0.0104991 0.00708171 0.025 27215.3
0.0108356 0.00730871 0.025 28225.4
0.0111801 0.0075411 0.025 29309.2
0.0115329 0.00777902 0.025 30471.8
0.011894 0.00802259 0.025 31718.3
0.0122637 0.00827194 0.025 33062.1
0.0126421 0.00852719 0.025 34498
0.0130295 0.0087885 0.025 36047.6
0.013426 0.00905597 0.025 37716.1
0.013832 0.00932978 0.025 39513.6
0.0142475 0.00961003 0.025 41453.5
0.0146727 0.0098969 0.025 43545.6
0.0151081 0.0101905 0.025 45805.4
0.0155536 0.010491 0.025 48250.3
0.0160097 0.0107986 0.025 50900.6
0.0164764 0.0111134 0.025 53768.7
0.016954 0.0114356 0.025 56890.1
0.0174427 0.0117653 0.025 60281.6
0.0179429 0.0121026 0.025 63976.2
0.0184548 0.0124479 0.025 68002.7
0.0189786 0.0128013 0.025 72415.4
0.0195146 0.0131628 0.025 77269
0.020063 0.0135327 0.025 82593.2
0.0206242 0.0139112 0.025 88458.6
0.0211983 0.0142984 0.025 94930.2
0.0217857 0.0146947 0.025 102042
0.0223867 0.0151 0.025 109774
0.0230015 0.0155147 0.025 117991
0.0236304 0.0159389 0.025 126711
0.0242738 0.0163729 0.025 135822
0.0249318 0.0168167 0.025 145081
0.025605 0.0172708 0.025 153936
0.0262935 0.0177352 0.025 161573
0.0269977 0.0182102 0.025 166943
0.0277178 0.0186959 0.025 169224
0.0284544 0.0191927 0.025 169007
0.0292075 0.0197008 0.025 168408
0.0299777 0.0202203 0.025 164956
0.0307653 0.0207514 0.025 161978
0.0315704 0.0212945 0.025 158945
0.0323937 0.0218499 0.025 155726
0.0332354 0.0224176 0.025 152179
0.0340959 0.022998 0.025 148388
0.0349755 0.0235913 0.025 144514
0.0358747 0.0241978 0.025 140889
0.0367938 0.0248178 0.025 137597
0.0377331 0.0254513 0.025 134861
0.0386932 0.0260989 0.025 132725
0.0396743 0.0267606 0.025 131118
0.0406769 0.0274369 0.025 129812
0.0417013 0.0281279 0.025 128702
0.042748 0.0288339 0.025 127875
0.0438175 0.0295552 0.025 127278
0.04491 0.0302922 0.025 126778
0.0460262 0.031045 0.025 126319
0.0471662 0.031814 0.025 126067
0.0483306 0.0325995 0.025 126504
0.0495199 0.0334016 0.025 126920
0.0507344 0.0342208 0.025 126926
0.0519746 0.0350573 0.025 126494
0.0532409 0.0359114 0.025 126007
0.0545339 0.0367835 0.025 126346
0.0558538 0.0376739 0.025 126921
0.0572012 0.0385827 0.025 127113
0.0585766 0.0395104 0.025 126893
0.0599804 0.0404573 0.025 126451
0.061413 0.0414236 0.025 126104
0.0628748 0.0424096 0.025 126560
0.0643665 0.0434157 0.025 127083
0.0658883 0.0444422 0.025 127211
0.0674408 0.0454894 0.025 127205
0.0690245 0.0465576 0.025 127348
0.0706398 0.0476471 0.025 127871
0.0722871 0.0487582 0.025 128692
0.0739669 0.0498912 0.025 129206
0.0756797 0.0510466 0.025 129292
0.0774258 0.0522244 0.025 129126
0.0792059 0.053425 0.025 128853
0.0810203 0.0546489 0.025 128902
0.0828694 0.0558961 0.025 129109
0.0847537 0.0571671 0.025 129450
0.0866737 0.0584622 0.025 129627
0.0886298 0.0597816 0.025 129737
0.0906224 0.0611256 0.025 129728
0.0926518 0.0624944 0.025 129673
0.0947185 0.0638884 0.025 129706
0.096823 0.065308 0.025 129741
0.0989659 0.0667532 0.025 129927
0.101147 0.0682245 0.025 129915
0.103367 0.0697219 0.025 129965
0.105626 0.0712458 0.025 129880
0.107926 0.0727965 0.025 129364
0.110265 0.074374 0.025 128702
0.112644 0.0759789 0.025 127738
0.115063 0.0776111 0.025 127730
0.117524 0.0792709 0.025 127738
0.120026 0.0809585 0.025 128416
0.122569 0.0826741 0.025 129510
0.125155 0.0844179 0.025 130168
0.127782 0.0861901 0.025 130188
0.130451 0.0879908 0.025 129550
0.133163 0.08982 0.025 129174
0.135918 0.0916781 0.025 128773
0.138716 0.0935651 0.025 128995
0.141556 0.095481 0.025 129413
0.14444 0.097426 0.025 129657
0.147367 0.0994004 0.025 128998
0.150337 0.101404 0.025 129443
0.153351 0.103437 0.025 128604
0.156408 0.105498 0.025 127115
0.159508 0.107589 0.025 127738
0.162651 0.10971 0.025 126692
0.165838 0.111859 0.025 124158
0.169069 0.114039 0.025 127441
0.172343 0.116247 0.025 125387
0.175659 0.118483 0.025 124937
0.179018 0.120749 0.025 124241
0.182421 0.123045 0.025 123242
0.185866 0.125368 0.025 122840
0.189353 0.12772 0.025 122343
0.192882 0.1301 0.025 122136
0.196453 0.132509 0.025 122224
0.200065 0.134946 0.025 121485
0.203718 0.13741 0.025 121552
0.207412 0.139901 0.025 121845
0.211146 0.14242 0.025 121138
0.214919 0.144965 0.025 120504
0.218732 0.147537 0.025 121465
0.222583 0.150134 0.025 121292
0.226472 0.152757 0.025 122617
0.230399 0.155406 0.025 122039
0.234362 0.15808 0.025 121869
0.238362 0.160777 0.025 120543
0.242396 0.163498 0.025 120506
0.246466 0.166244 0.025 119817
0.250569 0.169012 0.025 120929
0.254706 0.171801 0.025 120202
0.258874 0.174613 0.025 120501
0.263074 0.177446 0.025 120182
0.267304 0.180299 0.025 120919
0.271564 0.183172 0.025 121396
0.275852 0.186064 0.025 120788
0.280168 0.188975 0.025 121315
0.28451 0.191904 0.025 120878
0.288876 0.19485 0.025 120226
0.293268 0.197812 0.025 121002
0.297683 0.20079 0.025 119868
0.302119 0.203782 0.025 119738
0.306577 0.206788 0.025 120378
0.311054 0.209808 0.025 119488
0.315549 0.212841 0.025 120098
0.320063 0.215885 0.025 119439
0.324591 0.218939 0.025 121007
0.329134 0.222003 0.025 121560
0.333691 0.225077 0.025 121017
0.33826 0.228159 0.025 121965
0.342839 0.231248 0.025 121532
0.347428 0.234343 0.025 122498
0.352025 0.237444 0.025 121037
0.356628 0.240548 0.025 121343
0.361237 0.243658 0.025 121363
0.36585 0.246769 0.025 119664
0.370465 0.249882 0.025 122134
0.375082 0.252996 0.025 120966
0.379698 0.25611 0.025 120138
0.384313 0.259223 0.025 121371
0.388926 0.262333 0.025 120550
0.393534 0.265442 0.025 120990
0.398136 0.268546 0.025 121291
0.40273 0.271645 0.025 120514
0.407317 0.274739 0.025 120377
0.411894 0.277826 0.025 119822
0.41646 0.280906 0.025 121457
0.421014 0.283977 0.025 120570
0.425554 0.28704 0.025 120314
0.430079 0.290092 0.025 120860
0.434588 0.293133 0.025 120573
0.439079 0.296162 0.025 121363
0.443551 0.299179 0.025 120993
0.448004 0.302183 0.025 120911
0.452437 0.305172 0.025 121042
0.456846 0.308146 0.025 121358
0.461232 0.311105 0.025 121227
0.465593 0.314047 0.025 121396
0.469929 0.316971 0.025 120954
0.474238 0.319878 0.025 122141
0.47852 0.322766 0.025 121805
0.482773 0.325635 0.025 121911
0.486996 0.328483 0.025 121454
0.491189 0.331311 0.025 120644
0.49535 0.334118 0.025 121970
